<event>
 5    1  0.4881333E-005  0.2400070E+03  0.7818608E-02  0.1035705E+00
          4   -1    0    0  502    0 -0.00000000000E+00  0.00000000000E+00  0.55234233856E+02  0.55234233856E+02  0.00000000000E+00 0.  1.
         21   -1    0    0  501  502  0.00000000000E+00 -0.00000000000E+00 -0.14183575266E+04  0.14183575266E+04  0.00000000000E+00 0. -1.
        -13    1    1    2    0    0 -0.17135146658E+03  0.17627798114E+03 -0.38469720204E+03  0.45653827897E+03  0.10566000000E+00 0.  1.
         13    1    1    2    0    0  0.16635030473E+03 -0.15947565691E+03 -0.67754358356E+03  0.71566069322E+03  0.10566000000E+00 0. -1.
          4    1    1    2  501    0  0.50011618506E+01 -0.16802324232E+02 -0.30088250717E+03  0.30139278830E+03  0.00000000000E+00 0.  1.
</event>
<event>
 5    1  0.6794207E-005  0.2521508E+03  0.7818608E-02  0.1063506E+00
         21   -1    0    0  501  502  0.00000000000E+00  0.00000000000E+00  0.45391976449E+03  0.45391976449E+03  0.00000000000E+00 0.  1.
          4   -1    0    0  502    0 -0.00000000000E+00 -0.00000000000E+00 -0.67530491625E+03  0.67530491625E+03  0.00000000000E+00 0.  1.
        -13    1    1    2    0    0 -0.10477696434E+02 -0.33443156574E+03 -0.48606347967E+03  0.59009488366E+03  0.10566000000E+00 0.  1.
         13    1    1    2    0    0  0.18991732513E+02  0.88470427628E+02 -0.76471863475E+02  0.11847218887E+03  0.10566000000E+00 0. -1.
          4    1    1    2  501    0 -0.85140360790E+01  0.24596113811E+03  0.34115019139E+03  0.42065760822E+03  0.00000000000E+00 0.  1.
</event>
<event>
 5    1  0.4881333E-005  0.4473697E+03  0.7818608E-02  0.9601447E-01
          4   -1    0    0  502    0 -0.00000000000E+00  0.00000000000E+00  0.18174083812E+04  0.18174083812E+04  0.00000000000E+00 0.  1.
         21   -1    0    0  501  502  0.00000000000E+00 -0.00000000000E+00 -0.43762454003E+03  0.43762454003E+03  0.00000000000E+00 0. -1.
        -13    1    1    2    0    0  0.36632418496E+03  0.19212282048E+03 -0.22512125647E+03  0.47093967546E+03  0.10566000000E+00 0.  1.
         13    1    1    2    0    0 -0.16997940871E+03 -0.43481876691E+03  0.94008684442E+03  0.10496302424E+04  0.10566000000E+00 0. -1.
          4    1    1    2  501    0 -0.19634477625E+03  0.24269594643E+03  0.66481825323E+03  0.73446300343E+03  0.00000000000E+00 0.  1.
</event>
<event>
 5    1  0.4881333E-005  0.3334537E+03  0.7818608E-02  0.9943812E-01
         -4   -1    0    0    0  501 -0.00000000000E+00  0.00000000000E+00  0.18818925119E+04  0.18818925119E+04  0.00000000000E+00 0. -1.
         21   -1    0    0  501  502  0.00000000000E+00 -0.00000000000E+00 -0.25270968353E+03  0.25270968353E+03  0.00000000000E+00 0. -1.
        -13    1    1    2    0    0 -0.31839529915E+03 -0.39863490111E+02  0.50227358119E+03  0.59602300785E+03  0.10566000000E+00 0.  1.
         13    1    1    2    0    0  0.39364888970E+03 -0.21167043790E+03  0.73510508331E+02  0.45295433395E+03  0.10566000000E+00 0. -1.
         -4    1    1    2    0  502 -0.75253590555E+02  0.25153392801E+03  0.10533987389E+04  0.10856248536E+04  0.00000000000E+00 0. -1.
</event>
<event>
 5    1  0.4881333E-005  0.4637749E+02  0.7818608E-02  0.1307284E+00
          4   -1    0    0  502    0 -0.00000000000E+00  0.00000000000E+00  0.79481062853E+02  0.79481062853E+02  0.00000000000E+00 0.  1.
         21   -1    0    0  501  502  0.00000000000E+00 -0.00000000000E+00 -0.42234559586E+03  0.42234559586E+03  0.00000000000E+00 0. -1.
        -13    1    1    2    0    0  0.30231327594E+02 -0.34204295756E+02  0.66118694738E+02  0.80346499451E+02  0.10566000000E+00 0.  1.
         13    1    1    2    0    0 -0.50179352318E+02  0.44916148645E+02 -0.19498912154E+03  0.20629153277E+03  0.10566000000E+00 0. -1.
          4    1    1    2  501    0  0.19948024724E+02 -0.10711852889E+02 -0.21399410621E+03  0.21518862650E+03  0.00000000000E+00 0.  1.
</event>
<event>
 5    1  0.4881333E-005  0.2422270E+03  0.7818608E-02  0.1034501E+00
         21   -1    0    0  501  502  0.00000000000E+00  0.00000000000E+00  0.49805954503E+03  0.49805954503E+03  0.00000000000E+00 0. -1.
          4   -1    0    0  502    0 -0.00000000000E+00 -0.00000000000E+00 -0.12419389520E+03  0.12419389520E+03  0.00000000000E+00 0.  1.
        -13    1    1    2    0    0  0.24322435319E+03 -0.13163778979E+02  0.15413790962E+03  0.28825314813E+03  0.10566000000E+00 0.  1.
         13    1    1    2    0    0 -0.24071433221E+03  0.32605517668E+01  0.20571464544E+03  0.31665840813E+03  0.10566000000E+00 0. -1.
          4    1    1    2  501    0 -0.25100209799E+01  0.99032272126E+01  0.14013094767E+02  0.17341883966E+02  0.00000000000E+00 0.  1.
</event>
<event>
 5    1  0.4881333E-005  0.4210835E+03  0.7818608E-02  0.1018487E+00
         21   -1    0    0  501  502  0.00000000000E+00  0.00000000000E+00  0.17400204679E+03  0.17400204679E+03  0.00000000000E+00 0.  1.
          4   -1    0    0  502    0 -0.00000000000E+00 -0.00000000000E+00 -0.15356695551E+04  0.15356695551E+04  0.00000000000E+00 0.  1.
        -13    1    1    2    0    0 -0.46343905463E+03 -0.17843270892E+01 -0.10096003635E+04  0.11108878640E+04  0.10566000000E+00 0.  1.
         13    1    1    2    0    0  0.59803130909E+02 -0.46723891452E+02 -0.75763702711E+02  0.10723659036E+03  0.10566000000E+00 0. -1.
          4    1    1    2  501    0  0.40363592372E+03  0.48508218541E+02 -0.27630344214E+03  0.49154714760E+03  0.00000000000E+00 0.  1.
</event>
<event>
 5    1  0.4881333E-005  0.4991764E+03  0.7818608E-02  0.9479779E-01
         21   -1    0    0  501  502  0.00000000000E+00  0.00000000000E+00  0.35231970127E+03  0.35231970127E+03  0.00000000000E+00 0. -1.
         -4   -1    0    0    0  501 -0.00000000000E+00 -0.00000000000E+00 -0.26394292326E+04  0.26394292326E+04  0.00000000000E+00 0. -1.
        -13    1    1    2    0    0  0.28467857105E+03 -0.40371219175E+03 -0.16334306925E+04  0.17064938503E+04  0.10566000000E+00 0.  1.
         13    1    1    2    0    0 -0.34478162234E+03  0.42211985766E+03  0.78260375178E+02  0.55062168393E+03  0.10566000000E+00 0. -1.
         -4    1    1    2    0  502  0.60103051288E+02 -0.18407665916E+02 -0.73193921397E+03  0.73463339966E+03  0.00000000000E+00 0. -1.
</event>
<event>
 5    1  0.4881333E-005  0.4972692E+03  0.7818608E-02  0.9688551E-01
         21   -1    0    0  501  502  0.00000000000E+00  0.00000000000E+00  0.17771875738E+03  0.17771875738E+03  0.00000000000E+00 0. -1.
         -4   -1    0    0    0  501 -0.00000000000E+00 -0.00000000000E+00 -0.23071620787E+04  0.23071620787E+04  0.00000000000E+00 0. -1.
        -13    1    1    2    0    0  0.21181966816E+03 -0.11212418938E+03 -0.55936284622E+03  0.60854433738E+03  0.10566000000E+00 0.  1.
         13    1    1    2    0    0  0.11622036041E+03 -0.37838329617E+03 -0.90161831611E+03  0.98468100931E+03  0.10566000000E+00 0. -1.
         -4    1    1    2    0  502 -0.32804002857E+03  0.49050748555E+03 -0.66846215896E+03  0.89165548935E+03  0.00000000000E+00 0. -1.
</event>
<event>
 5    1  0.4881333E-005  0.3572063E+03  0.7818608E-02  0.1008530E+00
         21   -1    0    0  501  502  0.00000000000E+00  0.00000000000E+00  0.32758011235E+03  0.32758011235E+03  0.00000000000E+00 0. -1.
         -4   -1    0    0    0  501 -0.00000000000E+00 -0.00000000000E+00 -0.12410946318E+04  0.12410946318E+04  0.00000000000E+00 0. -1.
        -13    1    1    2    0    0  0.16906872352E+03 -0.24491789739E+02 -0.35131308908E+03  0.39064687220E+03  0.10566000000E+00 0.  1.
         13    1    1    2    0    0  0.25360044848E+03 -0.22112833123E+03  0.10357712007E+03  0.35204993581E+03  0.10566000000E+00 0. -1.
         -4    1    1    2    0  502 -0.42266917200E+03  0.24562012097E+03 -0.66577855047E+03  0.82597793617E+03  0.00000000000E+00 0. -1.
</event>
<event>
 5    1  0.4881333E-005  0.3220869E+03  0.7818608E-02  0.9985836E-01
         21   -1    0    0  501  502  0.00000000000E+00  0.00000000000E+00  0.86508727735E+03  0.86508727735E+03  0.00000000000E+00 0. -1.
          4   -1    0    0  502    0 -0.00000000000E+00 -0.00000000000E+00 -0.23250699635E+03  0.23250699635E+03  0.00000000000E+00 0.  1.
        -13    1    1    2    0    0  0.29343504314E+03 -0.15735872247E+03  0.13136156109E+03  0.35794100489E+03  0.10566000000E+00 0.  1.
         13    1    1    2    0    0 -0.32403756221E+03  0.26058471237E+02  0.13972931156E+03  0.35384131658E+03  0.10566000000E+00 0. -1.
          4    1    1    2  501    0  0.30602519060E+02  0.13130025123E+03  0.36148940834E+03  0.38581195224E+03  0.00000000000E+00 0.  1.
</event>
<event>
 5    1  0.4881333E-005  0.3884061E+03  0.7818608E-02  0.9763139E-01
         21   -1    0    0  501  502  0.00000000000E+00  0.00000000000E+00  0.78059324806E+03  0.78059324806E+03  0.00000000000E+00 0. -1.
         -4   -1    0    0    0  501 -0.00000000000E+00 -0.00000000000E+00 -0.44130282014E+03  0.44130282014E+03  0.00000000000E+00 0. -1.
        -13    1    1    2    0    0  0.16639857367E+03 -0.36185557407E+03 -0.81239564606E+02  0.40648225032E+03  0.10566000000E+00 0.  1.
         13    1    1    2    0    0 -0.19935770251E+03  0.32214494448E+03 -0.12764930038E+02  0.37905647786E+03  0.10566000000E+00 0. -1.
         -4    1    1    2    0  502  0.32959128835E+02  0.39710629582E+02  0.43329492256E+03  0.43635734003E+03  0.00000000000E+00 0. -1.
</event>
<event>
 5    1  0.4881333E-005  0.1964142E+02  0.7818608E-02  0.1514904E+00
         -4   -1    0    0    0  501 -0.00000000000E+00  0.00000000000E+00  0.86296565695E+02  0.86296565695E+02  0.00000000000E+00 0. -1.
         21   -1    0    0  501  502  0.00000000000E+00 -0.00000000000E+00 -0.38541372333E+02  0.38541372333E+02  0.00000000000E+00 0.  1.
        -13    1    1    2    0    0  0.20422902113E+02  0.15459896988E+02 -0.24979897819E+02  0.35778622174E+02  0.10566000000E+00 0.  1.
         13    1    1    2    0    0 -0.10123432820E+02 -0.16629026141E+02  0.75791911384E+02  0.78252369918E+02  0.10566000000E+00 0. -1.
         -4    1    1    2    0  502 -0.10299469293E+02  0.11691291531E+01 -0.30568202043E+01  0.10806945936E+02  0.00000000000E+00 0. -1.
</event>
<event>
 5    1  0.4881333E-005  0.7141624E+03  0.7818608E-02  0.9102683E-01
         -4   -1    0    0    0  501 -0.00000000000E+00  0.00000000000E+00  0.38572424531E+03  0.38572424531E+03  0.00000000000E+00 0. -1.
         21   -1    0    0  501  502  0.00000000000E+00 -0.00000000000E+00 -0.21927021749E+04  0.21927021749E+04  0.00000000000E+00 0.  1.
        -13    1    1    2    0    0 -0.63054718983E+03 -0.28933820978E+02 -0.43062769439E+03  0.76411199895E+03  0.10566000000E+00 0.  1.
         13    1    1    2    0    0  0.83377793865E+03 -0.34272788216E+02 -0.65097882330E+03  0.10583636967E+04  0.10566000000E+00 0. -1.
         -4    1    1    2    0  502 -0.20323074882E+03  0.63206609194E+02 -0.72537141194E+03  0.75595072457E+03  0.00000000000E+00 0. -1.
</event>
<event>
 5    1  0.4881333E-005  0.4557259E+03  0.7818608E-02  0.9785553E-01
          4   -1    0    0  502    0 -0.00000000000E+00  0.00000000000E+00  0.23938188132E+04  0.23938188132E+04  0.00000000000E+00 0.  1.
         21   -1    0    0  501  502  0.00000000000E+00 -0.00000000000E+00 -0.17734564094E+03  0.17734564094E+03  0.00000000000E+00 0.  1.
        -13    1    1    2    0    0 -0.41301110484E+03  0.21381600404E+02  0.38925657466E+03  0.56794017083E+03  0.10566000000E+00 0.  1.
         13    1    1    2    0    0 -0.14264051742E+03 -0.17096252368E+03  0.74465824625E+03  0.77723253701E+03  0.10566000000E+00 0. -1.
          4    1    1    2  501    0  0.55565162226E+03  0.14958092328E+03  0.10825583513E+04  0.12259917463E+04  0.00000000000E+00 0.  1.
</event>
<event>
 5    1  0.4881333E-005  0.1658387E+03  0.7818608E-02  0.1086462E+00
         21   -1    0    0  501  502  0.00000000000E+00  0.00000000000E+00  0.96735584397E+02  0.96735584397E+02  0.00000000000E+00 0. -1.
          4   -1    0    0  502    0 -0.00000000000E+00 -0.00000000000E+00 -0.94213283769E+03  0.94213283769E+03  0.00000000000E+00 0.  1.
        -13    1    1    2    0    0  0.22057927397E+02 -0.16809614935E+03 -0.82380358316E+03  0.84106790593E+03  0.10566000000E+00 0.  1.
         13    1    1    2    0    0 -0.24022278141E+01  0.14490495512E+03 -0.52791299658E+02  0.15424055627E+03  0.10566000000E+00 0. -1.
          4    1    1    2  501    0 -0.19655699583E+02  0.23191194235E+02  0.31197629534E+02  0.43559959879E+02  0.00000000000E+00 0.  1.
</event>
<event>
 5    1  0.4881333E-005  0.1134991E+03  0.7818608E-02  0.1171131E+00
          4   -1    0    0  502    0 -0.00000000000E+00  0.00000000000E+00  0.65481478761E+02  0.65481478761E+02  0.00000000000E+00 0.  1.
         21   -1    0    0  501  502  0.00000000000E+00 -0.00000000000E+00 -0.38473078217E+03  0.38473078217E+03  0.00000000000E+00 0.  1.
        -13    1    1    2    0    0 -0.10909062542E+02  0.12776615738E+03 -0.11068287119E+03  0.16939276181E+03  0.10566000000E+00 0.  1.
         13    1    1    2    0    0  0.52588223281E+02 -0.25382527245E+02 -0.19053861813E+02  0.61423568207E+02  0.10566000000E+00 0. -1.
          4    1    1    2  501    0 -0.41679160739E+02 -0.10238363013E+03 -0.18951257041E+03  0.21939593091E+03  0.00000000000E+00 0.  1.
</event>
<event>
 5    1  0.4881333E-005  0.3875222E+03  0.7818608E-02  0.1034748E+00
         21   -1    0    0  501  502  0.00000000000E+00  0.00000000000E+00  0.62153743183E+03  0.62153743183E+03  0.00000000000E+00 0. -1.
         -4   -1    0    0    0  501 -0.00000000000E+00 -0.00000000000E+00 -0.60969142306E+03  0.60969142306E+03  0.00000000000E+00 0. -1.
        -13    1    1    2    0    0  0.49415364957E+02  0.31701941592E+02 -0.20835685491E+03  0.21647050964E+03  0.10566000000E+00 0.  1.
         13    1    1    2    0    0  0.37540584458E+02 -0.40536949100E+03 -0.19332159616E+03  0.45067390697E+03  0.10566000000E+00 0. -1.
         -4    1    1    2    0  502 -0.86955949416E+02  0.37366754941E+03  0.41352445984E+03  0.56408443828E+03  0.00000000000E+00 0. -1.
</event>
<event>
 5    1  0.4881333E-005  0.9362851E+02  0.7818608E-02  0.1183014E+00
         -4   -1    0    0    0  501 -0.00000000000E+00  0.00000000000E+00  0.50201026101E+03  0.50201026101E+03  0.00000000000E+00 0. -1.
         21   -1    0    0  501  502  0.00000000000E+00 -0.00000000000E+00 -0.43262225827E+03  0.43262225827E+03  0.00000000000E+00 0. -1.
        -13    1    1    2    0    0  0.75018440602E+02 -0.23196159029E+02  0.11672859286E+02  0.79385735696E+02  0.10566000000E+00 0.  1.
         13    1    1    2    0    0 -0.18898819526E+02  0.98538615388E+02  0.44528713344E+03  0.45645116548E+03  0.10566000000E+00 0. -1.
         -4    1    1    2    0  502 -0.56119621076E+02 -0.75342456359E+02 -0.38757198999E+03  0.39879561811E+03  0.00000000000E+00 0. -1.
</event>
<event>
 5    1  0.4881333E-005  0.4694730E+03  0.7818608E-02  0.9560708E-01
         21   -1    0    0  501  502  0.00000000000E+00  0.00000000000E+00  0.26080034300E+04  0.26080034300E+04  0.00000000000E+00 0.  1.
         -4   -1    0    0    0  501 -0.00000000000E+00 -0.00000000000E+00 -0.23778031070E+03  0.23778031070E+03  0.00000000000E+00 0. -1.
        -13    1    1    2    0    0 -0.28840856589E+02  0.44681108210E+03  0.98315454406E+03  0.10803077371E+04  0.10566000000E+00 0.  1.
         13    1    1    2    0    0 -0.45269077993E+03 -0.23054010594E+03  0.96137647927E+03  0.10873465081E+04  0.10566000000E+00 0. -1.
         -4    1    1    2    0  502  0.48153163651E+03 -0.21627097616E+03  0.42569209594E+03  0.67812949548E+03  0.00000000000E+00 0. -1.
</event>
<event>
 5    1  0.4881333E-005  0.1581265E+03  0.7818608E-02  0.1093363E+00
         21   -1    0    0  501  502  0.00000000000E+00  0.00000000000E+00  0.42827869136E+03  0.42827869136E+03  0.00000000000E+00 0.  1.
         -4   -1    0    0    0  501 -0.00000000000E+00 -0.00000000000E+00 -0.34389547288E+03  0.34389547288E+03  0.00000000000E+00 0. -1.
        -13    1    1    2    0    0 -0.11753725845E+03 -0.54981707377E+02  0.21763668832E+03  0.25338455860E+03  0.10566000000E+00 0.  1.
         13    1    1    2    0    0  0.14676745182E+03  0.65003651853E+02 -0.30479907355E+03  0.34448315789E+03  0.10566000000E+00 0. -1.
         -4    1    1    2    0  502 -0.29230193374E+02 -0.10021944476E+02  0.17154560371E+03  0.17430644776E+03  0.00000000000E+00 0. -1.
</event>
<event>
 5    1  0.4881333E-005  0.2974692E+02  0.7818608E-02  0.1407987E+00
         21   -1    0    0  501  502  0.00000000000E+00  0.00000000000E+00  0.38608602623E+02  0.38608602623E+02  0.00000000000E+00 0.  1.
          4   -1    0    0  502    0 -0.00000000000E+00 -0.00000000000E+00 -0.19870699338E+03  0.19870699338E+03  0.00000000000E+00 0.  1.
        -13    1    1    2    0    0 -0.17586425991E+02  0.24490615343E+02 -0.16349671665E+03  0.16625360188E+03  0.10566000000E+00 0.  1.
         13    1    1    2    0    0 -0.10692793038E+02 -0.34512041818E+02 -0.11021348525E+02  0.37774305298E+02  0.10566000000E+00 0. -1.
          4    1    1    2  501    0  0.28279219030E+02  0.10021426475E+02  0.14419674412E+02  0.33287688830E+02  0.00000000000E+00 0.  1.
</event>
<event>
 5    1  0.4881333E-005  0.9421827E+02  0.7818608E-02  0.1174493E+00
          4   -1    0    0  502    0 -0.00000000000E+00  0.00000000000E+00  0.52618679619E+02  0.52618679619E+02  0.00000000000E+00 0.  1.
         21   -1    0    0  501  502  0.00000000000E+00 -0.00000000000E+00 -0.23369344820E+03  0.23369344820E+03  0.00000000000E+00 0. -1.
        -13    1    1    2    0    0  0.89117559983E+02  0.27418902455E+02 -0.11215113675E+03  0.14584794941E+03  0.10566000000E+00 0.  1.
         13    1    1    2    0    0 -0.85716463631E+02 -0.41107286649E+02 -0.30981005984E+02  0.99984774085E+02  0.10566000000E+00 0. -1.
          4    1    1    2  501    0 -0.34010963526E+01  0.13688384194E+02 -0.37942625852E+02  0.40479404329E+02  0.00000000000E+00 0.  1.
</event>
<event>
 5    1  0.4881333E-005  0.7887960E+02  0.7818608E-02  0.1205185E+00
         21   -1    0    0  501  502  0.00000000000E+00  0.00000000000E+00  0.69370812246E+02  0.69370812246E+02  0.00000000000E+00 0.  1.
         -4   -1    0    0    0  501 -0.00000000000E+00 -0.00000000000E+00 -0.11838314831E+03  0.11838314831E+03  0.00000000000E+00 0. -1.
        -13    1    1    2    0    0  0.95129872302E+01  0.71721708786E+02 -0.31149272753E+02  0.78770481745E+02  0.10566000000E+00 0.  1.
         13    1    1    2    0    0 -0.41673555685E+01 -0.88646934705E+02 -0.20384486268E+02  0.91055940660E+02  0.10566000000E+00 0. -1.
         -4    1    1    2    0  502 -0.53456316617E+01  0.16925225919E+02  0.25214229612E+01  0.17927538147E+02  0.00000000000E+00 0. -1.
</event>
<event>
 5    1  0.4881333E-005  0.1251445E+03  0.7818608E-02  0.1128584E+00
         21   -1    0    0  501  502  0.00000000000E+00  0.00000000000E+00  0.12511222292E+03  0.12511222292E+03  0.00000000000E+00 0.  1.
         -4   -1    0    0    0  501 -0.00000000000E+00 -0.00000000000E+00 -0.28102278043E+03  0.28102278043E+03  0.00000000000E+00 0. -1.
        -13    1    1    2    0    0 -0.11849777611E+03  0.67187923046E+02  0.46852736028E+02  0.14405252508E+03  0.10566000000E+00 0.  1.
         13    1    1    2    0    0  0.10636929872E+03 -0.62206922098E+02 -0.21257403366E+03  0.24570685749E+03  0.10566000000E+00 0. -1.
         -4    1    1    2    0  502  0.12128477386E+02 -0.49810009479E+01  0.98107401208E+01  0.16375620778E+02  0.00000000000E+00 0. -1.
</event>
<event>
 5    1  0.4881333E-005  0.7066576E+02  0.7818608E-02  0.1224991E+00
          4   -1    0    0  502    0 -0.00000000000E+00  0.00000000000E+00  0.91593076760E+02  0.91593076760E+02  0.00000000000E+00 0.  1.
         21   -1    0    0  501  502  0.00000000000E+00 -0.00000000000E+00 -0.54620500563E+03  0.54620500563E+03  0.00000000000E+00 0.  1.
        -13    1    1    2    0    0 -0.71606444811E+02  0.61022202537E+02 -0.37614362425E+02  0.10132148620E+03  0.10566000000E+00 0.  1.
         13    1    1    2    0    0  0.33295507096E+02 -0.56419631326E+02  0.40719930074E+02  0.77135526581E+02  0.10566000000E+00 0. -1.
          4    1    1    2  501    0  0.38310937714E+02 -0.46025712112E+01 -0.45771749652E+03  0.45934106961E+03  0.00000000000E+00 0.  1.
</event>
<event>
 5    1  0.4881333E-005  0.4620384E+03  0.7818608E-02  0.9772503E-01
         -4   -1    0    0    0  501 -0.00000000000E+00  0.00000000000E+00  0.15467899410E+04  0.15467899410E+04  0.00000000000E+00 0. -1.
         21   -1    0    0  501  502  0.00000000000E+00 -0.00000000000E+00 -0.24784485314E+03  0.24784485314E+03  0.00000000000E+00 0. -1.
        -13    1    1    2    0    0 -0.17073364297E+03  0.14411766126E+03  0.35735722804E+03  0.42145471491E+03  0.10566000000E+00 0.  1.
         13    1    1    2    0    0  0.94669714304E+02 -0.55657812882E+03  0.65738797314E+03  0.86654516713E+03  0.10566000000E+00 0. -1.
         -4    1    1    2    0  502  0.76063928662E+02  0.41246046756E+03  0.28419988665E+03  0.50663491206E+03  0.00000000000E+00 0. -1.
</event>
<event>
 5    1  0.4881333E-005  0.2856618E+03  0.7818608E-02  0.1014321E+00
         21   -1    0    0  501  502  0.00000000000E+00  0.00000000000E+00  0.28170276479E+03  0.28170276479E+03  0.00000000000E+00 0. -1.
         -4   -1    0    0    0  501 -0.00000000000E+00 -0.00000000000E+00 -0.17198778508E+04  0.17198778508E+04  0.00000000000E+00 0. -1.
        -13    1    1    2    0    0 -0.11812972284E+03  0.25104101258E+03 -0.64315542233E+03  0.70044637900E+03  0.10566000000E+00 0.  1.
         13    1    1    2    0    0  0.15424385236E+02  0.26271242525E+03  0.85353003371E+02  0.27666021830E+03  0.10566000000E+00 0. -1.
         -4    1    1    2    0  502  0.10270533761E+03 -0.51375343782E+03 -0.88037266702E+03  0.10244740183E+04  0.00000000000E+00 0. -1.
</event>
<event>
 5    1  0.4881333E-005  0.1167714E+03  0.7818608E-02  0.1139448E+00
         21   -1    0    0  501  502  0.00000000000E+00  0.00000000000E+00  0.60797534512E+02  0.60797534512E+02  0.00000000000E+00 0. -1.
         -4   -1    0    0    0  501 -0.00000000000E+00 -0.00000000000E+00 -0.48191651017E+03  0.48191651017E+03  0.00000000000E+00 0. -1.
        -13    1    1    2    0    0  0.10115569112E+03 -0.66533095266E+02 -0.30078419659E+03  0.32423798466E+03  0.10566000000E+00 0.  1.
         13    1    1    2    0    0 -0.11530766844E+03  0.61424286734E+01 -0.53401268537E+02  0.12722143874E+03  0.10566000000E+00 0. -1.
         -4    1    1    2    0  502  0.14151977320E+02  0.60390666593E+02 -0.66933510528E+02  0.91254621281E+02  0.00000000000E+00 0. -1.
</event>
<event>
 5    1  0.4881333E-005  0.1591350E+03  0.7818608E-02  0.1092436E+00
         21   -1    0    0  501  502  0.00000000000E+00  0.00000000000E+00  0.38994156672E+03  0.38994156672E+03  0.00000000000E+00 0. -1.
          4   -1    0    0  502    0 -0.00000000000E+00 -0.00000000000E+00 -0.89944808153E+02  0.89944808153E+02  0.00000000000E+00 0.  1.
        -13    1    1    2    0    0  0.57792980144E+02 -0.14900680991E+03  0.40292697369E+02  0.16482284605E+03  0.10566000000E+00 0.  1.
         13    1    1    2    0    0 -0.45210856469E+02  0.15132376486E+03  0.20444155224E+03  0.25833943331E+03  0.10566000000E+00 0. -1.
          4    1    1    2  501    0 -0.12582123674E+02 -0.23169549487E+01  0.55262508956E+02  0.56724095520E+02  0.00000000000E+00 0.  1.
</event>
<event>
 5    1  0.4881333E-005  0.5712984E+02  0.7818608E-02  0.1265203E+00
         -4   -1    0    0    0  501 -0.00000000000E+00  0.00000000000E+00  0.14697546041E+03  0.14697546041E+03  0.00000000000E+00 0. -1.
         21   -1    0    0  501  502  0.00000000000E+00 -0.00000000000E+00 -0.46754067772E+02  0.46754067772E+02  0.00000000000E+00 0.  1.
        -13    1    1    2    0    0 -0.57108152724E+02  0.47092597013E+02  0.21416256759E+02  0.77056609181E+02  0.10566000000E+00 0.  1.
         13    1    1    2    0    0  0.31772999813E+02 -0.41721825242E+02  0.73411370086E+02  0.90219037019E+02  0.10566000000E+00 0. -1.
         -4    1    1    2    0  502  0.25335152910E+02 -0.53707717711E+01  0.53937657915E+01  0.26453881980E+02  0.00000000000E+00 0. -1.
</event>
<event>
 5    1  0.4881333E-005  0.1405191E+03  0.7818608E-02  0.1110858E+00
         21   -1    0    0  501  502  0.00000000000E+00  0.00000000000E+00  0.41264125345E+03  0.41264125345E+03  0.00000000000E+00 0. -1.
         -4   -1    0    0    0  501 -0.00000000000E+00 -0.00000000000E+00 -0.28681208108E+03  0.28681208108E+03  0.00000000000E+00 0. -1.
        -13    1    1    2    0    0  0.12722572157E+02 -0.17432022285E+03  0.54534020048E+02  0.18309389515E+03  0.10566000000E+00 0.  1.
         13    1    1    2    0    0 -0.66458166290E+02  0.11948159424E+03 -0.19559691234E+03  0.23864346316E+03  0.10566000000E+00 0. -1.
         -4    1    1    2    0  502  0.53735594133E+02  0.54838628609E+02  0.26689206467E+03  0.27771597622E+03  0.00000000000E+00 0. -1.
</event>
<event>
 5    1  0.4881333E-005  0.4360583E+03  0.7818608E-02  0.9713266E-01
         21   -1    0    0  501  502  0.00000000000E+00  0.00000000000E+00  0.34513395210E+03  0.34513395210E+03  0.00000000000E+00 0.  1.
          4   -1    0    0  502    0 -0.00000000000E+00 -0.00000000000E+00 -0.17464964593E+04  0.17464964593E+04  0.00000000000E+00 0.  1.
        -13    1    1    2    0    0 -0.44849171404E+03  0.18107944896E+03  0.34174780734E+02  0.48487370644E+03  0.10566000000E+00 0.  1.
         13    1    1    2    0    0  0.28435641305E+03  0.15966616775E+03 -0.84209242845E+03  0.90303461948E+03  0.10566000000E+00 0. -1.
          4    1    1    2  501    0  0.16413530099E+03 -0.34074561671E+03 -0.59344485948E+03  0.70372208547E+03  0.00000000000E+00 0.  1.
</event>
<event>
 5    1  0.4881333E-005  0.1316331E+03  0.7818608E-02  0.1120784E+00
         -4   -1    0    0    0  501 -0.00000000000E+00  0.00000000000E+00  0.72047025545E+03  0.72047025545E+03  0.00000000000E+00 0. -1.
         21   -1    0    0  501  502  0.00000000000E+00 -0.00000000000E+00 -0.28365997781E+03  0.28365997781E+03  0.00000000000E+00 0.  1.
        -13    1    1    2    0    0  0.56962136087E+02  0.11946846567E+03 -0.16952535971E+03  0.21507268071E+03  0.10566000000E+00 0.  1.
         13    1    1    2    0    0 -0.12283989999E+03 -0.50322304264E+02  0.66423709349E+03  0.67737205646E+03  0.10566000000E+00 0. -1.
         -4    1    1    2    0  502  0.65877763905E+02 -0.69146161410E+02 -0.57901456139E+02  0.11168549609E+03  0.00000000000E+00 0. -1.
</event>
<event>
 5    1  0.4881333E-005  0.1302909E+03  0.7818608E-02  0.1132991E+00
         -4   -1    0    0    0  501 -0.00000000000E+00  0.00000000000E+00  0.11416129510E+03  0.11416129510E+03  0.00000000000E+00 0. -1.
         21   -1    0    0  501  502  0.00000000000E+00 -0.00000000000E+00 -0.11472390891E+04  0.11472390891E+04  0.00000000000E+00 0. -1.
        -13    1    1    2    0    0 -0.84451912022E+02 -0.51743794782E+02 -0.24213279299E+03  0.26160628117E+03  0.10566000000E+00 0.  1.
         13    1    1    2    0    0  0.13338055980E+03  0.16820122744E+03 -0.16703913714E+02  0.21531618272E+03  0.10566000000E+00 0. -1.
         -4    1    1    2    0  502 -0.48928647780E+02 -0.11645743266E+03 -0.77424108733E+03  0.78447792035E+03  0.00000000000E+00 0. -1.
</event>
<event>
 5    1  0.4881333E-005  0.4392998E+03  0.7818608E-02  0.9887336E-01
         -4   -1    0    0    0  501 -0.00000000000E+00  0.00000000000E+00  0.59114561406E+03  0.59114561406E+03  0.00000000000E+00 0. -1.
         21   -1    0    0  501  502  0.00000000000E+00 -0.00000000000E+00 -0.72827641636E+03  0.72827641636E+03  0.00000000000E+00 0. -1.
        -13    1    1    2    0    0  0.11972959576E+03  0.12907652519E+03  0.19182023560E+03  0.26036693224E+03  0.10566000000E+00 0.  1.
         13    1    1    2    0    0 -0.49445490082E+03  0.71214922496E+02  0.33346588219E+02  0.50066877298E+03  0.10566000000E+00 0. -1.
         -4    1    1    2    0  502  0.37472530506E+03 -0.20029144768E+03 -0.36229762612E+03  0.55838632519E+03  0.00000000000E+00 0. -1.
</event>
<event>
 5    1  0.4881333E-005  0.5736493E+02  0.7818608E-02  0.1264401E+00
         21   -1    0    0  501  502  0.00000000000E+00  0.00000000000E+00  0.10222586436E+04  0.10222586436E+04  0.00000000000E+00 0.  1.
          4   -1    0    0  502    0 -0.00000000000E+00 -0.00000000000E+00 -0.40204338674E+02  0.40204338674E+02  0.00000000000E+00 0.  1.
        -13    1    1    2    0    0  0.27725062743E+02  0.52686083461E+02 -0.45621107756E+01  0.59710355160E+02  0.10566000000E+00 0.  1.
         13    1    1    2    0    0 -0.11687982999E+02 -0.50712424210E+02  0.76678496945E+02  0.92671257537E+02  0.10566000000E+00 0. -1.
          4    1    1    2  501    0 -0.16037079744E+02 -0.19736592512E+01  0.90993791871E+03  0.91008136953E+03  0.00000000000E+00 0.  1.
</event>
<event>
 5    1  0.6918422E-005  0.2951441E+03  0.7818608E-02  0.1009330E+00
         21   -1    0    0  501  502  0.00000000000E+00  0.00000000000E+00  0.30661010953E+03  0.30661010953E+03  0.00000000000E+00 0. -1.
         -4   -1    0    0    0  501 -0.00000000000E+00 -0.00000000000E+00 -0.14275723386E+04  0.14275723386E+04  0.00000000000E+00 0. -1.
        -13    1    1    2    0    0 -0.18282867672E+02  0.26459393502E+03 -0.10908001162E+03  0.28677983506E+03  0.10566000000E+00 0.  1.
         13    1    1    2    0    0  0.72958352985E+01 -0.36783666954E+03  0.58036149025E+02  0.37245838752E+03  0.10566000000E+00 0. -1.
         -4    1    1    2    0  502  0.10987032373E+02  0.10324273452E+03 -0.10699183665E+04  0.10749442255E+04  0.00000000000E+00 0. -1.
</event>
<event>
 5    1  0.4881333E-005  0.4490271E+03  0.7818608E-02  0.9694200E-01
         21   -1    0    0  501  502  0.00000000000E+00  0.00000000000E+00  0.10645399465E+04  0.10645399465E+04  0.00000000000E+00 0.  1.
          4   -1    0    0  502    0 -0.00000000000E+00 -0.00000000000E+00 -0.52209703326E+03  0.52209703326E+03  0.00000000000E+00 0.  1.
        -13    1    1    2    0    0 -0.39229147927E+03 -0.27438718470E+03  0.70640337257E+02  0.48391218237E+03  0.10566000000E+00 0.  1.
         13    1    1    2    0    0  0.26577537085E+03 -0.17670419433E+03 -0.12607377678E+03  0.34315525407E+03  0.10566000000E+00 0. -1.
          4    1    1    2  501    0  0.12651610842E+03  0.45109137903E+03  0.59787635274E+03  0.75956954329E+03  0.00000000000E+00 0.  1.
</event>
<event>
 5    1  0.4881333E-005  0.5153853E+03  0.7818608E-02  0.9619864E-01
         -4   -1    0    0    0  501 -0.00000000000E+00  0.00000000000E+00  0.14948846041E+04  0.14948846041E+04  0.00000000000E+00 0. -1.
         21   -1    0    0  501  502  0.00000000000E+00 -0.00000000000E+00 -0.56095727547E+03  0.56095727547E+03  0.00000000000E+00 0. -1.
        -13    1    1    2    0    0 -0.11136259234E+03  0.25043932059E+03  0.94984377619E+03  0.98859733491E+03  0.10566000000E+00 0.  1.
         13    1    1    2    0    0 -0.15180071374E+03  0.35147325744E+03  0.11003384411E+03  0.39835206213E+03  0.10566000000E+00 0. -1.
         -4    1    1    2    0  502  0.26316330608E+03 -0.60191257803E+03 -0.12595029164E+03  0.66889248256E+03  0.00000000000E+00 0. -1.
</event>
<event>
 5    1  0.4881333E-005  0.3883393E+03  0.7818608E-02  0.9763339E-01
         21   -1    0    0  501  502  0.00000000000E+00  0.00000000000E+00  0.74758374207E+03  0.74758374207E+03  0.00000000000E+00 0.  1.
         -4   -1    0    0    0  501 -0.00000000000E+00 -0.00000000000E+00 -0.39833693082E+03  0.39833693082E+03  0.00000000000E+00 0. -1.
        -13    1    1    2    0    0  0.76957769830E+02 -0.32685823142E+03 -0.26951392432E+02  0.33687563062E+03  0.10566000000E+00 0.  1.
         13    1    1    2    0    0 -0.73174469081E+02  0.50225172027E+03  0.16329963668E+03  0.53317734005E+03  0.10566000000E+00 0. -1.
         -4    1    1    2    0  502 -0.37833007484E+01 -0.17539348885E+03  0.21289856701E+03  0.27586770222E+03  0.00000000000E+00 0. -1.
</event>
<event>
 5    1  0.4881333E-005  0.4580786E+03  0.7818608E-02  0.9706632E-01
          4   -1    0    0  502    0 -0.00000000000E+00  0.00000000000E+00  0.19060096218E+04  0.19060096218E+04  0.00000000000E+00 0.  1.
         21   -1    0    0  501  502  0.00000000000E+00 -0.00000000000E+00 -0.40229921038E+03  0.40229921038E+03  0.00000000000E+00 0.  1.
        -13    1    1    2    0    0 -0.39119000457E+03 -0.26885351210E+03  0.34651441822E+03  0.58769386916E+03  0.10566000000E+00 0.  1.
         13    1    1    2    0    0 -0.87202761613E+02  0.27434744911E+03  0.12058380399E+04  0.12397242573E+04  0.10566000000E+00 0. -1.
          4    1    1    2  501    0  0.47839276618E+03 -0.54939370072E+01 -0.48642046777E+02  0.48089070566E+03  0.00000000000E+00 0.  1.
</event>
<event>
 5    1  0.4881333E-005  0.4524419E+03  0.7818608E-02  0.9708573E-01
         21   -1    0    0  501  502  0.00000000000E+00  0.00000000000E+00  0.28947816350E+03  0.28947816350E+03  0.00000000000E+00 0. -1.
         -4   -1    0    0    0  501 -0.00000000000E+00 -0.00000000000E+00 -0.23502463737E+04  0.23502463737E+04  0.00000000000E+00 0. -1.
        -13    1    1    2    0    0  0.17389655680E+03  0.24046824560E+03 -0.13628732653E+04  0.13948077064E+04  0.10566000000E+00 0.  1.
         13    1    1    2    0    0 -0.49704417517E+03 -0.15459165684E+03 -0.59060417346E+02  0.52386986599E+03  0.10566000000E+00 0. -1.
         -4    1    1    2    0  502  0.32314761837E+03 -0.85876588754E+02 -0.63883452754E+03  0.72104696471E+03  0.00000000000E+00 0. -1.
</event>
<event>
 5    1  0.4881333E-005  0.5338174E+02  0.7818608E-02  0.1279772E+00
         21   -1    0    0  501  502  0.00000000000E+00  0.00000000000E+00  0.71039426845E+02  0.71039426845E+02  0.00000000000E+00 0.  1.
         -4   -1    0    0    0  501 -0.00000000000E+00 -0.00000000000E+00 -0.12776881326E+03  0.12776881326E+03  0.00000000000E+00 0. -1.
        -13    1    1    2    0    0  0.53568134381E+01  0.56851980563E+02 -0.62911741061E+02  0.84963177151E+02  0.10566000000E+00 0.  1.
         13    1    1    2    0    0  0.45389596697E+02 -0.38357382252E+02  0.69228340070E+01  0.59828430167E+02  0.10566000000E+00 0. -1.
         -4    1    1    2    0  502 -0.50746410135E+02 -0.18494598311E+02 -0.74047936375E+00  0.54016632790E+02  0.00000000000E+00 0. -1.
</event>
<event>
 5    1  0.4881333E-005  0.5804226E+03  0.7818608E-02  0.9317236E-01
         -4   -1    0    0    0  501 -0.00000000000E+00  0.00000000000E+00  0.13957793428E+04  0.13957793428E+04  0.00000000000E+00 0. -1.
         21   -1    0    0  501  502  0.00000000000E+00 -0.00000000000E+00 -0.48868679960E+03  0.48868679960E+03  0.00000000000E+00 0. -1.
        -13    1    1    2    0    0  0.17786332065E+03 -0.46851768592E+03  0.48153331136E+03  0.69499534097E+03  0.10566000000E+00 0.  1.
         13    1    1    2    0    0 -0.87966747008E+02  0.77814968337E+03  0.35299404369E+03  0.85898770908E+03  0.10566000000E+00 0. -1.
         -4    1    1    2    0  502 -0.89896573644E+02 -0.30963199745E+03  0.72565188161E+02  0.33048309236E+03  0.00000000000E+00 0. -1.
</event>
<event>
 5    1  0.4881333E-005  0.2067824E+03  0.7818608E-02  0.1055583E+00
         21   -1    0    0  501  502  0.00000000000E+00  0.00000000000E+00  0.16240379900E+03  0.16240379900E+03  0.00000000000E+00 0. -1.
          4   -1    0    0  502    0 -0.00000000000E+00 -0.00000000000E+00 -0.49001321557E+03  0.49001321557E+03  0.00000000000E+00 0.  1.
        -13    1    1    2    0    0 -0.43652032889E+02  0.24500460944E+03 -0.31000527933E+03  0.39753747370E+03  0.10566000000E+00 0.  1.
         13    1    1    2    0    0 -0.28170327712E-01 -0.14511357625E+03 -0.14138006006E+02  0.14580070364E+03  0.10566000000E+00 0. -1.
          4    1    1    2  501    0  0.43680203217E+02 -0.99891033196E+02 -0.34661312427E+01  0.10907883723E+03  0.00000000000E+00 0.  1.
</event>
<event>
 5    1  0.4881333E-005  0.4683146E+03  0.7818608E-02  0.1001776E+00
         21   -1    0    0  501  502  0.00000000000E+00  0.00000000000E+00  0.17658632910E+03  0.17658632910E+03  0.00000000000E+00 0.  1.
          4   -1    0    0  502    0 -0.00000000000E+00 -0.00000000000E+00 -0.17602904080E+04  0.17602904080E+04  0.00000000000E+00 0.  1.
        -13    1    1    2    0    0 -0.16139502318E+03  0.40449003788E+03 -0.99079641623E+03  0.10822837400E+04  0.10566000000E+00 0.  1.
         13    1    1    2    0    0  0.62054991542E+02  0.71106096979E+02 -0.22861515625E+03  0.24732933476E+03  0.10566000000E+00 0. -1.
          4    1    1    2  501    0  0.99340031638E+02 -0.47559613486E+03 -0.36429250638E+03  0.60726366232E+03  0.00000000000E+00 0.  1.
</event>
<event>
 5    1  0.4881333E-005  0.1397320E+03  0.7818608E-02  0.1111704E+00
         21   -1    0    0  501  502  0.00000000000E+00  0.00000000000E+00  0.36084991698E+02  0.36084991698E+02  0.00000000000E+00 0.  1.
          4   -1    0    0  502    0 -0.00000000000E+00 -0.00000000000E+00 -0.10193284066E+04  0.10193284066E+04  0.00000000000E+00 0.  1.
        -13    1    1    2    0    0  0.12720858547E+03 -0.12577908267E+03 -0.61110209646E+03  0.63674813335E+03  0.10566000000E+00 0.  1.
         13    1    1    2    0    0 -0.95380152120E+02  0.48235718580E+02 -0.23059956145E+03  0.25416574685E+03  0.10566000000E+00 0. -1.
          4    1    1    2  501    0 -0.31828433351E+02  0.77543364087E+02 -0.14154175694E+03  0.16449951806E+03  0.00000000000E+00 0.  1.
</event>
<event>
 5    1  0.4881333E-005  0.4948998E+03  0.7818608E-02  0.9646397E-01
         21   -1    0    0  501  502  0.00000000000E+00  0.00000000000E+00  0.56324225827E+03  0.56324225827E+03  0.00000000000E+00 0. -1.
         -4   -1    0    0    0  501 -0.00000000000E+00 -0.00000000000E+00 -0.21151302397E+04  0.21151302397E+04  0.00000000000E+00 0. -1.
        -13    1    1    2    0    0  0.12790453978E+00 -0.28185282333E+03 -0.16143073841E+04  0.16387279737E+04  0.10566000000E+00 0.  1.
         13    1    1    2    0    0 -0.44015305286E+03 -0.10427178287E+03  0.30027131138E+02  0.45333095462E+03  0.10566000000E+00 0. -1.
         -4    1    1    2    0  502  0.44002514832E+03  0.38612460620E+03  0.32392271521E+02  0.58631356963E+03  0.00000000000E+00 0. -1.
</event>
<event>
 5    1  0.4881333E-005  0.3103036E+03  0.7818608E-02  0.1096531E+00
          4   -1    0    0  502    0 -0.00000000000E+00  0.00000000000E+00  0.18588553942E+04  0.18588553942E+04  0.00000000000E+00 0.  1.
         21   -1    0    0  501  502  0.00000000000E+00 -0.00000000000E+00 -0.19081469713E+03  0.19081469713E+03  0.00000000000E+00 0.  1.
        -13    1    1    2    0    0 -0.29624830765E+03  0.12029983140E+03  0.16701958166E+04  0.17005261499E+04  0.10566000000E+00 0.  1.
         13    1    1    2    0    0  0.39983194133E+01 -0.18766289589E+02 -0.33054143383E+02  0.38219729746E+02  0.10566000000E+00 0. -1.
          4    1    1    2  501    0  0.29224998824E+03 -0.10153354181E+03  0.30899023763E+02  0.31092421168E+03  0.00000000000E+00 0.  1.
</event>
<event>
 5    1  0.4881333E-005  0.7867992E+02  0.7818608E-02  0.1205634E+00
         21   -1    0    0  501  502  0.00000000000E+00  0.00000000000E+00  0.43860769951E+02  0.43860769951E+02  0.00000000000E+00 0. -1.
          4   -1    0    0  502    0 -0.00000000000E+00 -0.00000000000E+00 -0.23793904775E+03  0.23793904775E+03  0.00000000000E+00 0.  1.
        -13    1    1    2    0    0  0.29255973029E+02  0.75688612369E+02 -0.16275178428E+03  0.18185937548E+03  0.10566000000E+00 0.  1.
         13    1    1    2    0    0 -0.42705629173E+02 -0.60261470095E+02 -0.28972472093E+02  0.79338709621E+02  0.10566000000E+00 0. -1.
          4    1    1    2  501    0  0.13449656144E+02 -0.15427142274E+02 -0.23540214235E+01  0.20601732596E+02  0.00000000000E+00 0.  1.
</event>
<event>
 5    1  0.4881333E-005  0.1036067E+03  0.7818608E-02  0.1158722E+00
         21   -1    0    0  501  502  0.00000000000E+00  0.00000000000E+00  0.37748699542E+02  0.37748699542E+02  0.00000000000E+00 0.  1.
         -4   -1    0    0    0  501 -0.00000000000E+00 -0.00000000000E+00 -0.71581778701E+03  0.71581778701E+03  0.00000000000E+00 0. -1.
        -13    1    1    2    0    0  0.21614972088E+02 -0.11367981342E+03 -0.12979699650E+03  0.17388955823E+03  0.10566000000E+00 0.  1.
         13    1    1    2    0    0 -0.10157576243E+02  0.10064748360E+03 -0.55260814221E+03  0.56179076382E+03  0.10566000000E+00 0. -1.
         -4    1    1    2    0  502 -0.11457395845E+02  0.13032329817E+02  0.43360512460E+01  0.17886164497E+02  0.00000000000E+00 0. -1.
</event>
<event>
 5    1  0.4881333E-005  0.4319414E+03  0.7818608E-02  0.1034768E+00
         -4   -1    0    0    0  501 -0.00000000000E+00  0.00000000000E+00  0.37699263395E+03  0.37699263395E+03  0.00000000000E+00 0. -1.
         21   -1    0    0  501  502  0.00000000000E+00 -0.00000000000E+00 -0.71319609599E+03  0.71319609599E+03  0.00000000000E+00 0. -1.
        -13    1    1    2    0    0  0.32398447878E+02  0.27306930340E+02  0.15502798862E+02  0.45118464137E+02  0.10566000000E+00 0.  1.
         13    1    1    2    0    0  0.78608733092E+02  0.41593955121E+03 -0.40400210919E+03  0.58515191068E+03  0.10566000000E+00 0. -1.
         -4    1    1    2    0  502 -0.11100718097E+03 -0.44324648155E+03  0.52295848290E+02  0.45991835512E+03  0.00000000000E+00 0. -1.
</event>
<event>
 5    1  0.4881333E-005  0.7037558E+03  0.7818608E-02  0.9117548E-01
         21   -1    0    0  501  502  0.00000000000E+00  0.00000000000E+00  0.10469888505E+04  0.10469888505E+04  0.00000000000E+00 0.  1.
         -4   -1    0    0    0  501 -0.00000000000E+00 -0.00000000000E+00 -0.13737137381E+04  0.13737137381E+04  0.00000000000E+00 0. -1.
        -13    1    1    2    0    0  0.16952009873E+03 -0.97286573717E+03 -0.41909890960E+01  0.98753348399E+03  0.10566000000E+00 0.  1.
         13    1    1    2    0    0 -0.22743870275E+03  0.59169335447E+03 -0.66410668327E+03  0.91807793087E+03  0.10566000000E+00 0. -1.
         -4    1    1    2    0  502  0.57918604011E+02  0.38117238270E+03  0.34157278471E+03  0.51509117376E+03  0.00000000000E+00 0. -1.
</event>
<event>
 5    1  0.4881333E-005  0.3898993E+03  0.7818608E-02  0.9758678E-01
          4   -1    0    0  502    0 -0.00000000000E+00  0.00000000000E+00  0.13839537758E+04  0.13839537758E+04  0.00000000000E+00 0.  1.
         21   -1    0    0  501  502  0.00000000000E+00 -0.00000000000E+00 -0.17880113899E+03  0.17880113899E+03  0.00000000000E+00 0. -1.
        -13    1    1    2    0    0 -0.33918796663E+03  0.19029688969E+03  0.61828214254E+03  0.73043425569E+03  0.10566000000E+00 0.  1.
         13    1    1    2    0    0  0.37898431690E+03 -0.11374793774E+03  0.62360793303E+03  0.73854896323E+03  0.10566000000E+00 0. -1.
          4    1    1    2  501    0 -0.39796350272E+02 -0.76548951954E+02 -0.36737438755E+02  0.93771695871E+02  0.00000000000E+00 0.  1.
</event>
<event>
 5    1  0.4881333E-005  0.1677597E+03  0.7818608E-02  0.1084806E+00
         21   -1    0    0  501  502  0.00000000000E+00  0.00000000000E+00  0.16021341202E+03  0.16021341202E+03  0.00000000000E+00 0.  1.
         -4   -1    0    0    0  501 -0.00000000000E+00 -0.00000000000E+00 -0.30461007021E+03  0.30461007021E+03  0.00000000000E+00 0. -1.
        -13    1    1    2    0    0 -0.26101511537E+01  0.17735127105E+03  0.44411829436E+02  0.18284613201E+03  0.10566000000E+00 0.  1.
         13    1    1    2    0    0 -0.83593551342E+00 -0.16528633794E+03 -0.20381684162E+03  0.26241491648E+03  0.10566000000E+00 0. -1.
         -4    1    1    2    0  502  0.34460866672E+01 -0.12064933113E+02  0.15008354002E+02  0.19562433749E+02  0.00000000000E+00 0. -1.
</event>
<event>
 5    1  0.4881333E-005  0.3841605E+02  0.7818608E-02  0.1396384E+00
          4   -1    0    0  502    0 -0.00000000000E+00  0.00000000000E+00  0.14741672083E+03  0.14741672083E+03  0.00000000000E+00 0.  1.
         21   -1    0    0  501  502  0.00000000000E+00 -0.00000000000E+00 -0.72854931172E+02  0.72854931172E+02  0.00000000000E+00 0.  1.
        -13    1    1    2    0    0  0.49445249961E+02  0.19918942328E+02  0.13044645530E+03  0.14091801117E+03  0.10566000000E+00 0.  1.
         13    1    1    2    0    0 -0.13034470516E+02 -0.10073728262E+02 -0.77626906756E+01  0.18211204059E+02  0.10566000000E+00 0. -1.
          4    1    1    2  501    0 -0.36410779445E+02 -0.98452140662E+01 -0.48121974967E+02  0.61142436773E+02  0.00000000000E+00 0.  1.
</event>
<event>
 5    1  0.4881333E-005  0.5192218E+02  0.7818608E-02  0.1284155E+00
         -4   -1    0    0    0  501 -0.00000000000E+00  0.00000000000E+00  0.47415217040E+02  0.47415217040E+02  0.00000000000E+00 0. -1.
         21   -1    0    0  501  502  0.00000000000E+00 -0.00000000000E+00 -0.28218601785E+03  0.28218601785E+03  0.00000000000E+00 0. -1.
        -13    1    1    2    0    0  0.41424160405E+02  0.37506387076E+02 -0.13042826714E+02  0.57383069188E+02  0.10566000000E+00 0.  1.
         13    1    1    2    0    0 -0.17992128089E+02 -0.48301697729E+02 -0.26348454284E+01  0.51611280270E+02  0.10566000000E+00 0. -1.
         -4    1    1    2    0  502 -0.23432032316E+02  0.10795310653E+02 -0.21909312866E+03  0.22060688543E+03  0.00000000000E+00 0. -1.
</event>
<event>
 5    1  0.4881333E-005  0.4952397E+03  0.7818608E-02  0.9556553E-01
         21   -1    0    0  501  502  0.00000000000E+00  0.00000000000E+00  0.38649045438E+03  0.38649045438E+03  0.00000000000E+00 0.  1.
          4   -1    0    0  502    0 -0.00000000000E+00 -0.00000000000E+00 -0.14684583077E+04  0.14684583077E+04  0.00000000000E+00 0.  1.
        -13    1    1    2    0    0 -0.57789612723E+02  0.66413796269E+03 -0.26255657720E+03  0.71648785071E+03  0.10566000000E+00 0.  1.
         13    1    1    2    0    0  0.22640905622E+03 -0.31405500954E+03 -0.51796459985E+03  0.64666757118E+03  0.10566000000E+00 0. -1.
          4    1    1    2  501    0 -0.16861944350E+03 -0.35008295315E+03 -0.30144667625E+03  0.49179334017E+03  0.00000000000E+00 0.  1.
</event>
<event>
 5    1  0.4881333E-005  0.4594808E+03  0.7818608E-02  0.9925685E-01
          4   -1    0    0  502    0 -0.00000000000E+00  0.00000000000E+00  0.90009978839E+03  0.90009978839E+03  0.00000000000E+00 0.  1.
         21   -1    0    0  501  502  0.00000000000E+00 -0.00000000000E+00 -0.43727416659E+03  0.43727416659E+03  0.00000000000E+00 0.  1.
        -13    1    1    2    0    0  0.50659143928E+02  0.55155201810E+03  0.30023233073E+03  0.63001225474E+03  0.10566000000E+00 0.  1.
         13    1    1    2    0    0 -0.45476115365E+02 -0.12749239801E+03  0.24068826128E+03  0.27613989010E+03  0.10566000000E+00 0. -1.
          4    1    1    2  501    0 -0.51830285625E+01 -0.42405962009E+03 -0.78094970221E+02  0.43122181015E+03  0.00000000000E+00 0.  1.
</event>
<event>
 5    1  0.4881333E-005  0.4768755E+03  0.7818608E-02  0.1003899E+00
          4   -1    0    0  502    0 -0.00000000000E+00  0.00000000000E+00  0.50646488423E+03  0.50646488423E+03  0.00000000000E+00 0.  1.
         21   -1    0    0  501  502  0.00000000000E+00 -0.00000000000E+00 -0.58992449722E+03  0.58992449722E+03  0.00000000000E+00 0.  1.
        -13    1    1    2    0    0  0.28919236898E+03  0.40880339732E+03 -0.17681570952E+03  0.53105202215E+03  0.10566000000E+00 0.  1.
         13    1    1    2    0    0 -0.79584456189E+02 -0.24969358783E+02 -0.59059578637E+02  0.10220175898E+03  0.10566000000E+00 0. -1.
          4    1    1    2  501    0 -0.20960791279E+03 -0.38383403853E+03  0.15241567517E+03  0.46313560032E+03  0.00000000000E+00 0.  1.
</event>
<event>
 5    1  0.4881333E-005  0.1002734E+03  0.7818608E-02  0.1164104E+00
         21   -1    0    0  501  502  0.00000000000E+00  0.00000000000E+00  0.36227542582E+03  0.36227542582E+03  0.00000000000E+00 0.  1.
          4   -1    0    0  502    0 -0.00000000000E+00 -0.00000000000E+00 -0.14574438377E+03  0.14574438377E+03  0.00000000000E+00 0.  1.
        -13    1    1    2    0    0  0.91987215394E+02  0.61418967515E+02 -0.63538253617E+02  0.12755805817E+03  0.10566000000E+00 0.  1.
         13    1    1    2    0    0 -0.89446825411E+02 -0.16850278756E+02 -0.57268386691E+01  0.91200188133E+02  0.10566000000E+00 0. -1.
          4    1    1    2  501    0 -0.25403899828E+01 -0.44568688759E+02  0.28579613433E+03  0.28926156329E+03  0.00000000000E+00 0.  1.
</event>
<event>
 5    1  0.4881333E-005  0.4450722E+03  0.7818608E-02  0.1025263E+00
          4   -1    0    0  502    0 -0.00000000000E+00  0.00000000000E+00  0.61058476196E+03  0.61058476196E+03  0.00000000000E+00 0.  1.
         21   -1    0    0  501  502  0.00000000000E+00 -0.00000000000E+00 -0.51552142254E+03  0.51552142254E+03  0.00000000000E+00 0.  1.
        -13    1    1    2    0    0  0.22186184440E+03 -0.36987239483E+03 -0.20903844919E+03  0.47929672528E+03  0.10566000000E+00 0.  1.
         13    1    1    2    0    0  0.39813335146E+02 -0.33375219158E+02  0.12228643998E+03  0.13286456065E+03  0.10566000000E+00 0. -1.
          4    1    1    2  501    0 -0.26167517954E+03  0.40324761399E+03  0.18181534863E+03  0.51394489858E+03  0.00000000000E+00 0.  1.
</event>
<event>
 5    1  0.4881333E-005  0.1007325E+03  0.7818608E-02  0.1163349E+00
         -4   -1    0    0    0  501 -0.00000000000E+00  0.00000000000E+00  0.27321774402E+02  0.27321774402E+02  0.00000000000E+00 0. -1.
         21   -1    0    0  501  502  0.00000000000E+00 -0.00000000000E+00 -0.12255258668E+04  0.12255258668E+04  0.00000000000E+00 0.  1.
        -13    1    1    2    0    0  0.62984613889E+02  0.74272662702E+02 -0.27666892637E+03  0.29330734051E+03  0.10566000000E+00 0.  1.
         13    1    1    2    0    0 -0.78799206444E+02 -0.66089256647E+02 -0.12097899749E+03  0.15878612590E+03  0.10566000000E+00 0. -1.
         -4    1    1    2    0  502  0.15814592555E+02 -0.81834060547E+01 -0.80055616853E+03  0.80075417479E+03  0.00000000000E+00 0. -1.
</event>
<event>
 5    1  0.4881333E-005  0.3962040E+03  0.7818608E-02  0.9800820E-01
          4   -1    0    0  502    0 -0.00000000000E+00  0.00000000000E+00  0.18734562701E+04  0.18734562701E+04  0.00000000000E+00 0.  1.
         21   -1    0    0  501  502  0.00000000000E+00 -0.00000000000E+00 -0.26771839494E+03  0.26771839494E+03  0.00000000000E+00 0.  1.
        -13    1    1    2    0    0  0.15292776149E+03 -0.28953471254E+03  0.23773540464E+03  0.40464229115E+03  0.10566000000E+00 0.  1.
         13    1    1    2    0    0  0.37038800382E+03  0.23707677416E+03  0.10063775755E+04  0.10982661361E+04  0.10566000000E+00 0. -1.
          4    1    1    2  501    0 -0.52331576531E+03  0.52457938378E+02  0.36162489504E+03  0.63826623774E+03  0.00000000000E+00 0.  1.
</event>
<event>
 5    1  0.4881333E-005  0.6936165E+02  0.7818608E-02  0.1228412E+00
          4   -1    0    0  502    0 -0.00000000000E+00  0.00000000000E+00  0.12476322646E+03  0.12476322646E+03  0.00000000000E+00 0.  1.
         21   -1    0    0  501  502  0.00000000000E+00 -0.00000000000E+00 -0.11091619245E+03  0.11091619245E+03  0.00000000000E+00 0. -1.
        -13    1    1    2    0    0 -0.64722167776E+02  0.26939986778E+02  0.94089913167E+02  0.11733560761E+03  0.10566000000E+00 0.  1.
         13    1    1    2    0    0  0.64593780493E+02 -0.99550315782E+01 -0.77093818746E+02  0.10106892294E+03  0.10566000000E+00 0. -1.
          4    1    1    2  501    0  0.12838728373E+00 -0.16984955200E+02 -0.31490604117E+01  0.17274888361E+02  0.00000000000E+00 0.  1.
</event>
<event>
 5    1  0.4881333E-005  0.4700202E+03  0.7818608E-02  0.9775289E-01
          4   -1    0    0  502    0 -0.00000000000E+00  0.00000000000E+00  0.24413611091E+04  0.24413611091E+04  0.00000000000E+00 0.  1.
         21   -1    0    0  501  502  0.00000000000E+00 -0.00000000000E+00 -0.15382967262E+03  0.15382967262E+03  0.00000000000E+00 0.  1.
        -13    1    1    2    0    0  0.34030531767E+03  0.22802132250E+03  0.63270789079E+03  0.75373783173E+03  0.10566000000E+00 0.  1.
         13    1    1    2    0    0  0.21019833277E+03 -0.28274179408E+01  0.36774377678E+03  0.42358804269E+03  0.10566000000E+00 0. -1.
          4    1    1    2  501    0 -0.55050365044E+03 -0.22519390456E+03  0.12870797690E+04  0.14178649073E+04  0.00000000000E+00 0.  1.
</event>
<event>
 5    1  0.4881333E-005  0.1070070E+03  0.7818608E-02  0.1153456E+00
         21   -1    0    0  501  502  0.00000000000E+00  0.00000000000E+00  0.10435820060E+03  0.10435820060E+03  0.00000000000E+00 0.  1.
         -4   -1    0    0    0  501 -0.00000000000E+00 -0.00000000000E+00 -0.42791935015E+03  0.42791935015E+03  0.00000000000E+00 0. -1.
        -13    1    1    2    0    0  0.22972119022E+02  0.10370011943E+03 -0.83644348348E+01  0.10654298642E+03  0.10566000000E+00 0.  1.
         13    1    1    2    0    0 -0.65373144933E+02 -0.86624983472E+02 -0.35117645082E+03  0.36756284717E+03  0.10566000000E+00 0. -1.
         -4    1    1    2    0  502  0.42401025911E+02 -0.17075135957E+02  0.35979736114E+02  0.58171717158E+02  0.00000000000E+00 0. -1.
</event>
<event>
 5    1  0.4881333E-005  0.5624765E+02  0.7818608E-02  0.1268250E+00
         21   -1    0    0  501  502  0.00000000000E+00  0.00000000000E+00  0.55149171942E+03  0.55149171942E+03  0.00000000000E+00 0. -1.
         -4   -1    0    0    0  501 -0.00000000000E+00 -0.00000000000E+00 -0.78445120134E+02  0.78445120134E+02  0.00000000000E+00 0. -1.
        -13    1    1    2    0    0  0.71351128860E+02  0.96484798108E+01  0.46816306908E+02  0.85882795185E+02  0.10566000000E+00 0.  1.
         13    1    1    2    0    0 -0.53414361826E+02 -0.11937262466E+01 -0.46547595181E+02  0.70860488375E+02  0.10566000000E+00 0. -1.
         -4    1    1    2    0  502 -0.17936767034E+02 -0.84547535642E+01  0.47277788756E+03  0.47319355599E+03  0.00000000000E+00 0. -1.
</event>
<event>
 5    1  0.4881333E-005  0.1865686E+03  0.7818608E-02  0.1069755E+00
         -4   -1    0    0    0  501 -0.00000000000E+00  0.00000000000E+00  0.48837197321E+03  0.48837197321E+03  0.00000000000E+00 0. -1.
         21   -1    0    0  501  502  0.00000000000E+00 -0.00000000000E+00 -0.99038697912E+02  0.99038697912E+02  0.00000000000E+00 0.  1.
        -13    1    1    2    0    0  0.11523945231E+03  0.12539615176E+03  0.14654737764E+03  0.22467859555E+03  0.10566000000E+00 0.  1.
         13    1    1    2    0    0 -0.16399852592E+03 -0.12118358296E+03  0.23822462202E+03  0.31357927066E+03  0.10566000000E+00 0. -1.
         -4    1    1    2    0  502  0.48759073613E+02 -0.42125687919E+01  0.45612756399E+01  0.49152804914E+02  0.00000000000E+00 0. -1.
</event>
<event>
 5    1  0.4881333E-005  0.1241141E+03  0.7818608E-02  0.1129870E+00
         21   -1    0    0  501  502  0.00000000000E+00  0.00000000000E+00  0.87995601074E+03  0.87995601074E+03  0.00000000000E+00 0.  1.
         -4   -1    0    0    0  501 -0.00000000000E+00 -0.00000000000E+00 -0.60288386493E+02  0.60288386493E+02  0.00000000000E+00 0. -1.
        -13    1    1    2    0    0  0.11232468363E+03 -0.85117928437E+02  0.70430739280E+03  0.71826931649E+03  0.10566000000E+00 0.  1.
         13    1    1    2    0    0 -0.11254040384E+03  0.48899327666E+02  0.25827236263E+02  0.12539355661E+03  0.10566000000E+00 0. -1.
         -4    1    1    2    0  502  0.21572020932E+00  0.36218600771E+02  0.89532995179E+02  0.96581524128E+02  0.00000000000E+00 0. -1.
</event>
<event>
 5    1  0.4881333E-005  0.5867858E+02  0.7818608E-02  0.1288877E+00
         -4   -1    0    0    0  501 -0.00000000000E+00  0.00000000000E+00  0.75276305439E+02  0.75276305439E+02  0.00000000000E+00 0. -1.
         21   -1    0    0  501  502  0.00000000000E+00 -0.00000000000E+00 -0.17582765178E+03  0.17582765178E+03  0.00000000000E+00 0. -1.
        -13    1    1    2    0    0 -0.95294537426E+01  0.31343175202E+02 -0.42764871958E+02  0.53870683660E+02  0.10566000000E+00 0.  1.
         13    1    1    2    0    0 -0.63039383051E+01  0.28974005289E+02  0.58328085058E+02  0.65432478871E+02  0.10566000000E+00 0. -1.
         -4    1    1    2    0  502  0.15833392048E+02 -0.60317180491E+02 -0.11611455944E+03  0.13180079469E+03  0.00000000000E+00 0. -1.
</event>
<event>
 5    1  0.4881333E-005  0.1060924E+03  0.7818608E-02  0.1154851E+00
         -4   -1    0    0    0  501 -0.00000000000E+00  0.00000000000E+00  0.24974826654E+03  0.24974826654E+03  0.00000000000E+00 0. -1.
         21   -1    0    0  501  502  0.00000000000E+00 -0.00000000000E+00 -0.39363962884E+03  0.39363962884E+03  0.00000000000E+00 0. -1.
        -13    1    1    2    0    0  0.64609291211E+02  0.18737255079E+01 -0.12274250705E+03  0.13872132337E+03  0.10566000000E+00 0.  1.
         13    1    1    2    0    0 -0.10824686743E+03 -0.20578802846E+02  0.22683406426E+03  0.25217964888E+03  0.10566000000E+00 0. -1.
         -4    1    1    2    0  502  0.43637576222E+02  0.18705077338E+02 -0.24798291952E+03  0.25248692313E+03  0.00000000000E+00 0. -1.
</event>
<event>
 5    1  0.4881333E-005  0.2092232E+03  0.7818608E-02  0.1053990E+00
         21   -1    0    0  501  502  0.00000000000E+00  0.00000000000E+00  0.31661750061E+03  0.31661750061E+03  0.00000000000E+00 0.  1.
          4   -1    0    0  502    0 -0.00000000000E+00 -0.00000000000E+00 -0.13902761953E+04  0.13902761953E+04  0.00000000000E+00 0.  1.
        -13    1    1    2    0    0  0.24075583357E+03  0.14549048384E+03 -0.82010469725E+03  0.86700783036E+03  0.10566000000E+00 0.  1.
         13    1    1    2    0    0 -0.17341732533E+03 -0.15085969182E+02 -0.51304204069E+03  0.54176867930E+03  0.10566000000E+00 0. -1.
          4    1    1    2  501    0 -0.67338508241E+02 -0.13040451466E+03  0.25948804327E+03  0.29811718624E+03  0.00000000000E+00 0.  1.
</event>
<event>
 5    1  0.4881333E-005  0.4207814E+03  0.7818608E-02  0.9889972E-01
         21   -1    0    0  501  502  0.00000000000E+00  0.00000000000E+00  0.40756826266E+03  0.40756826266E+03  0.00000000000E+00 0.  1.
          4   -1    0    0  502    0 -0.00000000000E+00 -0.00000000000E+00 -0.10447818508E+04  0.10447818508E+04  0.00000000000E+00 0.  1.
        -13    1    1    2    0    0 -0.36391145396E+03  0.24495185135E+03  0.15135049746E+03  0.46404734677E+03  0.10566000000E+00 0.  1.
         13    1    1    2    0    0  0.17246540296E+03  0.98429540167E+02 -0.32055701006E+03  0.37708022682E+03  0.10566000000E+00 0. -1.
          4    1    1    2  501    0  0.19144605100E+03 -0.34338139152E+03 -0.46800707555E+03  0.61122253987E+03  0.00000000000E+00 0.  1.
</event>
<event>
 5    1  0.4881333E-005  0.3633324E+03  0.7818608E-02  0.9841364E-01
          4   -1    0    0  502    0 -0.00000000000E+00  0.00000000000E+00  0.18334259068E+04  0.18334259068E+04  0.00000000000E+00 0.  1.
         21   -1    0    0  501  502  0.00000000000E+00 -0.00000000000E+00 -0.43238836822E+03  0.43238836822E+03  0.00000000000E+00 0. -1.
        -13    1    1    2    0    0  0.28005579101E+02  0.32315705842E+03  0.90363626262E+03  0.96009025782E+03  0.10566000000E+00 0.  1.
         13    1    1    2    0    0  0.27427055594E+03 -0.49741945465E+03  0.70061526396E+03  0.90194911773E+03  0.10566000000E+00 0. -1.
          4    1    1    2  501    0 -0.30227613504E+03  0.17426239623E+03 -0.20321398798E+03  0.40377489950E+03  0.00000000000E+00 0.  1.
</event>
<event>
 5    1  0.4881333E-005  0.4286431E+03  0.7818608E-02  0.9850704E-01
          4   -1    0    0  502    0 -0.00000000000E+00  0.00000000000E+00  0.19396809925E+04  0.19396809925E+04  0.00000000000E+00 0.  1.
         21   -1    0    0  501  502  0.00000000000E+00 -0.00000000000E+00 -0.23467556205E+03  0.23467556205E+03  0.00000000000E+00 0.  1.
        -13    1    1    2    0    0  0.21683581751E+03  0.28344814680E+03  0.11894467807E+04  0.12418310187E+04  0.10566000000E+00 0.  1.
         13    1    1    2    0    0 -0.13916879348E+03  0.16308225276E+03  0.41672511944E+03  0.46864017175E+03  0.10566000000E+00 0. -1.
          4    1    1    2  501    0 -0.77667024029E+02 -0.44653039955E+03  0.98833530338E+02  0.46388536414E+03  0.00000000000E+00 0.  1.
</event>
<event>
 5    1  0.4881333E-005  0.5035097E+03  0.7818608E-02  0.9694755E-01
         21   -1    0    0  501  502  0.00000000000E+00  0.00000000000E+00  0.28400503726E+03  0.28400503726E+03  0.00000000000E+00 0.  1.
          4   -1    0    0  502    0 -0.00000000000E+00 -0.00000000000E+00 -0.17894073590E+04  0.17894073590E+04  0.00000000000E+00 0.  1.
        -13    1    1    2    0    0  0.57952380797E+03 -0.20217224150E+03 -0.29433305719E+03  0.68070068235E+03  0.10566000000E+00 0.  1.
         13    1    1    2    0    0 -0.20589643296E+03  0.92990723819E+02 -0.77928231980E+03  0.81137017503E+03  0.10566000000E+00 0. -1.
          4    1    1    2  501    0 -0.37362737501E+03  0.10918151768E+03 -0.43178694478E+03  0.58134153889E+03  0.00000000000E+00 0.  1.
</event>
<event>
 5    1  0.4881333E-005  0.4319695E+03  0.7818608E-02  0.9797003E-01
         -4   -1    0    0    0  501 -0.00000000000E+00  0.00000000000E+00  0.13205431079E+04  0.13205431079E+04  0.00000000000E+00 0. -1.
         21   -1    0    0  501  502  0.00000000000E+00 -0.00000000000E+00 -0.39091123228E+03  0.39091123228E+03  0.00000000000E+00 0. -1.
        -13    1    1    2    0    0 -0.23603753368E+03 -0.86551389957E+02  0.56646396511E+03  0.61974696074E+03  0.10566000000E+00 0.  1.
         13    1    1    2    0    0  0.60805861382E+03  0.95430867238E+02  0.37253702503E+03  0.71946242046E+03  0.10566000000E+00 0. -1.
         -4    1    1    2    0  502 -0.37202108015E+03 -0.88794772803E+01 -0.93691145135E+01  0.37224495899E+03  0.00000000000E+00 0. -1.
</event>
<event>
 5    1  0.4881333E-005  0.2910251E+03  0.7818608E-02  0.1011080E+00
         21   -1    0    0  501  502  0.00000000000E+00  0.00000000000E+00  0.24672323857E+03  0.24672323857E+03  0.00000000000E+00 0. -1.
         -4   -1    0    0    0  501 -0.00000000000E+00 -0.00000000000E+00 -0.14899933207E+04  0.14899933207E+04  0.00000000000E+00 0. -1.
        -13    1    1    2    0    0 -0.12007389373E+03 -0.25575201080E+03 -0.29582854940E+03  0.40907379871E+03  0.10566000000E+00 0.  1.
         13    1    1    2    0    0 -0.36218400579E+02  0.30423770537E+03 -0.10764887041E+04  0.11192409460E+04  0.10566000000E+00 0. -1.
         -4    1    1    2    0  502  0.15629229431E+03 -0.48485694566E+02  0.12904717144E+03  0.20840181452E+03  0.00000000000E+00 0. -1.
</event>
<event>
 5    1  0.4881333E-005  0.1885718E+03  0.7818608E-02  0.1068266E+00
         21   -1    0    0  501  502  0.00000000000E+00  0.00000000000E+00  0.26446007544E+03  0.26446007544E+03  0.00000000000E+00 0.  1.
         -4   -1    0    0    0  501 -0.00000000000E+00 -0.00000000000E+00 -0.23207422829E+03  0.23207422829E+03  0.00000000000E+00 0. -1.
        -13    1    1    2    0    0  0.18679315171E+03  0.54778971455E+01  0.13350197393E+03  0.22966165786E+03  0.10566000000E+00 0.  1.
         13    1    1    2    0    0 -0.18759317212E+03 -0.24959558010E+02 -0.13172801447E+03  0.23057853049E+03  0.10566000000E+00 0. -1.
         -4    1    1    2    0  502  0.80002041019E+00  0.19481660865E+02  0.30611887695E+02  0.36294115377E+02  0.00000000000E+00 0. -1.
</event>
<event>
 5    1  0.4881333E-005  0.7631183E+02  0.7818608E-02  0.1211078E+00
          4   -1    0    0  502    0 -0.00000000000E+00  0.00000000000E+00  0.20545536701E+03  0.20545536701E+03  0.00000000000E+00 0.  1.
         21   -1    0    0  501  502  0.00000000000E+00 -0.00000000000E+00 -0.85893147345E+02  0.85893147345E+02  0.00000000000E+00 0. -1.
        -13    1    1    2    0    0 -0.53550931569E+02  0.51618837971E+02  0.14697753571E+03  0.16472587493E+03  0.10566000000E+00 0.  1.
         13    1    1    2    0    0  0.71622266046E+02 -0.47470423114E+02  0.83566918480E+01  0.86330965052E+02  0.10566000000E+00 0. -1.
          4    1    1    2  501    0 -0.18071334477E+02 -0.41484148567E+01 -0.35772007888E+02  0.40291674374E+02  0.00000000000E+00 0.  1.
</event>
<event>
 5    1  0.4881333E-005  0.5413545E+03  0.7818608E-02  0.9589408E-01
         21   -1    0    0  501  502  0.00000000000E+00  0.00000000000E+00  0.34261871478E+03  0.34261871478E+03  0.00000000000E+00 0.  1.
          4   -1    0    0  502    0 -0.00000000000E+00 -0.00000000000E+00 -0.15112914486E+04  0.15112914486E+04  0.00000000000E+00 0.  1.
        -13    1    1    2    0    0  0.32179554620E+03  0.29660551475E+03 -0.36313613657E+03  0.56867835353E+03  0.10566000000E+00 0.  1.
         13    1    1    2    0    0  0.26102151177E+03  0.36313486674E+02 -0.46040960846E+03  0.53049780174E+03  0.10566000000E+00 0. -1.
          4    1    1    2  501    0 -0.58281705797E+03 -0.33291900142E+03 -0.34512698875E+03  0.75473400807E+03  0.00000000000E+00 0.  1.
</event>
<event>
 5    1  0.4881333E-005  0.4825822E+03  0.7818608E-02  0.9665684E-01
         21   -1    0    0  501  502  0.00000000000E+00  0.00000000000E+00  0.19554905655E+04  0.19554905655E+04  0.00000000000E+00 0.  1.
          4   -1    0    0  502    0 -0.00000000000E+00 -0.00000000000E+00 -0.32864397090E+03  0.32864397090E+03  0.00000000000E+00 0.  1.
        -13    1    1    2    0    0 -0.11196528180E+03  0.49666351354E+03  0.13773272448E+04  0.14684145261E+04  0.10566000000E+00 0.  1.
         13    1    1    2    0    0  0.26112350964E+03 -0.11183527922E+03  0.28384319509E+03  0.40157139779E+03  0.10566000000E+00 0. -1.
          4    1    1    2  501    0 -0.14915822784E+03 -0.38482823432E+03 -0.34323845309E+02  0.41414861248E+03  0.00000000000E+00 0.  1.
</event>
<event>
 5    1  0.4881333E-005  0.2164268E+03  0.7818608E-02  0.1049423E+00
         21   -1    0    0  501  502  0.00000000000E+00  0.00000000000E+00  0.21919961661E+04  0.21919961661E+04  0.00000000000E+00 0. -1.
          4   -1    0    0  502    0 -0.00000000000E+00 -0.00000000000E+00 -0.33089672932E+02  0.33089672932E+02  0.00000000000E+00 0.  1.
        -13    1    1    2    0    0 -0.22817009187E+03 -0.35878892642E+02  0.56282086541E+03  0.60837178063E+03  0.10566000000E+00 0.  1.
         13    1    1    2    0    0  0.19163047638E+03 -0.16152449478E+02  0.11180070858E+04  0.11344262850E+04  0.10566000000E+00 0. -1.
          4    1    1    2  501    0  0.36539615491E+02  0.52031342120E+02  0.47807854195E+03  0.48228777337E+03  0.00000000000E+00 0.  1.
</event>
<event>
 5    1  0.4881333E-005  0.4973701E+03  0.7818608E-02  0.9674435E-01
         21   -1    0    0  501  502  0.00000000000E+00  0.00000000000E+00  0.17935353538E+03  0.17935353538E+03  0.00000000000E+00 0. -1.
         -4   -1    0    0    0  501 -0.00000000000E+00 -0.00000000000E+00 -0.24337477117E+04  0.24337477117E+04  0.00000000000E+00 0. -1.
        -13    1    1    2    0    0  0.12322029038E+02  0.25133443434E+03 -0.75106397972E+03  0.79209718033E+03  0.10566000000E+00 0.  1.
         13    1    1    2    0    0  0.36927955553E+03 -0.45864833974E+03 -0.77977850357E+03  0.97712855626E+03  0.10566000000E+00 0. -1.
         -4    1    1    2    0  502 -0.38160158457E+03  0.20731390539E+03 -0.72355169300E+03  0.84387551047E+03  0.00000000000E+00 0. -1.
</event>
<event>
 5    1  0.4881333E-005  0.2171891E+03  0.7818608E-02  0.1048951E+00
         21   -1    0    0  501  502  0.00000000000E+00  0.00000000000E+00  0.30000461444E+03  0.30000461444E+03  0.00000000000E+00 0.  1.
          4   -1    0    0  502    0 -0.00000000000E+00 -0.00000000000E+00 -0.17687852917E+04  0.17687852917E+04  0.00000000000E+00 0.  1.
        -13    1    1    2    0    0  0.76278078175E+02  0.29222425839E+03 -0.83269128620E+03  0.88576980738E+03  0.10566000000E+00 0.  1.
         13    1    1    2    0    0 -0.11107947039E+03 -0.15384653870E+03 -0.88011569920E+03  0.90033941453E+03  0.10566000000E+00 0. -1.
          4    1    1    2  501    0  0.34801392220E+02 -0.13837771969E+03  0.24402630811E+03  0.28268068426E+03  0.00000000000E+00 0.  1.
</event>
<event>
 5    1  0.4881333E-005  0.4704129E+03  0.7818608E-02  0.9725982E-01
          4   -1    0    0  502    0 -0.00000000000E+00  0.00000000000E+00  0.70296186482E+03  0.70296186482E+03  0.00000000000E+00 0.  1.
         21   -1    0    0  501  502  0.00000000000E+00 -0.00000000000E+00 -0.54601085122E+03  0.54601085122E+03  0.00000000000E+00 0.  1.
        -13    1    1    2    0    0  0.50659527621E+03  0.18652831987E+03  0.13607088944E+02  0.54001551091E+03  0.10566000000E+00 0.  1.
         13    1    1    2    0    0 -0.73639750791E+02 -0.23738910534E+03  0.10984454664E+03  0.27173927913E+03  0.10566000000E+00 0. -1.
          4    1    1    2  501    0 -0.43295552542E+03  0.50860785467E+02  0.33499378017E+02  0.43721792600E+03  0.00000000000E+00 0.  1.
</event>
<event>
 5    1  0.4881333E-005  0.2323270E+03  0.7818608E-02  0.1039981E+00
         -4   -1    0    0    0  501 -0.00000000000E+00  0.00000000000E+00  0.45041820194E+03  0.45041820194E+03  0.00000000000E+00 0. -1.
         21   -1    0    0  501  502  0.00000000000E+00 -0.00000000000E+00 -0.27767619480E+03  0.27767619480E+03  0.00000000000E+00 0.  1.
        -13    1    1    2    0    0 -0.71237253119E+02 -0.20906865089E+03 -0.48858015726E+02  0.22621132571E+03  0.10566000000E+00 0.  1.
         13    1    1    2    0    0  0.88059661393E+02  0.21852772010E+03  0.32236616778E+03  0.39928539381E+03  0.10566000000E+00 0. -1.
         -4    1    1    2    0  502 -0.16822408274E+02 -0.94590692153E+01 -0.10076614491E+03  0.10259767722E+03  0.00000000000E+00 0. -1.
</event>
<event>
 5    1  0.4881333E-005  0.4380282E+03  0.7818608E-02  0.9752755E-01
         21   -1    0    0  501  502  0.00000000000E+00  0.00000000000E+00  0.39635184710E+03  0.39635184710E+03  0.00000000000E+00 0.  1.
         -4   -1    0    0    0  501 -0.00000000000E+00 -0.00000000000E+00 -0.10615675296E+04  0.10615675296E+04  0.00000000000E+00 0. -1.
        -13    1    1    2    0    0  0.28379990309E+02  0.27921088234E+03 -0.27579431604E+03  0.39348018577E+03  0.10566000000E+00 0.  1.
         13    1    1    2    0    0 -0.28682899149E+03 -0.54075628412E+03 -0.31828598611E+03  0.68992333581E+03  0.10566000000E+00 0. -1.
         -4    1    1    2    0  502  0.25844900118E+03  0.26154540178E+03 -0.71135380360E+02  0.37451585513E+03  0.00000000000E+00 0. -1.
</event>
<event>
 5    1  0.4881333E-005  0.4508542E+03  0.7818608E-02  0.9797176E-01
         21   -1    0    0  501  502  0.00000000000E+00  0.00000000000E+00  0.22662182002E+03  0.22662182002E+03  0.00000000000E+00 0. -1.
         -4   -1    0    0    0  501 -0.00000000000E+00 -0.00000000000E+00 -0.21238961949E+04  0.21238961949E+04  0.00000000000E+00 0. -1.
        -13    1    1    2    0    0  0.93568950561E+02 -0.20020147338E+03 -0.10525704820E+04  0.10755186699E+04  0.10566000000E+00 0.  1.
         13    1    1    2    0    0  0.39127414690E+03  0.87301236036E+02 -0.59660503073E+03  0.71878685137E+03  0.10566000000E+00 0. -1.
         -4    1    1    2    0  502 -0.48484309746E+03  0.11290023734E+03 -0.24809886216E+03  0.55621249371E+03  0.00000000000E+00 0. -1.
</event>
<event>
 5    1  0.4881333E-005  0.1238006E+03  0.7818608E-02  0.1130264E+00
         21   -1    0    0  501  502  0.00000000000E+00  0.00000000000E+00  0.63237418953E+02  0.63237418953E+02  0.00000000000E+00 0.  1.
         -4   -1    0    0    0  501 -0.00000000000E+00 -0.00000000000E+00 -0.71278531838E+03  0.71278531838E+03  0.00000000000E+00 0. -1.
        -13    1    1    2    0    0  0.12178682369E+03 -0.40483419655E+02 -0.52865086907E+02  0.13880081508E+03  0.10566000000E+00 0.  1.
         13    1    1    2    0    0 -0.12347571544E+03  0.72854426488E+01 -0.59061960929E+03  0.60343256792E+03  0.10566000000E+00 0. -1.
         -4    1    1    2    0  502  0.16888917550E+01  0.33197977006E+02 -0.60632032257E+01  0.33789354330E+02  0.00000000000E+00 0. -1.
</event>
<event>
 5    1  0.4881333E-005  0.3099529E+03  0.7818608E-02  0.1003280E+00
         -4   -1    0    0    0  501 -0.00000000000E+00  0.00000000000E+00  0.33614518486E+03  0.33614518486E+03  0.00000000000E+00 0. -1.
         21   -1    0    0  501  502  0.00000000000E+00 -0.00000000000E+00 -0.38200702579E+03  0.38200702579E+03  0.00000000000E+00 0.  1.
        -13    1    1    2    0    0 -0.14027363626E+03  0.26205378933E+03 -0.58012572438E+02  0.30284377368E+03  0.10566000000E+00 0.  1.
         13    1    1    2    0    0  0.11732038415E+03 -0.29708480573E+03  0.85666845407E+02  0.33069967326E+03  0.10566000000E+00 0. -1.
         -4    1    1    2    0  502  0.22953252108E+02  0.35031016397E+02 -0.73516113902E+02  0.84608763704E+02  0.00000000000E+00 0. -1.
</event>
<event>
 5    1  0.4881333E-005  0.1315003E+03  0.7818608E-02  0.1120938E+00
         21   -1    0    0  501  502  0.00000000000E+00  0.00000000000E+00  0.10635238058E+03  0.10635238058E+03  0.00000000000E+00 0.  1.
          4   -1    0    0  502    0 -0.00000000000E+00 -0.00000000000E+00 -0.28023729282E+03  0.28023729282E+03  0.00000000000E+00 0.  1.
        -13    1    1    2    0    0  0.85033363843E+02 -0.99579209680E+02 -0.59722268562E+02  0.14392168875E+03  0.10566000000E+00 0.  1.
         13    1    1    2    0    0 -0.10277631550E+03  0.83826627558E+02 -0.14966073628E+03  0.19997055199E+03  0.10566000000E+00 0. -1.
          4    1    1    2  501    0  0.17742951655E+02  0.15752582121E+02  0.35498092604E+02  0.42697432657E+02  0.00000000000E+00 0.  1.
</event>
<event>
 5    1  0.4881333E-005  0.5106194E+02  0.7818608E-02  0.1287525E+00
         -4   -1    0    0    0  501 -0.00000000000E+00  0.00000000000E+00  0.24880008101E+02  0.24880008101E+02  0.00000000000E+00 0. -1.
         21   -1    0    0  501  502  0.00000000000E+00 -0.00000000000E+00 -0.41181018307E+03  0.41181018307E+03  0.00000000000E+00 0.  1.
        -13    1    1    2    0    0  0.17910469947E+02  0.63289659326E+02 -0.28755558099E+03  0.29498235411E+03  0.10566000000E+00 0.  1.
         13    1    1    2    0    0 -0.14181438264E+02 -0.47472642101E+02 -0.95910511350E+01  0.50465476964E+02  0.10566000000E+00 0. -1.
         -4    1    1    2    0  502 -0.37290316830E+01 -0.15817017225E+02 -0.89783542838E+02  0.91242360095E+02  0.00000000000E+00 0. -1.
</event>
<event>
 5    1  0.4881333E-005  0.1010469E+03  0.7818608E-02  0.1162835E+00
         21   -1    0    0  501  502  0.00000000000E+00  0.00000000000E+00  0.77354956051E+02  0.77354956051E+02  0.00000000000E+00 0. -1.
          4   -1    0    0  502    0 -0.00000000000E+00 -0.00000000000E+00 -0.27788451433E+03  0.27788451433E+03  0.00000000000E+00 0.  1.
        -13    1    1    2    0    0 -0.63978160173E+02  0.52308858749E+02 -0.24914632750E+02  0.86314377550E+02  0.10566000000E+00 0.  1.
         13    1    1    2    0    0  0.80249144431E+02 -0.74324548243E+02 -0.20275433776E+03  0.23037664009E+03  0.10566000000E+00 0. -1.
          4    1    1    2  501    0 -0.16270984259E+02  0.22015689494E+02  0.27139412232E+02  0.38548452743E+02  0.00000000000E+00 0.  1.
</event>
<event>
 5    1  0.4881333E-005  0.2781251E+03  0.7818608E-02  0.1018423E+00
          4   -1    0    0  502    0 -0.00000000000E+00  0.00000000000E+00  0.19525620845E+04  0.19525620845E+04  0.00000000000E+00 0.  1.
         21   -1    0    0  501  502  0.00000000000E+00 -0.00000000000E+00 -0.24086731726E+03  0.24086731726E+03  0.00000000000E+00 0.  1.
        -13    1    1    2    0    0 -0.63346724873E+02 -0.29659050580E+03  0.11715804118E+04  0.12101980864E+04  0.10566000000E+00 0.  1.
         13    1    1    2    0    0 -0.21115133086E+03  0.21804404424E+03  0.61693819366E+03  0.68756151413E+03  0.10566000000E+00 0. -1.
          4    1    1    2  501    0  0.27449805573E+03  0.78546461558E+02 -0.76823838306E+02  0.29566980122E+03  0.00000000000E+00 0.  1.
</event>
<event>
 5    1  0.4881333E-005  0.6508166E+03  0.7818608E-02  0.9197552E-01
         -4   -1    0    0    0  501 -0.00000000000E+00  0.00000000000E+00  0.18846528282E+04  0.18846528282E+04  0.00000000000E+00 0. -1.
         21   -1    0    0  501  502  0.00000000000E+00 -0.00000000000E+00 -0.53216354643E+03  0.53216354643E+03  0.00000000000E+00 0.  1.
        -13    1    1    2    0    0  0.45410440128E+03  0.59054796004E+03  0.37480569876E+03  0.83392866803E+03  0.10566000000E+00 0.  1.
         13    1    1    2    0    0 -0.10853579234E+03 -0.62812168663E+03  0.10495278797E+04  0.12279355247E+04  0.10566000000E+00 0. -1.
         -4    1    1    2    0  502 -0.34556860894E+03  0.37573726590E+02 -0.71844296739E+02  0.35495218183E+03  0.00000000000E+00 0. -1.
</event>
<event>
 5    1  0.4881333E-005  0.4520523E+03  0.7818608E-02  0.9773360E-01
         21   -1    0    0  501  502  0.00000000000E+00  0.00000000000E+00  0.26276468727E+03  0.26276468727E+03  0.00000000000E+00 0.  1.
         -4   -1    0    0    0  501 -0.00000000000E+00 -0.00000000000E+00 -0.16249321944E+04  0.16249321944E+04  0.00000000000E+00 0. -1.
        -13    1    1    2    0    0  0.22653214548E+03  0.72538220763E+02 -0.58158695322E+02  0.24486945790E+03  0.10566000000E+00 0.  1.
         13    1    1    2    0    0 -0.60271644630E+03 -0.10775641578E+03 -0.91121336149E+03  0.10978107128E+04  0.10566000000E+00 0. -1.
         -4    1    1    2    0  502  0.37618430082E+03  0.35218195016E+02 -0.39279545029E+03  0.54501671095E+03  0.00000000000E+00 0. -1.
</event>
<event>
 5    1  0.4881333E-005  0.4584742E+03  0.7818608E-02  0.1003831E+00
         -4   -1    0    0    0  501 -0.00000000000E+00  0.00000000000E+00  0.11679433196E+04  0.11679433196E+04  0.00000000000E+00 0. -1.
         21   -1    0    0  501  502  0.00000000000E+00 -0.00000000000E+00 -0.33484392356E+03  0.33484392356E+03  0.00000000000E+00 0. -1.
        -13    1    1    2    0    0  0.35673651170E+02 -0.87043503643E+02  0.40592349795E+03  0.41668102701E+03  0.10566000000E+00 0.  1.
         13    1    1    2    0    0  0.31676813567E+03  0.34733526199E+03 -0.57974522460E+01  0.47012493830E+03  0.10566000000E+00 0. -1.
         -4    1    1    2    0  502 -0.35244178684E+03 -0.26029175834E+03  0.43297335038E+03  0.61598127789E+03  0.00000000000E+00 0. -1.
</event>
<event>
 5    1  0.4881333E-005  0.4583188E+03  0.7818608E-02  0.9786448E-01
         21   -1    0    0  501  502  0.00000000000E+00  0.00000000000E+00  0.20417414862E+03  0.20417414862E+03  0.00000000000E+00 0.  1.
          4   -1    0    0  502    0 -0.00000000000E+00 -0.00000000000E+00 -0.22212681111E+04  0.22212681111E+04  0.00000000000E+00 0.  1.
        -13    1    1    2    0    0  0.24004358418E+03 -0.32784756225E+03 -0.28511430652E+03  0.49638203565E+03  0.10566000000E+00 0.  1.
         13    1    1    2    0    0  0.13570285373E+03 -0.17090185111E+03 -0.56169712757E+03  0.60259968595E+03  0.10566000000E+00 0. -1.
          4    1    1    2  501    0 -0.37574643790E+03  0.49874941335E+03 -0.11702825284E+04  0.13264605382E+04  0.00000000000E+00 0.  1.
</event>
<event>
 5    1  0.4881333E-005  0.3361921E+03  0.7818608E-02  0.1016911E+00
         21   -1    0    0  501  502  0.00000000000E+00  0.00000000000E+00  0.11039722597E+04  0.11039722597E+04  0.00000000000E+00 0.  1.
          4   -1    0    0  502    0 -0.00000000000E+00 -0.00000000000E+00 -0.32268947293E+03  0.32268947293E+03  0.00000000000E+00 0.  1.
        -13    1    1    2    0    0  0.19161500180E+03  0.21147309739E+03 -0.14597354710E+03  0.32053933838E+03  0.10566000000E+00 0.  1.
         13    1    1    2    0    0  0.13175894726E+03 -0.84915143116E+02  0.53072533175E+02  0.16549231600E+03  0.10566000000E+00 0. -1.
          4    1    1    2  501    0 -0.32337394906E+03 -0.12655795428E+03  0.87418380064E+03  0.94063007821E+03  0.00000000000E+00 0.  1.
</event>
<event>
 5    1  0.4881333E-005  0.6327705E+02  0.7818608E-02  0.1245555E+00
         -4   -1    0    0    0  501 -0.00000000000E+00  0.00000000000E+00  0.27980531806E+03  0.27980531806E+03  0.00000000000E+00 0. -1.
         21   -1    0    0  501  502  0.00000000000E+00 -0.00000000000E+00 -0.11179993322E+03  0.11179993322E+03  0.00000000000E+00 0. -1.
        -13    1    1    2    0    0 -0.82822336865E+01  0.49767078928E+02  0.35740244869E+02  0.61828260587E+02  0.10566000000E+00 0.  1.
         13    1    1    2    0    0  0.34604541068E+02 -0.60220534312E+02  0.22360677792E+03  0.23414523124E+03  0.10566000000E+00 0. -1.
         -4    1    1    2    0  502 -0.26322307382E+02  0.10453455383E+02 -0.91341637944E+02  0.95631759461E+02  0.00000000000E+00 0. -1.
</event>
<event>
 5    1  0.4881333E-005  0.4187844E+02  0.7818608E-02  0.1328918E+00
         -4   -1    0    0    0  501 -0.00000000000E+00  0.00000000000E+00  0.34783210277E+02  0.34783210277E+02  0.00000000000E+00 0. -1.
         21   -1    0    0  501  502  0.00000000000E+00 -0.00000000000E+00 -0.17434647634E+03  0.17434647634E+03  0.00000000000E+00 0.  1.
        -13    1    1    2    0    0 -0.26437081955E+02 -0.43782233873E+02 -0.12732695965E+03  0.13721504700E+03  0.10566000000E+00 0.  1.
         13    1    1    2    0    0  0.24924303491E+02  0.32412149212E+02  0.14050557725E+02  0.43234218594E+02  0.10566000000E+00 0. -1.
         -4    1    1    2    0  502  0.15127784642E+01  0.11370084662E+02 -0.26286864140E+02  0.28680421025E+02  0.00000000000E+00 0. -1.
</event>
<event>
 5    1  0.4881333E-005  0.4541077E+03  0.7818608E-02  0.1021841E+00
          4   -1    0    0  502    0 -0.00000000000E+00  0.00000000000E+00  0.33883975484E+03  0.33883975484E+03  0.00000000000E+00 0.  1.
         21   -1    0    0  501  502  0.00000000000E+00 -0.00000000000E+00 -0.11362817477E+04  0.11362817477E+04  0.00000000000E+00 0.  1.
        -13    1    1    2    0    0  0.48258183802E+03 -0.69047020967E+02 -0.21724967741E+03  0.53371355144E+03  0.10566000000E+00 0.  1.
         13    1    1    2    0    0 -0.50807873803E+02 -0.19556847079E+02  0.10985261059E+03  0.12260308938E+03  0.10566000000E+00 0. -1.
          4    1    1    2  501    0 -0.43177396422E+03  0.88603868046E+02 -0.69004492601E+03  0.81880486169E+03  0.00000000000E+00 0.  1.
</event>
<event>
 5    1  0.4881333E-005  0.3977798E+03  0.7818608E-02  0.1009551E+00
         21   -1    0    0  501  502  0.00000000000E+00  0.00000000000E+00  0.18260139496E+03  0.18260139496E+03  0.00000000000E+00 0.  1.
          4   -1    0    0  502    0 -0.00000000000E+00 -0.00000000000E+00 -0.21444556381E+04  0.21444556381E+04  0.00000000000E+00 0.  1.
        -13    1    1    2    0    0  0.48303726782E+03  0.57369184252E+02 -0.11865198777E+04  0.12823594101E+04  0.10566000000E+00 0.  1.
         13    1    1    2    0    0 -0.10457463733E+03 -0.58257566124E+02 -0.62680239051E+03  0.63813090091E+03  0.10566000000E+00 0. -1.
          4    1    1    2  501    0 -0.37846263049E+03  0.88838187204E+00 -0.14853197497E+03  0.40656672206E+03  0.00000000000E+00 0.  1.
</event>
<event>
 5    1  0.6794190E-005  0.5252056E+03  0.7818608E-02  0.9424374E-01
          4   -1    0    0  502    0 -0.00000000000E+00  0.00000000000E+00  0.10249734533E+04  0.10249734533E+04  0.00000000000E+00 0.  1.
         21   -1    0    0  501  502  0.00000000000E+00 -0.00000000000E+00 -0.90574004378E+03  0.90574004378E+03  0.00000000000E+00 0.  1.
        -13    1    1    2    0    0  0.32635603207E+03 -0.35712450306E+03 -0.47248375559E+03  0.67623005022E+03  0.10566000000E+00 0.  1.
         13    1    1    2    0    0  0.13415284632E+03  0.56619830792E+03  0.42997448553E+03  0.72350230092E+03  0.10566000000E+00 0. -1.
          4    1    1    2  501    0 -0.46050887840E+03 -0.20907380486E+03  0.16174267959E+03  0.53098114596E+03  0.00000000000E+00 0.  1.
</event>
<event>
 5    1  0.4881333E-005  0.5631897E+03  0.7818608E-02  0.9349281E-01
         21   -1    0    0  501  502  0.00000000000E+00  0.00000000000E+00  0.71684103641E+03  0.71684103641E+03  0.00000000000E+00 0. -1.
         -4   -1    0    0    0  501 -0.00000000000E+00 -0.00000000000E+00 -0.89980330039E+03  0.89980330039E+03  0.00000000000E+00 0. -1.
        -13    1    1    2    0    0 -0.31073946235E+03 -0.35293544098E+03 -0.21166768895E+03  0.51567980441E+03  0.10566000000E+00 0.  1.
         13    1    1    2    0    0  0.51660136053E+03  0.54774711947E+03 -0.14748280036E+03  0.76723859402E+03  0.10566000000E+00 0. -1.
         -4    1    1    2    0  502 -0.20586189819E+03 -0.19481167849E+03  0.17618822533E+03  0.33372593837E+03  0.00000000000E+00 0. -1.
</event>
<event>
 5    1  0.4881333E-005  0.3850554E+02  0.7818608E-02  0.1360374E+00
         21   -1    0    0  501  502  0.00000000000E+00  0.00000000000E+00  0.71973372737E+02  0.71973372737E+02  0.00000000000E+00 0.  1.
          4   -1    0    0  502    0 -0.00000000000E+00 -0.00000000000E+00 -0.10806167625E+03  0.10806167625E+03  0.00000000000E+00 0.  1.
        -13    1    1    2    0    0 -0.11759194768E+02 -0.59100705500E+02 -0.48866817717E+02  0.77583175303E+02  0.10566000000E+00 0.  1.
         13    1    1    2    0    0  0.19666651615E+02  0.23253998168E+02 -0.32249196902E+02  0.44357045454E+02  0.10566000000E+00 0. -1.
          4    1    1    2  501    0 -0.79074568464E+01  0.35846707332E+02  0.45027711103E+02  0.58094828233E+02  0.00000000000E+00 0.  1.
</event>
<event>
 5    1  0.4881333E-005  0.1187422E+03  0.7818608E-02  0.1136804E+00
          4   -1    0    0  502    0 -0.00000000000E+00  0.00000000000E+00  0.28585596950E+03  0.28585596950E+03  0.00000000000E+00 0.  1.
         21   -1    0    0  501  502  0.00000000000E+00 -0.00000000000E+00 -0.27542401622E+03  0.27542401622E+03  0.00000000000E+00 0.  1.
        -13    1    1    2    0    0  0.29392696185E+02 -0.13040447687E+03  0.24163822746E+03  0.27614905814E+03  0.10566000000E+00 0.  1.
         13    1    1    2    0    0 -0.30025881188E+02  0.63518585895E+02 -0.36330738837E+02  0.79095499516E+02  0.10566000000E+00 0. -1.
          4    1    1    2  501    0  0.63318500306E+00  0.66885890976E+02 -0.19487553536E+03  0.20603542806E+03  0.00000000000E+00 0.  1.
</event>
<event>
 5    1  0.4881333E-005  0.4372669E+03  0.7818608E-02  0.9903346E-01
         21   -1    0    0  501  502  0.00000000000E+00  0.00000000000E+00  0.37174220559E+03  0.37174220559E+03  0.00000000000E+00 0.  1.
          4   -1    0    0  502    0 -0.00000000000E+00 -0.00000000000E+00 -0.14664630263E+04  0.14664630263E+04  0.00000000000E+00 0.  1.
        -13    1    1    2    0    0 -0.28139809516E+03 -0.48482351292E+03 -0.37167838902E+03  0.67259464960E+03  0.10566000000E+00 0.  1.
         13    1    1    2    0    0  0.61390930010E+02  0.15767515346E+03 -0.75152525468E+03  0.77033792578E+03  0.10566000000E+00 0. -1.
          4    1    1    2  501    0  0.22000716515E+03  0.32714835946E+03  0.28482822950E+02  0.39527265655E+03  0.00000000000E+00 0.  1.
</event>
<event>
 5    1  0.4881333E-005  0.2082492E+03  0.7818608E-02  0.1054623E+00
          4   -1    0    0  502    0 -0.00000000000E+00  0.00000000000E+00  0.84313895714E+02  0.84313895714E+02  0.00000000000E+00 0.  1.
         21   -1    0    0  501  502  0.00000000000E+00 -0.00000000000E+00 -0.74304341766E+03  0.74304341766E+03  0.00000000000E+00 0. -1.
        -13    1    1    2    0    0 -0.18502675379E+03 -0.82531215944E+02 -0.20677667993E+03  0.28948731881E+03  0.10566000000E+00 0.  1.
         13    1    1    2    0    0  0.19781343303E+03  0.82678599739E+02 -0.22585320605E+03  0.31140903486E+03  0.10566000000E+00 0. -1.
          4    1    1    2  501    0 -0.12786679241E+02 -0.14738379500E+00 -0.22609963596E+03  0.22646095970E+03  0.00000000000E+00 0.  1.
</event>
<event>
 5    1  0.4881333E-005  0.2529803E+03  0.7818608E-02  0.1028860E+00
         21   -1    0    0  501  502  0.00000000000E+00  0.00000000000E+00  0.25351031225E+03  0.25351031225E+03  0.00000000000E+00 0.  1.
         -4   -1    0    0    0  501 -0.00000000000E+00 -0.00000000000E+00 -0.47720565175E+03  0.47720565175E+03  0.00000000000E+00 0. -1.
        -13    1    1    2    0    0 -0.23942100092E+03 -0.50835301577E+02  0.45731050172E+02  0.24899394307E+03  0.10566000000E+00 0.  1.
         13    1    1    2    0    0  0.24488897031E+03  0.73244687834E+02 -0.32970423139E+03  0.41718135557E+03  0.10566000000E+00 0. -1.
         -4    1    1    2    0  502 -0.54679693860E+01 -0.22409386256E+02  0.60277841729E+02  0.64540665360E+02  0.00000000000E+00 0. -1.
</event>
<event>
 5    1  0.4881333E-005  0.1241851E+03  0.7818608E-02  0.1129781E+00
          4   -1    0    0  502    0 -0.00000000000E+00  0.00000000000E+00  0.90505316162E+02  0.90505316162E+02  0.00000000000E+00 0.  1.
         21   -1    0    0  501  502  0.00000000000E+00 -0.00000000000E+00 -0.26440535699E+03  0.26440535699E+03  0.00000000000E+00 0. -1.
        -13    1    1    2    0    0  0.87549244902E+02  0.69560698821E+02 -0.33984122078E+02  0.11686955472E+03  0.10566000000E+00 0.  1.
         13    1    1    2    0    0 -0.11186039737E+03 -0.87650645642E+02 -0.63148574154E+02  0.15550928514E+03  0.10566000000E+00 0. -1.
          4    1    1    2  501    0  0.24311152471E+02  0.18089946821E+02 -0.76767344596E+02  0.82531833293E+02  0.00000000000E+00 0.  1.
</event>
<event>
 5    1  0.4881333E-005  0.4058453E+03  0.7818608E-02  0.9712315E-01
          4   -1    0    0  502    0 -0.00000000000E+00  0.00000000000E+00  0.89464815350E+03  0.89464815350E+03  0.00000000000E+00 0.  1.
         21   -1    0    0  501  502  0.00000000000E+00 -0.00000000000E+00 -0.23781864543E+03  0.23781864543E+03  0.00000000000E+00 0. -1.
        -13    1    1    2    0    0 -0.31785781385E+03  0.25889302411E+03  0.33979964930E+03  0.53246877898E+03  0.10566000000E+00 0.  1.
         13    1    1    2    0    0  0.32604868977E+03 -0.23580204454E+03  0.36683153114E+03  0.54449585463E+03  0.10566000000E+00 0. -1.
          4    1    1    2  501    0 -0.81908759293E+01 -0.23090979572E+02 -0.49801672364E+02  0.55502165330E+02  0.00000000000E+00 0.  1.
</event>
<event>
 5    1  0.4881333E-005  0.1204245E+03  0.7818608E-02  0.1171294E+00
         21   -1    0    0  501  502  0.00000000000E+00  0.00000000000E+00  0.10153756648E+04  0.10153756648E+04  0.00000000000E+00 0.  1.
          4   -1    0    0  502    0 -0.00000000000E+00 -0.00000000000E+00 -0.42803147423E+02  0.42803147423E+02  0.00000000000E+00 0.  1.
        -13    1    1    2    0    0 -0.13870194181E+03 -0.33889967090E+02  0.11167035723E+03  0.18126510524E+03  0.10566000000E+00 0.  1.
         13    1    1    2    0    0  0.39190593144E+02 -0.28905780402E+02  0.28201290588E+03  0.28618654228E+03  0.10566000000E+00 0. -1.
          4    1    1    2  501    0  0.99511348663E+02  0.62795747492E+02  0.57888925422E+03  0.59072716466E+03  0.00000000000E+00 0.  1.
</event>
<event>
 5    1  0.4881333E-005  0.3441766E+03  0.7818608E-02  0.1020588E+00
          4   -1    0    0  502    0 -0.00000000000E+00  0.00000000000E+00  0.14187011674E+04  0.14187011674E+04  0.00000000000E+00 0.  1.
         21   -1    0    0  501  502  0.00000000000E+00 -0.00000000000E+00 -0.40365421345E+03  0.40365421345E+03  0.00000000000E+00 0.  1.
        -13    1    1    2    0    0  0.23322307139E+03 -0.25981841554E+03 -0.26003346243E+03  0.43533438049E+03  0.10566000000E+00 0.  1.
         13    1    1    2    0    0 -0.11849466788E+03 -0.53640694502E+02  0.77456819368E+03  0.78541339959E+03  0.10566000000E+00 0. -1.
          4    1    1    2  501    0 -0.11472840351E+03  0.31345911004E+03  0.50051222273E+03  0.60160760080E+03  0.00000000000E+00 0.  1.
</event>
<event>
 5    1  0.4881333E-005  0.7908560E+03  0.7818608E-02  0.9000678E-01
         21   -1    0    0  501  502  0.00000000000E+00  0.00000000000E+00  0.10468863094E+04  0.10468863094E+04  0.00000000000E+00 0. -1.
          4   -1    0    0  502    0 -0.00000000000E+00 -0.00000000000E+00 -0.25717029885E+04  0.25717029885E+04  0.00000000000E+00 0.  1.
        -13    1    1    2    0    0  0.52915316772E+03 -0.77583693564E+03  0.23112627306E+03  0.96713256117E+03  0.10566000000E+00 0.  1.
         13    1    1    2    0    0 -0.60410856241E+03  0.48946139239E+03 -0.20752038733E+04  0.22160755260E+04  0.10566000000E+00 0. -1.
          4    1    1    2  501    0  0.74955394699E+02  0.28637554324E+03  0.31926092117E+03  0.43538121084E+03  0.00000000000E+00 0.  1.
</event>
<event>
 5    1  0.4881333E-005  0.1230642E+03  0.7818608E-02  0.1131195E+00
         -4   -1    0    0    0  501 -0.00000000000E+00  0.00000000000E+00  0.20929810565E+03  0.20929810565E+03  0.00000000000E+00 0. -1.
         21   -1    0    0  501  502  0.00000000000E+00 -0.00000000000E+00 -0.44441798485E+03  0.44441798485E+03  0.00000000000E+00 0. -1.
        -13    1    1    2    0    0  0.98559664774E+02 -0.71362995414E+02  0.10098613350E+03  0.15812936147E+03  0.10566000000E+00 0.  1.
         13    1    1    2    0    0 -0.10832584195E+03  0.63980153431E+02  0.29950829326E+02  0.12932521567E+03  0.10566000000E+00 0. -1.
         -4    1    1    2    0  502  0.97661771739E+01  0.73828419829E+01 -0.36605684203E+03  0.36626151336E+03  0.00000000000E+00 0. -1.
</event>
<event>
 5    1  0.4881333E-005  0.4447387E+03  0.7818608E-02  0.9608086E-01
          4   -1    0    0  502    0 -0.00000000000E+00  0.00000000000E+00  0.23369062468E+04  0.23369062468E+04  0.00000000000E+00 0.  1.
         21   -1    0    0  501  502  0.00000000000E+00 -0.00000000000E+00 -0.42702716437E+03  0.42702716437E+03  0.00000000000E+00 0.  1.
        -13    1    1    2    0    0 -0.26567234823E+03 -0.25422377083E+03  0.84085613649E+03  0.91774210741E+03  0.10566000000E+00 0.  1.
         13    1    1    2    0    0  0.58614105848E+03  0.18764546552E+03  0.13048930303E+04  0.14427466835E+04  0.10566000000E+00 0. -1.
          4    1    1    2  501    0 -0.32046871025E+03  0.66578305311E+02 -0.23587008429E+03  0.40344462030E+03  0.00000000000E+00 0.  1.
</event>
<event>
 5    1  0.4881333E-005  0.1929073E+02  0.7818608E-02  0.1519965E+00
         21   -1    0    0  501  502  0.00000000000E+00  0.00000000000E+00  0.28840969485E+03  0.28840969485E+03  0.00000000000E+00 0. -1.
         -4   -1    0    0    0  501 -0.00000000000E+00 -0.00000000000E+00 -0.17711885313E+02  0.17711885313E+02  0.00000000000E+00 0. -1.
        -13    1    1    2    0    0  0.13383814232E+02  0.61909355129E+01  0.61149172992E+02  0.62902199386E+02  0.10566000000E+00 0.  1.
         13    1    1    2    0    0 -0.19711698911E+02  0.30791783514E+01 -0.10731073960E+02  0.22653907514E+02  0.10566000000E+00 0. -1.
         -4    1    1    2    0  502  0.63278846791E+01 -0.92701138644E+01  0.22027971050E+03  0.22056547326E+03  0.00000000000E+00 0. -1.
</event>
<event>
 5    1  0.4881333E-005  0.2133197E+03  0.7818608E-02  0.1081860E+00
         21   -1    0    0  501  502  0.00000000000E+00  0.00000000000E+00  0.69899288818E+02  0.69899288818E+02  0.00000000000E+00 0.  1.
          4   -1    0    0  502    0 -0.00000000000E+00 -0.00000000000E+00 -0.10158105510E+04  0.10158105510E+04  0.00000000000E+00 0.  1.
        -13    1    1    2    0    0 -0.26284329708E+03  0.21864108952E+02 -0.47829996785E+03  0.54620097812E+03  0.10566000000E+00 0.  1.
         13    1    1    2    0    0  0.86800795907E+02  0.17726277438E+02 -0.14873825433E+03  0.17312330446E+03  0.10566000000E+00 0. -1.
          4    1    1    2  501    0  0.17604250118E+03 -0.39590386390E+02 -0.31887303997E+03  0.36638555721E+03  0.00000000000E+00 0.  1.
</event>
<event>
 5    1  0.4881333E-005  0.2860282E+03  0.7818608E-02  0.1031931E+00
         21   -1    0    0  501  502  0.00000000000E+00  0.00000000000E+00  0.22383660649E+03  0.22383660649E+03  0.00000000000E+00 0. -1.
         -4   -1    0    0    0  501 -0.00000000000E+00 -0.00000000000E+00 -0.24383812034E+04  0.24383812034E+04  0.00000000000E+00 0. -1.
        -13    1    1    2    0    0  0.19100131850E+03  0.33242593750E+03 -0.47336357687E+03  0.60914825344E+03  0.10566000000E+00 0.  1.
         13    1    1    2    0    0  0.20238725838E+03 -0.45917239086E+02  0.35849202091E+02  0.21060430113E+03  0.10566000000E+00 0. -1.
         -4    1    1    2    0  502 -0.39338857689E+03 -0.28650869841E+03 -0.17770302221E+04  0.18424652553E+04  0.00000000000E+00 0. -1.
</event>
<event>
 5    1  0.4881333E-005  0.4930834E+03  0.7818608E-02  0.9863359E-01
         -4   -1    0    0    0  501 -0.00000000000E+00  0.00000000000E+00  0.25276954700E+04  0.25276954700E+04  0.00000000000E+00 0. -1.
         21   -1    0    0  501  502  0.00000000000E+00 -0.00000000000E+00 -0.14885483436E+03  0.14885483436E+03  0.00000000000E+00 0. -1.
        -13    1    1    2    0    0 -0.13345808020E+03  0.20039457113E+02  0.76204911266E+03  0.77390664830E+03  0.10566000000E+00 0.  1.
         13    1    1    2    0    0  0.56740526948E+03  0.15220449398E+02  0.90795095155E+03  0.10707732456E+04  0.10566000000E+00 0. -1.
         -4    1    1    2    0  502 -0.43394718928E+03 -0.35259906511E+02  0.70884057141E+03  0.83187041044E+03  0.00000000000E+00 0. -1.
</event>
<event>
 5    1  0.4881333E-005  0.4936944E+03  0.7818608E-02  0.9790901E-01
         21   -1    0    0  501  502  0.00000000000E+00  0.00000000000E+00  0.41787848092E+03  0.41787848092E+03  0.00000000000E+00 0. -1.
         -4   -1    0    0    0  501 -0.00000000000E+00 -0.00000000000E+00 -0.82532424994E+03  0.82532424994E+03  0.00000000000E+00 0. -1.
        -13    1    1    2    0    0 -0.35802685481E+02  0.16818782003E+03 -0.69867772840E+02  0.18560843714E+03  0.10566000000E+00 0.  1.
         13    1    1    2    0    0  0.31745874395E+03  0.30879575586E+03 -0.20499403834E+03  0.48801377016E+03  0.10566000000E+00 0. -1.
         -4    1    1    2    0  502 -0.28165605847E+03 -0.47698357589E+03 -0.13258395784E+03  0.56958052356E+03  0.00000000000E+00 0. -1.
</event>
<event>
 5    1  0.4881333E-005  0.3631708E+03  0.7818608E-02  0.9938986E-01
         21   -1    0    0  501  502  0.00000000000E+00  0.00000000000E+00  0.67304524518E+03  0.67304524518E+03  0.00000000000E+00 0.  1.
          4   -1    0    0  502    0 -0.00000000000E+00 -0.00000000000E+00 -0.14920711800E+04  0.14920711800E+04  0.00000000000E+00 0.  1.
        -13    1    1    2    0    0  0.30052942411E+03 -0.23060127547E+03  0.49651267764E+03  0.62451559887E+03  0.10566000000E+00 0.  1.
         13    1    1    2    0    0  0.57965194260E+02  0.25579269892E+03 -0.10788696346E+04  0.11102925597E+04  0.10566000000E+00 0. -1.
          4    1    1    2  501    0 -0.35849461837E+03 -0.25191423456E+02 -0.23666897789E+03  0.43030826661E+03  0.00000000000E+00 0.  1.
</event>
<event>
 5    1  0.4881333E-005  0.4717679E+03  0.7818608E-02  0.9778507E-01
         21   -1    0    0  501  502  0.00000000000E+00  0.00000000000E+00  0.34102146406E+03  0.34102146406E+03  0.00000000000E+00 0.  1.
          4   -1    0    0  502    0 -0.00000000000E+00 -0.00000000000E+00 -0.13342968844E+04  0.13342968844E+04  0.00000000000E+00 0.  1.
        -13    1    1    2    0    0  0.43255292312E+03  0.18981378769E+03 -0.31442184276E+03  0.56744375198E+03  0.10566000000E+00 0.  1.
         13    1    1    2    0    0 -0.98254355040E+02  0.18061221575E+03  0.61915786905E+02  0.21472835536E+03  0.10566000000E+00 0. -1.
          4    1    1    2  501    0 -0.33429856808E+03 -0.37042600344E+03 -0.74076936445E+03  0.89314624108E+03  0.00000000000E+00 0.  1.
</event>
<event>
 5    1  0.4881333E-005  0.7001814E+02  0.7818608E-02  0.1226680E+00
         21   -1    0    0  501  502  0.00000000000E+00  0.00000000000E+00  0.21656363850E+02  0.21656363850E+02  0.00000000000E+00 0. -1.
          4   -1    0    0  502    0 -0.00000000000E+00 -0.00000000000E+00 -0.39476015616E+03  0.39476015616E+03  0.00000000000E+00 0.  1.
        -13    1    1    2    0    0 -0.54017736052E+02 -0.52468409848E+02 -0.29653141194E+03  0.30594401330E+03  0.10566000000E+00 0.  1.
         13    1    1    2    0    0  0.43322900765E+02  0.39205885283E+02 -0.72204274401E+02  0.92884032951E+02  0.10566000000E+00 0. -1.
          4    1    1    2  501    0  0.10694835287E+02  0.13262524565E+02 -0.43681059727E+01  0.17588473767E+02  0.00000000000E+00 0.  1.
</event>
<event>
 5    1  0.4881333E-005  0.6369578E+03  0.7818608E-02  0.9219818E-01
          4   -1    0    0  502    0 -0.00000000000E+00  0.00000000000E+00  0.29969316843E+04  0.29969316843E+04  0.00000000000E+00 0.  1.
         21   -1    0    0  501  502  0.00000000000E+00 -0.00000000000E+00 -0.30341826699E+03  0.30341826699E+03  0.00000000000E+00 0. -1.
        -13    1    1    2    0    0  0.63734176130E+03 -0.36518627606E+03  0.76124169019E+03  0.10578537039E+04  0.10566000000E+00 0.  1.
         13    1    1    2    0    0 -0.63033876721E+03 -0.12292594781E+03  0.96739517330E+03  0.11611594131E+04  0.10566000000E+00 0. -1.
          4    1    1    2  501    0 -0.70029940899E+01  0.48811222387E+03  0.96487655380E+03  0.10813368342E+04  0.00000000000E+00 0.  1.
</event>
<event>
 5    1  0.4881333E-005  0.2997070E+03  0.7818608E-02  0.1031713E+00
         -4   -1    0    0    0  501 -0.00000000000E+00  0.00000000000E+00  0.10870827486E+04  0.10870827486E+04  0.00000000000E+00 0. -1.
         21   -1    0    0  501  502  0.00000000000E+00 -0.00000000000E+00 -0.20374038184E+03  0.20374038184E+03  0.00000000000E+00 0.  1.
        -13    1    1    2    0    0 -0.19378088662E+02 -0.13795711338E+03 -0.64491784975E+02  0.15351507075E+03  0.10566000000E+00 0.  1.
         13    1    1    2    0    0  0.30900348630E+03  0.45405935061E+02  0.59141844275E+03  0.66882033393E+03  0.10566000000E+00 0. -1.
         -4    1    1    2    0  502 -0.28962539764E+03  0.92551178324E+02  0.35641570897E+03  0.46848772574E+03  0.00000000000E+00 0. -1.
</event>
<event>
 5    1  0.4881333E-005  0.4894321E+03  0.7818608E-02  0.9551825E-01
          4   -1    0    0  502    0 -0.00000000000E+00  0.00000000000E+00  0.27084255570E+04  0.27084255570E+04  0.00000000000E+00 0.  1.
         21   -1    0    0  501  502  0.00000000000E+00 -0.00000000000E+00 -0.33963394459E+03  0.33963394459E+03  0.00000000000E+00 0.  1.
        -13    1    1    2    0    0  0.31117999908E+03  0.48821732099E+03  0.42207954824E+03  0.71647770415E+03  0.10566000000E+00 0.  1.
         13    1    1    2    0    0  0.16833740818E+03 -0.37162666268E+03  0.17555999014E+04  0.18023803385E+04  0.10566000000E+00 0. -1.
          4    1    1    2  501    0 -0.47951740725E+03 -0.11659065831E+03  0.19111216278E+03  0.52920145902E+03  0.00000000000E+00 0.  1.
</event>
<event>
 5    1  0.4881333E-005  0.2211807E+03  0.7818608E-02  0.1053820E+00
         -4   -1    0    0    0  501 -0.00000000000E+00  0.00000000000E+00  0.20528881479E+04  0.20528881479E+04  0.00000000000E+00 0. -1.
         21   -1    0    0  501  502  0.00000000000E+00 -0.00000000000E+00 -0.21770583192E+03  0.21770583192E+03  0.00000000000E+00 0. -1.
        -13    1    1    2    0    0  0.34249135684E+02 -0.17465931796E+03  0.71642949788E+03  0.73820736738E+03  0.10566000000E+00 0.  1.
         13    1    1    2    0    0 -0.35370195812E+02 -0.21016507339E+03 -0.11348772201E+03  0.24145368714E+03  0.10566000000E+00 0. -1.
         -4    1    1    2    0  502  0.11210601280E+01  0.38482439135E+03  0.12322405401E+04  0.12909329253E+04  0.00000000000E+00 0. -1.
</event>
<event>
 5    1  0.4881333E-005  0.4846608E+03  0.7818608E-02  0.9512241E-01
         21   -1    0    0  501  502  0.00000000000E+00  0.00000000000E+00  0.15678866677E+04  0.15678866677E+04  0.00000000000E+00 0.  1.
          4   -1    0    0  502    0 -0.00000000000E+00 -0.00000000000E+00 -0.38855970550E+03  0.38855970550E+03  0.00000000000E+00 0.  1.
        -13    1    1    2    0    0 -0.32976073579E+03  0.52426358931E+03  0.67306854199E+03  0.91466700352E+03  0.10566000000E+00 0.  1.
         13    1    1    2    0    0  0.45423404113E+03 -0.10856199423E+03  0.33736490174E+03  0.57613310858E+03  0.10566000000E+00 0. -1.
          4    1    1    2  501    0 -0.12447330535E+03 -0.41570159507E+03  0.16889351846E+03  0.46564626109E+03  0.00000000000E+00 0.  1.
</event>
<event>
 5    1  0.4881333E-005  0.6295358E+02  0.7818608E-02  0.1246525E+00
         21   -1    0    0  501  502  0.00000000000E+00  0.00000000000E+00  0.69953783987E+02  0.69953783987E+02  0.00000000000E+00 0. -1.
          4   -1    0    0  502    0 -0.00000000000E+00 -0.00000000000E+00 -0.12846093359E+03  0.12846093359E+03  0.00000000000E+00 0.  1.
        -13    1    1    2    0    0  0.45765088174E+02  0.62205296001E+02 -0.78808741475E+02  0.11033934495E+03  0.10566000000E+00 0.  1.
         13    1    1    2    0    0 -0.94054148917E+01 -0.42675284721E+02  0.46976719304E+01  0.43951348567E+02  0.10566000000E+00 0. -1.
          4    1    1    2  501    0 -0.36359673283E+02 -0.19530011281E+02  0.15603919943E+02  0.44124024062E+02  0.00000000000E+00 0.  1.
</event>
<event>
 5    1  0.4881333E-005  0.8761038E+02  0.7818608E-02  0.1186861E+00
         21   -1    0    0  501  502  0.00000000000E+00  0.00000000000E+00  0.25485826860E+03  0.25485826860E+03  0.00000000000E+00 0.  1.
         -4   -1    0    0    0  501 -0.00000000000E+00 -0.00000000000E+00 -0.53104406185E+02  0.53104406185E+02  0.00000000000E+00 0. -1.
        -13    1    1    2    0    0 -0.27900003200E+02 -0.74039794274E+02  0.10580335821E+03  0.13211609701E+03  0.10566000000E+00 0.  1.
         13    1    1    2    0    0  0.46924212175E+02  0.79013499204E+02  0.15707702813E+02  0.93229597427E+02  0.10566000000E+00 0. -1.
         -4    1    1    2    0  502 -0.19024208976E+02 -0.49737049297E+01  0.80242801389E+02  0.82616980353E+02  0.00000000000E+00 0. -1.
</event>
<event>
 5    1  0.4881333E-005  0.3255876E+03  0.7818608E-02  0.9972699E-01
          4   -1    0    0  502    0 -0.00000000000E+00  0.00000000000E+00  0.83404848587E+03  0.83404848587E+03  0.00000000000E+00 0.  1.
         21   -1    0    0  501  502  0.00000000000E+00 -0.00000000000E+00 -0.22037162512E+03  0.22037162512E+03  0.00000000000E+00 0. -1.
        -13    1    1    2    0    0 -0.27027128989E+03 -0.17965006114E+03  0.57184096660E+03  0.65751259825E+03  0.10566000000E+00 0.  1.
         13    1    1    2    0    0  0.28970580367E+03  0.15734028306E+03  0.88777858485E+02  0.34141900456E+03  0.10566000000E+00 0. -1.
          4    1    1    2  501    0 -0.19434513781E+02  0.22309778088E+02 -0.46941964339E+02  0.55488508182E+02  0.00000000000E+00 0.  1.
</event>
<event>
 5    1  0.4881333E-005  0.1816801E+03  0.7818608E-02  0.1073477E+00
          4   -1    0    0  502    0 -0.00000000000E+00  0.00000000000E+00  0.52964868152E+03  0.52964868152E+03  0.00000000000E+00 0.  1.
         21   -1    0    0  501  502  0.00000000000E+00 -0.00000000000E+00 -0.27280557384E+03  0.27280557384E+03  0.00000000000E+00 0. -1.
        -13    1    1    2    0    0 -0.26019758685E+02  0.18194121770E+03  0.40992600007E+03  0.44924266409E+03  0.10566000000E+00 0.  1.
         13    1    1    2    0    0  0.31681976540E+02 -0.17076910271E+03  0.24310745624E+02  0.17537633134E+03  0.10566000000E+00 0. -1.
          4    1    1    2  501    0 -0.56622178546E+01 -0.11172114992E+02 -0.17739363802E+03  0.17783525993E+03  0.00000000000E+00 0.  1.
</event>
<event>
 5    1  0.4881333E-005  0.5132800E+03  0.7818608E-02  0.9790873E-01
         21   -1    0    0  501  502  0.00000000000E+00  0.00000000000E+00  0.71165171737E+03  0.71165171737E+03  0.00000000000E+00 0. -1.
         -4   -1    0    0    0  501 -0.00000000000E+00 -0.00000000000E+00 -0.57598509625E+03  0.57598509625E+03  0.00000000000E+00 0. -1.
        -13    1    1    2    0    0  0.15996610668E+02 -0.15218933306E+03 -0.13018262639E+03  0.20091045774E+03  0.10566000000E+00 0.  1.
         13    1    1    2    0    0 -0.48985388517E+03  0.26995817562E+03  0.83497790653E+02  0.56551404723E+03  0.10566000000E+00 0. -1.
         -4    1    1    2    0  502  0.47385727451E+03 -0.11776884255E+03  0.18235145686E+03  0.52121230866E+03  0.00000000000E+00 0. -1.
</event>
<event>
 5    1  0.4881333E-005  0.2702570E+03  0.7818608E-02  0.1020399E+00
         -4   -1    0    0    0  501 -0.00000000000E+00  0.00000000000E+00  0.13178177605E+04  0.13178177605E+04  0.00000000000E+00 0. -1.
         21   -1    0    0  501  502  0.00000000000E+00 -0.00000000000E+00 -0.13562963443E+03  0.13562963443E+03  0.00000000000E+00 0. -1.
        -13    1    1    2    0    0  0.18653454514E+03 -0.11455108076E+03  0.17953937712E+03  0.28311037730E+03  0.10566000000E+00 0.  1.
         13    1    1    2    0    0 -0.22994551796E+03  0.17712076292E+03  0.10440576604E+04  0.10836526728E+04  0.10566000000E+00 0. -1.
         -4    1    1    2    0  502  0.43410972824E+02 -0.62569682163E+02 -0.41408911452E+02  0.86684344810E+02  0.00000000000E+00 0. -1.
</event>
<event>
 5    1  0.4881333E-005  0.6177249E+02  0.7818608E-02  0.1317906E+00
          4   -1    0    0  502    0 -0.00000000000E+00  0.00000000000E+00  0.11189788630E+03  0.11189788630E+03  0.00000000000E+00 0.  1.
         21   -1    0    0  501  502  0.00000000000E+00 -0.00000000000E+00 -0.51028542588E+03  0.51028542588E+03  0.00000000000E+00 0.  1.
        -13    1    1    2    0    0  0.27429897697E+02 -0.53972285467E+02  0.10043561113E+03  0.11727203431E+03  0.10566000000E+00 0.  1.
         13    1    1    2    0    0 -0.14644625792E+02 -0.65329080130E+01 -0.86072108728E+02  0.87553201065E+02  0.10566000000E+00 0. -1.
          4    1    1    2  501    0 -0.12785271905E+02  0.60505193480E+02 -0.41275104198E+03  0.41735807680E+03  0.00000000000E+00 0.  1.
</event>
<event>
 5    1  0.4881333E-005  0.7077680E+03  0.7818608E-02  0.9111785E-01
         21   -1    0    0  501  502  0.00000000000E+00  0.00000000000E+00  0.35528538619E+03  0.35528538619E+03  0.00000000000E+00 0. -1.
          4   -1    0    0  502    0 -0.00000000000E+00 -0.00000000000E+00 -0.28819170672E+04  0.28819170672E+04  0.00000000000E+00 0.  1.
        -13    1    1    2    0    0 -0.28911358925E+02 -0.83149602884E+03 -0.46727726369E+03  0.95423768789E+03  0.10566000000E+00 0.  1.
         13    1    1    2    0    0  0.25615781262E+03  0.63104213870E+03 -0.14785697891E+04  0.16278819484E+04  0.10566000000E+00 0. -1.
          4    1    1    2  501    0 -0.22724645370E+03  0.20045389014E+03 -0.58078462828E+03  0.65508281708E+03  0.00000000000E+00 0.  1.
</event>
<event>
 5    1  0.4881333E-005  0.1637052E+03  0.7818608E-02  0.1107328E+00
         21   -1    0    0  501  502  0.00000000000E+00  0.00000000000E+00  0.82258044320E+03  0.82258044320E+03  0.00000000000E+00 0.  1.
          4   -1    0    0  502    0 -0.00000000000E+00 -0.00000000000E+00 -0.17726086658E+03  0.17726086658E+03  0.00000000000E+00 0.  1.
        -13    1    1    2    0    0 -0.59188336572E+02 -0.21891563088E+03  0.95479924883E+02  0.24605637535E+03  0.10566000000E+00 0.  1.
         13    1    1    2    0    0  0.74912836399E+02  0.62610392663E+02 -0.66246524015E+02  0.11798562385E+03  0.10566000000E+00 0. -1.
          4    1    1    2  501    0 -0.15724499826E+02  0.15630523822E+03  0.61608617575E+03  0.63579931059E+03  0.00000000000E+00 0.  1.
</event>
<event>
 5    1  0.4881333E-005  0.2338120E+03  0.7818608E-02  0.1052390E+00
         21   -1    0    0  501  502  0.00000000000E+00  0.00000000000E+00  0.35530802386E+03  0.35530802386E+03  0.00000000000E+00 0. -1.
         -4   -1    0    0    0  501 -0.00000000000E+00 -0.00000000000E+00 -0.92977805150E+03  0.92977805150E+03  0.00000000000E+00 0. -1.
        -13    1    1    2    0    0  0.88114991297E+02 -0.13015119706E+03 -0.11632321785E+03  0.19553692225E+03  0.10566000000E+00 0.  1.
         13    1    1    2    0    0 -0.25477807587E+03 -0.36130525936E+02 -0.70375738617E+03  0.74932753359E+03  0.10566000000E+00 0. -1.
         -4    1    1    2    0  502  0.16666308457E+03  0.16628172300E+03  0.24561057638E+03  0.34022161952E+03  0.00000000000E+00 0. -1.
</event>
<event>
 5    1  0.4881333E-005  0.6379052E+03  0.7818608E-02  0.9218277E-01
          4   -1    0    0  502    0 -0.00000000000E+00  0.00000000000E+00  0.21665921925E+04  0.21665921925E+04  0.00000000000E+00 0.  1.
         21   -1    0    0  501  502  0.00000000000E+00 -0.00000000000E+00 -0.26460682831E+03  0.26460682831E+03  0.00000000000E+00 0. -1.
        -13    1    1    2    0    0 -0.52092537453E+03  0.35415913218E+03  0.38039588683E+03  0.73586206494E+03  0.10566000000E+00 0.  1.
         13    1    1    2    0    0  0.51944389297E+03 -0.37532662521E+03  0.15395066871E+04  0.16675649565E+04  0.10566000000E+00 0. -1.
          4    1    1    2  501    0  0.14814815634E+01  0.21167493024E+02 -0.17917209652E+02  0.27771999393E+02  0.00000000000E+00 0.  1.
</event>
<event>
 5    1  0.4881333E-005  0.5025997E+03  0.7818608E-02  0.9701053E-01
         21   -1    0    0  501  502  0.00000000000E+00  0.00000000000E+00  0.24902685544E+03  0.24902685544E+03  0.00000000000E+00 0.  1.
          4   -1    0    0  502    0 -0.00000000000E+00 -0.00000000000E+00 -0.18086274020E+04  0.18086274020E+04  0.00000000000E+00 0.  1.
        -13    1    1    2    0    0 -0.28169301649E+03 -0.53754673815E+03 -0.42006018526E+03  0.73807724639E+03  0.10566000000E+00 0.  1.
         13    1    1    2    0    0  0.16206408857E+03  0.15204388178E+03 -0.63916614170E+03  0.67669452388E+03  0.10566000000E+00 0. -1.
          4    1    1    2  501    0  0.11962892792E+03  0.38550285637E+03 -0.50037421960E+03  0.64288248716E+03  0.00000000000E+00 0.  1.
</event>
<event>
 5    1  0.4881333E-005  0.1159065E+03  0.7818608E-02  0.1140627E+00
         21   -1    0    0  501  502  0.00000000000E+00  0.00000000000E+00  0.10174786016E+03  0.10174786016E+03  0.00000000000E+00 0. -1.
          4   -1    0    0  502    0 -0.00000000000E+00 -0.00000000000E+00 -0.30486791307E+03  0.30486791307E+03  0.00000000000E+00 0.  1.
        -13    1    1    2    0    0  0.64393148124E+02 -0.93682031062E+02 -0.16283014308E+03  0.19858617054E+03  0.10566000000E+00 0.  1.
         13    1    1    2    0    0 -0.56374313115E+02  0.10595263720E+03 -0.93942026300E+02  0.15241108876E+03  0.10566000000E+00 0. -1.
          4    1    1    2  501    0 -0.80188350087E+01 -0.12270606134E+02  0.53652116476E+02  0.55618513933E+02  0.00000000000E+00 0.  1.
</event>
<event>
 5    1  0.4881333E-005  0.9959136E+02  0.7818608E-02  0.1165233E+00
          4   -1    0    0  502    0 -0.00000000000E+00  0.00000000000E+00  0.44020002911E+02  0.44020002911E+02  0.00000000000E+00 0.  1.
         21   -1    0    0  501  502  0.00000000000E+00 -0.00000000000E+00 -0.57222597598E+03  0.57222597598E+03  0.00000000000E+00 0. -1.
        -13    1    1    2    0    0  0.87837362147E+02  0.52657137442E+02 -0.29455711572E+02  0.10656372000E+03  0.10566000000E+00 0.  1.
         13    1    1    2    0    0 -0.75252683846E+02 -0.34801651683E+02 -0.40811588843E+03  0.41645253143E+03  0.10566000000E+00 0. -1.
          4    1    1    2  501    0 -0.12584678302E+02 -0.17855485759E+02 -0.90634373065E+02  0.93229727451E+02  0.00000000000E+00 0.  1.
</event>
<event>
 5    1  0.4881333E-005  0.3608583E+02  0.7818608E-02  0.1368096E+00
         21   -1    0    0  501  502  0.00000000000E+00  0.00000000000E+00  0.38250456851E+03  0.38250456851E+03  0.00000000000E+00 0. -1.
         -4   -1    0    0    0  501 -0.00000000000E+00 -0.00000000000E+00 -0.29942520070E+02  0.29942520070E+02  0.00000000000E+00 0. -1.
        -13    1    1    2    0    0 -0.96251074481E+01  0.30829647011E+02 -0.15220537397E+02  0.35704141929E+02  0.10566000000E+00 0.  1.
         13    1    1    2    0    0 -0.32527207985E+02 -0.13280383702E+02  0.18785841485E+03  0.19111562742E+03  0.10566000000E+00 0. -1.
         -4    1    1    2    0  502  0.42152315433E+02 -0.17549263308E+02  0.17992417098E+03  0.18562731923E+03  0.00000000000E+00 0. -1.
</event>
<event>
 5    1  0.4881333E-005  0.9244496E+02  0.7818608E-02  0.1177699E+00
         -4   -1    0    0    0  501 -0.00000000000E+00  0.00000000000E+00  0.40098169063E+03  0.40098169063E+03  0.00000000000E+00 0. -1.
         21   -1    0    0  501  502  0.00000000000E+00 -0.00000000000E+00 -0.11301199237E+03  0.11301199237E+03  0.00000000000E+00 0. -1.
        -13    1    1    2    0    0 -0.82365918815E+02  0.74197099859E+02  0.19499768158E+03  0.22430662317E+03  0.10566000000E+00 0.  1.
         13    1    1    2    0    0  0.34563163811E+02 -0.76331793160E+02  0.17539423668E+03  0.19438185194E+03  0.10566000000E+00 0. -1.
         -4    1    1    2    0  502  0.47802755004E+02  0.21346933016E+01 -0.82422219999E+02  0.95305207890E+02  0.00000000000E+00 0. -1.
</event>
<event>
 5    1  0.4881333E-005  0.4409984E+03  0.7818608E-02  0.9865089E-01
         21   -1    0    0  501  502  0.00000000000E+00  0.00000000000E+00  0.22223985409E+04  0.22223985409E+04  0.00000000000E+00 0.  1.
          4   -1    0    0  502    0 -0.00000000000E+00 -0.00000000000E+00 -0.27578987178E+03  0.27578987178E+03  0.00000000000E+00 0.  1.
        -13    1    1    2    0    0 -0.14992313266E+03  0.37287005682E+03  0.12407450695E+04  0.13042075616E+04  0.10566000000E+00 0.  1.
         13    1    1    2    0    0 -0.16696870294E+03  0.85407655092E+02 -0.10132706642E+03  0.21316707265E+03  0.10566000000E+00 0. -1.
          4    1    1    2  501    0  0.31689183559E+03 -0.45827771191E+03  0.80719066604E+03  0.98081377847E+03  0.00000000000E+00 0.  1.
</event>
<event>
 5    1  0.4881333E-005  0.2566944E+03  0.7818608E-02  0.1026981E+00
         21   -1    0    0  501  502  0.00000000000E+00  0.00000000000E+00  0.22323637311E+03  0.22323637311E+03  0.00000000000E+00 0. -1.
         -4   -1    0    0    0  501 -0.00000000000E+00 -0.00000000000E+00 -0.11911605704E+04  0.11911605704E+04  0.00000000000E+00 0. -1.
        -13    1    1    2    0    0 -0.23639992681E+03  0.84148924499E+02 -0.46984602231E+03  0.53265491900E+03  0.10566000000E+00 0.  1.
         13    1    1    2    0    0  0.24353771893E+03 -0.94647193039E+02 -0.66492204527E+03  0.71441587968E+03  0.10566000000E+00 0. -1.
         -4    1    1    2    0  502 -0.71377921233E+01  0.10498268541E+02  0.16684387024E+03  0.16732614487E+03  0.00000000000E+00 0. -1.
</event>
<event>
 5    1  0.4881333E-005  0.6819792E+03  0.7818608E-02  0.9149538E-01
         -4   -1    0    0    0  501 -0.00000000000E+00  0.00000000000E+00  0.22227622375E+04  0.22227622375E+04  0.00000000000E+00 0. -1.
         21   -1    0    0  501  502  0.00000000000E+00 -0.00000000000E+00 -0.48708514235E+03  0.48708514235E+03  0.00000000000E+00 0.  1.
        -13    1    1    2    0    0  0.71989326537E+03 -0.32161812139E+03  0.71513135665E+03  0.10644704777E+04  0.10566000000E+00 0.  1.
         13    1    1    2    0    0 -0.65775589279E+03 -0.12238366438E+03  0.99149025509E+03  0.11961076511E+04  0.10566000000E+00 0. -1.
         -4    1    1    2    0  502 -0.62137372589E+02  0.44400178577E+03  0.29055483408E+02  0.44926925107E+03  0.00000000000E+00 0. -1.
</event>
<event>
 5    1  0.4881333E-005  0.2635718E+03  0.7818608E-02  0.1023590E+00
         -4   -1    0    0    0  501 -0.00000000000E+00  0.00000000000E+00  0.23126577197E+04  0.23126577197E+04  0.00000000000E+00 0. -1.
         21   -1    0    0  501  502  0.00000000000E+00 -0.00000000000E+00 -0.46992402436E+02  0.46992402436E+02  0.00000000000E+00 0.  1.
        -13    1    1    2    0    0  0.16876551685E+03  0.13905160186E+03  0.44602742641E+03  0.49674704220E+03  0.10566000000E+00 0.  1.
         13    1    1    2    0    0 -0.16647666901E+03 -0.24002612454E+03  0.14806352551E+04  0.15091745398E+04  0.10566000000E+00 0. -1.
         -4    1    1    2    0  502 -0.22888478460E+01  0.10097452269E+03  0.33900263571E+03  0.35372854009E+03  0.00000000000E+00 0. -1.
</event>
<event>
 5    1  0.4881333E-005  0.5335526E+03  0.7818608E-02  0.9461100E-01
          4   -1    0    0  502    0 -0.00000000000E+00  0.00000000000E+00  0.33227290903E+04  0.33227290903E+04  0.00000000000E+00 0.  1.
         21   -1    0    0  501  502  0.00000000000E+00 -0.00000000000E+00 -0.31081416768E+03  0.31081416768E+03  0.00000000000E+00 0. -1.
        -13    1    1    2    0    0 -0.48274552289E+03  0.21464975275E+03  0.31750173566E+03  0.61638066123E+03  0.10566000000E+00 0.  1.
         13    1    1    2    0    0  0.43658293087E+03  0.39553130217E+03  0.20306224181E+04  0.21143502743E+04  0.10566000000E+00 0. -1.
          4    1    1    2  501    0  0.46162592017E+02 -0.61018105492E+03  0.66379076888E+03  0.90281232243E+03  0.00000000000E+00 0.  1.
</event>
<event>
 5    1  0.4881333E-005  0.1264866E+03  0.7818608E-02  0.1145884E+00
         21   -1    0    0  501  502  0.00000000000E+00  0.00000000000E+00  0.32561493674E+03  0.32561493674E+03  0.00000000000E+00 0.  1.
          4   -1    0    0  502    0 -0.00000000000E+00 -0.00000000000E+00 -0.92200131619E+02  0.92200131619E+02  0.00000000000E+00 0.  1.
        -13    1    1    2    0    0 -0.14408345929E+03  0.71242830641E+02  0.11883550097E+03  0.19989365076E+03  0.10566000000E+00 0.  1.
         13    1    1    2    0    0  0.77976104821E+02  0.55140201493E+01  0.77419533826E+02  0.11002032868E+03  0.10566000000E+00 0. -1.
          4    1    1    2  501    0  0.66107354473E+02 -0.76756850790E+02  0.37159770326E+02  0.10790108892E+03  0.00000000000E+00 0.  1.
</event>
<event>
 5    1  0.4881333E-005  0.4973763E+03  0.7818608E-02  0.9795502E-01
         21   -1    0    0  501  502  0.00000000000E+00  0.00000000000E+00  0.35234477581E+03  0.35234477581E+03  0.00000000000E+00 0. -1.
         -4   -1    0    0    0  501 -0.00000000000E+00 -0.00000000000E+00 -0.16701683207E+04  0.16701683207E+04  0.00000000000E+00 0. -1.
        -13    1    1    2    0    0  0.86103884516E+02 -0.14138617535E+03 -0.92570373073E+03  0.94038892898E+03  0.10566000000E+00 0.  1.
         13    1    1    2    0    0 -0.53967572824E+03  0.67475064835E+02 -0.15795866857E+03  0.56635124099E+03  0.10566000000E+00 0. -1.
         -4    1    1    2    0  502  0.45357184372E+03  0.73911110519E+02 -0.23416114564E+03  0.51577292659E+03  0.00000000000E+00 0. -1.
</event>
<event>
 5    1  0.4881333E-005  0.4538237E+03  0.7818608E-02  0.9595106E-01
         21   -1    0    0  501  502  0.00000000000E+00  0.00000000000E+00  0.57928061752E+03  0.57928061752E+03  0.00000000000E+00 0. -1.
         -4   -1    0    0    0  501 -0.00000000000E+00 -0.00000000000E+00 -0.10980777539E+04  0.10980777539E+04  0.00000000000E+00 0. -1.
        -13    1    1    2    0    0  0.46610593276E+03 -0.55627842650E+02 -0.29282807423E+03  0.55326077907E+03  0.10566000000E+00 0.  1.
         13    1    1    2    0    0 -0.36265696497E+03 -0.39440822604E+03 -0.35730985214E+03  0.64400952214E+03  0.10566000000E+00 0. -1.
         -4    1    1    2    0  502 -0.10344896779E+03  0.45003606869E+03  0.13134078997E+03  0.48008807022E+03  0.00000000000E+00 0. -1.
</event>
<event>
 5    1  0.4881333E-005  0.4307734E+03  0.7818608E-02  0.9644161E-01
         -4   -1    0    0    0  501 -0.00000000000E+00  0.00000000000E+00  0.42254324668E+04  0.42254324668E+04  0.00000000000E+00 0. -1.
         21   -1    0    0  501  502  0.00000000000E+00 -0.00000000000E+00 -0.12638776098E+03  0.12638776098E+03  0.00000000000E+00 0. -1.
        -13    1    1    2    0    0  0.30655019109E+03 -0.20585401066E+03  0.14527545639E+04  0.14989478735E+04  0.10566000000E+00 0.  1.
         13    1    1    2    0    0 -0.40791019715E+03  0.27122312859E+03  0.26825664489E+04  0.27269241790E+04  0.10566000000E+00 0. -1.
         -4    1    1    2    0  502  0.10136000606E+03 -0.65369117927E+02 -0.36276306941E+02  0.12594817527E+03  0.00000000000E+00 0. -1.
</event>
<event>
 5    1  0.4881333E-005  0.3866495E+03  0.7818608E-02  0.1002507E+00
         21   -1    0    0  501  502  0.00000000000E+00  0.00000000000E+00  0.38922028237E+03  0.38922028237E+03  0.00000000000E+00 0. -1.
         -4   -1    0    0    0  501 -0.00000000000E+00 -0.00000000000E+00 -0.10164119941E+04  0.10164119941E+04  0.00000000000E+00 0. -1.
        -13    1    1    2    0    0  0.28767856715E+02  0.16119325518E+03 -0.32798308289E+03  0.36658391798E+03  0.10566000000E+00 0.  1.
         13    1    1    2    0    0  0.37401811256E+03  0.42817296082E+02  0.14710729583E+03  0.40418243036E+03  0.10566000000E+00 0. -1.
         -4    1    1    2    0  502 -0.40278596927E+03 -0.20401055127E+03 -0.44631592466E+03  0.63486592811E+03  0.00000000000E+00 0. -1.
</event>
<event>
 5    1  0.4881333E-005  0.3675272E+03  0.7818608E-02  0.1017519E+00
         21   -1    0    0  501  502  0.00000000000E+00  0.00000000000E+00  0.28042731266E+03  0.28042731266E+03  0.00000000000E+00 0.  1.
          4   -1    0    0  502    0 -0.00000000000E+00 -0.00000000000E+00 -0.14492827031E+04  0.14492827031E+04  0.00000000000E+00 0.  1.
        -13    1    1    2    0    0 -0.24595574756E+03 -0.26849704633E+03 -0.63375536369E+03  0.73091091510E+03  0.10566000000E+00 0.  1.
         13    1    1    2    0    0 -0.78706920452E+02  0.87497890295E+02 -0.60861674448E+03  0.61989112993E+03  0.10566000000E+00 0. -1.
          4    1    1    2  501    0  0.32466266801E+03  0.18099915604E+03  0.73516717753E+02  0.37890797072E+03  0.00000000000E+00 0.  1.
</event>
<event>
 5    1  0.4881333E-005  0.1639614E+03  0.7818608E-02  0.1088104E+00
         21   -1    0    0  501  502  0.00000000000E+00  0.00000000000E+00  0.10826319634E+04  0.10826319634E+04  0.00000000000E+00 0. -1.
         -4   -1    0    0    0  501 -0.00000000000E+00 -0.00000000000E+00 -0.78131556656E+02  0.78131556656E+02  0.00000000000E+00 0. -1.
        -13    1    1    2    0    0  0.46957633628E+02  0.15169238507E+03  0.29450437433E+03  0.33458696434E+03  0.10566000000E+00 0.  1.
         13    1    1    2    0    0 -0.29080347812E+02 -0.16370073607E+03  0.61423970559E+02  0.17724703931E+03  0.10566000000E+00 0. -1.
         -4    1    1    2    0  502 -0.17877285816E+02  0.12008351002E+02  0.64857206187E+03  0.64892951642E+03  0.00000000000E+00 0. -1.
</event>
<event>
 5    1  0.4881333E-005  0.2509482E+03  0.7818608E-02  0.1038261E+00
         21   -1    0    0  501  502  0.00000000000E+00  0.00000000000E+00  0.34412469497E+03  0.34412469497E+03  0.00000000000E+00 0.  1.
          4   -1    0    0  502    0 -0.00000000000E+00 -0.00000000000E+00 -0.17807282554E+04  0.17807282554E+04  0.00000000000E+00 0.  1.
        -13    1    1    2    0    0  0.46811445517E+02 -0.41572805831E+03 -0.65673262546E+03  0.77866480748E+03  0.10566000000E+00 0.  1.
         13    1    1    2    0    0  0.35779412027E+02  0.19090997300E+03 -0.10013242983E+04  0.10199887968E+04  0.10566000000E+00 0. -1.
          4    1    1    2  501    0 -0.82590857544E+02  0.22481808532E+03  0.22145336334E+03  0.32619934606E+03  0.00000000000E+00 0.  1.
</event>
<event>
 5    1  0.4881333E-005  0.1576359E+03  0.7818608E-02  0.1093816E+00
         -4   -1    0    0    0  501 -0.00000000000E+00  0.00000000000E+00  0.79789422831E+03  0.79789422831E+03  0.00000000000E+00 0. -1.
         21   -1    0    0  501  502  0.00000000000E+00 -0.00000000000E+00 -0.35317288504E+03  0.35317288504E+03  0.00000000000E+00 0.  1.
        -13    1    1    2    0    0 -0.13869305536E+03 -0.49158550512E+02 -0.31416038489E+03  0.34691365682E+03  0.10566000000E+00 0.  1.
         13    1    1    2    0    0  0.14793143586E+03  0.55186426199E+02  0.77144377669E+03  0.78743556124E+03  0.10566000000E+00 0. -1.
         -4    1    1    2    0  502 -0.92383804998E+01 -0.60278756869E+01 -0.12562048529E+02  0.16717895286E+02  0.00000000000E+00 0. -1.
</event>
<event>
 5    1  0.4881333E-005  0.3781742E+03  0.7818608E-02  0.9893902E-01
         21   -1    0    0  501  502  0.00000000000E+00  0.00000000000E+00  0.15591217901E+03  0.15591217901E+03  0.00000000000E+00 0.  1.
          4   -1    0    0  502    0 -0.00000000000E+00 -0.00000000000E+00 -0.30892462259E+04  0.30892462259E+04  0.00000000000E+00 0.  1.
        -13    1    1    2    0    0  0.23519467060E+02 -0.39512262972E+03 -0.21155493953E+03  0.44881016193E+03  0.10566000000E+00 0.  1.
         13    1    1    2    0    0  0.23661299610E+03  0.12997631990E+03 -0.11647068236E+04  0.11955841876E+04  0.10566000000E+00 0. -1.
          4    1    1    2  501    0 -0.26013246316E+03  0.26514630982E+03 -0.15570722838E+04  0.16007640554E+04  0.00000000000E+00 0.  1.
</event>
<event>
 5    1  0.4881333E-005  0.4026458E+03  0.7818608E-02  0.9721436E-01
         21   -1    0    0  501  502  0.00000000000E+00  0.00000000000E+00  0.47883309602E+03  0.47883309602E+03  0.00000000000E+00 0.  1.
         -4   -1    0    0    0  501 -0.00000000000E+00 -0.00000000000E+00 -0.11625293001E+04  0.11625293001E+04  0.00000000000E+00 0. -1.
        -13    1    1    2    0    0  0.42617763879E+02  0.34631379848E+03 -0.41245147051E+03  0.54024600647E+03  0.10566000000E+00 0.  1.
         13    1    1    2    0    0  0.24172455483E+03 -0.51538271365E+03 -0.44950887772E+03  0.72533326427E+03  0.10566000000E+00 0. -1.
         -4    1    1    2    0  502 -0.28434231871E+03  0.16906891517E+03  0.17826414410E+03  0.37578312543E+03  0.00000000000E+00 0. -1.
</event>
<event>
 5    1  0.4881333E-005  0.2386041E+03  0.7818608E-02  0.1036473E+00
         21   -1    0    0  501  502  0.00000000000E+00  0.00000000000E+00  0.24453265214E+03  0.24453265214E+03  0.00000000000E+00 0. -1.
          4   -1    0    0  502    0 -0.00000000000E+00 -0.00000000000E+00 -0.72051251048E+03  0.72051251048E+03  0.00000000000E+00 0.  1.
        -13    1    1    2    0    0  0.23780764489E+03 -0.30771029515E+01 -0.60113921320E+03  0.64647529678E+03  0.10566000000E+00 0.  1.
         13    1    1    2    0    0 -0.24585269963E+03 -0.33016419986E+02  0.13195267305E+03  0.28097180106E+03  0.10566000000E+00 0. -1.
          4    1    1    2  501    0  0.80450547420E+01  0.36093522938E+02 -0.67933181876E+01  0.37598064789E+02  0.00000000000E+00 0.  1.
</event>
<event>
 5    1  0.4881333E-005  0.5086151E+02  0.7818608E-02  0.1288320E+00
         21   -1    0    0  501  502  0.00000000000E+00  0.00000000000E+00  0.17650509742E+03  0.17650509742E+03  0.00000000000E+00 0.  1.
         -4   -1    0    0    0  501 -0.00000000000E+00 -0.00000000000E+00 -0.76054650203E+02  0.76054650203E+02  0.00000000000E+00 0. -1.
        -13    1    1    2    0    0 -0.65280370669E+02 -0.36016766223E+02  0.62517227281E+02  0.97299276023E+02  0.10566000000E+00 0.  1.
         13    1    1    2    0    0  0.43092563803E+02  0.20846214164E+02 -0.46448778509E+02  0.66701078620E+02  0.10566000000E+00 0. -1.
         -4    1    1    2    0  502  0.22187806866E+02  0.15170552059E+02  0.84381998442E+02  0.88559392976E+02  0.00000000000E+00 0. -1.
</event>
<event>
 5    1  0.4881333E-005  0.4757950E+03  0.7818608E-02  0.9954754E-01
          4   -1    0    0  502    0 -0.00000000000E+00  0.00000000000E+00  0.14140950988E+04  0.14140950988E+04  0.00000000000E+00 0.  1.
         21   -1    0    0  501  502  0.00000000000E+00 -0.00000000000E+00 -0.22462369019E+03  0.22462369019E+03  0.00000000000E+00 0.  1.
        -13    1    1    2    0    0 -0.37997727957E+03  0.22706347572E+03  0.65008403537E+03  0.78647938257E+03  0.10566000000E+00 0.  1.
         13    1    1    2    0    0  0.11829330814E+02  0.11006563227E+03  0.25437100393E+03  0.27741484329E+03  0.10566000000E+00 0. -1.
          4    1    1    2  501    0  0.36814794876E+03 -0.33712910799E+03  0.28501636933E+03  0.57482456316E+03  0.00000000000E+00 0.  1.
</event>
<event>
 5    1  0.4881333E-005  0.7850514E+02  0.7818608E-02  0.1206029E+00
          4   -1    0    0  502    0 -0.00000000000E+00  0.00000000000E+00  0.40333204979E+03  0.40333204979E+03  0.00000000000E+00 0.  1.
         21   -1    0    0  501  502  0.00000000000E+00 -0.00000000000E+00 -0.36729934849E+02  0.36729934849E+02  0.00000000000E+00 0. -1.
        -13    1    1    2    0    0 -0.34105888705E+02  0.69978297580E+02  0.32050171559E+03  0.32982045818E+03  0.10566000000E+00 0.  1.
         13    1    1    2    0    0  0.47858489805E+02 -0.67513065814E+02  0.48712050576E+02  0.96027725879E+02  0.10566000000E+00 0. -1.
          4    1    1    2  501    0 -0.13752601100E+02 -0.24652317660E+01 -0.26116512259E+01  0.14213800575E+02  0.00000000000E+00 0.  1.
</event>
<event>
 5    1  0.4881333E-005  0.3527410E+02  0.7818608E-02  0.1366960E+00
          4   -1    0    0  502    0 -0.00000000000E+00  0.00000000000E+00  0.36832866405E+02  0.36832866405E+02  0.00000000000E+00 0.  1.
         21   -1    0    0  501  502  0.00000000000E+00 -0.00000000000E+00 -0.18774268485E+03  0.18774268485E+03  0.00000000000E+00 0. -1.
        -13    1    1    2    0    0  0.27156264183E+02 -0.22760853223E+02  0.24277015694E+02  0.42952343112E+02  0.10566000000E+00 0.  1.
         13    1    1    2    0    0 -0.31484141641E+02  0.13026211499E+02 -0.15599559736E+03  0.15967332564E+03  0.10566000000E+00 0. -1.
          4    1    1    2  501    0  0.43278774588E+01  0.97346417238E+01 -0.19191236778E+02  0.21949882503E+02  0.00000000000E+00 0.  1.
</event>
<event>
 5    1  0.4881333E-005  0.7369399E+02  0.7818608E-02  0.1217356E+00
         21   -1    0    0  501  502  0.00000000000E+00  0.00000000000E+00  0.44886505249E+03  0.44886505249E+03  0.00000000000E+00 0. -1.
          4   -1    0    0  502    0 -0.00000000000E+00 -0.00000000000E+00 -0.34276738861E+02  0.34276738861E+02  0.00000000000E+00 0.  1.
        -13    1    1    2    0    0  0.71519775159E+02  0.20433933363E+01  0.21431237410E+02  0.74689777052E+02  0.10566000000E+00 0.  1.
         13    1    1    2    0    0 -0.86140742910E+02  0.11433279189E+02  0.26828726357E+03  0.28200889067E+03  0.10566000000E+00 0. -1.
          4    1    1    2  501    0  0.14620967751E+02 -0.13476672525E+02  0.12486981265E+03  0.12644312362E+03  0.00000000000E+00 0.  1.
</event>
<event>
 5    1  0.4881333E-005  0.5564982E+02  0.7818608E-02  0.1270352E+00
          4   -1    0    0  502    0 -0.00000000000E+00  0.00000000000E+00  0.28904680774E+03  0.28904680774E+03  0.00000000000E+00 0.  1.
         21   -1    0    0  501  502  0.00000000000E+00 -0.00000000000E+00 -0.30753098572E+02  0.30753098572E+02  0.00000000000E+00 0. -1.
        -13    1    1    2    0    0  0.24906972643E+02 -0.49500577487E+02  0.23282593901E+03  0.23932946642E+03  0.10566000000E+00 0.  1.
         13    1    1    2    0    0 -0.39168424725E+02  0.43750486982E+02  0.27708435495E+02  0.64931033937E+02  0.10566000000E+00 0. -1.
          4    1    1    2  501    0  0.14261452082E+02  0.57500905058E+01 -0.22406653334E+01  0.15539405956E+02  0.00000000000E+00 0.  1.
</event>
<event>
 5    1  0.4881333E-005  0.4740672E+03  0.7818608E-02  0.1050351E+00
         21   -1    0    0  501  502  0.00000000000E+00  0.00000000000E+00  0.13261296442E+03  0.13261296442E+03  0.00000000000E+00 0.  1.
          4   -1    0    0  502    0 -0.00000000000E+00 -0.00000000000E+00 -0.19471342464E+04  0.19471342464E+04  0.00000000000E+00 0.  1.
        -13    1    1    2    0    0  0.18896512588E+03  0.43104867346E+03 -0.11730580777E+04  0.12639525475E+04  0.10566000000E+00 0.  1.
         13    1    1    2    0    0 -0.15748388404E+02  0.12380250908E+02 -0.65824720234E+02  0.68805430802E+02  0.10566000000E+00 0. -1.
          4    1    1    2  501    0 -0.17321673748E+03 -0.44342892437E+03 -0.57563848413E+03  0.74698923253E+03  0.00000000000E+00 0.  1.
</event>
<event>
 5    1  0.4881333E-005  0.1913890E+03  0.7818608E-02  0.1066205E+00
         21   -1    0    0  501  502  0.00000000000E+00  0.00000000000E+00  0.25820002205E+03  0.25820002205E+03  0.00000000000E+00 0.  1.
         -4   -1    0    0    0  501 -0.00000000000E+00 -0.00000000000E+00 -0.30683843849E+03  0.30683843849E+03  0.00000000000E+00 0. -1.
        -13    1    1    2    0    0 -0.11147103706E+03  0.88936001363E+02  0.73251180455E+02  0.16031578538E+03  0.10566000000E+00 0.  1.
         13    1    1    2    0    0  0.12005122659E+03 -0.17572526874E+03 -0.19671705222E+03  0.28980903518E+03  0.10566000000E+00 0. -1.
         -4    1    1    2    0  502 -0.85801895282E+01  0.86789267373E+02  0.74827455321E+02  0.11491363998E+03  0.00000000000E+00 0. -1.
</event>
<event>
 5    1  0.4881333E-005  0.6613325E+03  0.7818608E-02  0.9181041E-01
          4   -1    0    0  502    0 -0.00000000000E+00  0.00000000000E+00  0.11263820169E+04  0.11263820169E+04  0.00000000000E+00 0.  1.
         21   -1    0    0  501  502  0.00000000000E+00 -0.00000000000E+00 -0.74297878414E+03  0.74297878414E+03  0.00000000000E+00 0. -1.
        -13    1    1    2    0    0  0.62017684780E+03  0.30137300240E+03  0.42251420825E+03  0.80867995923E+03  0.10566000000E+00 0.  1.
         13    1    1    2    0    0 -0.67572869668E+03  0.70701728643E+02  0.20829632931E+02  0.67973663335E+03  0.10566000000E+00 0. -1.
          4    1    1    2  501    0  0.55551848882E+02 -0.37207473104E+03 -0.59940608450E+02  0.38094420843E+03  0.00000000000E+00 0.  1.
</event>
<event>
 5    1  0.4881333E-005  0.3500411E+03  0.7818608E-02  0.1007794E+00
         21   -1    0    0  501  502  0.00000000000E+00  0.00000000000E+00  0.70066513320E+03  0.70066513320E+03  0.00000000000E+00 0. -1.
         -4   -1    0    0    0  501 -0.00000000000E+00 -0.00000000000E+00 -0.55567499384E+03  0.55567499384E+03  0.00000000000E+00 0. -1.
        -13    1    1    2    0    0 -0.18584697869E+03 -0.44245233504E+01 -0.27429273081E+03  0.33135357133E+03  0.10566000000E+00 0.  1.
         13    1    1    2    0    0  0.48852349991E+03  0.16799837404E+01  0.12824857397E+03  0.50507993447E+03  0.10566000000E+00 0. -1.
         -4    1    1    2    0  502 -0.30267652123E+03  0.27445396100E+01  0.29103429620E+03  0.41990662124E+03  0.00000000000E+00 0. -1.
</event>
<event>
 5    1  0.4881333E-005  0.4267450E+03  0.7818608E-02  0.9835622E-01
         21   -1    0    0  501  502  0.00000000000E+00  0.00000000000E+00  0.34832732077E+03  0.34832732077E+03  0.00000000000E+00 0.  1.
          4   -1    0    0  502    0 -0.00000000000E+00 -0.00000000000E+00 -0.12988479468E+04  0.12988479468E+04  0.00000000000E+00 0.  1.
        -13    1    1    2    0    0 -0.10539133162E+03 -0.48117474954E+03 -0.52093609775E+03  0.71694553593E+03  0.10566000000E+00 0.  1.
         13    1    1    2    0    0  0.21531110293E+03  0.76932754097E+02 -0.45638277228E+03  0.51045349024E+03  0.10566000000E+00 0. -1.
          4    1    1    2  501    0 -0.10991977131E+03  0.40424199545E+03  0.26798243955E+02  0.41977624145E+03  0.00000000000E+00 0.  1.
</event>
<event>
 5    1  0.4881333E-005  0.8164259E+03  0.7818608E-02  0.8969330E-01
         21   -1    0    0  501  502  0.00000000000E+00  0.00000000000E+00  0.62880273854E+03  0.62880273854E+03  0.00000000000E+00 0.  1.
         -4   -1    0    0    0  501 -0.00000000000E+00 -0.00000000000E+00 -0.18627590525E+04  0.18627590525E+04  0.00000000000E+00 0. -1.
        -13    1    1    2    0    0  0.35995623245E+03 -0.74971646896E+03 -0.39678535107E+03  0.92145640108E+03  0.10566000000E+00 0.  1.
         13    1    1    2    0    0 -0.19064850619E+03  0.79203864140E+03 -0.10278998551E+04  0.13115830838E+04  0.10566000000E+00 0. -1.
         -4    1    1    2    0  502 -0.16930772626E+03 -0.42322172443E+02  0.19072889224E+03  0.25852230617E+03  0.00000000000E+00 0. -1.
</event>
<event>
 5    1  0.4881333E-005  0.3837309E+03  0.7818608E-02  0.9888054E-01
         21   -1    0    0  501  502  0.00000000000E+00  0.00000000000E+00  0.19980259778E+03  0.19980259778E+03  0.00000000000E+00 0.  1.
          4   -1    0    0  502    0 -0.00000000000E+00 -0.00000000000E+00 -0.29373199916E+04  0.29373199916E+04  0.00000000000E+00 0.  1.
        -13    1    1    2    0    0  0.28243565057E+03 -0.28559339640E+03 -0.94750809363E+02  0.41268778976E+03  0.10566000000E+00 0.  1.
         13    1    1    2    0    0 -0.24933056435E+03 -0.85298131991E+02 -0.14868554906E+04  0.15100267424E+04  0.10566000000E+00 0. -1.
          4    1    1    2  501    0 -0.33105086215E+02  0.37089152839E+03 -0.11559110939E+04  0.12144080573E+04  0.00000000000E+00 0.  1.
</event>
<event>
 5    1  0.4881333E-005  0.4706567E+03  0.7818608E-02  0.9632995E-01
          4   -1    0    0  502    0 -0.00000000000E+00  0.00000000000E+00  0.17482827846E+04  0.17482827846E+04  0.00000000000E+00 0.  1.
         21   -1    0    0  501  502  0.00000000000E+00 -0.00000000000E+00 -0.28428807785E+03  0.28428807785E+03  0.00000000000E+00 0.  1.
        -13    1    1    2    0    0  0.21030910546E+03  0.42970089750E+03  0.80191263901E+03  0.93377549385E+03  0.10566000000E+00 0.  1.
         13    1    1    2    0    0  0.25479104948E+03 -0.23045472263E+03  0.40552529078E+03  0.53148718771E+03  0.10566000000E+00 0. -1.
          4    1    1    2  501    0 -0.46510015494E+03 -0.19924617487E+03  0.25655677701E+03  0.56730818093E+03  0.00000000000E+00 0.  1.
</event>
<event>
 5    1  0.4881333E-005  0.1853811E+03  0.7818608E-02  0.1070648E+00
         -4   -1    0    0    0  501 -0.00000000000E+00  0.00000000000E+00  0.32143793262E+03  0.32143793262E+03  0.00000000000E+00 0. -1.
         21   -1    0    0  501  502  0.00000000000E+00 -0.00000000000E+00 -0.42103254275E+03  0.42103254275E+03  0.00000000000E+00 0.  1.
        -13    1    1    2    0    0 -0.16265730644E+03 -0.20279904014E+03 -0.14851865871E+03  0.29940382959E+03  0.10566000000E+00 0.  1.
         13    1    1    2    0    0  0.28230319018E+02  0.17549007987E+03  0.18026178003E+03  0.25315615645E+03  0.10566000000E+00 0. -1.
         -4    1    1    2    0  502  0.13442698742E+03  0.27308960279E+02 -0.13133773145E+03  0.18991048934E+03  0.00000000000E+00 0. -1.
</event>
<event>
 5    1  0.4881333E-005  0.3930602E+03  0.7818608E-02  0.9749305E-01
         -4   -1    0    0    0  501 -0.00000000000E+00  0.00000000000E+00  0.22518689500E+04  0.22518689500E+04  0.00000000000E+00 0. -1.
         21   -1    0    0  501  502  0.00000000000E+00 -0.00000000000E+00 -0.18720725661E+03  0.18720725661E+03  0.00000000000E+00 0. -1.
        -13    1    1    2    0    0 -0.85467752202E+02 -0.32433797226E+03  0.89536498823E+03  0.95612673335E+03  0.10566000000E+00 0.  1.
         13    1    1    2    0    0  0.35460738041E+03  0.47404597380E+03  0.87868866896E+03  0.10595092107E+04  0.10566000000E+00 0. -1.
         -4    1    1    2    0  502 -0.26913962821E+03 -0.14970800154E+03  0.29060803617E+03  0.42344026247E+03  0.00000000000E+00 0. -1.
</event>
<event>
 5    1  0.4881333E-005  0.1457213E+03  0.7818608E-02  0.1152936E+00
          4   -1    0    0  502    0 -0.00000000000E+00  0.00000000000E+00  0.22096942055E+03  0.22096942055E+03  0.00000000000E+00 0.  1.
         21   -1    0    0  501  502  0.00000000000E+00 -0.00000000000E+00 -0.56994226970E+03  0.56994226970E+03  0.00000000000E+00 0.  1.
        -13    1    1    2    0    0  0.15475535438E+03  0.93604267431E+01 -0.48115096983E+03  0.50551271421E+03  0.10566000000E+00 0.  1.
         13    1    1    2    0    0 -0.42699209888E+02  0.43294220785E+01  0.16285537345E+03  0.16841570665E+03  0.10566000000E+00 0. -1.
          4    1    1    2  501    0 -0.11205614449E+03 -0.13689848822E+02 -0.30677252773E+02  0.11698326939E+03  0.00000000000E+00 0.  1.
</event>
<event>
 5    1  0.4881333E-005  0.4600121E+03  0.7818608E-02  0.9570206E-01
         -4   -1    0    0    0  501 -0.00000000000E+00  0.00000000000E+00  0.15882545597E+04  0.15882545597E+04  0.00000000000E+00 0. -1.
         21   -1    0    0  501  502  0.00000000000E+00 -0.00000000000E+00 -0.53113483760E+03  0.53113483760E+03  0.00000000000E+00 0. -1.
        -13    1    1    2    0    0  0.44551635582E+03 -0.10401966386E+03  0.90607011065E+03  0.10150211674E+04  0.10566000000E+00 0.  1.
         13    1    1    2    0    0 -0.49873007381E+03 -0.24968782310E+03  0.38432510475E+03  0.67733410724E+03  0.10566000000E+00 0. -1.
         -4    1    1    2    0  502  0.53213717995E+02  0.35370748696E+03 -0.23327549329E+03  0.42703412262E+03  0.00000000000E+00 0. -1.
</event>
<event>
 5    1  0.4881333E-005  0.8764275E+02  0.7818608E-02  0.1186798E+00
         21   -1    0    0  501  502  0.00000000000E+00  0.00000000000E+00  0.77761671454E+03  0.77761671454E+03  0.00000000000E+00 0.  1.
          4   -1    0    0  502    0 -0.00000000000E+00 -0.00000000000E+00 -0.68695431439E+02  0.68695431439E+02  0.00000000000E+00 0.  1.
        -13    1    1    2    0    0 -0.70377348617E+02  0.53373984267E+02 -0.33889474919E+02  0.94605819426E+02  0.10566000000E+00 0.  1.
         13    1    1    2    0    0  0.70110093503E+02 -0.38600929704E+02  0.36791323060E+03  0.37651774646E+03  0.10566000000E+00 0. -1.
          4    1    1    2  501    0  0.26725511401E+00 -0.14773054563E+02  0.37489752742E+03  0.37518858010E+03  0.00000000000E+00 0.  1.
</event>
<event>
 5    1  0.4881333E-005  0.1592165E+03  0.7818608E-02  0.1092362E+00
         21   -1    0    0  501  502  0.00000000000E+00  0.00000000000E+00  0.20713010780E+03  0.20713010780E+03  0.00000000000E+00 0.  1.
         -4   -1    0    0    0  501 -0.00000000000E+00 -0.00000000000E+00 -0.19222313280E+03  0.19222313280E+03  0.00000000000E+00 0. -1.
        -13    1    1    2    0    0  0.10493375742E+03  0.12970859996E+03  0.86380723192E+01  0.16706298755E+03  0.10566000000E+00 0.  1.
         13    1    1    2    0    0 -0.54311795826E+02 -0.14780626941E+03 -0.38754068357E+02  0.16216767070E+03  0.10566000000E+00 0. -1.
         -4    1    1    2    0  502 -0.50621961597E+02  0.18097669450E+02  0.45022971040E+02  0.70122582359E+02  0.00000000000E+00 0. -1.
</event>
<event>
 5    1  0.4881333E-005  0.4546341E+03  0.7818608E-02  0.9730829E-01
          4   -1    0    0  502    0 -0.00000000000E+00  0.00000000000E+00  0.11082412196E+04  0.11082412196E+04  0.00000000000E+00 0.  1.
         21   -1    0    0  501  502  0.00000000000E+00 -0.00000000000E+00 -0.42106695026E+03  0.42106695026E+03  0.00000000000E+00 0.  1.
        -13    1    1    2    0    0  0.57218349465E+03 -0.24150796000E+03  0.33876257766E+03  0.70744621102E+03  0.10566000000E+00 0.  1.
         13    1    1    2    0    0 -0.17852102832E+03  0.20356213930E+03  0.32874250833E+03  0.42588607638E+03  0.10566000000E+00 0. -1.
          4    1    1    2  501    0 -0.39366246634E+03  0.37945820704E+02  0.19669183339E+02  0.39597588246E+03  0.00000000000E+00 0.  1.
</event>
<event>
 5    1  0.4881333E-005  0.1319279E+03  0.7818608E-02  0.1128983E+00
         -4   -1    0    0    0  501 -0.00000000000E+00  0.00000000000E+00  0.64221725592E+03  0.64221725592E+03  0.00000000000E+00 0. -1.
         21   -1    0    0  501  502  0.00000000000E+00 -0.00000000000E+00 -0.90039224536E+02  0.90039224536E+02  0.00000000000E+00 0.  1.
        -13    1    1    2    0    0  0.52514942780E+02  0.91762306800E+02  0.97274164251E+02  0.14366772205E+03  0.10566000000E+00 0.  1.
         13    1    1    2    0    0 -0.16790622410E+02 -0.20600098247E+03  0.41289528820E+03  0.46173678645E+03  0.10566000000E+00 0. -1.
         -4    1    1    2    0  502 -0.35724320370E+02  0.11423867567E+03  0.42008578932E+02  0.12685197195E+03  0.00000000000E+00 0. -1.
</event>
<event>
 5    1  0.4881333E-005  0.3445807E+03  0.7818608E-02  0.9904372E-01
          4   -1    0    0  502    0 -0.00000000000E+00  0.00000000000E+00  0.80532787111E+03  0.80532787111E+03  0.00000000000E+00 0.  1.
         21   -1    0    0  501  502  0.00000000000E+00 -0.00000000000E+00 -0.22620112562E+03  0.22620112562E+03  0.00000000000E+00 0. -1.
        -13    1    1    2    0    0  0.14584038598E+03  0.30785840703E+03  0.44825592333E+03  0.56300941460E+03  0.10566000000E+00 0.  1.
         13    1    1    2    0    0 -0.16774490196E+03 -0.30949056045E+03  0.19381391865E+03  0.40185396025E+03  0.10566000000E+00 0. -1.
          4    1    1    2  501    0  0.21904515980E+02  0.16321534235E+01 -0.62943096487E+02  0.66665621879E+02  0.00000000000E+00 0.  1.
</event>
<event>
 5    1  0.4881333E-005  0.6443630E+02  0.7818608E-02  0.1242128E+00
          4   -1    0    0  502    0 -0.00000000000E+00  0.00000000000E+00  0.57835530895E+02  0.57835530895E+02  0.00000000000E+00 0.  1.
         21   -1    0    0  501  502  0.00000000000E+00 -0.00000000000E+00 -0.37600589143E+03  0.37600589143E+03  0.00000000000E+00 0. -1.
        -13    1    1    2    0    0  0.54940219543E+02 -0.34712680121E+02  0.28793328739E+02  0.71080692375E+02  0.10566000000E+00 0.  1.
         13    1    1    2    0    0 -0.63085197416E+02  0.12838258495E+02 -0.13553722589E+03  0.15004970436E+03  0.10566000000E+00 0. -1.
          4    1    1    2  501    0  0.81449778734E+01  0.21874421626E+02 -0.21142646339E+03  0.21271102559E+03  0.00000000000E+00 0.  1.
</event>
<event>
 5    1  0.4881333E-005  0.4382647E+03  0.7818608E-02  0.9648822E-01
          4   -1    0    0  502    0 -0.00000000000E+00  0.00000000000E+00  0.62922990137E+03  0.62922990137E+03  0.00000000000E+00 0.  1.
         21   -1    0    0  501  502  0.00000000000E+00 -0.00000000000E+00 -0.18733455480E+04  0.18733455480E+04  0.00000000000E+00 0. -1.
        -13    1    1    2    0    0  0.20071011791E+03 -0.38000243793E+03  0.38936859707E+03  0.57990888923E+03  0.10566000000E+00 0.  1.
         13    1    1    2    0    0 -0.53670292321E+03  0.69672253487E+02 -0.71634425382E+03  0.89780474037E+03  0.10566000000E+00 0. -1.
          4    1    1    2  501    0  0.33599280530E+03  0.31033018444E+03 -0.91713998989E+03  0.10248618198E+04  0.00000000000E+00 0.  1.
</event>
<event>
 5    1  0.4881333E-005  0.6723090E+02  0.7818608E-02  0.1265000E+00
          4   -1    0    0  502    0 -0.00000000000E+00  0.00000000000E+00  0.77212254920E+02  0.77212254920E+02  0.00000000000E+00 0.  1.
         21   -1    0    0  501  502  0.00000000000E+00 -0.00000000000E+00 -0.22815588448E+03  0.22815588448E+03  0.00000000000E+00 0.  1.
        -13    1    1    2    0    0  0.34233525918E+02  0.36533522262E+02  0.54485407343E+02  0.73995292574E+02  0.10566000000E+00 0.  1.
         13    1    1    2    0    0  0.32107375016E+02 -0.14428377560E+02 -0.52417955585E+02  0.63140437448E+02  0.10566000000E+00 0. -1.
          4    1    1    2  501    0 -0.66340900933E+02 -0.22105144703E+02 -0.15301108132E+03  0.16823240938E+03  0.00000000000E+00 0.  1.
</event>
<event>
 5    1  0.4881333E-005  0.4895390E+03  0.7818608E-02  0.9718226E-01
         21   -1    0    0  501  502  0.00000000000E+00  0.00000000000E+00  0.16157854488E+03  0.16157854488E+03  0.00000000000E+00 0.  1.
         -4   -1    0    0    0  501 -0.00000000000E+00 -0.00000000000E+00 -0.25096579069E+04  0.25096579069E+04  0.00000000000E+00 0. -1.
        -13    1    1    2    0    0 -0.22481531194E+03 -0.27993840536E+02 -0.70847544773E+03  0.74381654378E+03  0.10566000000E+00 0.  1.
         13    1    1    2    0    0  0.30189711476E+03 -0.43274755459E+03 -0.68515431329E+03  0.86478249178E+03  0.10566000000E+00 0. -1.
         -4    1    1    2    0  502 -0.77081802815E+02  0.46074139512E+03 -0.95444960095E+03  0.10626374162E+04  0.00000000000E+00 0. -1.
</event>
<event>
 5    1  0.4881333E-005  0.4604245E+03  0.7818608E-02  0.9652522E-01
         21   -1    0    0  501  502  0.00000000000E+00  0.00000000000E+00  0.28491676369E+03  0.28491676369E+03  0.00000000000E+00 0. -1.
         -4   -1    0    0    0  501 -0.00000000000E+00 -0.00000000000E+00 -0.17806327853E+04  0.17806327853E+04  0.00000000000E+00 0. -1.
        -13    1    1    2    0    0 -0.31652038423E+03  0.13100321069E+03 -0.57455204217E+03  0.66892230877E+03  0.10566000000E+00 0.  1.
         13    1    1    2    0    0  0.25597828144E+03 -0.54869966178E+03 -0.68012896032E+03  0.91058860813E+03  0.10566000000E+00 0. -1.
         -4    1    1    2    0  502  0.60542102785E+02  0.41769645109E+03 -0.24103501916E+03  0.48603863213E+03  0.00000000000E+00 0. -1.
</event>
<event>
 5    1  0.4881333E-005  0.5489492E+03  0.7818608E-02  0.9376689E-01
          4   -1    0    0  502    0 -0.00000000000E+00  0.00000000000E+00  0.21526594528E+04  0.21526594528E+04  0.00000000000E+00 0.  1.
         21   -1    0    0  501  502  0.00000000000E+00 -0.00000000000E+00 -0.37909971987E+03  0.37909971987E+03  0.00000000000E+00 0. -1.
        -13    1    1    2    0    0 -0.55873039386E+02  0.58531794118E+03  0.10623721764E+04  0.12142296081E+04  0.10566000000E+00 0.  1.
         13    1    1    2    0    0 -0.41670031441E+03 -0.44748877888E+03  0.45801507888E+03  0.76397852253E+03  0.10566000000E+00 0. -1.
          4    1    1    2  501    0  0.47257335379E+03 -0.13782916230E+03  0.25317247763E+03  0.55355104202E+03  0.00000000000E+00 0.  1.
</event>
<event>
 5    1  0.4881333E-005  0.1045227E+03  0.7818608E-02  0.1157282E+00
         21   -1    0    0  501  502  0.00000000000E+00  0.00000000000E+00  0.34884378235E+02  0.34884378235E+02  0.00000000000E+00 0.  1.
         -4   -1    0    0    0  501 -0.00000000000E+00 -0.00000000000E+00 -0.69938216009E+03  0.69938216009E+03  0.00000000000E+00 0. -1.
        -13    1    1    2    0    0 -0.10030688412E+03 -0.44338865283E+02 -0.22884067025E+03  0.25376262432E+03  0.10566000000E+00 0.  1.
         13    1    1    2    0    0  0.82365590370E+02  0.61804078809E+02 -0.44268009113E+03  0.45449918469E+03  0.10566000000E+00 0. -1.
         -4    1    1    2    0  502  0.17941293751E+02 -0.17465213526E+02  0.70229795343E+01  0.26004729310E+02  0.00000000000E+00 0. -1.
</event>
<event>
 5    1  0.4881333E-005  0.6308268E+03  0.7818608E-02  0.9229859E-01
          4   -1    0    0  502    0 -0.00000000000E+00  0.00000000000E+00  0.21911956550E+04  0.21911956550E+04  0.00000000000E+00 0.  1.
         21   -1    0    0  501  502  0.00000000000E+00 -0.00000000000E+00 -0.39412149838E+03  0.39412149838E+03  0.00000000000E+00 0. -1.
        -13    1    1    2    0    0 -0.15988067045E+03  0.66427653156E+03  0.12841767051E+04  0.14546253676E+04  0.10566000000E+00 0.  1.
         13    1    1    2    0    0  0.45472279845E+03 -0.38291774169E+03  0.24500807818E+03  0.64298350669E+03  0.10566000000E+00 0. -1.
          4    1    1    2  501    0 -0.29484212800E+03 -0.28135878987E+03  0.26788937333E+03  0.48770827902E+03  0.00000000000E+00 0.  1.
</event>
<event>
 5    1  0.4881333E-005  0.3023081E+03  0.7818608E-02  0.1054171E+00
          4   -1    0    0  502    0 -0.00000000000E+00  0.00000000000E+00  0.73793629065E+03  0.73793629065E+03  0.00000000000E+00 0.  1.
         21   -1    0    0  501  502  0.00000000000E+00 -0.00000000000E+00 -0.43586545731E+03  0.43586545731E+03  0.00000000000E+00 0.  1.
        -13    1    1    2    0    0 -0.21860921187E+03 -0.20202888325E+03 -0.31090753018E+03  0.43042904255E+03  0.10566000000E+00 0.  1.
         13    1    1    2    0    0 -0.68456828140E+02  0.85408843334E+01  0.15159761302E+03  0.16655669143E+03  0.10566000000E+00 0. -1.
          4    1    1    2  501    0  0.28706604001E+03  0.19348799891E+03  0.46138075050E+03  0.57681601398E+03  0.00000000000E+00 0.  1.
</event>
<event>
 5    1  0.4881333E-005  0.3475164E+03  0.7818608E-02  0.1023698E+00
          4   -1    0    0  502    0 -0.00000000000E+00  0.00000000000E+00  0.28867548670E+04  0.28867548670E+04  0.00000000000E+00 0.  1.
         21   -1    0    0  501  502  0.00000000000E+00 -0.00000000000E+00 -0.11940459252E+03  0.11940459252E+03  0.00000000000E+00 0.  1.
        -13    1    1    2    0    0 -0.15279345641E+03  0.31462730172E+03  0.20403893874E+04  0.20701509710E+04  0.10566000000E+00 0.  1.
         13    1    1    2    0    0  0.10993332465E+03  0.32389066660E+02  0.51396748612E+03  0.52658995002E+03  0.10566000000E+00 0. -1.
          4    1    1    2  501    0  0.42860131762E+02 -0.34701636838E+03  0.21299340095E+03  0.40941853850E+03  0.00000000000E+00 0.  1.
</event>
<event>
 5    1  0.4881333E-005  0.4175957E+03  0.7818608E-02  0.9882303E-01
          4   -1    0    0  502    0 -0.00000000000E+00  0.00000000000E+00  0.27140470592E+04  0.27140470592E+04  0.00000000000E+00 0.  1.
         21   -1    0    0  501  502  0.00000000000E+00 -0.00000000000E+00 -0.14141370096E+03  0.14141370096E+03  0.00000000000E+00 0.  1.
        -13    1    1    2    0    0  0.20007151855E+03  0.40012146749E+03  0.36710051068E+03  0.57869559994E+03  0.10566000000E+00 0.  1.
         13    1    1    2    0    0  0.85560453530E+02 -0.19008130109E+03  0.72493801591E+03  0.75431202450E+03  0.10566000000E+00 0. -1.
          4    1    1    2  501    0 -0.28563197208E+03 -0.21004016640E+03  0.14805948317E+04  0.15224531358E+04  0.00000000000E+00 0.  1.
</event>
<event>
 5    1  0.4881333E-005  0.6253783E+02  0.7818608E-02  0.1292634E+00
         21   -1    0    0  501  502  0.00000000000E+00  0.00000000000E+00  0.31741357653E+02  0.31741357653E+02  0.00000000000E+00 0.  1.
          4   -1    0    0  502    0 -0.00000000000E+00 -0.00000000000E+00 -0.31721590160E+03  0.31721590160E+03  0.00000000000E+00 0.  1.
        -13    1    1    2    0    0 -0.30807925755E+02  0.38947766554E+02 -0.16434343511E+03  0.17168235971E+03  0.10566000000E+00 0.  1.
         13    1    1    2    0    0 -0.24936726473E+02 -0.31324967350E+01 -0.10649307454E+03  0.10941864079E+03  0.10566000000E+00 0. -1.
          4    1    1    2  501    0  0.55744652229E+02 -0.35815269819E+02 -0.14638034304E+02  0.67856258758E+02  0.00000000000E+00 0.  1.
</event>
<event>
 5    1  0.4881333E-005  0.2780192E+03  0.7818608E-02  0.1016815E+00
         21   -1    0    0  501  502  0.00000000000E+00  0.00000000000E+00  0.21536584772E+03  0.21536584772E+03  0.00000000000E+00 0. -1.
         -4   -1    0    0    0  501 -0.00000000000E+00 -0.00000000000E+00 -0.10391554886E+04  0.10391554886E+04  0.00000000000E+00 0. -1.
        -13    1    1    2    0    0  0.16049820671E+03  0.25928281739E+03 -0.32694404722E+03  0.44707904774E+03  0.10566000000E+00 0.  1.
         13    1    1    2    0    0  0.10243783958E+03 -0.29256430008E+03 -0.43693141660E+03  0.53572050048E+03  0.10566000000E+00 0. -1.
         -4    1    1    2    0  502 -0.26293604628E+03  0.33281482686E+02 -0.59914177066E+02  0.27172178812E+03  0.00000000000E+00 0. -1.
</event>
<event>
 5    1  0.4881333E-005  0.7825429E+03  0.7818608E-02  0.9440682E-01
          4   -1    0    0  502    0 -0.00000000000E+00  0.00000000000E+00  0.11295645007E+04  0.11295645007E+04  0.00000000000E+00 0.  1.
         21   -1    0    0  501  502  0.00000000000E+00 -0.00000000000E+00 -0.68062251406E+03  0.68062251406E+03  0.00000000000E+00 0.  1.
        -13    1    1    2    0    0 -0.38332479105E+03 -0.65420526447E+03  0.61537222105E+02  0.76072942914E+03  0.10566000000E+00 0.  1.
         13    1    1    2    0    0 -0.14765007149E+03  0.23568624511E+02  0.80262918734E+02  0.16970023854E+03  0.10566000000E+00 0. -1.
          4    1    1    2  501    0  0.53097486255E+03  0.63063663996E+03  0.30714184582E+03  0.87975734710E+03  0.00000000000E+00 0.  1.
</event>
<event>
 5    1  0.4881333E-005  0.3590673E+03  0.7818608E-02  0.1029574E+00
          4   -1    0    0  502    0 -0.00000000000E+00  0.00000000000E+00  0.67546757989E+03  0.67546757989E+03  0.00000000000E+00 0.  1.
         21   -1    0    0  501  502  0.00000000000E+00 -0.00000000000E+00 -0.43606930007E+03  0.43606930007E+03  0.00000000000E+00 0.  1.
        -13    1    1    2    0    0 -0.33704697022E+03 -0.91116286501E+01  0.45029442793E+03  0.56253778975E+03  0.10566000000E+00 0.  1.
         13    1    1    2    0    0 -0.19695728424E+02  0.84268756654E+02  0.50686042926E+02  0.10029073326E+03  0.10566000000E+00 0. -1.
          4    1    1    2  501    0  0.35674269864E+03 -0.75157128004E+02 -0.26158219104E+03  0.44870835694E+03  0.00000000000E+00 0.  1.
</event>
<event>
 5    1  0.4881333E-005  0.2553018E+03  0.7818608E-02  0.1027681E+00
         21   -1    0    0  501  502  0.00000000000E+00  0.00000000000E+00  0.11070069639E+03  0.11070069639E+03  0.00000000000E+00 0.  1.
          4   -1    0    0  502    0 -0.00000000000E+00 -0.00000000000E+00 -0.18437029386E+04  0.18437029386E+04  0.00000000000E+00 0.  1.
        -13    1    1    2    0    0 -0.22343412362E+03  0.12815753013E+03 -0.15135492148E+04  0.15353105214E+04  0.10566000000E+00 0.  1.
         13    1    1    2    0    0  0.20812056976E+03 -0.13027897666E+03 -0.27075839605E+03  0.36550910182E+03  0.10566000000E+00 0. -1.
          4    1    1    2  501    0  0.15313553856E+02  0.21214465302E+01  0.51305368670E+02  0.53584011808E+02  0.00000000000E+00 0.  1.
</event>
<event>
 5    1  0.4881333E-005  0.4625727E+03  0.7818608E-02  0.9584739E-01
         21   -1    0    0  501  502  0.00000000000E+00  0.00000000000E+00  0.56171470393E+03  0.56171470393E+03  0.00000000000E+00 0. -1.
         -4   -1    0    0    0  501 -0.00000000000E+00 -0.00000000000E+00 -0.13311714508E+04  0.13311714508E+04  0.00000000000E+00 0. -1.
        -13    1    1    2    0    0 -0.33132285149E+03 -0.34737295935E+03 -0.57843413116E+03  0.75168401610E+03  0.10566000000E+00 0.  1.
         13    1    1    2    0    0  0.37941813707E+03 -0.16772727060E+03 -0.40647911431E+03  0.58078898197E+03  0.10566000000E+00 0. -1.
         -4    1    1    2    0  502 -0.48095285582E+02  0.51510022995E+03  0.21545649859E+03  0.56041315667E+03  0.00000000000E+00 0. -1.
</event>
<event>
 5    1  0.4881333E-005  0.3300510E+02  0.7818608E-02  0.1382287E+00
         -4   -1    0    0    0  501 -0.00000000000E+00  0.00000000000E+00  0.95666528223E+01  0.95666528223E+01  0.00000000000E+00 0. -1.
         21   -1    0    0  501  502  0.00000000000E+00 -0.00000000000E+00 -0.50560983939E+03  0.50560983939E+03  0.00000000000E+00 0. -1.
        -13    1    1    2    0    0  0.25937511256E+02  0.32156583327E+02 -0.18269463883E+03  0.18730761481E+03  0.10566000000E+00 0.  1.
         13    1    1    2    0    0 -0.22550453866E+02 -0.21984762780E+02 -0.27473954883E+02  0.41793326321E+02  0.10566000000E+00 0. -1.
         -4    1    1    2    0  502 -0.33870573899E+01 -0.10171820547E+02 -0.28587459285E+03  0.28607555109E+03  0.00000000000E+00 0. -1.
</event>
<event>
 5    1  0.4881333E-005  0.1515715E+03  0.7818608E-02  0.1123263E+00
         -4   -1    0    0    0  501 -0.00000000000E+00  0.00000000000E+00  0.23504479943E+03  0.23504479943E+03  0.00000000000E+00 0. -1.
         21   -1    0    0  501  502  0.00000000000E+00 -0.00000000000E+00 -0.14739306234E+04  0.14739306234E+04  0.00000000000E+00 0. -1.
        -13    1    1    2    0    0  0.24240331917E+02 -0.77109640659E+02  0.30324935713E+02  0.86331357362E+02  0.10566000000E+00 0.  1.
         13    1    1    2    0    0 -0.73014708867E+02 -0.67993521039E+02  0.15820803383E+03  0.18704026237E+03  0.10566000000E+00 0. -1.
         -4    1    1    2    0  502  0.48774376950E+02  0.14510316170E+03 -0.14274187935E+04  0.14356038031E+04  0.00000000000E+00 0. -1.
</event>
<event>
 5    1  0.4881333E-005  0.4011402E+03  0.7818608E-02  0.9725759E-01
         -4   -1    0    0    0  501 -0.00000000000E+00  0.00000000000E+00  0.59240202577E+03  0.59240202577E+03  0.00000000000E+00 0. -1.
         21   -1    0    0  501  502  0.00000000000E+00 -0.00000000000E+00 -0.41883679416E+03  0.41883679416E+03  0.00000000000E+00 0.  1.
        -13    1    1    2    0    0  0.40744218364E+03 -0.79588184579E+02 -0.66843789186E+02  0.42048961397E+03  0.10566000000E+00 0.  1.
         13    1    1    2    0    0 -0.38694996679E+03  0.82886582970E+02  0.31973401521E+03  0.50875368705E+03  0.10566000000E+00 0. -1.
         -4    1    1    2    0  502 -0.20492216848E+02 -0.32983983910E+01 -0.79324994418E+02  0.81995518918E+02  0.00000000000E+00 0. -1.
</event>
<event>
 5    1  0.4881333E-005  0.4941703E+03  0.7818608E-02  0.9510356E-01
         21   -1    0    0  501  502  0.00000000000E+00  0.00000000000E+00  0.11619991868E+04  0.11619991868E+04  0.00000000000E+00 0.  1.
          4   -1    0    0  502    0 -0.00000000000E+00 -0.00000000000E+00 -0.63670678583E+03  0.63670678583E+03  0.00000000000E+00 0.  1.
        -13    1    1    2    0    0  0.49168233454E+03 -0.71965913395E+02 -0.22817306683E+00  0.49692119498E+03  0.10566000000E+00 0.  1.
         13    1    1    2    0    0 -0.27619337460E+03 -0.43111635466E+03 -0.41556091388E+02  0.51368376588E+03  0.10566000000E+00 0. -1.
          4    1    1    2  501    0 -0.21548895994E+03  0.50308226806E+03  0.56707666543E+03  0.78810101178E+03  0.00000000000E+00 0.  1.
</event>
<event>
 5    1  0.4881333E-005  0.3869940E+03  0.7818608E-02  0.9767377E-01
         21   -1    0    0  501  502  0.00000000000E+00  0.00000000000E+00  0.36151151281E+03  0.36151151281E+03  0.00000000000E+00 0.  1.
         -4   -1    0    0    0  501 -0.00000000000E+00 -0.00000000000E+00 -0.29143117697E+04  0.29143117697E+04  0.00000000000E+00 0. -1.
        -13    1    1    2    0    0  0.54326137451E+03  0.30867265086E+03 -0.17079906077E+04  0.18186928420E+04  0.10566000000E+00 0.  1.
         13    1    1    2    0    0 -0.27506934439E+03 -0.11391753626E+03 -0.10336432317E+04  0.10756666263E+04  0.10566000000E+00 0. -1.
         -4    1    1    2    0  502 -0.26819203011E+03 -0.19475511460E+03  0.18883358251E+03  0.38146381422E+03  0.00000000000E+00 0. -1.
</event>
<event>
 5    1  0.4881333E-005  0.2494968E+03  0.7818608E-02  0.1030654E+00
         -4   -1    0    0    0  501 -0.00000000000E+00  0.00000000000E+00  0.59167527934E+03  0.59167527934E+03  0.00000000000E+00 0. -1.
         21   -1    0    0  501  502  0.00000000000E+00 -0.00000000000E+00 -0.10966878319E+04  0.10966878319E+04  0.00000000000E+00 0. -1.
        -13    1    1    2    0    0  0.21085379800E+03  0.69216869405E+02  0.31390210518E+03  0.38442794116E+03  0.10566000000E+00 0.  1.
         13    1    1    2    0    0 -0.31713406912E+03 -0.18130406723E+03  0.94682352961E+02  0.37737241780E+03  0.10566000000E+00 0. -1.
         -4    1    1    2    0  502  0.10628027112E+03  0.11208719782E+03 -0.91359701072E+03  0.92656275230E+03  0.00000000000E+00 0. -1.
</event>
<event>
 5    1  0.4881333E-005  0.1760530E+03  0.7818608E-02  0.1077921E+00
         21   -1    0    0  501  502  0.00000000000E+00  0.00000000000E+00  0.27076105503E+03  0.27076105503E+03  0.00000000000E+00 0.  1.
          4   -1    0    0  502    0 -0.00000000000E+00 -0.00000000000E+00 -0.29156326048E+03  0.29156326048E+03  0.00000000000E+00 0.  1.
        -13    1    1    2    0    0  0.81750252195E+02  0.17833655162E+03  0.12002796733E+00  0.19618117888E+03  0.10566000000E+00 0.  1.
         13    1    1    2    0    0 -0.43433202336E+02 -0.16343123499E+03 -0.15285705386E+03  0.22795065631E+03  0.10566000000E+00 0. -1.
          4    1    1    2  501    0 -0.38317049859E+02 -0.14905316627E+02  0.13193482044E+03  0.13819248032E+03  0.00000000000E+00 0.  1.
</event>
<event>
 5    1  0.4881333E-005  0.4559401E+03  0.7818608E-02  0.9970346E-01
         21   -1    0    0  501  502  0.00000000000E+00  0.00000000000E+00  0.45532283701E+03  0.45532283701E+03  0.00000000000E+00 0.  1.
          4   -1    0    0  502    0 -0.00000000000E+00 -0.00000000000E+00 -0.64357662029E+03  0.64357662029E+03  0.00000000000E+00 0.  1.
        -13    1    1    2    0    0  0.46847975980E+03 -0.20666359980E+03 -0.17007308150E+03  0.53954424567E+03  0.10566000000E+00 0.  1.
         13    1    1    2    0    0 -0.11472018084E+03 -0.33409177314E+02 -0.52375745777E+02  0.13046119320E+03  0.10566000000E+00 0. -1.
          4    1    1    2  501    0 -0.35375957896E+03  0.24007277711E+03  0.34195043992E+02  0.42889401843E+03  0.00000000000E+00 0.  1.
</event>
<event>
 5    1  0.4881333E-005  0.5790992E+02  0.7818608E-02  0.1262559E+00
         21   -1    0    0  501  502  0.00000000000E+00  0.00000000000E+00  0.49082660054E+02  0.49082660054E+02  0.00000000000E+00 0. -1.
         -4   -1    0    0    0  501 -0.00000000000E+00 -0.00000000000E+00 -0.22345680555E+03  0.22345680555E+03  0.00000000000E+00 0. -1.
        -13    1    1    2    0    0 -0.29186128042E+02  0.36741329657E+02 -0.64038281507E+02  0.79389344609E+02  0.10566000000E+00 0.  1.
         13    1    1    2    0    0  0.45175182402E+02 -0.53054825642E+02 -0.13960087374E+03  0.15602572461E+03  0.10566000000E+00 0. -1.
         -4    1    1    2    0  502 -0.15989054360E+02  0.16313495984E+02  0.29265009752E+02  0.37124396377E+02  0.00000000000E+00 0. -1.
</event>
<event>
 5    1  0.4881333E-005  0.2377803E+03  0.7818608E-02  0.1036927E+00
          4   -1    0    0  502    0 -0.00000000000E+00  0.00000000000E+00  0.18755380632E+04  0.18755380632E+04  0.00000000000E+00 0.  1.
         21   -1    0    0  501  502  0.00000000000E+00 -0.00000000000E+00 -0.72242384474E+02  0.72242384474E+02  0.00000000000E+00 0. -1.
        -13    1    1    2    0    0  0.25893826533E+02  0.24639574044E+03  0.43388833232E+03  0.49964031787E+03  0.10566000000E+00 0.  1.
         13    1    1    2    0    0 -0.28131316456E+02 -0.23312449453E+03  0.13974469281E+04  0.14170378714E+04  0.10566000000E+00 0. -1.
          4    1    1    2  501    0  0.22374899231E+01 -0.13271245910E+02 -0.28039581760E+02  0.31102258350E+02  0.00000000000E+00 0.  1.
</event>
<event>
 5    1  0.4881333E-005  0.3276248E+02  0.7818608E-02  0.1435421E+00
         -4   -1    0    0    0  501 -0.00000000000E+00  0.00000000000E+00  0.65929137978E+01  0.65929137978E+01  0.00000000000E+00 0. -1.
         21   -1    0    0  501  502  0.00000000000E+00 -0.00000000000E+00 -0.39325368135E+03  0.39325368135E+03  0.00000000000E+00 0. -1.
        -13    1    1    2    0    0 -0.68234386142E+01 -0.12253802193E+02 -0.79113968588E+02  0.80347658164E+02  0.10566000000E+00 0.  1.
         13    1    1    2    0    0 -0.26745665826E+02  0.15261738870E+02 -0.43424067067E+02  0.53234500829E+02  0.10566000000E+00 0. -1.
         -4    1    1    2    0  502  0.33569104440E+02 -0.30079366762E+01 -0.26412273189E+03  0.26626443615E+03  0.00000000000E+00 0. -1.
</event>
<event>
 5    1  0.4881333E-005  0.4695046E+03  0.7818608E-02  0.9947698E-01
         21   -1    0    0  501  502  0.00000000000E+00  0.00000000000E+00  0.10652256907E+04  0.10652256907E+04  0.00000000000E+00 0. -1.
         -4   -1    0    0    0  501 -0.00000000000E+00 -0.00000000000E+00 -0.39082763996E+03  0.39082763996E+03  0.00000000000E+00 0. -1.
        -13    1    1    2    0    0  0.10621385225E+03 -0.51249157078E+02 -0.12251590641E+03  0.17005298292E+03  0.10566000000E+00 0.  1.
         13    1    1    2    0    0 -0.18581792014E+03 -0.42780220850E+03  0.60480545774E+03  0.76376218937E+03  0.10566000000E+00 0. -1.
         -4    1    1    2    0  502  0.79604067884E+02  0.47905136557E+03  0.19210849939E+03  0.52223815833E+03  0.00000000000E+00 0. -1.
</event>
<event>
 5    1  0.4881333E-005  0.9669645E+02  0.7818608E-02  0.1170140E+00
         -4   -1    0    0    0  501 -0.00000000000E+00  0.00000000000E+00  0.31564943296E+03  0.31564943296E+03  0.00000000000E+00 0. -1.
         21   -1    0    0  501  502  0.00000000000E+00 -0.00000000000E+00 -0.57052935887E+03  0.57052935887E+03  0.00000000000E+00 0.  1.
        -13    1    1    2    0    0 -0.10555578248E+03  0.59748505745E+01 -0.53856495207E+03  0.54884418629E+03  0.10566000000E+00 0.  1.
         13    1    1    2    0    0  0.96566341409E+02 -0.11002217629E+01  0.30161228874E+03  0.31669583620E+03  0.10566000000E+00 0. -1.
         -4    1    1    2    0  502  0.89894410740E+01 -0.48746288117E+01 -0.17927262577E+02  0.20638769352E+02  0.00000000000E+00 0. -1.
</event>
<event>
 5    1  0.4881333E-005  0.4478982E+03  0.7818608E-02  0.9600119E-01
          4   -1    0    0  502    0 -0.00000000000E+00  0.00000000000E+00  0.12813325807E+04  0.12813325807E+04  0.00000000000E+00 0.  1.
         21   -1    0    0  501  502  0.00000000000E+00 -0.00000000000E+00 -0.12555027907E+04  0.12555027907E+04  0.00000000000E+00 0.  1.
        -13    1    1    2    0    0 -0.56676868157E+03 -0.18282831987E+03 -0.58728376449E+03  0.83639414402E+03  0.10566000000E+00 0.  1.
         13    1    1    2    0    0  0.39719555335E+03 -0.20978485702E+03  0.10172617099E+04  0.11120231074E+04  0.10566000000E+00 0. -1.
          4    1    1    2  501    0  0.16957312821E+03  0.39261317689E+03 -0.40414815540E+03  0.58841812004E+03  0.00000000000E+00 0.  1.
</event>
<event>
 5    1  0.4881333E-005  0.3204363E+03  0.7818608E-02  0.1008763E+00
         -4   -1    0    0    0  501 -0.00000000000E+00  0.00000000000E+00  0.12557123436E+04  0.12557123436E+04  0.00000000000E+00 0. -1.
         21   -1    0    0  501  502  0.00000000000E+00 -0.00000000000E+00 -0.47214983085E+03  0.47214983085E+03  0.00000000000E+00 0. -1.
        -13    1    1    2    0    0  0.22610168860E+03  0.63608536783E+02  0.65696781866E+03  0.69769244331E+03  0.10566000000E+00 0.  1.
         13    1    1    2    0    0  0.11977205340E+03 -0.83073484128E+02  0.50000281605E+03  0.52081606711E+03  0.10566000000E+00 0. -1.
         -4    1    1    2    0  502 -0.34587374200E+03  0.19464947345E+02 -0.37340812191E+03  0.50935366406E+03  0.00000000000E+00 0. -1.
</event>
<event>
 5    1  0.4881333E-005  0.2336275E+03  0.7818608E-02  0.1111663E+00
          4   -1    0    0  502    0 -0.00000000000E+00  0.00000000000E+00  0.47459434557E+03  0.47459434557E+03  0.00000000000E+00 0.  1.
         21   -1    0    0  501  502  0.00000000000E+00 -0.00000000000E+00 -0.34223105826E+03  0.34223105826E+03  0.00000000000E+00 0.  1.
        -13    1    1    2    0    0 -0.22035564959E+03 -0.13093549860E+02  0.37738818448E+03  0.43720693762E+03  0.10566000000E+00 0.  1.
         13    1    1    2    0    0 -0.15182821413E+02  0.25791188462E+02 -0.96116125365E+02  0.10066789055E+03  0.10566000000E+00 0. -1.
          4    1    1    2  501    0  0.23553847100E+03 -0.12697638602E+02 -0.14890877180E+03  0.27895057567E+03  0.00000000000E+00 0.  1.
</event>
<event>
 5    1  0.4881333E-005  0.4929366E+03  0.7818608E-02  0.9646131E-01
          4   -1    0    0  502    0 -0.00000000000E+00  0.00000000000E+00  0.36676526219E+03  0.36676526219E+03  0.00000000000E+00 0.  1.
         21   -1    0    0  501  502  0.00000000000E+00 -0.00000000000E+00 -0.11996643506E+04  0.11996643506E+04  0.00000000000E+00 0.  1.
        -13    1    1    2    0    0 -0.40419425562E+03  0.98365165052E+02 -0.15715484815E+03  0.44468681050E+03  0.10566000000E+00 0.  1.
         13    1    1    2    0    0 -0.16229099734E+03 -0.23488850040E+03 -0.99802872662E+02  0.30244272184E+03  0.10566000000E+00 0. -1.
          4    1    1    2  501    0  0.56648525296E+03  0.13652333535E+03 -0.57594136765E+03  0.81930008049E+03  0.00000000000E+00 0.  1.
</event>
<event>
 5    1  0.4881333E-005  0.3257722E+03  0.7818608E-02  0.1011753E+00
         21   -1    0    0  501  502  0.00000000000E+00  0.00000000000E+00  0.51720953999E+03  0.51720953999E+03  0.00000000000E+00 0. -1.
         -4   -1    0    0    0  501 -0.00000000000E+00 -0.00000000000E+00 -0.95359551298E+03  0.95359551298E+03  0.00000000000E+00 0. -1.
        -13    1    1    2    0    0  0.19305139721E+03 -0.62960754185E+02 -0.40236361470E+03  0.45069877760E+03  0.10566000000E+00 0.  1.
         13    1    1    2    0    0 -0.49467337301E+03  0.78189504707E+02 -0.32798329474E+03  0.59865549142E+03  0.10566000000E+00 0. -1.
         -4    1    1    2    0  502  0.30162197581E+03 -0.15228750522E+02  0.29396093646E+03  0.42145078395E+03  0.00000000000E+00 0. -1.
</event>
<event>
 5    1  0.4881333E-005  0.7376589E+02  0.7818608E-02  0.1265650E+00
         -4   -1    0    0    0  501 -0.00000000000E+00  0.00000000000E+00  0.31606075734E+03  0.31606075734E+03  0.00000000000E+00 0. -1.
         21   -1    0    0  501  502  0.00000000000E+00 -0.00000000000E+00 -0.27662364145E+02  0.27662364145E+02  0.00000000000E+00 0. -1.
        -13    1    1    2    0    0  0.19073132633E+02 -0.18103887178E+02  0.44467849309E+02  0.51661745088E+02  0.10566000000E+00 0.  1.
         13    1    1    2    0    0  0.21536089665E+02 -0.52819774783E+02  0.17842876838E+03  0.18732476696E+03  0.10566000000E+00 0. -1.
         -4    1    1    2    0  502 -0.40609222298E+02  0.70923661962E+02  0.65501775502E+02  0.10473660943E+03  0.00000000000E+00 0. -1.
</event>
<event>
 5    1  0.4881333E-005  0.4783762E+03  0.7818608E-02  0.9941328E-01
         -4   -1    0    0    0  501 -0.00000000000E+00  0.00000000000E+00  0.78348948900E+03  0.78348948900E+03  0.00000000000E+00 0. -1.
         21   -1    0    0  501  502  0.00000000000E+00 -0.00000000000E+00 -0.42941444314E+03  0.42941444314E+03  0.00000000000E+00 0. -1.
        -13    1    1    2    0    0 -0.28327988214E+02  0.11029071770E+03  0.14859655983E+03  0.18720968481E+03  0.10566000000E+00 0.  1.
         13    1    1    2    0    0  0.47767048886E+03 -0.14054618781E+03 -0.62202897465E+02  0.50178834029E+03  0.10566000000E+00 0. -1.
         -4    1    1    2    0  502 -0.44934250065E+03  0.30255470107E+02  0.26768138349E+03  0.52390590704E+03  0.00000000000E+00 0. -1.
</event>
<event>
 5    1  0.4881333E-005  0.4426967E+03  0.7818608E-02  0.9877194E-01
         21   -1    0    0  501  502  0.00000000000E+00  0.00000000000E+00  0.13904195700E+03  0.13904195700E+03  0.00000000000E+00 0.  1.
          4   -1    0    0  502    0 -0.00000000000E+00 -0.00000000000E+00 -0.32080345610E+04  0.32080345610E+04  0.00000000000E+00 0.  1.
        -13    1    1    2    0    0 -0.21459373632E+03 -0.38872469883E+03 -0.38744612429E+03  0.58929778002E+03  0.10566000000E+00 0.  1.
         13    1    1    2    0    0 -0.14870323201E+03  0.97822538003E+02 -0.79278295301E+03  0.81251875172E+03  0.10566000000E+00 0. -1.
          4    1    1    2  501    0  0.36329696833E+03  0.29090216083E+03 -0.18887635267E+04  0.19452599863E+04  0.00000000000E+00 0.  1.
</event>
<event>
 5    1  0.4881333E-005  0.2051804E+03  0.7818608E-02  0.1067243E+00
          4   -1    0    0  502    0 -0.00000000000E+00  0.00000000000E+00  0.12166143914E+04  0.12166143914E+04  0.00000000000E+00 0.  1.
         21   -1    0    0  501  502  0.00000000000E+00 -0.00000000000E+00 -0.43272721239E+03  0.43272721239E+03  0.00000000000E+00 0.  1.
        -13    1    1    2    0    0  0.19004731888E+03 -0.21605245759E+03  0.11227004522E+04  0.11589879052E+04  0.10566000000E+00 0.  1.
         13    1    1    2    0    0  0.26652405670E+01  0.15072932325E+03 -0.13532194882E+03  0.20257954830E+03  0.10566000000E+00 0. -1.
          4    1    1    2  501    0 -0.19271255944E+03  0.65323134344E+02 -0.20349132441E+03  0.28777415026E+03  0.00000000000E+00 0.  1.
</event>
<event>
 5    1  0.4881333E-005  0.6062066E+03  0.7818608E-02  0.9514674E-01
         21   -1    0    0  501  502  0.00000000000E+00  0.00000000000E+00  0.32836709454E+03  0.32836709454E+03  0.00000000000E+00 0.  1.
          4   -1    0    0  502    0 -0.00000000000E+00 -0.00000000000E+00 -0.16936223140E+04  0.16936223140E+04  0.00000000000E+00 0.  1.
        -13    1    1    2    0    0 -0.47241787537E+03  0.15369305471E+03 -0.71803830380E+03  0.87314329919E+03  0.10566000000E+00 0.  1.
         13    1    1    2    0    0 -0.12274356615E+03  0.21261903382E+03 -0.22065367472E+03  0.33009224757E+03  0.10566000000E+00 0. -1.
          4    1    1    2  501    0  0.59516144152E+03 -0.36631208853E+03 -0.42656324097E+03  0.81875386181E+03  0.00000000000E+00 0.  1.
</event>
<event>
 5    1  0.4881333E-005  0.4046507E+03  0.7818608E-02  0.1019338E+00
         -4   -1    0    0    0  501 -0.00000000000E+00  0.00000000000E+00  0.13942999808E+04  0.13942999808E+04  0.00000000000E+00 0. -1.
         21   -1    0    0  501  502  0.00000000000E+00 -0.00000000000E+00 -0.22268211246E+03  0.22268211246E+03  0.00000000000E+00 0. -1.
        -13    1    1    2    0    0 -0.83249582513E+02 -0.33648504690E+00  0.18269389024E+03  0.20076771381E+03  0.10566000000E+00 0.  1.
         13    1    1    2    0    0  0.16578913645E+03  0.39255999476E+03  0.91400079413E+03  0.10084576590E+04  0.10566000000E+00 0. -1.
         -4    1    1    2    0  502 -0.82539553932E+02 -0.39222350971E+03  0.74923183958E+02  0.40775672040E+03  0.00000000000E+00 0. -1.
</event>
<event>
 5    1  0.4881333E-005  0.3646923E+03  0.7818608E-02  0.9836952E-01
          4   -1    0    0  502    0 -0.00000000000E+00  0.00000000000E+00  0.30776642992E+04  0.30776642992E+04  0.00000000000E+00 0.  1.
         21   -1    0    0  501  502  0.00000000000E+00 -0.00000000000E+00 -0.19290838995E+03  0.19290838995E+03  0.00000000000E+00 0.  1.
        -13    1    1    2    0    0 -0.25180391978E+03  0.26930017208E+03  0.38638385163E+02  0.37070302490E+03  0.10566000000E+00 0.  1.
         13    1    1    2    0    0  0.31119739700E+03 -0.19225817997E+03  0.12940722274E+04  0.13447787806E+04  0.10566000000E+00 0. -1.
          4    1    1    2  501    0 -0.59393477218E+02 -0.77041992115E+02  0.15520452966E+04  0.15550908837E+04  0.00000000000E+00 0.  1.
</event>
<event>
 5    1  0.4881333E-005  0.4315547E+03  0.7818608E-02  0.9732659E-01
         21   -1    0    0  501  502  0.00000000000E+00  0.00000000000E+00  0.17448823796E+03  0.17448823796E+03  0.00000000000E+00 0. -1.
         -4   -1    0    0    0  501 -0.00000000000E+00 -0.00000000000E+00 -0.28635719888E+04  0.28635719888E+04  0.00000000000E+00 0. -1.
        -13    1    1    2    0    0 -0.15361635205E+03  0.27449689704E+03 -0.10419591275E+04  0.10884049635E+04  0.10566000000E+00 0.  1.
         13    1    1    2    0    0  0.35078626935E+01 -0.62235707918E+03 -0.12740540748E+04  0.14179402088E+04  0.10566000000E+00 0. -1.
         -4    1    1    2    0  502  0.15010848936E+03  0.34786018214E+03 -0.37307054860E+03  0.53171505445E+03  0.00000000000E+00 0. -1.
</event>
<event>
 5    1  0.4881333E-005  0.1039873E+03  0.7818608E-02  0.1158122E+00
         21   -1    0    0  501  502  0.00000000000E+00  0.00000000000E+00  0.71434718606E+03  0.71434718606E+03  0.00000000000E+00 0. -1.
          4   -1    0    0  502    0 -0.00000000000E+00 -0.00000000000E+00 -0.21265379929E+02  0.21265379929E+02  0.00000000000E+00 0.  1.
        -13    1    1    2    0    0 -0.91938044488E+02 -0.59116496793E+02  0.19208426883E+03  0.22100620289E+03  0.10566000000E+00 0.  1.
         13    1    1    2    0    0  0.84675463253E+02  0.43195011284E+02  0.35288158701E+03  0.36546021493E+03  0.10566000000E+00 0. -1.
          4    1    1    2  501    0  0.72625812348E+01  0.15921485508E+02  0.14811595028E+03  0.14914614817E+03  0.00000000000E+00 0.  1.
</event>
<event>
 5    1  0.4881333E-005  0.1931266E+03  0.7818608E-02  0.1064953E+00
         21   -1    0    0  501  502  0.00000000000E+00  0.00000000000E+00  0.47801005278E+03  0.47801005278E+03  0.00000000000E+00 0.  1.
          4   -1    0    0  502    0 -0.00000000000E+00 -0.00000000000E+00 -0.16661689797E+03  0.16661689797E+03  0.00000000000E+00 0.  1.
        -13    1    1    2    0    0 -0.19147215035E+03 -0.10860303126E+03  0.13912381068E+03  0.26040669849E+03  0.10566000000E+00 0.  1.
         13    1    1    2    0    0  0.16146993982E+03  0.84761794269E+02 -0.24275878012E+02  0.18397399993E+03  0.10566000000E+00 0. -1.
          4    1    1    2  501    0  0.30002210526E+02  0.23841236993E+02  0.19654522215E+03  0.20024625232E+03  0.00000000000E+00 0.  1.
</event>
<event>
 5    1  0.4881333E-005  0.4935521E+03  0.7818608E-02  0.9492217E-01
          4   -1    0    0  502    0 -0.00000000000E+00  0.00000000000E+00  0.25823451485E+04  0.25823451485E+04  0.00000000000E+00 0.  1.
         21   -1    0    0  501  502  0.00000000000E+00 -0.00000000000E+00 -0.22170749370E+03  0.22170749370E+03  0.00000000000E+00 0.  1.
        -13    1    1    2    0    0  0.61588285069E+03 -0.30489074347E+03  0.77349556369E+03  0.10346813275E+04  0.10566000000E+00 0.  1.
         13    1    1    2    0    0 -0.26919952684E+03  0.33979887405E+03  0.86345537981E+03  0.96617123956E+03  0.10566000000E+00 0. -1.
          4    1    1    2  501    0 -0.34668332385E+03 -0.34908130586E+02  0.72368671126E+03  0.80320007512E+03  0.00000000000E+00 0.  1.
</event>
<event>
 5    1  0.4881333E-005  0.2652763E+03  0.7818608E-02  0.1022767E+00
         21   -1    0    0  501  502  0.00000000000E+00  0.00000000000E+00  0.21705547961E+03  0.21705547961E+03  0.00000000000E+00 0. -1.
         -4   -1    0    0    0  501 -0.00000000000E+00 -0.00000000000E+00 -0.18183444283E+04  0.18183444283E+04  0.00000000000E+00 0. -1.
        -13    1    1    2    0    0 -0.19850546511E+03 -0.66296191275E+01 -0.50810620516E+03  0.54554587196E+03  0.10566000000E+00 0.  1.
         13    1    1    2    0    0  0.35394213300E+03  0.10750771349E+02 -0.12317131639E+04  0.12816036602E+04  0.10566000000E+00 0. -1.
         -4    1    1    2    0  502 -0.15543666789E+03 -0.41211522212E+01  0.13853042038E+03  0.20825037573E+03  0.00000000000E+00 0. -1.
</event>
<event>
 5    1  0.4881333E-005  0.5341525E+03  0.7818608E-02  0.9406102E-01
         21   -1    0    0  501  502  0.00000000000E+00  0.00000000000E+00  0.36918532247E+03  0.36918532247E+03  0.00000000000E+00 0.  1.
         -4   -1    0    0    0  501 -0.00000000000E+00 -0.00000000000E+00 -0.16531255703E+04  0.16531255703E+04  0.00000000000E+00 0. -1.
        -13    1    1    2    0    0  0.11454245536E+02 -0.46005904828E+03 -0.34726904898E+03  0.57652522165E+03  0.10566000000E+00 0.  1.
         13    1    1    2    0    0  0.91038771221E+02  0.57795363176E+03 -0.10835121997E+04  0.12313883045E+04  0.10566000000E+00 0. -1.
         -4    1    1    2    0  502 -0.10249301676E+03 -0.11789458347E+03  0.14684100086E+03  0.21439736666E+03  0.00000000000E+00 0. -1.
</event>
<event>
 5    1  0.4881333E-005  0.4468453E+03  0.7818608E-02  0.9766381E-01
         -4   -1    0    0    0  501 -0.00000000000E+00  0.00000000000E+00  0.63440912504E+03  0.63440912504E+03  0.00000000000E+00 0. -1.
         21   -1    0    0  501  502  0.00000000000E+00 -0.00000000000E+00 -0.56224911612E+03  0.56224911612E+03  0.00000000000E+00 0.  1.
        -13    1    1    2    0    0  0.24430599891E+03 -0.62805946638E+02  0.17345043287E+02  0.25284554519E+03  0.10566000000E+00 0.  1.
         13    1    1    2    0    0  0.37593608556E+02 -0.37152602823E+03  0.17478053727E+03  0.41230221492E+03  0.10566000000E+00 0. -1.
         -4    1    1    2    0  502 -0.28189960746E+03  0.43433197486E+03 -0.11996557164E+03  0.53151048104E+03  0.00000000000E+00 0. -1.
</event>
<event>
 5    1  0.4881333E-005  0.4765474E+03  0.7818608E-02  0.9684994E-01
          4   -1    0    0  502    0 -0.00000000000E+00  0.00000000000E+00  0.17693221874E+04  0.17693221874E+04  0.00000000000E+00 0.  1.
         21   -1    0    0  501  502  0.00000000000E+00 -0.00000000000E+00 -0.30794250822E+03  0.30794250822E+03  0.00000000000E+00 0.  1.
        -13    1    1    2    0    0  0.37140697189E+03  0.20492214543E+03  0.47431787043E+03  0.63632827835E+03  0.10566000000E+00 0.  1.
         13    1    1    2    0    0  0.16315863312E+03 -0.22225384642E+03  0.84312415660E+03  0.88706023832E+03  0.10566000000E+00 0. -1.
          4    1    1    2  501    0 -0.53456560501E+03  0.17331700985E+02  0.14393765218E+03  0.55387617897E+03  0.00000000000E+00 0.  1.
</event>
<event>
 5    1  0.4881333E-005  0.5311771E+03  0.7818608E-02  0.9841076E-01
         21   -1    0    0  501  502  0.00000000000E+00  0.00000000000E+00  0.13825280520E+03  0.13825280520E+03  0.00000000000E+00 0.  1.
          4   -1    0    0  502    0 -0.00000000000E+00 -0.00000000000E+00 -0.27780398780E+04  0.27780398780E+04  0.00000000000E+00 0.  1.
        -13    1    1    2    0    0 -0.11240708503E+03 -0.44507757808E+03 -0.16002148026E+04  0.16647572883E+04  0.10566000000E+00 0.  1.
         13    1    1    2    0    0 -0.23193993217E+02 -0.11405688739E+03 -0.12290925853E+03  0.16927383695E+03  0.10566000000E+00 0. -1.
          4    1    1    2  501    0  0.13560107825E+03  0.55913446547E+03 -0.91666301171E+03  0.10822615580E+04  0.00000000000E+00 0.  1.
</event>
<event>
 5    1  0.4881333E-005  0.1808730E+03  0.7818608E-02  0.1074103E+00
         21   -1    0    0  501  502  0.00000000000E+00  0.00000000000E+00  0.32575843142E+03  0.32575843142E+03  0.00000000000E+00 0. -1.
         -4   -1    0    0    0  501 -0.00000000000E+00 -0.00000000000E+00 -0.12335760818E+04  0.12335760818E+04  0.00000000000E+00 0. -1.
        -13    1    1    2    0    0 -0.91625515673E+02 -0.21354155627E+03 -0.23883046428E+03  0.33321949704E+03  0.10566000000E+00 0.  1.
         13    1    1    2    0    0  0.10117195918E+03  0.14030611713E+03 -0.93457562896E+03  0.95044894089E+03  0.10566000000E+00 0. -1.
         -4    1    1    2    0  502 -0.95464435110E+01  0.73235439141E+02  0.26558844282E+03  0.27566607533E+03  0.00000000000E+00 0. -1.
</event>
<event>
 5    1  0.4881333E-005  0.4345388E+03  0.7818608E-02  0.9634293E-01
         21   -1    0    0  501  502  0.00000000000E+00  0.00000000000E+00  0.29274466127E+03  0.29274466127E+03  0.00000000000E+00 0. -1.
         -4   -1    0    0    0  501 -0.00000000000E+00 -0.00000000000E+00 -0.32871585498E+04  0.32871585498E+04  0.00000000000E+00 0. -1.
        -13    1    1    2    0    0 -0.31591893811E+03 -0.27594107680E+03 -0.21567522115E+04  0.21971637095E+04  0.10566000000E+00 0.  1.
         13    1    1    2    0    0  0.25400528699E+03  0.61287667444E+03 -0.26288238023E+03  0.71361310308E+03  0.10566000000E+00 0. -1.
         -4    1    1    2    0  502  0.61913651123E+02 -0.33693559763E+03 -0.57477929682E+03  0.66912639852E+03  0.00000000000E+00 0. -1.
</event>
<event>
 5    1  0.4881333E-005  0.2671263E+03  0.7818608E-02  0.1021881E+00
         -4   -1    0    0    0  501 -0.00000000000E+00  0.00000000000E+00  0.56241455010E+03  0.56241455010E+03  0.00000000000E+00 0. -1.
         21   -1    0    0  501  502  0.00000000000E+00 -0.00000000000E+00 -0.15749147433E+04  0.15749147433E+04  0.00000000000E+00 0. -1.
        -13    1    1    2    0    0 -0.76061120958E+02  0.25077684301E+03  0.34246905744E+03  0.43123008427E+03  0.10566000000E+00 0.  1.
         13    1    1    2    0    0  0.14299711278E+01 -0.45072061616E+03 -0.14144666951E+04  0.14845427449E+04  0.10566000000E+00 0. -1.
         -4    1    1    2    0  502  0.74631149830E+02  0.19994377315E+03  0.59497444489E+02  0.22155646424E+03  0.00000000000E+00 0. -1.
</event>
<event>
 5    1  0.4881333E-005  0.3717906E+03  0.7818608E-02  0.9814249E-01
         21   -1    0    0  501  502  0.00000000000E+00  0.00000000000E+00  0.18983636242E+03  0.18983636242E+03  0.00000000000E+00 0.  1.
         -4   -1    0    0    0  501 -0.00000000000E+00 -0.00000000000E+00 -0.14526025824E+04  0.14526025824E+04  0.00000000000E+00 0. -1.
        -13    1    1    2    0    0  0.22345414770E+03 -0.31097118228E+03 -0.10838196076E+03  0.39797172377E+03  0.10566000000E+00 0.  1.
         13    1    1    2    0    0 -0.22494741883E+03  0.29328973084E+03 -0.11660507183E+04  0.12232311704E+04  0.10566000000E+00 0. -1.
         -4    1    1    2    0  502  0.14932711247E+01  0.17681451438E+02  0.11666459013E+02  0.21236050704E+02  0.00000000000E+00 0. -1.
</event>
<event>
 5    1  0.4881333E-005  0.7823919E+03  0.7818608E-02  0.9011330E-01
         -4   -1    0    0    0  501 -0.00000000000E+00  0.00000000000E+00  0.13202160242E+04  0.13202160242E+04  0.00000000000E+00 0. -1.
         21   -1    0    0  501  502  0.00000000000E+00 -0.00000000000E+00 -0.14306939611E+04  0.14306939611E+04  0.00000000000E+00 0.  1.
        -13    1    1    2    0    0 -0.55661149148E+03  0.83832157445E+03  0.58086144909E+03  0.11618947667E+04  0.10566000000E+00 0.  1.
         13    1    1    2    0    0  0.42482552581E+03 -0.43684269796E+03  0.16741471932E+03  0.63193035182E+03  0.10566000000E+00 0. -1.
         -4    1    1    2    0  502  0.13178596567E+03 -0.40147887649E+03 -0.85875410529E+03  0.95708486686E+03  0.00000000000E+00 0. -1.
</event>
<event>
 5    1  0.4881333E-005  0.4655376E+03  0.7818608E-02  0.9623280E-01
          4   -1    0    0  502    0 -0.00000000000E+00  0.00000000000E+00  0.19476420167E+04  0.19476420167E+04  0.00000000000E+00 0.  1.
         21   -1    0    0  501  502  0.00000000000E+00 -0.00000000000E+00 -0.27745640168E+03  0.27745640168E+03  0.00000000000E+00 0. -1.
        -13    1    1    2    0    0 -0.50921094290E+03 -0.35034822272E+02  0.21934309441E+03  0.55554894237E+03  0.10566000000E+00 0.  1.
         13    1    1    2    0    0  0.15945887155E+03  0.33101161097E+03  0.61666094090E+03  0.71782069175E+03  0.10566000000E+00 0. -1.
          4    1    1    2  501    0  0.34975207135E+03 -0.29597678870E+03  0.83418157976E+03  0.95172878430E+03  0.00000000000E+00 0.  1.
</event>
<event>
 5    1  0.4881333E-005  0.2085532E+03  0.7818608E-02  0.1054425E+00
         21   -1    0    0  501  502  0.00000000000E+00  0.00000000000E+00  0.30267305011E+03  0.30267305011E+03  0.00000000000E+00 0.  1.
          4   -1    0    0  502    0 -0.00000000000E+00 -0.00000000000E+00 -0.86465216247E+03  0.86465216247E+03  0.00000000000E+00 0.  1.
        -13    1    1    2    0    0  0.21230868244E+03  0.14525844782E+02 -0.66884389374E+03  0.70188185770E+03  0.10566000000E+00 0.  1.
         13    1    1    2    0    0 -0.17976528406E+03  0.17007213692E+03 -0.43180438506E+01  0.24750504192E+03  0.10566000000E+00 0. -1.
          4    1    1    2  501    0 -0.32543398389E+02 -0.18459798170E+03  0.11118282524E+03  0.21793831296E+03  0.00000000000E+00 0.  1.
</event>
<event>
 5    1  0.4881333E-005  0.4826594E+03  0.7818608E-02  0.9750077E-01
         -4   -1    0    0    0  501 -0.00000000000E+00  0.00000000000E+00  0.77573314909E+03  0.77573314909E+03  0.00000000000E+00 0. -1.
         21   -1    0    0  501  502  0.00000000000E+00 -0.00000000000E+00 -0.50886916943E+03  0.50886916943E+03  0.00000000000E+00 0. -1.
        -13    1    1    2    0    0 -0.19973861826E+03  0.70204887294E+02  0.13903337128E+03  0.25328744801E+03  0.10566000000E+00 0.  1.
         13    1    1    2    0    0 -0.36519641656E+03  0.17576764226E+03  0.19972731133E+02  0.40578517455E+03  0.10566000000E+00 0. -1.
         -4    1    1    2    0  502  0.56493503481E+03 -0.24597252955E+03  0.10785787724E+03  0.62552969597E+03  0.00000000000E+00 0. -1.
</event>
<event>
 5    1  0.4881333E-005  0.1695559E+03  0.7818608E-02  0.1083279E+00
          4   -1    0    0  502    0 -0.00000000000E+00  0.00000000000E+00  0.10960580978E+03  0.10960580978E+03  0.00000000000E+00 0.  1.
         21   -1    0    0  501  502  0.00000000000E+00 -0.00000000000E+00 -0.51653159574E+03  0.51653159574E+03  0.00000000000E+00 0.  1.
        -13    1    1    2    0    0  0.16505552985E+03 -0.25518394757E+02 -0.62928584929E+02  0.17847838629E+03  0.10566000000E+00 0.  1.
         13    1    1    2    0    0 -0.17211212466E+03  0.15280838696E+02 -0.92758490096E+02  0.19611281481E+03  0.10566000000E+00 0. -1.
          4    1    1    2  501    0  0.70565948054E+01  0.10237556062E+02 -0.25123871094E+03  0.25154620442E+03  0.00000000000E+00 0.  1.
</event>
<event>
 5    1  0.4881333E-005  0.8481784E+03  0.7818608E-02  0.8932035E-01
         -4   -1    0    0    0  501 -0.00000000000E+00  0.00000000000E+00  0.15600317618E+04  0.15600317618E+04  0.00000000000E+00 0. -1.
         21   -1    0    0  501  502  0.00000000000E+00 -0.00000000000E+00 -0.12676717205E+04  0.12676717205E+04  0.00000000000E+00 0. -1.
        -13    1    1    2    0    0  0.29981689472E+03 -0.79384026675E+03  0.28388735248E+03  0.89479862513E+03  0.10566000000E+00 0.  1.
         13    1    1    2    0    0 -0.30937275233E+03  0.78951402264E+03  0.78545752193E+03  0.11558492210E+04  0.10566000000E+00 0. -1.
         -4    1    1    2    0  502  0.95558576109E+01  0.43262441076E+01 -0.77698483308E+03  0.77705563613E+03  0.00000000000E+00 0. -1.
</event>
<event>
 5    1  0.4881333E-005  0.1778472E+03  0.7818608E-02  0.1101694E+00
         21   -1    0    0  501  502  0.00000000000E+00  0.00000000000E+00  0.97034375849E+02  0.97034375849E+02  0.00000000000E+00 0. -1.
         -4   -1    0    0    0  501 -0.00000000000E+00 -0.00000000000E+00 -0.14611613245E+04  0.14611613245E+04  0.00000000000E+00 0. -1.
        -13    1    1    2    0    0 -0.52361754860E+02 -0.71458667090E+02 -0.89244362231E+02  0.12574840686E+03  0.10566000000E+00 0.  1.
         13    1    1    2    0    0 -0.18385066881E+02  0.23054876589E+03 -0.12314771060E+04  0.12530070303E+04  0.10566000000E+00 0. -1.
         -4    1    1    2    0  502  0.70746821740E+02 -0.15909009880E+03 -0.43405480387E+02  0.17944026318E+03  0.00000000000E+00 0. -1.
</event>
<event>
 5    1  0.4881333E-005  0.3133428E+03  0.7818608E-02  0.1019905E+00
         21   -1    0    0  501  502  0.00000000000E+00  0.00000000000E+00  0.25595151384E+03  0.25595151384E+03  0.00000000000E+00 0.  1.
          4   -1    0    0  502    0 -0.00000000000E+00 -0.00000000000E+00 -0.20134967292E+04  0.20134967292E+04  0.00000000000E+00 0.  1.
        -13    1    1    2    0    0  0.32344347592E+03 -0.19837602350E+02 -0.92800363606E+03  0.98295471528E+03  0.10566000000E+00 0.  1.
         13    1    1    2    0    0 -0.44184164539E+02  0.17048648320E+03 -0.93552543109E+03  0.95195888815E+03  0.10566000000E+00 0. -1.
          4    1    1    2  501    0 -0.27925931138E+03 -0.15064888085E+03  0.10598385175E+03  0.33453463965E+03  0.00000000000E+00 0.  1.
</event>
<event>
 5    1  0.4881333E-005  0.4478914E+03  0.7818608E-02  0.9654203E-01
         21   -1    0    0  501  502  0.00000000000E+00  0.00000000000E+00  0.21703596301E+03  0.21703596301E+03  0.00000000000E+00 0. -1.
          4   -1    0    0  502    0 -0.00000000000E+00 -0.00000000000E+00 -0.24487424821E+04  0.24487424821E+04  0.00000000000E+00 0.  1.
        -13    1    1    2    0    0  0.46841413225E+03 -0.24738074861E+03 -0.13840260869E+04  0.14819369941E+04  0.10566000000E+00 0.  1.
         13    1    1    2    0    0 -0.32089857475E+03 -0.18405434133E+03 -0.40015113224E+03  0.54495214068E+03  0.10566000000E+00 0. -1.
          4    1    1    2  501    0 -0.14751555750E+03  0.43143508994E+03 -0.44752929994E+03  0.63888931032E+03  0.00000000000E+00 0.  1.
</event>
<event>
 5    1  0.4881333E-005  0.2071936E+03  0.7818608E-02  0.1055313E+00
         21   -1    0    0  501  502  0.00000000000E+00  0.00000000000E+00  0.49276128777E+02  0.49276128777E+02  0.00000000000E+00 0.  1.
         -4   -1    0    0    0  501 -0.00000000000E+00 -0.00000000000E+00 -0.14675607118E+04  0.14675607118E+04  0.00000000000E+00 0. -1.
        -13    1    1    2    0    0  0.17979455347E+03  0.11201600448E+03 -0.25910780342E+03  0.33467974494E+03  0.10566000000E+00 0.  1.
         13    1    1    2    0    0 -0.17965700451E+03 -0.10101503401E+03 -0.11484261900E+04  0.11667747861E+04  0.10566000000E+00 0. -1.
         -4    1    1    2    0  502 -0.13754896002E+00 -0.11000970472E+02 -0.10750589638E+02  0.15382309599E+02  0.00000000000E+00 0. -1.
</event>
<event>
 5    1  0.4881333E-005  0.5020283E+03  0.7818608E-02  0.1014694E+00
          4   -1    0    0  502    0 -0.00000000000E+00  0.00000000000E+00  0.88341255038E+03  0.88341255038E+03  0.00000000000E+00 0.  1.
         21   -1    0    0  501  502  0.00000000000E+00 -0.00000000000E+00 -0.37070490713E+03  0.37070490713E+03  0.00000000000E+00 0.  1.
        -13    1    1    2    0    0  0.15558240851E+02 -0.51183977332E+03  0.23491164939E+03  0.56338752790E+03  0.10566000000E+00 0.  1.
         13    1    1    2    0    0  0.46245180498E+02  0.20316304101E+02  0.17846561541E+03  0.18547602535E+03  0.10566000000E+00 0. -1.
          4    1    1    2  501    0 -0.61803421349E+02  0.49152346922E+03  0.99330378451E+02  0.50525390426E+03  0.00000000000E+00 0.  1.
</event>
<event>
 5    1  0.4881333E-005  0.5285932E+03  0.7818608E-02  0.9417411E-01
          4   -1    0    0  502    0 -0.00000000000E+00  0.00000000000E+00  0.24693262528E+04  0.24693262528E+04  0.00000000000E+00 0.  1.
         21   -1    0    0  501  502  0.00000000000E+00 -0.00000000000E+00 -0.22781498597E+03  0.22781498597E+03  0.00000000000E+00 0.  1.
        -13    1    1    2    0    0 -0.20059435459E+03  0.68914063548E+03  0.12015342579E+04  0.13995847580E+04  0.10566000000E+00 0.  1.
         13    1    1    2    0    0 -0.29830914799E+02 -0.41638078163E+03  0.59977700123E+03  0.73074982118E+03  0.10566000000E+00 0. -1.
          4    1    1    2  501    0  0.23042526939E+03 -0.27275985385E+03  0.44020000769E+03  0.56680665964E+03  0.00000000000E+00 0.  1.
</event>
<event>
 5    1  0.4881333E-005  0.5230302E+03  0.7818608E-02  0.9451449E-01
         21   -1    0    0  501  502  0.00000000000E+00  0.00000000000E+00  0.15749630663E+04  0.15749630663E+04  0.00000000000E+00 0. -1.
         -4   -1    0    0    0  501 -0.00000000000E+00 -0.00000000000E+00 -0.82914810760E+03  0.82914810760E+03  0.00000000000E+00 0. -1.
        -13    1    1    2    0    0 -0.28629258968E+03  0.46398911985E+03 -0.46907327343E+03  0.71922117409E+03  0.10566000000E+00 0.  1.
         13    1    1    2    0    0 -0.32026012985E+03 -0.21731834383E+03  0.11310607916E+03  0.40322054715E+03  0.10566000000E+00 0. -1.
         -4    1    1    2    0  502  0.60655271953E+03 -0.24667077602E+03  0.11017821530E+04  0.12816694527E+04  0.00000000000E+00 0. -1.
</event>
<event>
 5    1  0.4881333E-005  0.5208644E+03  0.7818608E-02  0.9709076E-01
         21   -1    0    0  501  502  0.00000000000E+00  0.00000000000E+00  0.26230644117E+03  0.26230644117E+03  0.00000000000E+00 0. -1.
         -4   -1    0    0    0  501 -0.00000000000E+00 -0.00000000000E+00 -0.16476619855E+04  0.16476619855E+04  0.00000000000E+00 0. -1.
        -13    1    1    2    0    0  0.14840091119E+03  0.12519844189E+03 -0.47429174330E+03  0.51249404799E+03  0.10566000000E+00 0.  1.
         13    1    1    2    0    0  0.30157852325E+03  0.29794525909E+03 -0.49991709093E+03  0.65546784213E+03  0.10566000000E+00 0. -1.
         -4    1    1    2    0  502 -0.44997943443E+03 -0.42314370098E+03 -0.41114671013E+03  0.74200653659E+03  0.00000000000E+00 0. -1.
</event>
<event>
 5    1  0.4881333E-005  0.4942914E+03  0.7818608E-02  0.9490573E-01
         21   -1    0    0  501  502  0.00000000000E+00  0.00000000000E+00  0.71065041528E+03  0.71065041528E+03  0.00000000000E+00 0.  1.
          4   -1    0    0  502    0 -0.00000000000E+00 -0.00000000000E+00 -0.20116006378E+04  0.20116006378E+04  0.00000000000E+00 0.  1.
        -13    1    1    2    0    0 -0.27145301447E+03  0.53273605175E+03 -0.20039493944E+03  0.63059700508E+03  0.10566000000E+00 0.  1.
         13    1    1    2    0    0  0.39875548444E+03 -0.27830538066E+03 -0.15137777702E+04  0.15899631977E+04  0.10566000000E+00 0. -1.
          4    1    1    2  501    0 -0.12730246996E+03 -0.25443067110E+03  0.41322248721E+03  0.50169085022E+03  0.00000000000E+00 0.  1.
</event>
<event>
 5    1  0.4881333E-005  0.5035422E+03  0.7818608E-02  0.1010469E+00
         -4   -1    0    0    0  501 -0.00000000000E+00  0.00000000000E+00  0.17665502803E+04  0.17665502803E+04  0.00000000000E+00 0. -1.
         21   -1    0    0  501  502  0.00000000000E+00 -0.00000000000E+00 -0.16532743746E+03  0.16532743746E+03  0.00000000000E+00 0. -1.
        -13    1    1    2    0    0 -0.42953062813E+02 -0.37921117241E+02  0.15796220386E+03  0.16803287104E+03  0.10566000000E+00 0.  1.
         13    1    1    2    0    0  0.52713927787E+03  0.29186128547E+02  0.80461962498E+03  0.96236188643E+03  0.10566000000E+00 0. -1.
         -4    1    1    2    0  502 -0.48418621506E+03  0.87349886932E+01  0.63864101400E+03  0.80148296030E+03  0.00000000000E+00 0. -1.
</event>
<event>
 5    1  0.4881333E-005  0.5338392E+02  0.7818608E-02  0.1278593E+00
         21   -1    0    0  501  502  0.00000000000E+00  0.00000000000E+00  0.20965711859E+03  0.20965711859E+03  0.00000000000E+00 0. -1.
         -4   -1    0    0    0  501 -0.00000000000E+00 -0.00000000000E+00 -0.79643031060E+02  0.79643031060E+02  0.00000000000E+00 0. -1.
        -13    1    1    2    0    0  0.28488412739E+02  0.52211703665E+02  0.70813750517E+02  0.92478376318E+02  0.10566000000E+00 0.  1.
         13    1    1    2    0    0 -0.23046644807E+01 -0.53237492985E+02 -0.56809036920E+02  0.77889793795E+02  0.10566000000E+00 0. -1.
         -4    1    1    2    0  502 -0.26183748258E+02  0.10257893196E+01  0.11600937393E+03  0.11893197954E+03  0.00000000000E+00 0. -1.
</event>
<event>
 5    1  0.4881333E-005  0.2418362E+03  0.7818608E-02  0.1034712E+00
         21   -1    0    0  501  502  0.00000000000E+00  0.00000000000E+00  0.10905648226E+03  0.10905648226E+03  0.00000000000E+00 0. -1.
          4   -1    0    0  502    0 -0.00000000000E+00 -0.00000000000E+00 -0.12878444999E+04  0.12878444999E+04  0.00000000000E+00 0.  1.
        -13    1    1    2    0    0  0.20962793042E+03  0.13523441345E+03 -0.10726649307E+04  0.11012911879E+04  0.10566000000E+00 0.  1.
         13    1    1    2    0    0 -0.17250096490E+03 -0.12117883993E+03 -0.13152975521E+03  0.24847732654E+03  0.10566000000E+00 0. -1.
          4    1    1    2  501    0 -0.37126965525E+02 -0.14055573521E+02  0.25406668316E+02  0.47132467695E+02  0.00000000000E+00 0.  1.
</event>
<event>
 5    1  0.4881333E-005  0.3490868E+03  0.7818608E-02  0.9916477E-01
         -4   -1    0    0    0  501 -0.00000000000E+00  0.00000000000E+00  0.23673538348E+04  0.23673538348E+04  0.00000000000E+00 0. -1.
         21   -1    0    0  501  502  0.00000000000E+00 -0.00000000000E+00 -0.32429890572E+03  0.32429890572E+03  0.00000000000E+00 0. -1.
        -13    1    1    2    0    0 -0.11415253213E+03  0.34731083233E+03  0.14999840474E+04  0.15438937037E+04  0.10566000000E+00 0.  1.
         13    1    1    2    0    0 -0.16774781111E+03 -0.94482812313E+02  0.70874860759E+03  0.73443238618E+03  0.10566000000E+00 0. -1.
         -4    1    1    2    0  502  0.28190034324E+03 -0.25282802002E+03 -0.16567772591E+03  0.41332665059E+03  0.00000000000E+00 0. -1.
</event>
<event>
 5    1  0.4881333E-005  0.2802328E+03  0.7818608E-02  0.1015816E+00
         -4   -1    0    0    0  501 -0.00000000000E+00  0.00000000000E+00  0.41242083669E+03  0.41242083669E+03  0.00000000000E+00 0. -1.
         21   -1    0    0  501  502  0.00000000000E+00 -0.00000000000E+00 -0.34620004171E+03  0.34620004171E+03  0.00000000000E+00 0.  1.
        -13    1    1    2    0    0 -0.16087480997E+03 -0.24769517575E+03 -0.15816411991E+03  0.33503657198E+03  0.10566000000E+00 0.  1.
         13    1    1    2    0    0  0.18083047616E+03  0.20982465635E+03  0.25047919809E+03  0.37345131860E+03  0.10566000000E+00 0. -1.
         -4    1    1    2    0  502 -0.19955666184E+02  0.37870519404E+02 -0.26094283200E+02  0.50132987827E+02  0.00000000000E+00 0. -1.
</event>
<event>
 5    1  0.4881333E-005  0.4313269E+03  0.7818608E-02  0.9776951E-01
          4   -1    0    0  502    0 -0.00000000000E+00  0.00000000000E+00  0.43204055777E+03  0.43204055777E+03  0.00000000000E+00 0.  1.
         21   -1    0    0  501  502  0.00000000000E+00 -0.00000000000E+00 -0.98432335833E+03  0.98432335833E+03  0.00000000000E+00 0.  1.
        -13    1    1    2    0    0  0.29839517843E+03  0.20514984220E+03  0.12043221359E+03  0.38161508028E+03  0.10566000000E+00 0.  1.
         13    1    1    2    0    0  0.17338806736E+03 -0.20758550128E+03 -0.90141999328E+02  0.28509779630E+03  0.10566000000E+00 0. -1.
          4    1    1    2  501    0 -0.47178324579E+03  0.24356590842E+01 -0.58257301483E+03  0.74965103952E+03  0.00000000000E+00 0.  1.
</event>
<event>
 5    1  0.4881333E-005  0.4974403E+03  0.7818608E-02  0.1011528E+00
         21   -1    0    0  501  502  0.00000000000E+00  0.00000000000E+00  0.83454367615E+03  0.83454367615E+03  0.00000000000E+00 0. -1.
         -4   -1    0    0    0  501 -0.00000000000E+00 -0.00000000000E+00 -0.37242919078E+03  0.37242919078E+03  0.00000000000E+00 0. -1.
        -13    1    1    2    0    0  0.53921308910E+02  0.19814849527E+02 -0.58293124170E+02  0.81842747424E+02  0.10566000000E+00 0.  1.
         13    1    1    2    0    0  0.31784091344E+03 -0.36773381918E+03  0.21588179855E+03  0.53184205375E+03  0.10566000000E+00 0. -1.
         -4    1    1    2    0  502 -0.37176222235E+03  0.34791896965E+03  0.30452581099E+03  0.59328806576E+03  0.00000000000E+00 0. -1.
</event>
<event>
 5    1  0.4881333E-005  0.4240740E+02  0.7818608E-02  0.1326219E+00
         -4   -1    0    0    0  501 -0.00000000000E+00  0.00000000000E+00  0.14596946631E+03  0.14596946631E+03  0.00000000000E+00 0. -1.
         21   -1    0    0  501  502  0.00000000000E+00 -0.00000000000E+00 -0.92597541159E+02  0.92597541159E+02  0.00000000000E+00 0. -1.
        -13    1    1    2    0    0  0.42920581435E+02 -0.15472022781E+02 -0.75975734959E+01  0.46252503572E+02  0.10566000000E+00 0.  1.
         13    1    1    2    0    0 -0.41774988806E+02 -0.94632806027E+01  0.12043346801E+03  0.12782384265E+03  0.10566000000E+00 0. -1.
         -4    1    1    2    0  502 -0.11455926288E+01  0.24935303383E+02 -0.59463969355E+02  0.64490661252E+02  0.00000000000E+00 0. -1.
</event>
<event>
 5    1  0.4881333E-005  0.8066830E+02  0.7818608E-02  0.1201225E+00
         -4   -1    0    0    0  501 -0.00000000000E+00  0.00000000000E+00  0.89178918289E+02  0.89178918289E+02  0.00000000000E+00 0. -1.
         21   -1    0    0  501  502  0.00000000000E+00 -0.00000000000E+00 -0.46464307659E+03  0.46464307659E+03  0.00000000000E+00 0. -1.
        -13    1    1    2    0    0  0.87354761093E+02 -0.63042136316E+02 -0.10602833105E+03  0.15115284776E+03  0.10566000000E+00 0.  1.
         13    1    1    2    0    0 -0.31850556559E+02  0.71022890275E+02  0.40470745109E+02  0.87730275674E+02  0.10566000000E+00 0. -1.
         -4    1    1    2    0  502 -0.55504204534E+02 -0.79807539593E+01 -0.30990657236E+03  0.31493887145E+03  0.00000000000E+00 0. -1.
</event>
<event>
 5    1  0.4881333E-005  0.8558732E+02  0.7818608E-02  0.1190892E+00
         -4   -1    0    0    0  501 -0.00000000000E+00  0.00000000000E+00  0.17338272246E+03  0.17338272246E+03  0.00000000000E+00 0. -1.
         21   -1    0    0  501  502  0.00000000000E+00 -0.00000000000E+00 -0.11414393775E+03  0.11414393775E+03  0.00000000000E+00 0. -1.
        -13    1    1    2    0    0 -0.98643537895E+01 -0.78910263871E+02  0.90842294496E+02  0.12073304789E+03  0.10566000000E+00 0.  1.
         13    1    1    2    0    0  0.46179660057E+02  0.10779627450E+03 -0.20034376020E+02  0.11897052234E+03  0.10566000000E+00 0. -1.
         -4    1    1    2    0  502 -0.36315306268E+02 -0.28886010626E+02 -0.11569133761E+02  0.47823089979E+02  0.00000000000E+00 0. -1.
</event>
<event>
 5    1  0.4881333E-005  0.4311983E+03  0.7818608E-02  0.9919172E-01
         -4   -1    0    0    0  501 -0.00000000000E+00  0.00000000000E+00  0.18831470857E+04  0.18831470857E+04  0.00000000000E+00 0. -1.
         21   -1    0    0  501  502  0.00000000000E+00 -0.00000000000E+00 -0.20945234801E+03  0.20945234801E+03  0.00000000000E+00 0. -1.
        -13    1    1    2    0    0  0.69106535010E+02  0.15243831961E+03  0.55274041360E+03  0.57752500419E+03  0.10566000000E+00 0.  1.
         13    1    1    2    0    0 -0.31884280716E+03 -0.45436577477E+03  0.92060005099E+03  0.10749946316E+04  0.10566000000E+00 0. -1.
         -4    1    1    2    0  502  0.24973627215E+03  0.30192745516E+03  0.20035427315E+03  0.44007979796E+03  0.00000000000E+00 0. -1.
</event>
<event>
 5    1  0.4881333E-005  0.1685590E+03  0.7818608E-02  0.1087733E+00
         21   -1    0    0  501  502  0.00000000000E+00  0.00000000000E+00  0.20234655320E+03  0.20234655320E+03  0.00000000000E+00 0. -1.
         -4   -1    0    0    0  501 -0.00000000000E+00 -0.00000000000E+00 -0.52552420698E+03  0.52552420698E+03  0.00000000000E+00 0. -1.
        -13    1    1    2    0    0 -0.15244455036E+03  0.25939322687E+01  0.83821668308E+02  0.17398894408E+03  0.10566000000E+00 0.  1.
         13    1    1    2    0    0  0.12381496572E+03 -0.16681325988E+03 -0.24803557119E+03  0.32354051547E+03  0.10566000000E+00 0. -1.
         -4    1    1    2    0  502  0.28629584638E+02  0.16421932762E+03 -0.15896375089E+03  0.23034130063E+03  0.00000000000E+00 0. -1.
</event>
<event>
 5    1  0.4881333E-005  0.5443156E+03  0.7818608E-02  0.9385794E-01
         21   -1    0    0  501  502  0.00000000000E+00  0.00000000000E+00  0.78475224638E+03  0.78475224638E+03  0.00000000000E+00 0.  1.
          4   -1    0    0  502    0 -0.00000000000E+00 -0.00000000000E+00 -0.80803049125E+03  0.80803049125E+03  0.00000000000E+00 0.  1.
        -13    1    1    2    0    0  0.48708162024E+03  0.43289441445E+03 -0.25928140697E+03  0.70133653691E+03  0.10566000000E+00 0.  1.
         13    1    1    2    0    0 -0.44886095020E+03 -0.13427209203E+03 -0.56234106192E+02  0.47187650204E+03  0.10566000000E+00 0. -1.
          4    1    1    2  501    0 -0.38220670037E+02 -0.29862232243E+03  0.29223726829E+03  0.41956969868E+03  0.00000000000E+00 0.  1.
</event>
<event>
 5    1  0.4881333E-005  0.4604063E+03  0.7818608E-02  0.9569249E-01
         21   -1    0    0  501  502  0.00000000000E+00  0.00000000000E+00  0.15353573341E+04  0.15353573341E+04  0.00000000000E+00 0.  1.
          4   -1    0    0  502    0 -0.00000000000E+00 -0.00000000000E+00 -0.27925951172E+03  0.27925951172E+03  0.00000000000E+00 0.  1.
        -13    1    1    2    0    0  0.37664711623E+03  0.33278902265E+03  0.82510232411E+03  0.96612910120E+03  0.10566000000E+00 0.  1.
         13    1    1    2    0    0 -0.33161801544E+03 -0.30262317914E+03  0.36653444160E+02  0.45043843402E+03  0.10566000000E+00 0. -1.
          4    1    1    2  501    0 -0.45029100793E+02 -0.30165843513E+02  0.39434205414E+03  0.39804931064E+03  0.00000000000E+00 0.  1.
</event>
<event>
 5    1  0.4881333E-005  0.5040190E+03  0.7818608E-02  0.9664674E-01
         -4   -1    0    0    0  501 -0.00000000000E+00  0.00000000000E+00  0.16608375806E+04  0.16608375806E+04  0.00000000000E+00 0. -1.
         21   -1    0    0  501  502  0.00000000000E+00 -0.00000000000E+00 -0.10334478467E+04  0.10334478467E+04  0.00000000000E+00 0. -1.
        -13    1    1    2    0    0 -0.15202901911E+03  0.19874390014E+03  0.13857882088E+04  0.14081977600E+04  0.10566000000E+00 0.  1.
         13    1    1    2    0    0  0.56059038361E+03  0.37576923189E+02 -0.47365913726E+03  0.73486501673E+03  0.10566000000E+00 0. -1.
         -4    1    1    2    0  502 -0.40856136449E+03 -0.23632082333E+03 -0.28473933761E+03  0.55122265055E+03  0.00000000000E+00 0. -1.
</event>
<event>
 5    1  0.4881333E-005  0.5664640E+03  0.7818608E-02  0.9356119E-01
         21   -1    0    0  501  502  0.00000000000E+00  0.00000000000E+00  0.86356366313E+03  0.86356366313E+03  0.00000000000E+00 0.  1.
         -4   -1    0    0    0  501 -0.00000000000E+00 -0.00000000000E+00 -0.17885948748E+04  0.17885948748E+04  0.00000000000E+00 0. -1.
        -13    1    1    2    0    0 -0.10280183131E+04 -0.62531333548E+02 -0.27934610367E+03  0.10671298311E+04  0.10566000000E+00 0.  1.
         13    1    1    2    0    0  0.46619592873E+03 -0.98360036660E+01 -0.86088882201E+03  0.97906331050E+03  0.10566000000E+00 0. -1.
         -4    1    1    2    0  502  0.56182238435E+03  0.72367337214E+02  0.21520371397E+03  0.60596539634E+03  0.00000000000E+00 0. -1.
</event>
<event>
 5    1  0.4881333E-005  0.7467403E+02  0.7818608E-02  0.1277248E+00
         21   -1    0    0  501  502  0.00000000000E+00  0.00000000000E+00  0.39997621811E+03  0.39997621811E+03  0.00000000000E+00 0.  1.
          4   -1    0    0  502    0 -0.00000000000E+00 -0.00000000000E+00 -0.10363100696E+03  0.10363100696E+03  0.00000000000E+00 0.  1.
        -13    1    1    2    0    0 -0.98927049762E+01  0.59180800476E+02 -0.83417544447E+02  0.10275568423E+03  0.10566000000E+00 0.  1.
         13    1    1    2    0    0  0.11922614860E+02  0.16104648165E+02  0.80640803815E+01  0.21599745231E+02  0.10566000000E+00 0. -1.
          4    1    1    2  501    0 -0.20299098835E+01 -0.75285448641E+02  0.37169867521E+03  0.37925179560E+03  0.00000000000E+00 0.  1.
</event>
<event>
 5    1  0.4881333E-005  0.4725923E+03  0.7818608E-02  0.9598647E-01
         -4   -1    0    0    0  501 -0.00000000000E+00  0.00000000000E+00  0.14160293529E+04  0.14160293529E+04  0.00000000000E+00 0. -1.
         21   -1    0    0  501  502  0.00000000000E+00 -0.00000000000E+00 -0.55903742211E+03  0.55903742211E+03  0.00000000000E+00 0. -1.
        -13    1    1    2    0    0  0.25911547169E+03 -0.28244181943E+03  0.84322531291E+03  0.92625220568E+03  0.10566000000E+00 0.  1.
         13    1    1    2    0    0  0.36599220868E+03  0.12006349942E+02  0.30993718220E+02  0.36749839590E+03  0.10566000000E+00 0. -1.
         -4    1    1    2    0  502 -0.62510768037E+03  0.27043546949E+03 -0.17227100320E+02  0.68131617345E+03  0.00000000000E+00 0. -1.
</event>
<event>
 5    1  0.4881333E-005  0.9520740E+02  0.7818608E-02  0.1172738E+00
         21   -1    0    0  501  502  0.00000000000E+00  0.00000000000E+00  0.23943976201E+02  0.23943976201E+02  0.00000000000E+00 0. -1.
         -4   -1    0    0    0  501 -0.00000000000E+00 -0.00000000000E+00 -0.87112398960E+03  0.87112398960E+03  0.00000000000E+00 0. -1.
        -13    1    1    2    0    0  0.27758375722E+02 -0.91946987449E+02 -0.29333960861E+03  0.30866310610E+03  0.10566000000E+00 0.  1.
         13    1    1    2    0    0 -0.37564498851E+02  0.87238786983E+02 -0.56374666800E+03  0.57169223746E+03  0.10566000000E+00 0. -1.
         -4    1    1    2    0  502  0.98061231281E+01  0.47082004665E+01  0.99062632098E+01  0.14712622241E+02  0.00000000000E+00 0. -1.
</event>
<event>
 5    1  0.4881333E-005  0.6644679E+02  0.7818608E-02  0.1236371E+00
          4   -1    0    0  502    0 -0.00000000000E+00  0.00000000000E+00  0.30314308872E+03  0.30314308872E+03  0.00000000000E+00 0.  1.
         21   -1    0    0  501  502  0.00000000000E+00 -0.00000000000E+00 -0.16065769461E+03  0.16065769461E+03  0.00000000000E+00 0.  1.
        -13    1    1    2    0    0  0.35697259057E+02  0.54450314997E+02  0.26357962918E+03  0.27150205007E+03  0.10566000000E+00 0.  1.
         13    1    1    2    0    0 -0.44539309862E+02 -0.70355729457E+02 -0.14943037654E+02  0.84598961747E+02  0.10566000000E+00 0. -1.
          4    1    1    2  501    0  0.88420508051E+01  0.15905414459E+02 -0.10615119742E+03  0.10769977152E+03  0.00000000000E+00 0.  1.
</event>
<event>
 5    1  0.4881333E-005  0.4468345E+03  0.7818608E-02  0.9648644E-01
         21   -1    0    0  501  502  0.00000000000E+00  0.00000000000E+00  0.23176581758E+03  0.23176581758E+03  0.00000000000E+00 0. -1.
         -4   -1    0    0    0  501 -0.00000000000E+00 -0.00000000000E+00 -0.23432267191E+04  0.23432267191E+04  0.00000000000E+00 0. -1.
        -13    1    1    2    0    0 -0.37442055905E+03  0.64435343871E+02 -0.84405784841E+03  0.92562213198E+03  0.10566000000E+00 0.  1.
         13    1    1    2    0    0  0.26463812595E+03 -0.43737603449E+03 -0.26838442304E+03  0.57737452571E+03  0.10566000000E+00 0. -1.
         -4    1    1    2    0  502  0.10978243310E+03  0.37294069062E+03 -0.99901863005E+03  0.10719958790E+04  0.00000000000E+00 0. -1.
</event>
<event>
 5    1  0.4881333E-005  0.3284837E+03  0.7818608E-02  0.1041781E+00
         21   -1    0    0  501  502  0.00000000000E+00  0.00000000000E+00  0.28196508426E+03  0.28196508426E+03  0.00000000000E+00 0. -1.
         -4   -1    0    0    0  501 -0.00000000000E+00 -0.00000000000E+00 -0.13264997587E+04  0.13264997587E+04  0.00000000000E+00 0. -1.
        -13    1    1    2    0    0  0.28508344342E+02  0.72433606034E+02 -0.41851716648E+03  0.42569470608E+03  0.10566000000E+00 0.  1.
         13    1    1    2    0    0 -0.12007160095E+03  0.29820272543E+03  0.12129072920E+03  0.34358915432E+03  0.10566000000E+00 0. -1.
         -4    1    1    2    0  502  0.91563256608E+02 -0.37063633147E+03 -0.74730823719E+03  0.83918098259E+03  0.00000000000E+00 0. -1.
</event>
<event>
 5    1  0.4881333E-005  0.3488937E+03  0.7818608E-02  0.9889508E-01
          4   -1    0    0  502    0 -0.00000000000E+00  0.00000000000E+00  0.36810212109E+03  0.36810212109E+03  0.00000000000E+00 0.  1.
         21   -1    0    0  501  502  0.00000000000E+00 -0.00000000000E+00 -0.68671901252E+03  0.68671901252E+03  0.00000000000E+00 0. -1.
        -13    1    1    2    0    0  0.34944146980E+03  0.55108842545E+02  0.17491611372E+03  0.39464158847E+03  0.10566000000E+00 0.  1.
         13    1    1    2    0    0 -0.33819845032E+03  0.34206362307E+02 -0.33142145421E+03  0.47475094365E+03  0.10566000000E+00 0. -1.
          4    1    1    2  501    0 -0.11243019488E+02 -0.89315204852E+02 -0.16211155094E+03  0.18542860150E+03  0.00000000000E+00 0.  1.
</event>
<event>
 5    1  0.4881333E-005  0.9442667E+02  0.7818608E-02  0.1175664E+00
          4   -1    0    0  502    0 -0.00000000000E+00  0.00000000000E+00  0.12251110305E+04  0.12251110305E+04  0.00000000000E+00 0.  1.
         21   -1    0    0  501  502  0.00000000000E+00 -0.00000000000E+00 -0.95886235537E+02  0.95886235537E+02  0.00000000000E+00 0.  1.
        -13    1    1    2    0    0  0.19727712871E+02  0.17043894135E+03  0.10362496204E+04  0.10503579877E+04  0.10566000000E+00 0.  1.
         13    1    1    2    0    0  0.22743593106E+02 -0.88142419159E+02  0.13983145027E+03  0.16685083977E+03  0.10566000000E+00 0. -1.
          4    1    1    2  501    0 -0.42471305976E+02 -0.82296522191E+02 -0.46856275745E+02  0.10378843853E+03  0.00000000000E+00 0.  1.
</event>
<event>
 5    1  0.4881333E-005  0.4479548E+03  0.7818608E-02  0.9599977E-01
         21   -1    0    0  501  502  0.00000000000E+00  0.00000000000E+00  0.19632705843E+03  0.19632705843E+03  0.00000000000E+00 0. -1.
          4   -1    0    0  502    0 -0.00000000000E+00 -0.00000000000E+00 -0.26342488474E+04  0.26342488474E+04  0.00000000000E+00 0.  1.
        -13    1    1    2    0    0  0.54248459687E+03  0.49026562158E+02 -0.16740472317E+04  0.17604338348E+04  0.10566000000E+00 0.  1.
         13    1    1    2    0    0 -0.29976387139E+03  0.22135136927E+03 -0.48764843682E+03  0.61372291497E+03  0.10566000000E+00 0. -1.
          4    1    1    2  501    0 -0.24272072549E+03 -0.27037793143E+03 -0.27622612047E+03  0.45641915605E+03  0.00000000000E+00 0.  1.
</event>
<event>
 5    1  0.4881333E-005  0.5212091E+03  0.7818608E-02  0.9432659E-01
         -4   -1    0    0    0  501 -0.00000000000E+00  0.00000000000E+00  0.12650289519E+04  0.12650289519E+04  0.00000000000E+00 0. -1.
         21   -1    0    0  501  502  0.00000000000E+00 -0.00000000000E+00 -0.58516279338E+03  0.58516279338E+03  0.00000000000E+00 0. -1.
        -13    1    1    2    0    0 -0.48398196078E+03 -0.12528726560E+02  0.53669074765E+03  0.72279490668E+03  0.10566000000E+00 0.  1.
         13    1    1    2    0    0  0.57967748689E+03  0.39363116066E+03  0.20399451077E+03  0.72978438668E+03  0.10566000000E+00 0. -1.
         -4    1    1    2    0  502 -0.95695526109E+02 -0.38110243410E+03 -0.60819099909E+02  0.39761245191E+03  0.00000000000E+00 0. -1.
</event>
<event>
 5    1  0.4881333E-005  0.3997421E+03  0.7818608E-02  0.9729791E-01
         21   -1    0    0  501  502  0.00000000000E+00  0.00000000000E+00  0.16594072534E+04  0.16594072534E+04  0.00000000000E+00 0.  1.
          4   -1    0    0  502    0 -0.00000000000E+00 -0.00000000000E+00 -0.56420127044E+03  0.56420127044E+03  0.00000000000E+00 0.  1.
        -13    1    1    2    0    0  0.50795438177E+03  0.77219724852E+02  0.19263204889E+03  0.54871454991E+03  0.10566000000E+00 0.  1.
         13    1    1    2    0    0 -0.36893968994E+03 -0.46934850283E+02 -0.29139833170E+03  0.47247473357E+03  0.10566000000E+00 0. -1.
          4    1    1    2  501    0 -0.13901469183E+03 -0.30284874570E+02  0.11939722658E+04  0.12024192404E+04  0.00000000000E+00 0.  1.
</event>
<event>
 5    1  0.4881333E-005  0.1962635E+03  0.7818608E-02  0.1076989E+00
         -4   -1    0    0    0  501 -0.00000000000E+00  0.00000000000E+00  0.93729750589E+03  0.93729750589E+03  0.00000000000E+00 0. -1.
         21   -1    0    0  501  502  0.00000000000E+00 -0.00000000000E+00 -0.27194985213E+03  0.27194985213E+03  0.00000000000E+00 0. -1.
        -13    1    1    2    0    0 -0.12248988737E+03  0.44902153711E+02  0.17142499341E+03  0.21542171535E+03  0.10566000000E+00 0.  1.
         13    1    1    2    0    0  0.30887623492E+03 -0.82062126641E+01  0.66810380030E+03  0.73609413091E+03  0.10566000000E+00 0. -1.
         -4    1    1    2    0  502 -0.18638634755E+03 -0.36695941047E+02 -0.17418113995E+03  0.25773151176E+03  0.00000000000E+00 0. -1.
</event>
<event>
 5    1  0.6443179E-005  0.3647292E+03  0.7818608E-02  0.9927796E-01
         21   -1    0    0  501  502  0.00000000000E+00  0.00000000000E+00  0.54768418642E+03  0.54768418642E+03  0.00000000000E+00 0.  1.
          4   -1    0    0  502    0 -0.00000000000E+00 -0.00000000000E+00 -0.12666893739E+04  0.12666893739E+04  0.00000000000E+00 0.  1.
        -13    1    1    2    0    0  0.10427147033E+03  0.21188092065E+03 -0.39947266924E+03  0.46405224780E+03  0.10566000000E+00 0.  1.
         13    1    1    2    0    0 -0.20499278150E+03  0.17377706969E+03 -0.73016437325E+03  0.77804918453E+03  0.10566000000E+00 0. -1.
          4    1    1    2  501    0  0.10072131117E+03 -0.38565799033E+03  0.41063185505E+03  0.57227212794E+03  0.00000000000E+00 0.  1.
</event>
<event>
 5    1  0.4881333E-005  0.6738033E+03  0.7818608E-02  0.9161871E-01
         -4   -1    0    0    0  501 -0.00000000000E+00  0.00000000000E+00  0.27855075075E+04  0.27855075075E+04  0.00000000000E+00 0. -1.
         21   -1    0    0  501  502  0.00000000000E+00 -0.00000000000E+00 -0.27577398336E+03  0.27577398336E+03  0.00000000000E+00 0.  1.
        -13    1    1    2    0    0  0.35044566972E+02  0.59688887615E+03  0.82295602164E+03  0.10172320664E+04  0.10566000000E+00 0.  1.
         13    1    1    2    0    0 -0.36249506799E+03 -0.71874240524E+03  0.11608764829E+04  0.14126668182E+04  0.10566000000E+00 0. -1.
         -4    1    1    2    0  502  0.32745050102E+03  0.12185352909E+03  0.52590101958E+03  0.63138260632E+03  0.00000000000E+00 0. -1.
</event>
<event>
 5    1  0.4881333E-005  0.4148923E+03  0.7818608E-02  0.9686994E-01
          4   -1    0    0  502    0 -0.00000000000E+00  0.00000000000E+00  0.89823739736E+03  0.89823739736E+03  0.00000000000E+00 0.  1.
         21   -1    0    0  501  502  0.00000000000E+00 -0.00000000000E+00 -0.77109965653E+03  0.77109965653E+03  0.00000000000E+00 0.  1.
        -13    1    1    2    0    0  0.23420189151E+03 -0.39554626737E+03 -0.59315594117E+03  0.75042744974E+03  0.10566000000E+00 0.  1.
         13    1    1    2    0    0 -0.13200977804E+03  0.38807889800E+03  0.36409839086E+03  0.54826951580E+03  0.10566000000E+00 0. -1.
          4    1    1    2  501    0 -0.10219211346E+03  0.74673693725E+01  0.35619529114E+03  0.37064008835E+03  0.00000000000E+00 0.  1.
</event>
<event>
 5    1  0.4881333E-005  0.4981637E+03  0.7818608E-02  0.9806968E-01
         21   -1    0    0  501  502  0.00000000000E+00  0.00000000000E+00  0.18425374016E+03  0.18425374016E+03  0.00000000000E+00 0.  1.
          4   -1    0    0  502    0 -0.00000000000E+00 -0.00000000000E+00 -0.23133431778E+04  0.23133431778E+04  0.00000000000E+00 0.  1.
        -13    1    1    2    0    0 -0.45483010711E+03 -0.31912015616E+03 -0.46005991884E+03  0.72136207309E+03  0.10566000000E+00 0.  1.
         13    1    1    2    0    0  0.15334620556E+03  0.39829539153E+02 -0.79199834106E+03  0.80768981320E+03  0.10566000000E+00 0. -1.
          4    1    1    2  501    0  0.30148390155E+03  0.27929061701E+03 -0.87703117773E+03  0.96854503166E+03  0.00000000000E+00 0.  1.
</event>
<event>
 5    1  0.4881333E-005  0.5389817E+03  0.7818608E-02  0.9396394E-01
          4   -1    0    0  502    0 -0.00000000000E+00  0.00000000000E+00  0.24600437820E+04  0.24600437820E+04  0.00000000000E+00 0.  1.
         21   -1    0    0  501  502  0.00000000000E+00 -0.00000000000E+00 -0.14069561405E+03  0.14069561405E+03  0.00000000000E+00 0. -1.
        -13    1    1    2    0    0 -0.50381240048E+03 -0.21846547865E+03  0.14449537133E+04  0.15457830847E+04  0.10566000000E+00 0.  1.
         13    1    1    2    0    0  0.47711441467E+03  0.21792282304E+03  0.88287748279E+03  0.10269377694E+04  0.10566000000E+00 0. -1.
          4    1    1    2  501    0  0.26697985808E+02  0.54265560041E+00 -0.84830281871E+01  0.28018541870E+02  0.00000000000E+00 0.  1.
</event>
<event>
 5    1  0.4881333E-005  0.4986999E+03  0.7818608E-02  0.9572075E-01
         21   -1    0    0  501  502  0.00000000000E+00  0.00000000000E+00  0.36668771518E+03  0.36668771518E+03  0.00000000000E+00 0.  1.
          4   -1    0    0  502    0 -0.00000000000E+00 -0.00000000000E+00 -0.17184083666E+04  0.17184083666E+04  0.00000000000E+00 0.  1.
        -13    1    1    2    0    0 -0.40445222506E+03 -0.46074656766E+03 -0.56117335054E+03  0.83113449122E+03  0.10566000000E+00 0.  1.
         13    1    1    2    0    0  0.35388794575E+03  0.58166268685E+02  0.74753967241E+01  0.35871421170E+03  0.10566000000E+00 0. -1.
          4    1    1    2  501    0  0.50564279314E+02  0.40258029898E+03 -0.79802269756E+03  0.89524737882E+03  0.00000000000E+00 0.  1.
</event>
<event>
 5    1  0.4881333E-005  0.1585451E+03  0.7818608E-02  0.1105168E+00
         21   -1    0    0  501  502  0.00000000000E+00  0.00000000000E+00  0.66644935718E+03  0.66644935718E+03  0.00000000000E+00 0. -1.
          4   -1    0    0  502    0 -0.00000000000E+00 -0.00000000000E+00 -0.12471321659E+03  0.12471321659E+03  0.00000000000E+00 0.  1.
        -13    1    1    2    0    0 -0.58703287063E+02  0.90186118288E+02 -0.40597081462E+02  0.11501193865E+03  0.10566000000E+00 0.  1.
         13    1    1    2    0    0 -0.11349755074E+03 -0.93319818617E+01  0.38732491478E+03  0.40371943312E+03  0.10566000000E+00 0. -1.
          4    1    1    2  501    0  0.17220083780E+03 -0.80854136426E+02  0.19500830727E+03  0.27243120200E+03  0.00000000000E+00 0.  1.
</event>
<event>
 5    1  0.4881333E-005  0.4888637E+03  0.7818608E-02  0.1053751E+00
         -4   -1    0    0    0  501 -0.00000000000E+00  0.00000000000E+00  0.24674583235E+03  0.24674583235E+03  0.00000000000E+00 0. -1.
         21   -1    0    0  501  502  0.00000000000E+00 -0.00000000000E+00 -0.13452855415E+04  0.13452855415E+04  0.00000000000E+00 0. -1.
        -13    1    1    2    0    0  0.25270896049E+00 -0.16515552101E+02  0.59217557383E+02  0.61478106586E+02  0.10566000000E+00 0.  1.
         13    1    1    2    0    0 -0.47453397346E+03  0.12813997140E+03 -0.42059229121E+03  0.64691593800E+03  0.10566000000E+00 0. -1.
         -4    1    1    2    0  502  0.47428126450E+03 -0.11162441930E+03 -0.73716497534E+03  0.88363732929E+03  0.00000000000E+00 0. -1.
</event>
<event>
 5    1  0.4881333E-005  0.2330668E+03  0.7818608E-02  0.1039562E+00
         21   -1    0    0  501  502  0.00000000000E+00  0.00000000000E+00  0.52635484882E+02  0.52635484882E+02  0.00000000000E+00 0. -1.
          4   -1    0    0  502    0 -0.00000000000E+00 -0.00000000000E+00 -0.20039761831E+04  0.20039761831E+04  0.00000000000E+00 0.  1.
        -13    1    1    2    0    0 -0.21316212740E+03  0.61914163139E+02 -0.11786951378E+04  0.11994138966E+04  0.10566000000E+00 0.  1.
         13    1    1    2    0    0  0.24686235351E+03 -0.63215992949E+02 -0.78177486828E+03  0.82225862062E+03  0.10566000000E+00 0. -1.
          4    1    1    2  501    0 -0.33700226110E+02  0.13018298102E+01  0.91293078406E+01  0.34939150853E+02  0.00000000000E+00 0.  1.
</event>
<event>
 5    1  0.4881333E-005  0.8750046E+03  0.7818608E-02  0.8901832E-01
         21   -1    0    0  501  502  0.00000000000E+00  0.00000000000E+00  0.12512677248E+04  0.12512677248E+04  0.00000000000E+00 0.  1.
          4   -1    0    0  502    0 -0.00000000000E+00 -0.00000000000E+00 -0.21769417654E+04  0.21769417654E+04  0.00000000000E+00 0.  1.
        -13    1    1    2    0    0 -0.79382338606E+03 -0.28501770161E+03  0.58373451244E+01  0.84345998378E+03  0.10566000000E+00 0.  1.
         13    1    1    2    0    0  0.83893321985E+03  0.27647551710E+03 -0.16463990941E+04  0.18683890513E+04  0.10566000000E+00 0. -1.
          4    1    1    2  501    0 -0.45109833798E+02  0.85421845029E+01  0.71488770835E+03  0.71636045505E+03  0.00000000000E+00 0.  1.
</event>
<event>
 5    1  0.4881333E-005  0.1873670E+03  0.7818608E-02  0.1133966E+00
         -4   -1    0    0    0  501 -0.00000000000E+00  0.00000000000E+00  0.93352537234E+02  0.93352537234E+02  0.00000000000E+00 0. -1.
         21   -1    0    0  501  502  0.00000000000E+00 -0.00000000000E+00 -0.28530078212E+04  0.28530078212E+04  0.00000000000E+00 0. -1.
        -13    1    1    2    0    0 -0.61939362364E+01 -0.31889164695E+02 -0.16600620381E+02  0.36481165443E+02  0.10566000000E+00 0.  1.
         13    1    1    2    0    0  0.13809130152E+03  0.16349120599E+03 -0.62624164266E+02  0.22298066980E+03  0.10566000000E+00 0. -1.
         -4    1    1    2    0  502 -0.13189736528E+03 -0.13160204129E+03 -0.26804304993E+04  0.26868985232E+04  0.00000000000E+00 0. -1.
</event>
<event>
 5    1  0.4881333E-005  0.5193815E+03  0.7818608E-02  0.9436475E-01
         21   -1    0    0  501  502  0.00000000000E+00  0.00000000000E+00  0.40469622472E+03  0.40469622472E+03  0.00000000000E+00 0.  1.
         -4   -1    0    0    0  501 -0.00000000000E+00 -0.00000000000E+00 -0.79826928464E+03  0.79826928464E+03  0.00000000000E+00 0. -1.
        -13    1    1    2    0    0  0.22554586612E+03 -0.48726584806E+03 -0.52702462518E+02  0.53951506479E+03  0.10566000000E+00 0.  1.
         13    1    1    2    0    0 -0.23495667539E+03  0.45267703479E+03 -0.35858941270E+03  0.62346412503E+03  0.10566000000E+00 0. -1.
         -4    1    1    2    0  502  0.94108092754E+01  0.34588813271E+02  0.17718815296E+02  0.39986319538E+02  0.00000000000E+00 0. -1.
</event>
<event>
 5    1  0.4881333E-005  0.4854177E+03  0.7818608E-02  0.9584278E-01
         21   -1    0    0  501  502  0.00000000000E+00  0.00000000000E+00  0.72179911190E+03  0.72179911190E+03  0.00000000000E+00 0. -1.
         -4   -1    0    0    0  501 -0.00000000000E+00 -0.00000000000E+00 -0.86217385175E+03  0.86217385175E+03  0.00000000000E+00 0. -1.
        -13    1    1    2    0    0 -0.73912384545E+02  0.36488211058E+03 -0.32643536673E+03  0.49513842006E+03  0.10566000000E+00 0.  1.
         13    1    1    2    0    0 -0.45324745380E+03 -0.20346023835E+03  0.20436559838E+03  0.53721004452E+03  0.10566000000E+00 0. -1.
         -4    1    1    2    0  502  0.52715983835E+03 -0.16142187222E+03 -0.18304971503E+02  0.55162449907E+03  0.00000000000E+00 0. -1.
</event>
<event>
 5    1  0.4881333E-005  0.6497038E+02  0.7818608E-02  0.1240576E+00
         -4   -1    0    0    0  501 -0.00000000000E+00  0.00000000000E+00  0.14424774214E+03  0.14424774214E+03  0.00000000000E+00 0. -1.
         21   -1    0    0  501  502  0.00000000000E+00 -0.00000000000E+00 -0.13771277125E+03  0.13771277125E+03  0.00000000000E+00 0.  1.
        -13    1    1    2    0    0  0.14635273332E+02 -0.39194072902E+02 -0.60008484369E+02  0.73153235995E+02  0.10566000000E+00 0.  1.
         13    1    1    2    0    0 -0.29591535902E+01  0.68178093709E+02  0.12506153491E+03  0.14246897111E+03  0.10566000000E+00 0. -1.
         -4    1    1    2    0  502 -0.11676119741E+02 -0.28984020807E+02 -0.58518079655E+02  0.66338306286E+02  0.00000000000E+00 0. -1.
</event>
<event>
 5    1  0.4881333E-005  0.7791972E+03  0.7818608E-02  0.9015387E-01
         21   -1    0    0  501  502  0.00000000000E+00  0.00000000000E+00  0.56126428314E+03  0.56126428314E+03  0.00000000000E+00 0.  1.
         -4   -1    0    0    0  501 -0.00000000000E+00 -0.00000000000E+00 -0.28041031567E+04  0.28041031567E+04  0.00000000000E+00 0. -1.
        -13    1    1    2    0    0 -0.65107465410E+03 -0.80149930751E+03 -0.63373135489E+03  0.12115753326E+04  0.10566000000E+00 0.  1.
         13    1    1    2    0    0  0.45262769467E+03  0.55385383229E+03 -0.16823571881E+04  0.18281005489E+04  0.10566000000E+00 0. -1.
         -4    1    1    2    0  502  0.19844695943E+03  0.24764547521E+03  0.73249669426E+02  0.32569155834E+03  0.00000000000E+00 0. -1.
</event>
<event>
 5    1  0.4881333E-005  0.5203845E+03  0.7818608E-02  0.9467615E-01
         -4   -1    0    0    0  501 -0.00000000000E+00  0.00000000000E+00  0.17174361648E+04  0.17174361648E+04  0.00000000000E+00 0. -1.
         21   -1    0    0  501  502  0.00000000000E+00 -0.00000000000E+00 -0.42574855229E+03  0.42574855229E+03  0.00000000000E+00 0. -1.
        -13    1    1    2    0    0 -0.43906398627E+03 -0.13926216371E+03  0.75594365501E+03  0.88522423995E+03  0.10566000000E+00 0.  1.
         13    1    1    2    0    0  0.55706944361E+03 -0.32738360859E+03  0.22118895255E+03  0.68295750678E+03  0.10566000000E+00 0. -1.
         -4    1    1    2    0  502 -0.11800545734E+03  0.46664577230E+03  0.31455500493E+03  0.57500297034E+03  0.00000000000E+00 0. -1.
</event>
<event>
 5    1  0.4881333E-005  0.3475088E+03  0.7818608E-02  0.9992324E-01
         21   -1    0    0  501  502  0.00000000000E+00  0.00000000000E+00  0.24833413385E+03  0.24833413385E+03  0.00000000000E+00 0. -1.
         -4   -1    0    0    0  501 -0.00000000000E+00 -0.00000000000E+00 -0.16732240792E+04  0.16732240792E+04  0.00000000000E+00 0. -1.
        -13    1    1    2    0    0 -0.11612228077E+03 -0.22256681981E+03 -0.50165097215E+03  0.56095818239E+03  0.10566000000E+00 0.  1.
         13    1    1    2    0    0  0.44007283651E+03  0.12501580726E+03 -0.91406224306E+03  0.10221559807E+04  0.10566000000E+00 0. -1.
         -4    1    1    2    0  502 -0.32395055574E+03  0.97551012543E+02 -0.91767301795E+01  0.33844405002E+03  0.00000000000E+00 0. -1.
</event>
<event>
 5    1  0.4881333E-005  0.8930203E+03  0.7818608E-02  0.8882175E-01
         21   -1    0    0  501  502  0.00000000000E+00  0.00000000000E+00  0.54135752488E+03  0.54135752488E+03  0.00000000000E+00 0.  1.
          4   -1    0    0  502    0 -0.00000000000E+00 -0.00000000000E+00 -0.22333850521E+04  0.22333850521E+04  0.00000000000E+00 0.  1.
        -13    1    1    2    0    0 -0.10268692196E+04  0.29634411802E+03 -0.62761571902E+03  0.12394279860E+04  0.10566000000E+00 0.  1.
         13    1    1    2    0    0  0.76563659674E+03 -0.25833620348E+03 -0.95118257031E+03  0.12480726283E+04  0.10566000000E+00 0. -1.
          4    1    1    2  501    0  0.26123262289E+03 -0.38007914540E+02 -0.11322923792E+03  0.28724196272E+03  0.00000000000E+00 0.  1.
</event>
<event>
 5    1  0.4881333E-005  0.7172043E+03  0.7818608E-02  0.9098388E-01
         21   -1    0    0  501  502  0.00000000000E+00  0.00000000000E+00  0.33155538377E+03  0.33155538377E+03  0.00000000000E+00 0.  1.
         -4   -1    0    0    0  501 -0.00000000000E+00 -0.00000000000E+00 -0.26187095726E+04  0.26187095726E+04  0.00000000000E+00 0. -1.
        -13    1    1    2    0    0 -0.62709848935E+03 -0.11667876991E+03 -0.11674689773E+04  0.13303571982E+04  0.10566000000E+00 0.  1.
         13    1    1    2    0    0  0.84295055967E+03  0.25379968348E+03 -0.10150203904E+04  0.13435945555E+04  0.10566000000E+00 0. -1.
         -4    1    1    2    0  502 -0.21585207032E+03 -0.13712091357E+03 -0.10466482109E+03  0.27631320268E+03  0.00000000000E+00 0. -1.
</event>
<event>
 5    1  0.4881333E-005  0.4989709E+03  0.7818608E-02  0.9625550E-01
         -4   -1    0    0    0  501 -0.00000000000E+00  0.00000000000E+00  0.19644037136E+04  0.19644037136E+04  0.00000000000E+00 0. -1.
         21   -1    0    0  501  502  0.00000000000E+00 -0.00000000000E+00 -0.23892920074E+03  0.23892920074E+03  0.00000000000E+00 0. -1.
        -13    1    1    2    0    0 -0.36482673083E+02  0.29375549043E+03  0.56408477525E+03  0.63703604170E+03  0.10566000000E+00 0.  1.
         13    1    1    2    0    0  0.24756545400E+03  0.31599010312E+03  0.51506501032E+03  0.65301636679E+03  0.10566000000E+00 0. -1.
         -4    1    1    2    0  502 -0.21108278092E+03 -0.60974559356E+03  0.64632472732E+03  0.91328050587E+03  0.00000000000E+00 0. -1.
</event>
<event>
 5    1  0.4881333E-005  0.5045639E+03  0.7818608E-02  0.9653303E-01
         21   -1    0    0  501  502  0.00000000000E+00  0.00000000000E+00  0.19816505680E+03  0.19816505680E+03  0.00000000000E+00 0.  1.
          4   -1    0    0  502    0 -0.00000000000E+00 -0.00000000000E+00 -0.26124796805E+04  0.26124796805E+04  0.00000000000E+00 0.  1.
        -13    1    1    2    0    0  0.67819734003E+02 -0.58910116913E+03 -0.57442321161E+03  0.82559175201E+03  0.10566000000E+00 0.  1.
         13    1    1    2    0    0  0.14084228414E+03  0.21804761654E+03 -0.11112919037E+04  0.11412059492E+04  0.10566000000E+00 0. -1.
          4    1    1    2  501    0 -0.20866201814E+03  0.37105355259E+03 -0.72859950844E+03  0.84384703614E+03  0.00000000000E+00 0.  1.
</event>
<event>
 5    1  0.4881333E-005  0.3942053E+03  0.7818608E-02  0.9745932E-01
         21   -1    0    0  501  502  0.00000000000E+00  0.00000000000E+00  0.32989065244E+03  0.32989065244E+03  0.00000000000E+00 0. -1.
         -4   -1    0    0    0  501 -0.00000000000E+00 -0.00000000000E+00 -0.27949641827E+04  0.27949641827E+04  0.00000000000E+00 0. -1.
        -13    1    1    2    0    0  0.16386902559E+03 -0.32831455351E+03 -0.19034688742E+04  0.19385141913E+04  0.10566000000E+00 0.  1.
         13    1    1    2    0    0 -0.24179296716E+03  0.65769400405E+03 -0.43607936769E+03  0.82534263674E+03  0.10566000000E+00 0. -1.
         -4    1    1    2    0  502  0.77923941573E+02 -0.32937945054E+03 -0.12552528835E+03  0.36099800709E+03  0.00000000000E+00 0. -1.
</event>
<event>
 5    1  0.4881333E-005  0.4239073E+02  0.7818608E-02  0.1337932E+00
         21   -1    0    0  501  502  0.00000000000E+00  0.00000000000E+00  0.43427678350E+02  0.43427678350E+02  0.00000000000E+00 0. -1.
          4   -1    0    0  502    0 -0.00000000000E+00 -0.00000000000E+00 -0.33644076962E+03  0.33644076962E+03  0.00000000000E+00 0.  1.
        -13    1    1    2    0    0  0.13047174553E+02 -0.29246853359E+02 -0.16410581471E+03  0.16720148558E+03  0.10566000000E+00 0.  1.
         13    1    1    2    0    0 -0.45603257705E+02  0.63419713460E+02 -0.14339878351E+03  0.16329402759E+03  0.10566000000E+00 0. -1.
          4    1    1    2  501    0  0.32556083151E+02 -0.34172860100E+02  0.14491506948E+02  0.49372934805E+02  0.00000000000E+00 0.  1.
</event>
<event>
 5    1  0.4881333E-005  0.4677958E+03  0.7818608E-02  0.9551495E-01
          4   -1    0    0  502    0 -0.00000000000E+00  0.00000000000E+00  0.64509466702E+03  0.64509466702E+03  0.00000000000E+00 0.  1.
         21   -1    0    0  501  502  0.00000000000E+00 -0.00000000000E+00 -0.88156770297E+03  0.88156770297E+03  0.00000000000E+00 0. -1.
        -13    1    1    2    0    0  0.42859105665E+03 -0.19051784922E+03  0.34688351784E+03  0.58336569219E+03  0.10566000000E+00 0.  1.
         13    1    1    2    0    0 -0.41755978285E+03  0.20437091664E+03 -0.12070385276E+03  0.48030518950E+03  0.10566000000E+00 0. -1.
          4    1    1    2  501    0 -0.11031273799E+02 -0.13853067429E+02 -0.46265270103E+03  0.46299148831E+03  0.00000000000E+00 0.  1.
</event>
<event>
 5    1  0.4881333E-005  0.4020066E+03  0.7818608E-02  0.9853217E-01
         21   -1    0    0  501  502  0.00000000000E+00  0.00000000000E+00  0.13683385260E+03  0.13683385260E+03  0.00000000000E+00 0. -1.
         -4   -1    0    0    0  501 -0.00000000000E+00 -0.00000000000E+00 -0.28351166596E+04  0.28351166596E+04  0.00000000000E+00 0. -1.
        -13    1    1    2    0    0 -0.23596633082E+03  0.10357322519E+03 -0.49071019964E+03  0.55425989702E+03  0.10566000000E+00 0.  1.
         13    1    1    2    0    0  0.58206303674E+03 -0.10822800710E+03 -0.17253863710E+04  0.18241350884E+04  0.10566000000E+00 0. -1.
         -4    1    1    2    0  502 -0.34609670592E+03  0.46547819122E+01 -0.48218623627E+03  0.59355552671E+03  0.00000000000E+00 0. -1.
</event>
<event>
 5    1  0.4881333E-005  0.3803823E+03  0.7818608E-02  0.9787476E-01
          4   -1    0    0  502    0 -0.00000000000E+00  0.00000000000E+00  0.24582940600E+04  0.24582940600E+04  0.00000000000E+00 0.  1.
         21   -1    0    0  501  502  0.00000000000E+00 -0.00000000000E+00 -0.10991604176E+04  0.10991604176E+04  0.00000000000E+00 0.  1.
        -13    1    1    2    0    0  0.29284777922E+03 -0.28465990415E+03  0.13524756257E+04  0.14127920626E+04  0.10566000000E+00 0.  1.
         13    1    1    2    0    0 -0.25990106726E+03  0.23954322653E+03  0.10458541225E+04  0.11039657508E+04  0.10566000000E+00 0. -1.
          4    1    1    2  501    0 -0.32946711957E+02  0.45116677622E+02 -0.10391961059E+04  0.10406966642E+04  0.00000000000E+00 0.  1.
</event>
<event>
 5    1  0.4881333E-005  0.4563214E+03  0.7818608E-02  0.1008214E+00
         -4   -1    0    0    0  501 -0.00000000000E+00  0.00000000000E+00  0.16617932071E+04  0.16617932071E+04  0.00000000000E+00 0. -1.
         21   -1    0    0  501  502  0.00000000000E+00 -0.00000000000E+00 -0.17722024324E+03  0.17722024324E+03  0.00000000000E+00 0. -1.
        -13    1    1    2    0    0 -0.80263275707E+02  0.20266339159E+02  0.10819858466E+03  0.13623458744E+03  0.10566000000E+00 0.  1.
         13    1    1    2    0    0 -0.29611634165E+03 -0.33140435607E+03  0.34839523877E+03  0.56470610815E+03  0.10566000000E+00 0. -1.
         -4    1    1    2    0  502  0.37637961736E+03  0.31113801692E+03  0.10279791404E+04  0.11380727547E+04  0.00000000000E+00 0. -1.
</event>
<event>
 5    1  0.4881333E-005  0.4702756E+03  0.7818608E-02  0.9545615E-01
         21   -1    0    0  501  502  0.00000000000E+00  0.00000000000E+00  0.71485442849E+03  0.71485442849E+03  0.00000000000E+00 0. -1.
         -4   -1    0    0    0  501 -0.00000000000E+00 -0.00000000000E+00 -0.94500417194E+03  0.94500417194E+03  0.00000000000E+00 0. -1.
        -13    1    1    2    0    0 -0.57662986161E+00  0.42012908755E+03 -0.36918541826E+03  0.55929121836E+03  0.10566000000E+00 0.  1.
         13    1    1    2    0    0 -0.58928981429E+02 -0.73298405461E+03  0.22804632563E+03  0.76989829650E+03  0.10566000000E+00 0. -1.
         -4    1    1    2    0  502  0.59505611291E+02  0.31285496706E+03 -0.89010650816E+02  0.33066908556E+03  0.00000000000E+00 0. -1.
</event>
<event>
 5    1  0.4881333E-005  0.8969573E+02  0.7818608E-02  0.1182831E+00
          4   -1    0    0  502    0 -0.00000000000E+00  0.00000000000E+00  0.32311473131E+03  0.32311473131E+03  0.00000000000E+00 0.  1.
         21   -1    0    0  501  502  0.00000000000E+00 -0.00000000000E+00 -0.63896812184E+02  0.63896812184E+02  0.00000000000E+00 0.  1.
        -13    1    1    2    0    0 -0.18846127422E+02  0.74641210815E+02  0.12863939377E+03  0.14991528162E+03  0.10566000000E+00 0.  1.
         13    1    1    2    0    0  0.64835312480E+02 -0.10095125798E+03  0.13881287386E+03  0.18347697225E+03  0.10566000000E+00 0. -1.
          4    1    1    2  501    0 -0.45989185058E+02  0.26310047162E+02 -0.82343485080E+01  0.53619289620E+02  0.00000000000E+00 0.  1.
</event>
<event>
 5    1  0.4881333E-005  0.6743013E+02  0.7818608E-02  0.1233636E+00
          4   -1    0    0  502    0 -0.00000000000E+00  0.00000000000E+00  0.12883142681E+02  0.12883142681E+02  0.00000000000E+00 0.  1.
         21   -1    0    0  501  502  0.00000000000E+00 -0.00000000000E+00 -0.83555087655E+03  0.83555087655E+03  0.00000000000E+00 0.  1.
        -13    1    1    2    0    0  0.27654230119E+02 -0.54181444271E+02 -0.13470753803E+03  0.14780567415E+03  0.10566000000E+00 0.  1.
         13    1    1    2    0    0 -0.55553859899E+02  0.61656165673E+02 -0.29056724394E+03  0.30218710848E+03  0.10566000000E+00 0. -1.
          4    1    1    2  501    0  0.27899629780E+02 -0.74747214017E+01 -0.39739295190E+03  0.39844123660E+03  0.00000000000E+00 0.  1.
</event>
<event>
 5    1  0.4881333E-005  0.4416412E+03  0.7818608E-02  0.9956526E-01
          4   -1    0    0  502    0 -0.00000000000E+00  0.00000000000E+00  0.11771328024E+04  0.11771328024E+04  0.00000000000E+00 0.  1.
         21   -1    0    0  501  502  0.00000000000E+00 -0.00000000000E+00 -0.30574673652E+03  0.30574673652E+03  0.00000000000E+00 0.  1.
        -13    1    1    2    0    0 -0.42192958216E+03 -0.20892134030E+03  0.51615362524E+03  0.69863243179E+03  0.10566000000E+00 0.  1.
         13    1    1    2    0    0  0.10440096384E+03 -0.89649494941E+02  0.31836944813E+03  0.34683671931E+03  0.10566000000E+00 0. -1.
          4    1    1    2  501    0  0.31752861833E+03  0.29857083524E+03  0.36862992465E+02  0.43741038777E+03  0.00000000000E+00 0.  1.
</event>
<event>
 5    1  0.4881333E-005  0.4881835E+03  0.7818608E-02  0.9504254E-01
         21   -1    0    0  501  502  0.00000000000E+00  0.00000000000E+00  0.71182966727E+03  0.71182966727E+03  0.00000000000E+00 0.  1.
          4   -1    0    0  502    0 -0.00000000000E+00 -0.00000000000E+00 -0.12753703447E+04  0.12753703447E+04  0.00000000000E+00 0.  1.
        -13    1    1    2    0    0 -0.10106949521E+03 -0.73343800807E+03  0.28375044551E+03  0.79288125279E+03  0.10566000000E+00 0.  1.
         13    1    1    2    0    0  0.95057297915E+02  0.44898016830E+03 -0.77510784375E+03  0.90078369324E+03  0.10566000000E+00 0. -1.
          4    1    1    2  501    0  0.60121972979E+01  0.28445783977E+03 -0.72183279170E+02  0.29353506591E+03  0.00000000000E+00 0.  1.
</event>
<event>
 5    1  0.4881333E-005  0.6658919E+02  0.7818608E-02  0.1235972E+00
         21   -1    0    0  501  502  0.00000000000E+00  0.00000000000E+00  0.29955376633E+03  0.29955376633E+03  0.00000000000E+00 0.  1.
          4   -1    0    0  502    0 -0.00000000000E+00 -0.00000000000E+00 -0.41712735535E+03  0.41712735535E+03  0.00000000000E+00 0.  1.
        -13    1    1    2    0    0 -0.37038605639E+02  0.54653638240E+02 -0.37271489472E+03  0.37851721545E+03  0.10566000000E+00 0.  1.
         13    1    1    2    0    0  0.30159075050E+02 -0.67738098287E+02 -0.80259233465E+01  0.74581809960E+02  0.10566000000E+00 0. -1.
          4    1    1    2  501    0  0.68795305894E+01  0.13084460047E+02  0.26316722905E+03  0.26358209628E+03  0.00000000000E+00 0.  1.
</event>
<event>
 5    1  0.4881333E-005  0.1309302E+03  0.7818608E-02  0.1136012E+00
          4   -1    0    0  502    0 -0.00000000000E+00  0.00000000000E+00  0.91586710980E+02  0.91586710980E+02  0.00000000000E+00 0.  1.
         21   -1    0    0  501  502  0.00000000000E+00 -0.00000000000E+00 -0.50067165738E+03  0.50067165738E+03  0.00000000000E+00 0.  1.
        -13    1    1    2    0    0  0.19038629723E+03 -0.57140608153E+02 -0.10189488268E+03  0.22337092369E+03  0.10566000000E+00 0.  1.
         13    1    1    2    0    0 -0.90298511501E+02  0.36222832050E+01 -0.12525914296E+03  0.15445648635E+03  0.10566000000E+00 0. -1.
          4    1    1    2  501    0 -0.10008778573E+03  0.53518324948E+02 -0.18193092075E+03  0.21443095831E+03  0.00000000000E+00 0.  1.
</event>
<event>
 5    1  0.4881333E-005  0.2696208E+02  0.7818608E-02  0.1441288E+00
         21   -1    0    0  501  502  0.00000000000E+00  0.00000000000E+00  0.18538003639E+03  0.18538003639E+03  0.00000000000E+00 0.  1.
          4   -1    0    0  502    0 -0.00000000000E+00 -0.00000000000E+00 -0.12236181886E+02  0.12236181886E+02  0.00000000000E+00 0.  1.
        -13    1    1    2    0    0  0.28200196781E+02  0.14253811445E+02  0.25376763202E+02  0.40526701245E+02  0.10566000000E+00 0.  1.
         13    1    1    2    0    0 -0.19549859009E+02  0.11984710406E+02  0.42899640039E+02  0.48643813073E+02  0.10566000000E+00 0. -1.
          4    1    1    2  501    0 -0.86503377726E+01 -0.26238521851E+02  0.10486745126E+03  0.10844570396E+03  0.00000000000E+00 0.  1.
</event>
<event>
 5    1  0.4881333E-005  0.3881815E+03  0.7818608E-02  0.9978370E-01
         21   -1    0    0  501  502  0.00000000000E+00  0.00000000000E+00  0.55643556828E+03  0.55643556828E+03  0.00000000000E+00 0.  1.
          4   -1    0    0  502    0 -0.00000000000E+00 -0.00000000000E+00 -0.63114587378E+03  0.63114587378E+03  0.00000000000E+00 0.  1.
        -13    1    1    2    0    0  0.23237737939E+03  0.27780101983E+03  0.21488715067E+03  0.42112842668E+03  0.10566000000E+00 0.  1.
         13    1    1    2    0    0 -0.23977840774E+02  0.18703133955E+03 -0.18688903194E+02  0.18948600236E+03  0.10566000000E+00 0. -1.
          4    1    1    2  501    0 -0.20839953862E+03 -0.46483235939E+03 -0.27090855297E+03  0.57696701301E+03  0.00000000000E+00 0.  1.
</event>
<event>
 5    1  0.4881333E-005  0.4518896E+02  0.7818608E-02  0.1312721E+00
         -4   -1    0    0    0  501 -0.00000000000E+00  0.00000000000E+00  0.14501047850E+02  0.14501047850E+02  0.00000000000E+00 0. -1.
         21   -1    0    0  501  502  0.00000000000E+00 -0.00000000000E+00 -0.33563875861E+03  0.33563875861E+03  0.00000000000E+00 0. -1.
        -13    1    1    2    0    0 -0.13584166773E+02  0.29027950957E+02 -0.10225718042E+03  0.10716199716E+03  0.10566000000E+00 0.  1.
         13    1    1    2    0    0  0.95264530930E+01 -0.52968612040E+02 -0.53718065700E+02  0.76039916600E+02  0.10566000000E+00 0. -1.
         -4    1    1    2    0  502  0.40577136803E+01  0.23940661082E+02 -0.16516246464E+03  0.16693789270E+03  0.00000000000E+00 0. -1.
</event>
<event>
 5    1  0.4881333E-005  0.4639262E+03  0.7818608E-02  0.9723485E-01
         21   -1    0    0  501  502  0.00000000000E+00  0.00000000000E+00  0.41511305116E+03  0.41511305116E+03  0.00000000000E+00 0.  1.
          4   -1    0    0  502    0 -0.00000000000E+00 -0.00000000000E+00 -0.99107156218E+03  0.99107156218E+03  0.00000000000E+00 0.  1.
        -13    1    1    2    0    0  0.62865264205E+03 -0.77035462047E+02 -0.31416874555E+03  0.70699407254E+03  0.10566000000E+00 0.  1.
         13    1    1    2    0    0 -0.26040042270E+03 -0.22520584183E+02 -0.15145203928E+03  0.30208159199E+03  0.10566000000E+00 0. -1.
          4    1    1    2  501    0 -0.36825221935E+03  0.99556046231E+02 -0.11033772618E+03  0.39710894880E+03  0.00000000000E+00 0.  1.
</event>
<event>
 5    1  0.4881333E-005  0.2496090E+03  0.7818608E-02  0.1030596E+00
         -4   -1    0    0    0  501 -0.00000000000E+00  0.00000000000E+00  0.25010813308E+03  0.25010813308E+03  0.00000000000E+00 0. -1.
         21   -1    0    0  501  502  0.00000000000E+00 -0.00000000000E+00 -0.40216963502E+03  0.40216963502E+03  0.00000000000E+00 0.  1.
        -13    1    1    2    0    0 -0.22726010010E+03  0.98721552080E+02  0.10363972085E+03  0.26857829556E+03  0.10566000000E+00 0.  1.
         13    1    1    2    0    0  0.24473015307E+03 -0.77698791798E+02 -0.21622319225E+03  0.33568203720E+03  0.10566000000E+00 0. -1.
         -4    1    1    2    0  502 -0.17470052970E+02 -0.21022760283E+02 -0.39478030535E+02  0.48017435329E+02  0.00000000000E+00 0. -1.
</event>
<event>
 5    1  0.4881333E-005  0.1009205E+03  0.7818608E-02  0.1163041E+00
         21   -1    0    0  501  502  0.00000000000E+00  0.00000000000E+00  0.10067003648E+04  0.10067003648E+04  0.00000000000E+00 0. -1.
         -4   -1    0    0    0  501 -0.00000000000E+00 -0.00000000000E+00 -0.10584709212E+03  0.10584709212E+03  0.00000000000E+00 0. -1.
        -13    1    1    2    0    0  0.58185692737E+02  0.12570705637E+03  0.93025396950E+02  0.16685794708E+03  0.10566000000E+00 0.  1.
         13    1    1    2    0    0 -0.52374800914E+02 -0.75936708288E+02 -0.36989935377E+02  0.99386970573E+02  0.10566000000E+00 0. -1.
         -4    1    1    2    0  502 -0.58108918236E+01 -0.49770348085E+02  0.84481781108E+03  0.84630253924E+03  0.00000000000E+00 0. -1.
</event>
<event>
 5    1  0.4881333E-005  0.4951185E+03  0.7818608E-02  0.9757758E-01
         -4   -1    0    0    0  501 -0.00000000000E+00  0.00000000000E+00  0.12652951464E+04  0.12652951464E+04  0.00000000000E+00 0. -1.
         21   -1    0    0  501  502  0.00000000000E+00 -0.00000000000E+00 -0.36606191039E+03  0.36606191039E+03  0.00000000000E+00 0. -1.
        -13    1    1    2    0    0  0.53674539223E+02  0.18331476120E+03  0.51111879814E+03  0.54564429330E+03  0.10566000000E+00 0.  1.
         13    1    1    2    0    0 -0.15239063829E+03 -0.56014818889E+03  0.73817076892E+02  0.58518191373E+03  0.10566000000E+00 0. -1.
         -4    1    1    2    0  502  0.98716099067E+02  0.37683342769E+03  0.31429736098E+03  0.50053084976E+03  0.00000000000E+00 0. -1.
</event>
<event>
 5    1  0.4881333E-005  0.2789083E+03  0.7818608E-02  0.1058555E+00
          4   -1    0    0  502    0 -0.00000000000E+00  0.00000000000E+00  0.26055891484E+03  0.26055891484E+03  0.00000000000E+00 0.  1.
         21   -1    0    0  501  502  0.00000000000E+00 -0.00000000000E+00 -0.17682172359E+04  0.17682172359E+04  0.00000000000E+00 0.  1.
        -13    1    1    2    0    0 -0.14088054177E+03 -0.31909375720E+03 -0.10292365192E+03  0.36367766253E+03  0.10566000000E+00 0.  1.
         13    1    1    2    0    0  0.21879331696E+02  0.74068505204E+02  0.10535865572E+03  0.13063424558E+03  0.10566000000E+00 0. -1.
          4    1    1    2  501    0  0.11900121008E+03  0.24502525199E+03 -0.15100933249E+04  0.15344642426E+04  0.00000000000E+00 0.  1.
</event>
<event>
 5    1  0.1981288E-004  0.3192671E+03  0.7818608E-02  0.1038081E+00
          4   -1    0    0  502    0 -0.00000000000E+00  0.00000000000E+00  0.11065831184E+04  0.11065831184E+04  0.00000000000E+00 0.  1.
         21   -1    0    0  501  502  0.00000000000E+00 -0.00000000000E+00 -0.38550226352E+03  0.38550226352E+03  0.00000000000E+00 0.  1.
        -13    1    1    2    0    0  0.23985536103E+03  0.42117116917E+01  0.56715987776E+03  0.61580733256E+03  0.10566000000E+00 0.  1.
         13    1    1    2    0    0  0.87196079655E+02  0.37295859645E+02  0.43366256733E+03  0.44391144491E+03  0.10566000000E+00 0. -1.
          4    1    1    2  501    0 -0.32705144068E+03 -0.41507571337E+02 -0.27974159022E+03  0.43236660443E+03  0.00000000000E+00 0.  1.
</event>
<event>
 5    1  0.4881333E-005  0.4387588E+03  0.7818608E-02  0.9803353E-01
         -4   -1    0    0    0  501 -0.00000000000E+00  0.00000000000E+00  0.21567998714E+04  0.21567998714E+04  0.00000000000E+00 0. -1.
         21   -1    0    0  501  502  0.00000000000E+00 -0.00000000000E+00 -0.18748834405E+03  0.18748834405E+03  0.00000000000E+00 0. -1.
        -13    1    1    2    0    0  0.15930070939E+03  0.17245318319E+03  0.39292658380E+03  0.45772057833E+03  0.10566000000E+00 0.  1.
         13    1    1    2    0    0 -0.46409067178E+03  0.14214354814E+03  0.12481565285E+04  0.13392085987E+04  0.10566000000E+00 0. -1.
         -4    1    1    2    0  502  0.30478996238E+03 -0.31459673133E+03  0.32822841501E+03  0.54735903843E+03  0.00000000000E+00 0. -1.
</event>
<event>
 5    1  0.4881333E-005  0.4386981E+03  0.7818608E-02  0.9883981E-01
          4   -1    0    0  502    0 -0.00000000000E+00  0.00000000000E+00  0.23448666455E+04  0.23448666455E+04  0.00000000000E+00 0.  1.
         21   -1    0    0  501  502  0.00000000000E+00 -0.00000000000E+00 -0.15634701048E+03  0.15634701048E+03  0.00000000000E+00 0.  1.
        -13    1    1    2    0    0 -0.34476140649E+03  0.12656206571E+03  0.15195074997E+04  0.15632598750E+04  0.10566000000E+00 0.  1.
         13    1    1    2    0    0 -0.18942204881E+02  0.17777678756E+03  0.13688023256E+03  0.22516572242E+03  0.10566000000E+00 0. -1.
          4    1    1    2  501    0  0.36370361137E+03 -0.30433885327E+03  0.53213190271E+03  0.71278805855E+03  0.00000000000E+00 0.  1.
</event>
<event>
 5    1  0.5891142E-005  0.2067574E+03  0.7818608E-02  0.1073403E+00
         -4   -1    0    0    0  501 -0.00000000000E+00  0.00000000000E+00  0.90180743693E+03  0.90180743693E+03  0.00000000000E+00 0. -1.
         21   -1    0    0  501  502  0.00000000000E+00 -0.00000000000E+00 -0.49335735812E+03  0.49335735812E+03  0.00000000000E+00 0. -1.
        -13    1    1    2    0    0 -0.10580479205E+03 -0.63749207024E+02  0.36451105513E+03  0.38487262295E+03  0.10566000000E+00 0.  1.
         13    1    1    2    0    0  0.18116262543E+03 -0.12971463590E+03  0.47896800758E+03  0.52825765217E+03  0.10566000000E+00 0. -1.
         -4    1    1    2    0  502 -0.75357833380E+02  0.19346384293E+03 -0.43502898391E+03  0.48203451994E+03  0.00000000000E+00 0. -1.
</event>
<event>
 5    1  0.4881333E-005  0.2392319E+03  0.7818608E-02  0.1036129E+00
         21   -1    0    0  501  502  0.00000000000E+00  0.00000000000E+00  0.65753386104E+03  0.65753386104E+03  0.00000000000E+00 0. -1.
          4   -1    0    0  502    0 -0.00000000000E+00 -0.00000000000E+00 -0.15107634095E+03  0.15107634095E+03  0.00000000000E+00 0.  1.
        -13    1    1    2    0    0  0.87973146346E+02 -0.28288825885E+03  0.19076110670E+03  0.35235614435E+03  0.10566000000E+00 0.  1.
         13    1    1    2    0    0 -0.72280366129E+02  0.18992544617E+03  0.11255914447E+03  0.23230518418E+03  0.10566000000E+00 0. -1.
          4    1    1    2  501    0 -0.15692780216E+02  0.92962812680E+02  0.20313726893E+03  0.22394887345E+03  0.00000000000E+00 0.  1.
</event>
<event>
 5    1  0.4881333E-005  0.4943684E+03  0.7818608E-02  0.9672822E-01
         21   -1    0    0  501  502  0.00000000000E+00  0.00000000000E+00  0.20199183225E+04  0.20199183225E+04  0.00000000000E+00 0. -1.
         -4   -1    0    0    0  501 -0.00000000000E+00 -0.00000000000E+00 -0.21556850080E+03  0.21556850080E+03  0.00000000000E+00 0. -1.
        -13    1    1    2    0    0  0.18512771039E+03  0.17926777627E+03  0.17241138725E+03  0.31005628905E+03  0.10566000000E+00 0.  1.
         13    1    1    2    0    0 -0.50394872205E+03  0.18487450253E+03  0.90088792910E+03  0.10486858291E+04  0.10566000000E+00 0. -1.
         -4    1    1    2    0  502  0.31882101166E+03 -0.36414227880E+03  0.73105050532E+03  0.87674470516E+03  0.00000000000E+00 0. -1.
</event>
<event>
 5    1  0.4881333E-005  0.6142146E+02  0.7818608E-02  0.1251213E+00
          4   -1    0    0  502    0 -0.00000000000E+00  0.00000000000E+00  0.89330556238E+02  0.89330556238E+02  0.00000000000E+00 0.  1.
         21   -1    0    0  501  502  0.00000000000E+00 -0.00000000000E+00 -0.85017911934E+02  0.85017911934E+02  0.00000000000E+00 0. -1.
        -13    1    1    2    0    0  0.57360202134E+02 -0.26256745786E+02  0.51572359289E+02  0.81482077139E+02  0.10566000000E+00 0.  1.
         13    1    1    2    0    0 -0.55258968904E+02  0.16411646366E+02 -0.15706399844E+02  0.59746112349E+02  0.10566000000E+00 0. -1.
          4    1    1    2  501    0 -0.21012332302E+01  0.98450994203E+01 -0.31553315141E+02  0.33120278684E+02  0.00000000000E+00 0.  1.
</event>
<event>
 5    1  0.4881333E-005  0.3842399E+03  0.7818608E-02  0.9989869E-01
          4   -1    0    0  502    0 -0.00000000000E+00  0.00000000000E+00  0.30090121885E+04  0.30090121885E+04  0.00000000000E+00 0.  1.
         21   -1    0    0  501  502  0.00000000000E+00 -0.00000000000E+00 -0.80369687677E+02  0.80369687677E+02  0.00000000000E+00 0.  1.
        -13    1    1    2    0    0  0.18728623908E+03  0.33631258917E+03  0.10437051044E+04  0.11124309638E+04  0.10566000000E+00 0.  1.
         13    1    1    2    0    0  0.15192529523E+03 -0.10939172921E+03  0.54661076527E+03  0.57778126106E+03  0.10566000000E+00 0. -1.
          4    1    1    2  501    0 -0.33921153431E+03 -0.22692085996E+03  0.13383266312E+04  0.13991696514E+04  0.00000000000E+00 0.  1.
</event>
<event>
 5    1  0.4881333E-005  0.2858051E+02  0.7818608E-02  0.1416682E+00
         21   -1    0    0  501  502  0.00000000000E+00  0.00000000000E+00  0.70307413847E+02  0.70307413847E+02  0.00000000000E+00 0. -1.
         -4   -1    0    0    0  501 -0.00000000000E+00 -0.00000000000E+00 -0.14052521511E+03  0.14052521511E+03  0.00000000000E+00 0. -1.
        -13    1    1    2    0    0 -0.28517869805E+02  0.28743910740E+02 -0.97121700695E+01  0.41639148818E+02  0.10566000000E+00 0.  1.
         13    1    1    2    0    0  0.19160259593E+02 -0.19525576578E+02 -0.11239036686E+03  0.11567181772E+03  0.10566000000E+00 0. -1.
         -4    1    1    2    0  502  0.93576102114E+01 -0.92183341618E+01  0.51884735662E+02  0.53521662421E+02  0.00000000000E+00 0. -1.
</event>
<event>
 5    1  0.4881333E-005  0.4478002E+02  0.7818608E-02  0.1330072E+00
          4   -1    0    0  502    0 -0.00000000000E+00  0.00000000000E+00  0.32764823329E+02  0.32764823329E+02  0.00000000000E+00 0.  1.
         21   -1    0    0  501  502  0.00000000000E+00 -0.00000000000E+00 -0.17327926260E+03  0.17327926260E+03  0.00000000000E+00 0.  1.
        -13    1    1    2    0    0 -0.51064284987E+02 -0.17517411261E+02 -0.13201128391E+02  0.55576090663E+02  0.10566000000E+00 0.  1.
         13    1    1    2    0    0  0.91777796658E+01  0.32247990699E+02 -0.72877704928E+02  0.80220543400E+02  0.10566000000E+00 0. -1.
          4    1    1    2  501    0  0.41886505321E+02 -0.14730579437E+02 -0.54435605957E+02  0.70247451871E+02  0.00000000000E+00 0.  1.
</event>
<event>
 5    1  0.4881333E-005  0.4202823E+03  0.7818608E-02  0.9704618E-01
         21   -1    0    0  501  502  0.00000000000E+00  0.00000000000E+00  0.44780389582E+03  0.44780389582E+03  0.00000000000E+00 0.  1.
          4   -1    0    0  502    0 -0.00000000000E+00 -0.00000000000E+00 -0.23191873968E+04  0.23191873968E+04  0.00000000000E+00 0.  1.
        -13    1    1    2    0    0  0.35515642438E+03  0.12608164335E+03  0.10347996833E+03  0.39082065142E+03  0.10566000000E+00 0.  1.
         13    1    1    2    0    0  0.19176253641E+03 -0.40125714721E+03 -0.15945835273E+04  0.16554385538E+04  0.10566000000E+00 0. -1.
          4    1    1    2  501    0 -0.54691896079E+03  0.27517550386E+03 -0.38027994200E+03  0.72073208745E+03  0.00000000000E+00 0.  1.
</event>
<event>
 5    1  0.4881333E-005  0.3578977E+03  0.7818608E-02  0.9988400E-01
         -4   -1    0    0    0  501 -0.00000000000E+00  0.00000000000E+00  0.19348471362E+04  0.19348471362E+04  0.00000000000E+00 0. -1.
         21   -1    0    0  501  502  0.00000000000E+00 -0.00000000000E+00 -0.23501645730E+03  0.23501645730E+03  0.00000000000E+00 0. -1.
        -13    1    1    2    0    0 -0.80157898136E+02  0.21855015429E+03  0.72085528487E+03  0.75751027152E+03  0.10566000000E+00 0.  1.
         13    1    1    2    0    0  0.41412164512E+03 -0.94569697436E+02  0.96669547732E+03  0.10559073452E+04  0.10566000000E+00 0. -1.
         -4    1    1    2    0  502 -0.33396374699E+03 -0.12398045685E+03  0.12279916674E+02  0.35644597674E+03  0.00000000000E+00 0. -1.
</event>
<event>
 5    1  0.4881333E-005  0.2769340E+03  0.7818608E-02  0.1041090E+00
         -4   -1    0    0    0  501 -0.00000000000E+00  0.00000000000E+00  0.23391501885E+04  0.23391501885E+04  0.00000000000E+00 0. -1.
         21   -1    0    0  501  502  0.00000000000E+00 -0.00000000000E+00 -0.58008970460E+02  0.58008970460E+02  0.00000000000E+00 0.  1.
        -13    1    1    2    0    0  0.12638842258E+02 -0.13204243921E+03  0.22977964944E+03  0.26531800645E+03  0.10566000000E+00 0.  1.
         13    1    1    2    0    0 -0.25319342563E+03  0.17606957797E+03  0.81219384448E+03  0.86877284674E+03  0.10566000000E+00 0. -1.
         -4    1    1    2    0  502  0.24055458337E+03 -0.44027138766E+02  0.12391677241E+04  0.12630683058E+04  0.00000000000E+00 0. -1.
</event>
<event>
 5    1  0.4881333E-005  0.4597896E+03  0.7818608E-02  0.9570747E-01
         21   -1    0    0  501  502  0.00000000000E+00  0.00000000000E+00  0.50882760020E+03  0.50882760020E+03  0.00000000000E+00 0.  1.
          4   -1    0    0  502    0 -0.00000000000E+00 -0.00000000000E+00 -0.10740093414E+04  0.10740093414E+04  0.00000000000E+00 0.  1.
        -13    1    1    2    0    0 -0.62347484491E+03  0.12276648736E+03 -0.40087940188E+03  0.75133001981E+03  0.10566000000E+00 0.  1.
         13    1    1    2    0    0  0.37234659435E+03  0.81509140584E+02 -0.29541887564E+03  0.48224272889E+03  0.10566000000E+00 0. -1.
          4    1    1    2  501    0  0.25112825056E+03 -0.20427562794E+03  0.13111653627E+03  0.34926419296E+03  0.00000000000E+00 0.  1.
</event>
<event>
 5    1  0.4881333E-005  0.5099796E+02  0.7818608E-02  0.1356039E+00
          4   -1    0    0  502    0 -0.00000000000E+00  0.00000000000E+00  0.25441748485E+03  0.25441748485E+03  0.00000000000E+00 0.  1.
         21   -1    0    0  501  502  0.00000000000E+00 -0.00000000000E+00 -0.20294906252E+02  0.20294906252E+02  0.00000000000E+00 0.  1.
        -13    1    1    2    0    0  0.35673532605E+02  0.42946153644E+02  0.17912489100E+03  0.18762385451E+03  0.10566000000E+00 0.  1.
         13    1    1    2    0    0  0.47909577284E+01 -0.13323025986E+02  0.24778790116E+02  0.28538673778E+02  0.10566000000E+00 0. -1.
          4    1    1    2  501    0 -0.40464490333E+02 -0.29623127658E+02  0.30218897474E+02  0.58549862807E+02  0.00000000000E+00 0.  1.
</event>
<event>
 5    1  0.4881333E-005  0.3825788E+03  0.7818608E-02  0.9780752E-01
         21   -1    0    0  501  502  0.00000000000E+00  0.00000000000E+00  0.53653986250E+03  0.53653986250E+03  0.00000000000E+00 0.  1.
          4   -1    0    0  502    0 -0.00000000000E+00 -0.00000000000E+00 -0.90278654300E+03  0.90278654300E+03  0.00000000000E+00 0.  1.
        -13    1    1    2    0    0  0.30810746978E+03  0.43252955760E+03  0.15145638938E+03  0.55222375916E+03  0.10566000000E+00 0.  1.
         13    1    1    2    0    0 -0.74242148053E+02 -0.31997046711E+03 -0.24014518077E+02  0.32934739200E+03  0.10566000000E+00 0. -1.
          4    1    1    2  501    0 -0.23386532172E+03 -0.11255909049E+03 -0.49368855182E+03  0.55775525435E+03  0.00000000000E+00 0.  1.
</event>
<event>
 5    1  0.4881333E-005  0.4625708E+03  0.7818608E-02  0.1009880E+00
          4   -1    0    0  502    0 -0.00000000000E+00  0.00000000000E+00  0.10181181741E+04  0.10181181741E+04  0.00000000000E+00 0.  1.
         21   -1    0    0  501  502  0.00000000000E+00 -0.00000000000E+00 -0.29449208247E+03  0.29449208247E+03  0.00000000000E+00 0.  1.
        -13    1    1    2    0    0  0.50779855472E+03 -0.32951785494E+02  0.50110510948E+03  0.71417892314E+03  0.10566000000E+00 0.  1.
         13    1    1    2    0    0 -0.69990662284E+02 -0.27833503554E+02  0.12477183053E+03  0.14574435695E+03  0.10566000000E+00 0. -1.
          4    1    1    2  501    0 -0.43780789244E+03  0.60785289048E+02  0.97749151652E+02  0.45268697650E+03  0.00000000000E+00 0.  1.
</event>
<event>
 5    1  0.4881333E-005  0.6350203E+02  0.7818608E-02  0.1244883E+00
         21   -1    0    0  501  502  0.00000000000E+00  0.00000000000E+00  0.50686335072E+02  0.50686335072E+02  0.00000000000E+00 0. -1.
          4   -1    0    0  502    0 -0.00000000000E+00 -0.00000000000E+00 -0.61760323222E+03  0.61760323222E+03  0.00000000000E+00 0.  1.
        -13    1    1    2    0    0  0.10658271992E+02  0.52642610440E+02 -0.19167024551E+03  0.19905360428E+03  0.10566000000E+00 0.  1.
         13    1    1    2    0    0 -0.30694626197E+02 -0.65832663091E+02 -0.41581200683E+03  0.42210867771E+03  0.10566000000E+00 0. -1.
          4    1    1    2  501    0  0.20036354205E+02  0.13190052651E+02  0.40565355194E+02  0.47127285311E+02  0.00000000000E+00 0.  1.
</event>
<event>
 5    1  0.4881333E-005  0.4494816E+02  0.7818608E-02  0.1356303E+00
         21   -1    0    0  501  502  0.00000000000E+00  0.00000000000E+00  0.17862416104E+02  0.17862416104E+02  0.00000000000E+00 0.  1.
          4   -1    0    0  502    0 -0.00000000000E+00 -0.00000000000E+00 -0.22640907284E+03  0.22640907284E+03  0.00000000000E+00 0.  1.
        -13    1    1    2    0    0 -0.43823486269E+01  0.56317169392E+02 -0.77482925351E+02  0.95887660483E+02  0.10566000000E+00 0.  1.
         13    1    1    2    0    0  0.99693264391E+01 -0.18006876091E+02 -0.88433170604E+02  0.90796871551E+02  0.10566000000E+00 0. -1.
          4    1    1    2  501    0 -0.55869778122E+01 -0.38310293301E+02 -0.42630560781E+02  0.57586956912E+02  0.00000000000E+00 0.  1.
</event>
<event>
 5    1  0.4881333E-005  0.3908856E+03  0.7818608E-02  0.9755743E-01
         -4   -1    0    0    0  501 -0.00000000000E+00  0.00000000000E+00  0.19726898489E+04  0.19726898489E+04  0.00000000000E+00 0. -1.
         21   -1    0    0  501  502  0.00000000000E+00 -0.00000000000E+00 -0.11772398492E+03  0.11772398492E+03  0.00000000000E+00 0.  1.
        -13    1    1    2    0    0  0.34728441280E+03  0.19293401500E+03  0.49301276527E+03  0.63316000774E+03  0.10566000000E+00 0.  1.
         13    1    1    2    0    0 -0.33669926624E+03 -0.19372678125E+03  0.13814653869E+04  0.14350411451E+04  0.10566000000E+00 0. -1.
         -4    1    1    2    0  502 -0.10585146559E+02  0.79276625023E+00 -0.19512288204E+02  0.22212680994E+02  0.00000000000E+00 0. -1.
</event>
<event>
 5    1  0.4881333E-005  0.2583640E+03  0.7818608E-02  0.1026147E+00
         -4   -1    0    0    0  501 -0.00000000000E+00  0.00000000000E+00  0.55591634449E+03  0.55591634449E+03  0.00000000000E+00 0. -1.
         21   -1    0    0  501  502  0.00000000000E+00 -0.00000000000E+00 -0.14564851067E+03  0.14564851067E+03  0.00000000000E+00 0.  1.
        -13    1    1    2    0    0 -0.24227585976E+02  0.25955694523E+03  0.26027388679E+03  0.36837384686E+03  0.10566000000E+00 0.  1.
         13    1    1    2    0    0  0.13259903795E+02 -0.25522107582E+03  0.17211754443E+03  0.30812024090E+03  0.10566000000E+00 0. -1.
         -4    1    1    2    0  502  0.10967682181E+02 -0.43358694156E+01 -0.22123597405E+02  0.25070767403E+02  0.00000000000E+00 0. -1.
</event>
<event>
 5    1  0.4881333E-005  0.2323494E+03  0.7818608E-02  0.1039969E+00
         21   -1    0    0  501  502  0.00000000000E+00  0.00000000000E+00  0.57948462052E+02  0.57948462052E+02  0.00000000000E+00 0. -1.
         -4   -1    0    0    0  501 -0.00000000000E+00 -0.00000000000E+00 -0.20809959132E+04  0.20809959132E+04  0.00000000000E+00 0. -1.
        -13    1    1    2    0    0 -0.23862322260E+03 -0.33395884833E+02 -0.90616157323E+03  0.93764872711E+03  0.10566000000E+00 0.  1.
         13    1    1    2    0    0  0.21141304694E+03  0.88893066575E+02 -0.11161644868E+04  0.11394826135E+04  0.10566000000E+00 0. -1.
         -4    1    1    2    0  502  0.27210175664E+02 -0.55497181743E+02 -0.72139106840E+00  0.61813034597E+02  0.00000000000E+00 0. -1.
</event>
<event>
 5    1  0.4881333E-005  0.6024294E+03  0.7818608E-02  0.9277980E-01
         21   -1    0    0  501  502  0.00000000000E+00  0.00000000000E+00  0.27588545227E+03  0.27588545227E+03  0.00000000000E+00 0.  1.
         -4   -1    0    0    0  501 -0.00000000000E+00 -0.00000000000E+00 -0.16643740833E+04  0.16643740833E+04  0.00000000000E+00 0. -1.
        -13    1    1    2    0    0 -0.55288329367E+03 -0.66126903090E+02 -0.49211980594E+03  0.74312490088E+03  0.10566000000E+00 0.  1.
         13    1    1    2    0    0  0.62879397092E+03  0.12082147190E+03 -0.89878964237E+03  0.11035409002E+04  0.10566000000E+00 0. -1.
         -4    1    1    2    0  502 -0.75910677244E+02 -0.54694568806E+02  0.24208173304E+01  0.93593734476E+02  0.00000000000E+00 0. -1.
</event>
<event>
 5    1  0.4881333E-005  0.5558384E+02  0.7818608E-02  0.1286446E+00
         21   -1    0    0  501  502  0.00000000000E+00  0.00000000000E+00  0.94925626588E+02  0.94925626588E+02  0.00000000000E+00 0. -1.
          4   -1    0    0  502    0 -0.00000000000E+00 -0.00000000000E+00 -0.30169378002E+03  0.30169378002E+03  0.00000000000E+00 0.  1.
        -13    1    1    2    0    0 -0.20054133726E+02  0.43549875090E+02 -0.23677784412E+03  0.24158335732E+03  0.10566000000E+00 0.  1.
         13    1    1    2    0    0 -0.44238659002E+02 -0.54177779323E+02  0.51010858350E+02  0.86570257920E+02  0.10566000000E+00 0. -1.
          4    1    1    2  501    0  0.64292792729E+02  0.10627904234E+02 -0.21001167659E+02  0.68465791373E+02  0.00000000000E+00 0.  1.
</event>
<event>
 5    1  0.4881333E-005  0.1577465E+03  0.7818608E-02  0.1093714E+00
         21   -1    0    0  501  502  0.00000000000E+00  0.00000000000E+00  0.19374964950E+03  0.19374964950E+03  0.00000000000E+00 0. -1.
          4   -1    0    0  502    0 -0.00000000000E+00 -0.00000000000E+00 -0.84914261708E+03  0.84914261708E+03  0.00000000000E+00 0.  1.
        -13    1    1    2    0    0 -0.76822891732E+02 -0.13787131977E+03 -0.80177668015E+03  0.81716345581E+03  0.10566000000E+00 0.  1.
         13    1    1    2    0    0  0.65729310681E+02  0.14195387257E+03  0.12113802113E+03  0.19785266121E+03  0.10566000000E+00 0. -1.
          4    1    1    2  501    0  0.11093581052E+02 -0.40825528029E+01  0.25245691440E+02  0.27876149559E+02  0.00000000000E+00 0.  1.
</event>
<event>
 5    1  0.4881333E-005  0.2042253E+03  0.7818608E-02  0.1057277E+00
         -4   -1    0    0    0  501 -0.00000000000E+00  0.00000000000E+00  0.15403150568E+03  0.15403150568E+03  0.00000000000E+00 0. -1.
         21   -1    0    0  501  502  0.00000000000E+00 -0.00000000000E+00 -0.85811410624E+03  0.85811410624E+03  0.00000000000E+00 0. -1.
        -13    1    1    2    0    0  0.42053943296E+02 -0.14795640161E+03 -0.37698662894E+03  0.40715913410E+03  0.10566000000E+00 0.  1.
         13    1    1    2    0    0 -0.12973729383E+03  0.17467658066E+03  0.44638090906E+02  0.22211763452E+03  0.10566000000E+00 0. -1.
         -4    1    1    2    0  502  0.87683350533E+02 -0.26720179054E+02 -0.37173406253E+03  0.38286884331E+03  0.00000000000E+00 0. -1.
</event>
<event>
 5    1  0.4881333E-005  0.4845930E+03  0.7818608E-02  0.9541979E-01
         -4   -1    0    0    0  501 -0.00000000000E+00  0.00000000000E+00  0.15066165179E+04  0.15066165179E+04  0.00000000000E+00 0. -1.
         21   -1    0    0  501  502  0.00000000000E+00 -0.00000000000E+00 -0.45850217780E+03  0.45850217780E+03  0.00000000000E+00 0. -1.
        -13    1    1    2    0    0  0.13663484286E+03  0.41348361976E+03  0.72836730369E+03  0.84862048311E+03  0.10566000000E+00 0.  1.
         13    1    1    2    0    0  0.33173850645E+03  0.27361141709E+02  0.33616286715E+03  0.47307985917E+03  0.10566000000E+00 0. -1.
         -4    1    1    2    0  502 -0.46837334930E+03 -0.44084476147E+03 -0.16415830722E+02  0.64341835345E+03  0.00000000000E+00 0. -1.
</event>
<event>
 5    1  0.4881333E-005  0.1259056E+03  0.7818608E-02  0.1127643E+00
         21   -1    0    0  501  502  0.00000000000E+00  0.00000000000E+00  0.34471796913E+03  0.34471796913E+03  0.00000000000E+00 0.  1.
          4   -1    0    0  502    0 -0.00000000000E+00 -0.00000000000E+00 -0.26468096710E+03  0.26468096710E+03  0.00000000000E+00 0.  1.
        -13    1    1    2    0    0  0.13052452494E+03 -0.39523936244E+02 -0.16949398778E+02  0.13742665836E+03  0.10566000000E+00 0.  1.
         13    1    1    2    0    0 -0.11353023159E+03  0.46168701611E+02 -0.16711613051E+03  0.20724013785E+03  0.10566000000E+00 0. -1.
          4    1    1    2  501    0 -0.16994293343E+02 -0.66447653672E+01  0.26410253132E+03  0.26473214002E+03  0.00000000000E+00 0.  1.
</event>
<event>
 5    1  0.4881333E-005  0.4317180E+03  0.7818608E-02  0.1013745E+00
         21   -1    0    0  501  502  0.00000000000E+00  0.00000000000E+00  0.52399069952E+03  0.52399069952E+03  0.00000000000E+00 0. -1.
         -4   -1    0    0    0  501 -0.00000000000E+00 -0.00000000000E+00 -0.57641216289E+03  0.57641216289E+03  0.00000000000E+00 0. -1.
        -13    1    1    2    0    0 -0.16386488974E+02 -0.80208312989E+02 -0.56091893056E+02  0.99238108225E+02  0.10566000000E+00 0.  1.
         13    1    1    2    0    0 -0.40363377397E+01  0.49161289913E+03 -0.21294874392E+03  0.53576740598E+03  0.10566000000E+00 0. -1.
         -4    1    1    2    0  502  0.20422826714E+02 -0.41140458614E+03  0.21661917361E+03  0.46539734821E+03  0.00000000000E+00 0. -1.
</event>
<event>
 5    1  0.4881333E-005  0.5101017E+03  0.7818608E-02  0.9656187E-01
         21   -1    0    0  501  502  0.00000000000E+00  0.00000000000E+00  0.52703348395E+03  0.52703348395E+03  0.00000000000E+00 0.  1.
          4   -1    0    0  502    0 -0.00000000000E+00 -0.00000000000E+00 -0.12891639998E+04  0.12891639998E+04  0.00000000000E+00 0.  1.
        -13    1    1    2    0    0  0.15832105237E+03 -0.48879515858E+03 -0.40527474943E+03  0.65439582544E+03  0.10566000000E+00 0.  1.
         13    1    1    2    0    0  0.21649748798E+03  0.12235747196E+03 -0.54965087613E+03  0.60328982259E+03  0.10566000000E+00 0. -1.
          4    1    1    2  501    0 -0.37481854035E+03  0.36643768661E+03  0.19279510967E+03  0.55851183575E+03  0.00000000000E+00 0.  1.
</event>
<event>
 5    1  0.4881333E-005  0.2230834E+03  0.7818608E-02  0.1045368E+00
         -4   -1    0    0    0  501 -0.00000000000E+00  0.00000000000E+00  0.46730138021E+03  0.46730138021E+03  0.00000000000E+00 0. -1.
         21   -1    0    0  501  502  0.00000000000E+00 -0.00000000000E+00 -0.36228171358E+03  0.36228171358E+03  0.00000000000E+00 0.  1.
        -13    1    1    2    0    0 -0.16077240183E+03 -0.14585751940E+03 -0.25354792546E+03  0.33377948233E+03  0.10566000000E+00 0.  1.
         13    1    1    2    0    0  0.17082542987E+03  0.14442390137E+03  0.39719992632E+03  0.45585895123E+03  0.10566000000E+00 0. -1.
         -4    1    1    2    0  502 -0.10053028040E+02  0.14336180281E+01 -0.38632334232E+02  0.39944660239E+02  0.00000000000E+00 0. -1.
</event>
<event>
 5    1  0.4881333E-005  0.2149416E+03  0.7818608E-02  0.1050349E+00
         21   -1    0    0  501  502  0.00000000000E+00  0.00000000000E+00  0.19769068456E+04  0.19769068456E+04  0.00000000000E+00 0. -1.
         -4   -1    0    0    0  501 -0.00000000000E+00 -0.00000000000E+00 -0.37533378640E+02  0.37533378640E+02  0.00000000000E+00 0. -1.
        -13    1    1    2    0    0 -0.16607556991E+03 -0.12977807380E+03  0.46867158364E+03  0.51388374934E+03  0.10566000000E+00 0.  1.
         13    1    1    2    0    0  0.18013777643E+03  0.12991096698E+03  0.81545695445E+03  0.84516065548E+03  0.10566000000E+00 0. -1.
         -4    1    1    2    0  502 -0.14062206523E+02 -0.13289317767E+00  0.65524492891E+03  0.65539581947E+03  0.00000000000E+00 0. -1.
</event>
<event>
 5    1  0.4881333E-005  0.4377513E+03  0.7818608E-02  0.9789248E-01
         21   -1    0    0  501  502  0.00000000000E+00  0.00000000000E+00  0.34069424668E+03  0.34069424668E+03  0.00000000000E+00 0. -1.
         -4   -1    0    0    0  501 -0.00000000000E+00 -0.00000000000E+00 -0.16899763398E+04  0.16899763398E+04  0.00000000000E+00 0. -1.
        -13    1    1    2    0    0 -0.21134614600E+03  0.12988199211E+03 -0.83622084921E+03  0.87223955719E+03  0.10566000000E+00 0.  1.
         13    1    1    2    0    0 -0.94382884079E+02 -0.45475781802E+03 -0.53908092663E+03  0.71156240659E+03  0.10566000000E+00 0. -1.
         -4    1    1    2    0  502  0.30572903008E+03  0.32487582592E+03  0.26019682671E+02  0.44686862274E+03  0.00000000000E+00 0. -1.
</event>
<event>
 5    1  0.4881333E-005  0.1189651E+03  0.7818608E-02  0.1136508E+00
          4   -1    0    0  502    0 -0.00000000000E+00  0.00000000000E+00  0.70064874175E+02  0.70064874175E+02  0.00000000000E+00 0.  1.
         21   -1    0    0  501  502  0.00000000000E+00 -0.00000000000E+00 -0.88409287995E+03  0.88409287995E+03  0.00000000000E+00 0.  1.
        -13    1    1    2    0    0  0.91124416688E+02 -0.86009078061E+02 -0.55667596514E+02  0.13711350514E+03  0.10566000000E+00 0.  1.
         13    1    1    2    0    0 -0.81827906552E+02  0.76370664618E+02 -0.77708068714E+02  0.13626019159E+03  0.10566000000E+00 0. -1.
          4    1    1    2  501    0 -0.92965101364E+01  0.96384134430E+01 -0.68065234055E+03  0.68078405740E+03  0.00000000000E+00 0.  1.
</event>
<event>
 5    1  0.4881333E-005  0.1178985E+03  0.7818608E-02  0.1137929E+00
         21   -1    0    0  501  502  0.00000000000E+00  0.00000000000E+00  0.61177009201E+03  0.61177009201E+03  0.00000000000E+00 0. -1.
          4   -1    0    0  502    0 -0.00000000000E+00 -0.00000000000E+00 -0.41244222986E+02  0.41244222986E+02  0.00000000000E+00 0.  1.
        -13    1    1    2    0    0 -0.89274002092E+02  0.78883556113E+02  0.82880078959E+02  0.14512608837E+03  0.10566000000E+00 0.  1.
         13    1    1    2    0    0  0.77820024474E+02 -0.84315473408E+02  0.32334627599E+03  0.34310039439E+03  0.10566000000E+00 0. -1.
          4    1    1    2  501    0  0.11453977618E+02  0.54319172959E+01  0.16429951407E+03  0.16478783224E+03  0.00000000000E+00 0.  1.
</event>
<event>
 5    1  0.4881333E-005  0.3037297E+03  0.7818608E-02  0.1018690E+00
         21   -1    0    0  501  502  0.00000000000E+00  0.00000000000E+00  0.35107656810E+03  0.35107656810E+03  0.00000000000E+00 0. -1.
         -4   -1    0    0    0  501 -0.00000000000E+00 -0.00000000000E+00 -0.12336582141E+04  0.12336582141E+04  0.00000000000E+00 0. -1.
        -13    1    1    2    0    0  0.12396519855E+03 -0.15814063952E+03 -0.41036547081E+03  0.45691975566E+03  0.10566000000E+00 0.  1.
         13    1    1    2    0    0 -0.32650582890E+03 -0.72336965040E+02 -0.67963427310E+03  0.75745722596E+03  0.10566000000E+00 0. -1.
         -4    1    1    2    0  502  0.20254063035E+03  0.23047760456E+03  0.20741809788E+03  0.37035780061E+03  0.00000000000E+00 0. -1.
</event>
<event>
 5    1  0.4881333E-005  0.2021087E+03  0.7818608E-02  0.1058700E+00
         21   -1    0    0  501  502  0.00000000000E+00  0.00000000000E+00  0.74735656329E+03  0.74735656329E+03  0.00000000000E+00 0. -1.
          4   -1    0    0  502    0 -0.00000000000E+00 -0.00000000000E+00 -0.16693765384E+03  0.16693765384E+03  0.00000000000E+00 0.  1.
        -13    1    1    2    0    0 -0.34761990775E+02 -0.18702516116E+03  0.22801851700E+03  0.29694993209E+03  0.10566000000E+00 0.  1.
         13    1    1    2    0    0  0.31008881570E+02  0.20340334907E+03 -0.52299034772E+02  0.21229619250E+03  0.10566000000E+00 0. -1.
          4    1    1    2  501    0  0.37531092053E+01 -0.16378187906E+02  0.40469942723E+03  0.40504809254E+03  0.00000000000E+00 0.  1.
</event>
<event>
 5    1  0.4881333E-005  0.2690556E+03  0.7818608E-02  0.1068936E+00
          4   -1    0    0  502    0 -0.00000000000E+00  0.00000000000E+00  0.28810393726E+04  0.28810393726E+04  0.00000000000E+00 0.  1.
         21   -1    0    0  501  502  0.00000000000E+00 -0.00000000000E+00 -0.98358427660E+02  0.98358427660E+02  0.00000000000E+00 0.  1.
        -13    1    1    2    0    0 -0.73741245558E+02  0.26403680813E+03  0.11875985322E+03  0.29875930319E+03  0.10566000000E+00 0.  1.
         13    1    1    2    0    0  0.20556295999E+02 -0.60275194167E+02  0.26723762494E+03  0.27472098515E+03  0.10566000000E+00 0. -1.
          4    1    1    2  501    0  0.53184949559E+02 -0.20376161396E+03  0.23966834668E+04  0.24059175119E+04  0.00000000000E+00 0.  1.
</event>
<event>
 5    1  0.4881333E-005  0.3468458E+03  0.7818608E-02  0.9896537E-01
          4   -1    0    0  502    0 -0.00000000000E+00  0.00000000000E+00  0.13605958108E+04  0.13605958108E+04  0.00000000000E+00 0.  1.
         21   -1    0    0  501  502  0.00000000000E+00 -0.00000000000E+00 -0.40950312202E+03  0.40950312202E+03  0.00000000000E+00 0.  1.
        -13    1    1    2    0    0  0.41402028624E+02 -0.54094160423E+03 -0.11132665001E+03  0.55382811533E+03  0.10566000000E+00 0.  1.
         13    1    1    2    0    0 -0.70529012426E+02  0.32136647323E+03  0.84105607011E+03  0.90312018909E+03  0.10566000000E+00 0. -1.
          4    1    1    2  501    0  0.29126983802E+02  0.21957513100E+03  0.22136326864E+03  0.31315062836E+03  0.00000000000E+00 0.  1.
</event>
<event>
 5    1  0.4881333E-005  0.6879418E+02  0.7818608E-02  0.1229927E+00
          4   -1    0    0  502    0 -0.00000000000E+00  0.00000000000E+00  0.57826667337E+02  0.57826667337E+02  0.00000000000E+00 0.  1.
         21   -1    0    0  501  502  0.00000000000E+00 -0.00000000000E+00 -0.49337769253E+03  0.49337769253E+03  0.00000000000E+00 0. -1.
        -13    1    1    2    0    0 -0.34752031869E+01 -0.71976222252E+02  0.22257424091E+02  0.75419213056E+02  0.10566000000E+00 0.  1.
         13    1    1    2    0    0 -0.44061153179E+02  0.48902056158E+02 -0.15495165729E+03  0.16835327017E+03  0.10566000000E+00 0. -1.
          4    1    1    2  501    0  0.47536356366E+02  0.23074166094E+02 -0.30285679199E+03  0.30743187664E+03  0.00000000000E+00 0.  1.
</event>
<event>
 5    1  0.4881333E-005  0.2897668E+02  0.7818608E-02  0.1413319E+00
         21   -1    0    0  501  502  0.00000000000E+00  0.00000000000E+00  0.17101326951E+02  0.17101326951E+02  0.00000000000E+00 0. -1.
          4   -1    0    0  502    0 -0.00000000000E+00 -0.00000000000E+00 -0.12788674562E+03  0.12788674562E+03  0.00000000000E+00 0.  1.
        -13    1    1    2    0    0 -0.91456025266E+01 -0.23966349038E+02 -0.52307602631E+02  0.58259114212E+02  0.10566000000E+00 0.  1.
         13    1    1    2    0    0  0.25777903645E+02  0.25793415854E+02 -0.59695250564E+02  0.69952374668E+02  0.10566000000E+00 0. -1.
          4    1    1    2  501    0 -0.16632301119E+02 -0.18270668164E+01  0.12174345225E+01  0.16776583695E+02  0.00000000000E+00 0.  1.
</event>
<event>
 5    1  0.4881333E-005  0.1878205E+03  0.7818608E-02  0.1068822E+00
         21   -1    0    0  501  502  0.00000000000E+00  0.00000000000E+00  0.98807747586E+02  0.98807747586E+02  0.00000000000E+00 0. -1.
         -4   -1    0    0    0  501 -0.00000000000E+00 -0.00000000000E+00 -0.12813681789E+04  0.12813681789E+04  0.00000000000E+00 0. -1.
        -13    1    1    2    0    0  0.14339612148E+03 -0.12791313741E+02 -0.26518927194E+02  0.14638760203E+03  0.10566000000E+00 0.  1.
         13    1    1    2    0    0 -0.18177109562E+03  0.69113418594E+02 -0.11489231381E+04  0.11652646842E+04  0.10566000000E+00 0. -1.
         -4    1    1    2    0  502  0.38374974135E+02 -0.56322104852E+02 -0.71183659887E+01  0.68523640222E+02  0.00000000000E+00 0. -1.
</event>
<event>
 5    1  0.4881333E-005  0.4508973E+03  0.7818608E-02  0.9891651E-01
         -4   -1    0    0    0  501 -0.00000000000E+00  0.00000000000E+00  0.19368299812E+04  0.19368299812E+04  0.00000000000E+00 0. -1.
         21   -1    0    0  501  502  0.00000000000E+00 -0.00000000000E+00 -0.18369269924E+03  0.18369269924E+03  0.00000000000E+00 0. -1.
        -13    1    1    2    0    0 -0.34277026169E+02  0.15677637712E+03  0.51845586624E+03  0.54272483207E+03  0.10566000000E+00 0.  1.
         13    1    1    2    0    0  0.41494308591E+03  0.15038913882E+03  0.33627584798E+03  0.55486585290E+03  0.10566000000E+00 0. -1.
         -4    1    1    2    0  502 -0.38066605974E+03 -0.30716551593E+03  0.89840556771E+03  0.10229319954E+04  0.00000000000E+00 0. -1.
</event>
<event>
 5    1  0.4881333E-005  0.4521002E+03  0.7818608E-02  0.9765747E-01
         21   -1    0    0  501  502  0.00000000000E+00  0.00000000000E+00  0.23369932892E+03  0.23369932892E+03  0.00000000000E+00 0.  1.
          4   -1    0    0  502    0 -0.00000000000E+00 -0.00000000000E+00 -0.18878525633E+04  0.18878525633E+04  0.00000000000E+00 0.  1.
        -13    1    1    2    0    0 -0.41374811945E+03  0.27840076249E+03 -0.19105108705E+03  0.53403653426E+03  0.10566000000E+00 0.  1.
         13    1    1    2    0    0  0.44264891288E+02 -0.24004023214E+03 -0.61198199818E+03  0.65886316554E+03  0.10566000000E+00 0. -1.
          4    1    1    2  501    0  0.36948322816E+03 -0.38360530343E+02 -0.85112014919E+03  0.92865219245E+03  0.00000000000E+00 0.  1.
</event>
<event>
 5    1  0.4881333E-005  0.3496820E+03  0.7818608E-02  0.9982564E-01
         -4   -1    0    0    0  501 -0.00000000000E+00  0.00000000000E+00  0.12307024515E+04  0.12307024515E+04  0.00000000000E+00 0. -1.
         21   -1    0    0  501  502  0.00000000000E+00 -0.00000000000E+00 -0.45023615434E+03  0.45023615434E+03  0.00000000000E+00 0. -1.
        -13    1    1    2    0    0  0.18426634015E+03 -0.17542378745E+03  0.56887019581E+03  0.62317004113E+03  0.10566000000E+00 0.  1.
         13    1    1    2    0    0 -0.19274903571E+03 -0.28261609386E+03 -0.23733439049E+03  0.41635522255E+03  0.10566000000E+00 0. -1.
         -4    1    1    2    0  502  0.84826955539E+01  0.45803988131E+03  0.44893049183E+03  0.64141334215E+03  0.00000000000E+00 0. -1.
</event>
<event>
 5    1  0.4881333E-005  0.3684954E+03  0.7818608E-02  0.9912543E-01
         21   -1    0    0  501  502  0.00000000000E+00  0.00000000000E+00  0.12370621455E+03  0.12370621455E+03  0.00000000000E+00 0. -1.
         -4   -1    0    0    0  501 -0.00000000000E+00 -0.00000000000E+00 -0.36077435566E+04  0.36077435566E+04  0.00000000000E+00 0. -1.
        -13    1    1    2    0    0 -0.27156673626E+03 -0.37672646504E+02 -0.58468076756E+03  0.64577033972E+03  0.10566000000E+00 0.  1.
         13    1    1    2    0    0  0.57717805592E+03 -0.90626300184E+02 -0.24967147044E+04  0.25641630137E+04  0.10566000000E+00 0. -1.
         -4    1    1    2    0  502 -0.30561131966E+03  0.12829894669E+03 -0.40264187012E+03  0.52151641776E+03  0.00000000000E+00 0. -1.
</event>
<event>
 5    1  0.4881333E-005  0.5488864E+03  0.7818608E-02  0.9376811E-01
          4   -1    0    0  502    0 -0.00000000000E+00  0.00000000000E+00  0.22208819060E+04  0.22208819060E+04  0.00000000000E+00 0.  1.
         21   -1    0    0  501  502  0.00000000000E+00 -0.00000000000E+00 -0.30681282693E+03  0.30681282693E+03  0.00000000000E+00 0. -1.
        -13    1    1    2    0    0 -0.16028930295E+03  0.58940970405E+03  0.14875827754E+04  0.16081041585E+04  0.10566000000E+00 0.  1.
         13    1    1    2    0    0  0.35534132388E+03 -0.30957988980E+03  0.28151272738E+03  0.54895955358E+03  0.10566000000E+00 0. -1.
          4    1    1    2  501    0 -0.19505202093E+03 -0.27982981425E+03  0.14497357638E+03  0.37063102091E+03  0.00000000000E+00 0.  1.
</event>
<event>
 5    1  0.4881333E-005  0.1006400E+04  0.7818608E-02  0.8768602E-01
         21   -1    0    0  501  502  0.00000000000E+00  0.00000000000E+00  0.57822205143E+03  0.57822205143E+03  0.00000000000E+00 0. -1.
          4   -1    0    0  502    0 -0.00000000000E+00 -0.00000000000E+00 -0.28046202551E+04  0.28046202551E+04  0.00000000000E+00 0.  1.
        -13    1    1    2    0    0 -0.87128699045E+03 -0.58534231440E+03 -0.18240448295E+04  0.21044966609E+04  0.10566000000E+00 0.  1.
         13    1    1    2    0    0  0.85382908913E+03  0.31557890341E+03 -0.17907058756E+03  0.92772864794E+03  0.10566000000E+00 0. -1.
          4    1    1    2  501    0  0.17457901318E+02  0.26976341099E+03 -0.22328278661E+03  0.35061699763E+03  0.00000000000E+00 0.  1.
</event>
<event>
 5    1  0.4881333E-005  0.2554988E+03  0.7818608E-02  0.1027582E+00
         21   -1    0    0  501  502  0.00000000000E+00  0.00000000000E+00  0.67717694686E+03  0.67717694686E+03  0.00000000000E+00 0.  1.
          4   -1    0    0  502    0 -0.00000000000E+00 -0.00000000000E+00 -0.74162997196E+03  0.74162997196E+03  0.00000000000E+00 0.  1.
        -13    1    1    2    0    0 -0.55280421506E+02  0.24474946249E+03 -0.42054636865E+03  0.48971163325E+03  0.10566000000E+00 0.  1.
         13    1    1    2    0    0 -0.13345820532E+03 -0.28375205805E+03 -0.17850441589E+03  0.36081873658E+03  0.10566000000E+00 0. -1.
          4    1    1    2  501    0  0.18873862682E+03  0.39002595565E+02  0.53459775945E+03  0.56827654898E+03  0.00000000000E+00 0.  1.
</event>
<event>
 5    1  0.4881333E-005  0.4981285E+03  0.7818608E-02  0.9996179E-01
         21   -1    0    0  501  502  0.00000000000E+00  0.00000000000E+00  0.25916714352E+03  0.25916714352E+03  0.00000000000E+00 0. -1.
         -4   -1    0    0    0  501 -0.00000000000E+00 -0.00000000000E+00 -0.11352743735E+04  0.11352743735E+04  0.00000000000E+00 0. -1.
        -13    1    1    2    0    0 -0.42444246203E+02 -0.72676177983E+02 -0.64545846775E+02  0.10606374678E+03  0.10566000000E+00 0.  1.
         13    1    1    2    0    0  0.46256168689E+03 -0.19445989584E+03 -0.37840501911E+03  0.62846506261E+03  0.10566000000E+00 0. -1.
         -4    1    1    2    0  502 -0.42011744069E+03  0.26713607382E+03 -0.43315636406E+03  0.65991270759E+03  0.00000000000E+00 0. -1.
</event>
<event>
 5    1  0.4881333E-005  0.1360096E+03  0.7818608E-02  0.1115793E+00
         21   -1    0    0  501  502  0.00000000000E+00  0.00000000000E+00  0.36314397324E+03  0.36314397324E+03  0.00000000000E+00 0. -1.
         -4   -1    0    0    0  501 -0.00000000000E+00 -0.00000000000E+00 -0.10537224355E+04  0.10537224355E+04  0.00000000000E+00 0. -1.
        -13    1    1    2    0    0 -0.53931675172E+02  0.96090327678E+02 -0.32708034506E+03  0.34514278198E+03  0.10566000000E+00 0.  1.
         13    1    1    2    0    0  0.65160945544E+01 -0.17517812896E+03 -0.70062014473E+03  0.72221771975E+03  0.10566000000E+00 0. -1.
         -4    1    1    2    0  502  0.47415580618E+02  0.79087801281E+02  0.33712202753E+03  0.34950590702E+03  0.00000000000E+00 0. -1.
</event>
<event>
 5    1  0.4881333E-005  0.8743922E+02  0.7818608E-02  0.1187197E+00
         21   -1    0    0  501  502  0.00000000000E+00  0.00000000000E+00  0.25077777483E+03  0.25077777483E+03  0.00000000000E+00 0.  1.
         -4   -1    0    0    0  501 -0.00000000000E+00 -0.00000000000E+00 -0.76929616411E+02  0.76929616411E+02  0.00000000000E+00 0. -1.
        -13    1    1    2    0    0  0.53428828474E+02 -0.36073800096E+02  0.93804287635E+02  0.11382097482E+03  0.10566000000E+00 0.  1.
         13    1    1    2    0    0 -0.84608857838E+02  0.43942318133E+02 -0.29437025091E+02  0.99780437751E+02  0.10566000000E+00 0. -1.
         -4    1    1    2    0  502  0.31180029364E+02 -0.78685180366E+01  0.10948089588E+03  0.11410597868E+03  0.00000000000E+00 0. -1.
</event>
<event>
 5    1  0.4881333E-005  0.9828955E+02  0.7818608E-02  0.1167417E+00
         -4   -1    0    0    0  501 -0.00000000000E+00  0.00000000000E+00  0.25665483131E+03  0.25665483131E+03  0.00000000000E+00 0. -1.
         21   -1    0    0  501  502  0.00000000000E+00 -0.00000000000E+00 -0.71647970591E+02  0.71647970591E+02  0.00000000000E+00 0.  1.
        -13    1    1    2    0    0  0.77339808494E+02  0.62119375551E+02  0.20557059336E+01  0.99219453171E+02  0.10566000000E+00 0.  1.
         13    1    1    2    0    0 -0.84891201304E+02 -0.49524653565E+02  0.18913758021E+03  0.21314840553E+03  0.10566000000E+00 0. -1.
         -4    1    1    2    0  502  0.75513928103E+01 -0.12594721986E+02 -0.61864254217E+01  0.15934943199E+02  0.00000000000E+00 0. -1.
</event>
<event>
 5    1  0.4881333E-005  0.4604708E+03  0.7818608E-02  0.9770055E-01
         21   -1    0    0  501  502  0.00000000000E+00  0.00000000000E+00  0.20170749354E+03  0.20170749354E+03  0.00000000000E+00 0.  1.
         -4   -1    0    0    0  501 -0.00000000000E+00 -0.00000000000E+00 -0.20435920083E+04  0.20435920083E+04  0.00000000000E+00 0. -1.
        -13    1    1    2    0    0  0.16594462131E+03  0.15580248452E+03 -0.43815937128E+03  0.49375669851E+03  0.10566000000E+00 0.  1.
         13    1    1    2    0    0 -0.34577612089E+03 -0.39434808661E+03 -0.29179083881E+03  0.60017784362E+03  0.10566000000E+00 0. -1.
         -4    1    1    2    0  502  0.17983149958E+03  0.23854560209E+03 -0.11119343046E+04  0.11513649597E+04  0.00000000000E+00 0. -1.
</event>
<event>
 5    1  0.4881333E-005  0.6338238E+02  0.7818608E-02  0.1245240E+00
          4   -1    0    0  502    0 -0.00000000000E+00  0.00000000000E+00  0.14340546997E+03  0.14340546997E+03  0.00000000000E+00 0.  1.
         21   -1    0    0  501  502  0.00000000000E+00 -0.00000000000E+00 -0.33639807478E+03  0.33639807478E+03  0.00000000000E+00 0. -1.
        -13    1    1    2    0    0  0.30525225002E+02  0.54808820492E+02  0.12582479380E+03  0.14059760334E+03  0.10566000000E+00 0.  1.
         13    1    1    2    0    0 -0.33640608792E+02 -0.81123974860E+02 -0.26583877998E+03  0.27996974473E+03  0.10566000000E+00 0. -1.
          4    1    1    2  501    0  0.31153837892E+01  0.26315154367E+02 -0.52978618632E+02  0.59236196685E+02  0.00000000000E+00 0.  1.
</event>
<event>
 5    1  0.4881333E-005  0.3895338E+02  0.7818608E-02  0.1344703E+00
         21   -1    0    0  501  502  0.00000000000E+00  0.00000000000E+00  0.53070911461E+02  0.53070911461E+02  0.00000000000E+00 0.  1.
         -4   -1    0    0    0  501 -0.00000000000E+00 -0.00000000000E+00 -0.51612235291E+02  0.51612235291E+02  0.00000000000E+00 0. -1.
        -13    1    1    2    0    0  0.23297646507E+02 -0.28560032130E+02 -0.19161869233E+02  0.41540873421E+02  0.10566000000E+00 0.  1.
         13    1    1    2    0    0 -0.36415491049E+02  0.26833513142E+02  0.10376611398E+02  0.46409165517E+02  0.10566000000E+00 0. -1.
         -4    1    1    2    0  502  0.13117844542E+02  0.17265189879E+01  0.10243934004E+02  0.16733107814E+02  0.00000000000E+00 0. -1.
</event>
<event>
 5    1  0.4881333E-005  0.2833961E+03  0.7818608E-02  0.1014404E+00
         21   -1    0    0  501  502  0.00000000000E+00  0.00000000000E+00  0.61769570632E+03  0.61769570632E+03  0.00000000000E+00 0. -1.
         -4   -1    0    0    0  501 -0.00000000000E+00 -0.00000000000E+00 -0.31076825673E+03  0.31076825673E+03  0.00000000000E+00 0. -1.
        -13    1    1    2    0    0  0.17791128051E+03 -0.17150834538E+03  0.12357968782E+03  0.27629601277E+03  0.10566000000E+00 0.  1.
         13    1    1    2    0    0 -0.25256454178E+03  0.16729380699E+03 -0.13026470125E+03  0.32976502115E+03  0.10566000000E+00 0. -1.
         -4    1    1    2    0  502  0.74653261269E+02  0.42145383885E+01  0.31361246302E+03  0.32240292913E+03  0.00000000000E+00 0. -1.
</event>
<event>
 5    1  0.4881333E-005  0.3317063E+03  0.7818608E-02  0.1004090E+00
         21   -1    0    0  501  502  0.00000000000E+00  0.00000000000E+00  0.10463238109E+04  0.10463238109E+04  0.00000000000E+00 0. -1.
         -4   -1    0    0    0  501 -0.00000000000E+00 -0.00000000000E+00 -0.19874127772E+04  0.19874127772E+04  0.00000000000E+00 0. -1.
        -13    1    1    2    0    0  0.21624076940E+02  0.38433065374E+03 -0.16850211550E+04  0.17284310678E+04  0.10566000000E+00 0.  1.
         13    1    1    2    0    0  0.28380756466E+03 -0.41644980112E+02  0.79334442013E+03  0.84360916202E+03  0.10566000000E+00 0. -1.
         -4    1    1    2    0  502 -0.30543164160E+03 -0.34268567363E+03 -0.49412231372E+02  0.46169635824E+03  0.00000000000E+00 0. -1.
</event>
<event>
 5    1  0.4881333E-005  0.3258217E+03  0.7818608E-02  0.1019170E+00
         -4   -1    0    0    0  501 -0.00000000000E+00  0.00000000000E+00  0.27219572339E+03  0.27219572339E+03  0.00000000000E+00 0. -1.
         21   -1    0    0  501  502  0.00000000000E+00 -0.00000000000E+00 -0.14025479277E+04  0.14025479277E+04  0.00000000000E+00 0. -1.
        -13    1    1    2    0    0 -0.33823445733E+02 -0.15671416922E+03 -0.55002415470E+00  0.16032364145E+03  0.10566000000E+00 0.  1.
         13    1    1    2    0    0  0.29812141718E+03  0.32228576235E+03 -0.11651809073E+03  0.45422568028E+03  0.10566000000E+00 0. -1.
         -4    1    1    2    0  502 -0.26429797145E+03 -0.16557159312E+03 -0.10132840894E+04  0.10601943294E+04  0.00000000000E+00 0. -1.
</event>
<event>
 5    1  0.4881333E-005  0.4668849E+03  0.7818608E-02  0.9553665E-01
         -4   -1    0    0    0  501 -0.00000000000E+00  0.00000000000E+00  0.21854935054E+04  0.21854935054E+04  0.00000000000E+00 0. -1.
         21   -1    0    0  501  502  0.00000000000E+00 -0.00000000000E+00 -0.42678389784E+03  0.42678389784E+03  0.00000000000E+00 0.  1.
        -13    1    1    2    0    0 -0.25077104422E+03 -0.66010446528E+03  0.72435196502E+03  0.10115877629E+04  0.10566000000E+00 0.  1.
         13    1    1    2    0    0 -0.11568514744E+03  0.41037791549E+03  0.10739278523E+04  0.11554713887E+04  0.10566000000E+00 0. -1.
         -4    1    1    2    0  502  0.36645619165E+03  0.24972654979E+03 -0.39570209826E+02  0.44521825162E+03  0.00000000000E+00 0. -1.
</event>
<event>
 5    1  0.4881333E-005  0.1946544E+03  0.7818608E-02  0.1063864E+00
          4   -1    0    0  502    0 -0.00000000000E+00  0.00000000000E+00  0.51274457491E+03  0.51274457491E+03  0.00000000000E+00 0.  1.
         21   -1    0    0  501  502  0.00000000000E+00 -0.00000000000E+00 -0.61497104364E+03  0.61497104364E+03  0.00000000000E+00 0.  1.
        -13    1    1    2    0    0  0.90258866325E+02 -0.21442832821E+03  0.25154653099E+03  0.34263951802E+03  0.10566000000E+00 0.  1.
         13    1    1    2    0    0 -0.11034668640E+03  0.12960227598E+03  0.17795249644E+03  0.24625239754E+03  0.10566000000E+00 0. -1.
          4    1    1    2  501    0  0.20087820075E+02  0.84826052229E+02 -0.53172549616E+03  0.53882370300E+03  0.00000000000E+00 0.  1.
</event>
<event>
 5    1  0.4881333E-005  0.4919920E+02  0.7818608E-02  0.1295084E+00
         21   -1    0    0  501  502  0.00000000000E+00  0.00000000000E+00  0.10499134024E+02  0.10499134024E+02  0.00000000000E+00 0. -1.
          4   -1    0    0  502    0 -0.00000000000E+00 -0.00000000000E+00 -0.37693260709E+03  0.37693260709E+03  0.00000000000E+00 0.  1.
        -13    1    1    2    0    0 -0.13908784896E+02 -0.51518582399E+02 -0.26675200208E+03  0.27203724085E+03  0.10566000000E+00 0.  1.
         13    1    1    2    0    0  0.19379096004E+02  0.37122690579E+02 -0.80991090087E+02  0.91176813693E+02  0.10566000000E+00 0. -1.
          4    1    1    2  501    0 -0.54703111085E+01  0.14395891820E+02 -0.18690380901E+02  0.24217686577E+02  0.00000000000E+00 0.  1.
</event>
<event>
 5    1  0.4881333E-005  0.2407612E+03  0.7818608E-02  0.1035295E+00
          4   -1    0    0  502    0 -0.00000000000E+00  0.00000000000E+00  0.69688505968E+03  0.69688505968E+03  0.00000000000E+00 0.  1.
         21   -1    0    0  501  502  0.00000000000E+00 -0.00000000000E+00 -0.10040147745E+04  0.10040147745E+04  0.00000000000E+00 0.  1.
        -13    1    1    2    0    0 -0.20754064466E+03  0.11100249279E+03  0.55062495449E+03  0.59881760517E+03  0.10566000000E+00 0.  1.
         13    1    1    2    0    0  0.23139989296E+03 -0.15262069869E+03 -0.36688578915E+02  0.27961589926E+03  0.10566000000E+00 0. -1.
          4    1    1    2  501    0 -0.23859248299E+02  0.41618205907E+02 -0.82106609041E+03  0.82246632978E+03  0.00000000000E+00 0.  1.
</event>
<event>
 5    1  0.4881333E-005  0.2925128E+03  0.7818608E-02  0.1010445E+00
         -4   -1    0    0    0  501 -0.00000000000E+00  0.00000000000E+00  0.22175145361E+04  0.22175145361E+04  0.00000000000E+00 0. -1.
         21   -1    0    0  501  502  0.00000000000E+00 -0.00000000000E+00 -0.57601516641E+02  0.57601516641E+02  0.00000000000E+00 0. -1.
        -13    1    1    2    0    0 -0.19035191233E+03 -0.19571146814E+03  0.10094822699E+04  0.10457491543E+04  0.10566000000E+00 0.  1.
         13    1    1    2    0    0  0.27483639270E+03  0.17198000572E+03  0.10335665219E+04  0.10832229371E+04  0.10566000000E+00 0. -1.
         -4    1    1    2    0  502 -0.84484480371E+02  0.23731462421E+02  0.11686422766E+03  0.14614396135E+03  0.00000000000E+00 0. -1.
</event>
<event>
 5    1  0.4881333E-005  0.5047755E+03  0.7818608E-02  0.9905000E-01
         -4   -1    0    0    0  501 -0.00000000000E+00  0.00000000000E+00  0.19118995405E+04  0.19118995405E+04  0.00000000000E+00 0. -1.
         21   -1    0    0  501  502  0.00000000000E+00 -0.00000000000E+00 -0.17102454091E+03  0.17102454091E+03  0.00000000000E+00 0. -1.
        -13    1    1    2    0    0 -0.96106849480E+00  0.10938041805E+03  0.21854561469E+03  0.24439148179E+03  0.10566000000E+00 0.  1.
         13    1    1    2    0    0 -0.45729995520E+03  0.16765235114E+03  0.60922053498E+03  0.77998732764E+03  0.10566000000E+00 0. -1.
         -4    1    1    2    0  502  0.45826102369E+03 -0.27703276919E+03  0.91310884987E+03  0.10585452719E+04  0.00000000000E+00 0. -1.
</event>
<event>
 5    1  0.4881333E-005  0.4842977E+02  0.7818608E-02  0.1298317E+00
         -4   -1    0    0    0  501 -0.00000000000E+00  0.00000000000E+00  0.13041692808E+03  0.13041692808E+03  0.00000000000E+00 0. -1.
         21   -1    0    0  501  502  0.00000000000E+00 -0.00000000000E+00 -0.44045237013E+02  0.44045237013E+02  0.00000000000E+00 0.  1.
        -13    1    1    2    0    0  0.35491742050E+02 -0.50889744042E+02  0.18382375373E+02  0.64709757308E+02  0.10566000000E+00 0.  1.
         13    1    1    2    0    0 -0.41537605595E+02  0.19512925630E+02  0.62168410995E+02  0.77272565862E+02  0.10566000000E+00 0. -1.
         -4    1    1    2    0  502  0.60458635448E+01  0.31376818412E+02  0.58209046958E+01  0.32479841920E+02  0.00000000000E+00 0. -1.
</event>
<event>
 5    1  0.4881333E-005  0.2197655E+03  0.7818608E-02  0.1047370E+00
         -4   -1    0    0    0  501 -0.00000000000E+00  0.00000000000E+00  0.12112324711E+04  0.12112324711E+04  0.00000000000E+00 0. -1.
         21   -1    0    0  501  502  0.00000000000E+00 -0.00000000000E+00 -0.30562471935E+03  0.30562471935E+03  0.00000000000E+00 0. -1.
        -13    1    1    2    0    0  0.20365480261E+03 -0.56282136384E+02  0.19023087376E+03  0.28430749902E+03  0.10566000000E+00 0.  1.
         13    1    1    2    0    0 -0.27394851346E+03  0.13643972479E+00 -0.18314848469E+03  0.32953176668E+03  0.10566000000E+00 0. -1.
         -4    1    1    2    0  502  0.70293710851E+02  0.56145696659E+02  0.89852536267E+03  0.90301792474E+03  0.00000000000E+00 0. -1.
</event>
<event>
 5    1  0.4881333E-005  0.4567449E+03  0.7818608E-02  0.9621098E-01
          4   -1    0    0  502    0 -0.00000000000E+00  0.00000000000E+00  0.73839004627E+03  0.73839004627E+03  0.00000000000E+00 0.  1.
         21   -1    0    0  501  502  0.00000000000E+00 -0.00000000000E+00 -0.86353103590E+03  0.86353103590E+03  0.00000000000E+00 0.  1.
        -13    1    1    2    0    0 -0.32248434732E+03  0.44403398831E+03 -0.67672570318E+02  0.55293935018E+03  0.10566000000E+00 0.  1.
         13    1    1    2    0    0  0.39184393904E+03  0.13186165750E+02  0.27545628180E+03  0.47915730389E+03  0.10566000000E+00 0. -1.
          4    1    1    2  501    0 -0.69359591725E+02 -0.45722015406E+03 -0.33292470111E+03  0.56982442809E+03  0.00000000000E+00 0.  1.
</event>
<event>
 5    1  0.4881333E-005  0.1696356E+03  0.7818608E-02  0.1087194E+00
         -4   -1    0    0    0  501 -0.00000000000E+00  0.00000000000E+00  0.39601938391E+03  0.39601938391E+03  0.00000000000E+00 0. -1.
         21   -1    0    0  501  502  0.00000000000E+00 -0.00000000000E+00 -0.19659983638E+03  0.19659983638E+03  0.00000000000E+00 0. -1.
        -13    1    1    2    0    0 -0.11711908129E+03  0.96626509290E+02  0.79416459687E+02  0.17134919531E+03  0.10566000000E+00 0.  1.
         13    1    1    2    0    0 -0.40340143760E+02 -0.18487817860E+03  0.14586529303E+03  0.23892250417E+03  0.10566000000E+00 0. -1.
         -4    1    1    2    0  502  0.15745922505E+03  0.88251669310E+02 -0.25862205183E+02  0.18234752081E+03  0.00000000000E+00 0. -1.
</event>
<event>
 5    1  0.4881333E-005  0.5535677E+03  0.7818608E-02  0.9367705E-01
         -4   -1    0    0    0  501 -0.00000000000E+00  0.00000000000E+00  0.26071683247E+04  0.26071683247E+04  0.00000000000E+00 0. -1.
         21   -1    0    0  501  502  0.00000000000E+00 -0.00000000000E+00 -0.30539683633E+03  0.30539683633E+03  0.00000000000E+00 0.  1.
        -13    1    1    2    0    0  0.45852217183E+03 -0.40856988688E+03  0.81308752203E+03  0.10189618561E+04  0.10566000000E+00 0.  1.
         13    1    1    2    0    0 -0.60933381036E+03 -0.11676966237E+03  0.86209608072E+03  0.10621358247E+04  0.10566000000E+00 0. -1.
         -4    1    1    2    0  502  0.15081163853E+03  0.52533954925E+03  0.62658788558E+03  0.83146748023E+03  0.00000000000E+00 0. -1.
</event>
<event>
 5    1  0.4881333E-005  0.5033063E+03  0.7818608E-02  0.9718446E-01
          4   -1    0    0  502    0 -0.00000000000E+00  0.00000000000E+00  0.33109439996E+04  0.33109439996E+04  0.00000000000E+00 0.  1.
         21   -1    0    0  501  502  0.00000000000E+00 -0.00000000000E+00 -0.11785973836E+03  0.11785973836E+03  0.00000000000E+00 0.  1.
        -13    1    1    2    0    0 -0.32407607556E+03  0.42474079140E+03  0.15470894148E+04  0.16367393535E+04  0.10566000000E+00 0.  1.
         13    1    1    2    0    0 -0.10868548255E+03 -0.17770323577E+03  0.54924855393E+03  0.58742230063E+03  0.10566000000E+00 0. -1.
          4    1    1    2  501    0  0.43276155811E+03 -0.24703755563E+03  0.10967462924E+04  0.12046420838E+04  0.00000000000E+00 0.  1.
</event>
<event>
 5    1  0.4881333E-005  0.1863002E+03  0.7818608E-02  0.1069956E+00
         21   -1    0    0  501  502  0.00000000000E+00  0.00000000000E+00  0.21280743422E+02  0.21280743422E+02  0.00000000000E+00 0. -1.
          4   -1    0    0  502    0 -0.00000000000E+00 -0.00000000000E+00 -0.23724479948E+04  0.23724479948E+04  0.00000000000E+00 0.  1.
        -13    1    1    2    0    0  0.18056244434E+02  0.20457754933E+03 -0.89812857580E+03  0.92131045337E+03  0.10566000000E+00 0.  1.
         13    1    1    2    0    0 -0.37212060004E+02 -0.16807327248E+03 -0.81155421621E+03  0.82961052268E+03  0.10566000000E+00 0. -1.
          4    1    1    2  501    0  0.19155815570E+02 -0.36504276849E+02 -0.64148445941E+03  0.64280776221E+03  0.00000000000E+00 0.  1.
</event>
<event>
 5    1  0.4881333E-005  0.4409917E+02  0.7818608E-02  0.1317876E+00
         21   -1    0    0  501  502  0.00000000000E+00  0.00000000000E+00  0.11034465707E+02  0.11034465707E+02  0.00000000000E+00 0. -1.
          4   -1    0    0  502    0 -0.00000000000E+00 -0.00000000000E+00 -0.29663124005E+03  0.29663124005E+03  0.00000000000E+00 0.  1.
        -13    1    1    2    0    0 -0.16323922120E+02 -0.41962544726E+02 -0.16765220634E+03  0.17359319989E+03  0.10566000000E+00 0.  1.
         13    1    1    2    0    0 -0.22484811751E+01  0.44850961457E+02 -0.80673550601E+02  0.92330370637E+02  0.10566000000E+00 0. -1.
          4    1    1    2  501    0  0.18572403295E+02 -0.28884167313E+01 -0.37271017400E+02  0.41742135228E+02  0.00000000000E+00 0.  1.
</event>
<event>
 5    1  0.4881333E-005  0.1374702E+03  0.7818608E-02  0.1114172E+00
          4   -1    0    0  502    0 -0.00000000000E+00  0.00000000000E+00  0.22280436968E+03  0.22280436968E+03  0.00000000000E+00 0.  1.
         21   -1    0    0  501  502  0.00000000000E+00 -0.00000000000E+00 -0.20297242410E+03  0.20297242410E+03  0.00000000000E+00 0. -1.
        -13    1    1    2    0    0 -0.72783789162E+02  0.12237709832E+03  0.15645644092E+03  0.21154730731E+03  0.10566000000E+00 0.  1.
         13    1    1    2    0    0  0.29768396118E+02 -0.11664035523E+03 -0.88380139537E+02  0.14933917806E+03  0.10566000000E+00 0. -1.
          4    1    1    2  501    0  0.43015393044E+02 -0.57367430921E+01 -0.48244355803E+02  0.64890308420E+02  0.00000000000E+00 0.  1.
</event>
<event>
 5    1  0.4881333E-005  0.2289859E+03  0.7818608E-02  0.1041897E+00
         21   -1    0    0  501  502  0.00000000000E+00  0.00000000000E+00  0.93449686870E+02  0.93449686870E+02  0.00000000000E+00 0. -1.
          4   -1    0    0  502    0 -0.00000000000E+00 -0.00000000000E+00 -0.12565032241E+04  0.12565032241E+04  0.00000000000E+00 0.  1.
        -13    1    1    2    0    0 -0.24166096151E+03  0.23036355682E+02 -0.30977507685E+03  0.39356232467E+03  0.10566000000E+00 0.  1.
         13    1    1    2    0    0  0.22303894108E+03 -0.24747473665E+02 -0.88856007538E+03  0.91645939649E+03  0.10566000000E+00 0. -1.
          4    1    1    2  501    0  0.18622020424E+02  0.17111179838E+01  0.35281614952E+02  0.39931189853E+02  0.00000000000E+00 0.  1.
</event>
<event>
 5    1  0.4881333E-005  0.3339940E+03  0.7818608E-02  0.9941860E-01
         21   -1    0    0  501  502  0.00000000000E+00  0.00000000000E+00  0.51768520417E+03  0.51768520417E+03  0.00000000000E+00 0.  1.
          4   -1    0    0  502    0 -0.00000000000E+00 -0.00000000000E+00 -0.92318635633E+03  0.92318635633E+03  0.00000000000E+00 0.  1.
        -13    1    1    2    0    0 -0.15994872421E+03  0.34389900924E+03  0.33662071039E+03  0.50711304140E+03  0.10566000000E+00 0.  1.
         13    1    1    2    0    0 -0.40167177885E+02 -0.33221067381E+03 -0.60341648055E+03  0.68999187976E+03  0.10566000000E+00 0. -1.
          4    1    1    2  501    0  0.20011590210E+03 -0.11688335426E+02 -0.13870538200E+03  0.24376663933E+03  0.00000000000E+00 0.  1.
</event>
<event>
 5    1  0.4881333E-005  0.7883871E+02  0.7818608E-02  0.1205277E+00
          4   -1    0    0  502    0 -0.00000000000E+00  0.00000000000E+00  0.18499803481E+02  0.18499803481E+02  0.00000000000E+00 0.  1.
         21   -1    0    0  501  502  0.00000000000E+00 -0.00000000000E+00 -0.53825025165E+03  0.53825025165E+03  0.00000000000E+00 0. -1.
        -13    1    1    2    0    0 -0.68771157187E+02  0.40938812525E+02 -0.10974250779E+03  0.13582668225E+03  0.10566000000E+00 0.  1.
         13    1    1    2    0    0  0.55735558259E+02 -0.52798474905E+02 -0.35306403741E+03  0.36131476179E+03  0.10566000000E+00 0. -1.
          4    1    1    2  501    0  0.13035598928E+02  0.11859662380E+02 -0.56943902971E+02  0.59608611096E+02  0.00000000000E+00 0.  1.
</event>
<event>
 5    1  0.4881333E-005  0.3438737E+03  0.7818608E-02  0.9973958E-01
          4   -1    0    0  502    0 -0.00000000000E+00  0.00000000000E+00  0.55777095130E+03  0.55777095130E+03  0.00000000000E+00 0.  1.
         21   -1    0    0  501  502  0.00000000000E+00 -0.00000000000E+00 -0.89467340830E+03  0.89467340830E+03  0.00000000000E+00 0.  1.
        -13    1    1    2    0    0 -0.10516717078E+03 -0.31812481487E+03  0.21450917058E+03  0.39784133404E+03  0.10566000000E+00 0.  1.
         13    1    1    2    0    0 -0.21983666525E+03  0.16557526304E+03  0.11449221447E+03  0.29808019970E+03  0.10566000000E+00 0. -1.
          4    1    1    2  501    0  0.32500383603E+03  0.15254955184E+03 -0.66590384204E+03  0.75652282586E+03  0.00000000000E+00 0.  1.
</event>
<event>
 5    1  0.4881333E-005  0.4169635E+03  0.7818608E-02  0.9681293E-01
         21   -1    0    0  501  502  0.00000000000E+00  0.00000000000E+00  0.51131573847E+03  0.51131573847E+03  0.00000000000E+00 0.  1.
          4   -1    0    0  502    0 -0.00000000000E+00 -0.00000000000E+00 -0.14863881997E+04  0.14863881997E+04  0.00000000000E+00 0.  1.
        -13    1    1    2    0    0  0.27887984088E+03 -0.41874014032E+03 -0.45407860743E+03  0.67772019569E+03  0.10566000000E+00 0.  1.
         13    1    1    2    0    0 -0.20372244083E+02  0.40049056755E+03 -0.82693423841E+03  0.91903643499E+03  0.10566000000E+00 0. -1.
          4    1    1    2  501    0 -0.25850759680E+03  0.18249572762E+02  0.30594038456E+03  0.40094730753E+03  0.00000000000E+00 0.  1.
</event>
<event>
 5    1  0.4881333E-005  0.3969163E+03  0.7818608E-02  0.9830886E-01
         21   -1    0    0  501  502  0.00000000000E+00  0.00000000000E+00  0.28986968431E+03  0.28986968431E+03  0.00000000000E+00 0. -1.
         -4   -1    0    0    0  501 -0.00000000000E+00 -0.00000000000E+00 -0.15318884325E+04  0.15318884325E+04  0.00000000000E+00 0. -1.
        -13    1    1    2    0    0 -0.10811715726E+03 -0.26775874444E+03 -0.33116765983E+03  0.43938149141E+03  0.10566000000E+00 0.  1.
         13    1    1    2    0    0  0.35071251623E+03  0.51168655962E+03 -0.81692021231E+03  0.10257587673E+04  0.10566000000E+00 0. -1.
         -4    1    1    2    0  502 -0.24259535897E+03 -0.24392781518E+03 -0.93930876067E+02  0.35661785807E+03  0.00000000000E+00 0. -1.
</event>
<event>
 5    1  0.4881333E-005  0.5505363E+03  0.7818608E-02  0.9373591E-01
         21   -1    0    0  501  502  0.00000000000E+00  0.00000000000E+00  0.44747011901E+03  0.44747011901E+03  0.00000000000E+00 0.  1.
          4   -1    0    0  502    0 -0.00000000000E+00 -0.00000000000E+00 -0.12820918910E+04  0.12820918910E+04  0.00000000000E+00 0.  1.
        -13    1    1    2    0    0  0.62427784012E+03 -0.35755544495E+03 -0.31939964280E+03  0.78713712965E+03  0.10566000000E+00 0.  1.
         13    1    1    2    0    0 -0.31564845587E+03  0.35634858363E+03 -0.36075812123E+03  0.59729782684E+03  0.10566000000E+00 0. -1.
          4    1    1    2  501    0 -0.30862938425E+03  0.12068613230E+01 -0.15446400800E+03  0.34512705357E+03  0.00000000000E+00 0.  1.
</event>
<event>
 5    1  0.4881333E-005  0.4963779E+03  0.7818608E-02  0.9743474E-01
         -4   -1    0    0    0  501 -0.00000000000E+00  0.00000000000E+00  0.14349035870E+03  0.14349035870E+03  0.00000000000E+00 0. -1.
         21   -1    0    0  501  502  0.00000000000E+00 -0.00000000000E+00 -0.32600455252E+04  0.32600455252E+04  0.00000000000E+00 0. -1.
        -13    1    1    2    0    0 -0.48945286077E+02 -0.19302120838E+03 -0.10776009673E+03  0.22641792669E+03  0.10566000000E+00 0.  1.
         13    1    1    2    0    0  0.88696170844E+02  0.60131347090E+03 -0.19010793044E+04  0.19958826202E+04  0.10566000000E+00 0. -1.
         -4    1    1    2    0  502 -0.39750884768E+02 -0.40829226252E+03 -0.11077157654E+04  0.11812353370E+04  0.00000000000E+00 0. -1.
</event>
<event>
 5    1  0.4881333E-005  0.1370778E+03  0.7818608E-02  0.1114605E+00
          4   -1    0    0  502    0 -0.00000000000E+00  0.00000000000E+00  0.89874179411E+03  0.89874179411E+03  0.00000000000E+00 0.  1.
         21   -1    0    0  501  502  0.00000000000E+00 -0.00000000000E+00 -0.36652002388E+02  0.36652002388E+02  0.00000000000E+00 0. -1.
        -13    1    1    2    0    0 -0.70382268558E+02 -0.11370857590E+03  0.59228152437E+03  0.60719084251E+03  0.10566000000E+00 0.  1.
         13    1    1    2    0    0  0.77073911585E+02  0.12288952552E+03  0.27842303353E+03  0.31394525015E+03  0.10566000000E+00 0. -1.
          4    1    1    2  501    0 -0.66916430262E+01 -0.91809496200E+01 -0.86147661762E+01  0.14257703833E+02  0.00000000000E+00 0.  1.
</event>
<event>
 5    1  0.4881333E-005  0.2036979E+03  0.7818608E-02  0.1057630E+00
         21   -1    0    0  501  502  0.00000000000E+00  0.00000000000E+00  0.23391561409E+03  0.23391561409E+03  0.00000000000E+00 0. -1.
         -4   -1    0    0    0  501 -0.00000000000E+00 -0.00000000000E+00 -0.78449639108E+03  0.78449639108E+03  0.00000000000E+00 0. -1.
        -13    1    1    2    0    0  0.99875371944E+02  0.17900505063E+03 -0.34100130976E+03  0.39786907708E+03  0.10566000000E+00 0.  1.
         13    1    1    2    0    0 -0.86764520404E+02 -0.18329116428E+03 -0.39001255228E+03  0.43958336525E+03  0.10566000000E+00 0. -1.
         -4    1    1    2    0  502 -0.13110851540E+02  0.42861136471E+01  0.18043308506E+03  0.18095956284E+03  0.00000000000E+00 0. -1.
</event>
<event>
 5    1  0.4881333E-005  0.5444091E+03  0.7818608E-02  0.9385610E-01
         -4   -1    0    0    0  501 -0.00000000000E+00  0.00000000000E+00  0.68259577454E+03  0.68259577454E+03  0.00000000000E+00 0. -1.
         21   -1    0    0  501  502  0.00000000000E+00 -0.00000000000E+00 -0.63385455438E+03  0.63385455438E+03  0.00000000000E+00 0. -1.
        -13    1    1    2    0    0 -0.39291428364E+03 -0.33898523381E+03  0.14600788579E+03  0.53908342296E+03  0.10566000000E+00 0.  1.
         13    1    1    2    0    0  0.45209880487E+03  0.35831483309E+03  0.86515555616E+02  0.58332478217E+03  0.10566000000E+00 0. -1.
         -4    1    1    2    0  502 -0.59184521228E+02 -0.19329599273E+02 -0.18378222124E+03  0.19404212379E+03  0.00000000000E+00 0. -1.
</event>
<event>
 5    1  0.4881333E-005  0.1966859E+03  0.7818608E-02  0.1062432E+00
         21   -1    0    0  501  502  0.00000000000E+00  0.00000000000E+00  0.42167336300E+03  0.42167336300E+03  0.00000000000E+00 0.  1.
          4   -1    0    0  502    0 -0.00000000000E+00 -0.00000000000E+00 -0.12842803976E+04  0.12842803976E+04  0.00000000000E+00 0.  1.
        -13    1    1    2    0    0  0.32011136532E+03  0.22053068607E+02 -0.55802684402E+03  0.64370147883E+03  0.10566000000E+00 0.  1.
         13    1    1    2    0    0 -0.16472252303E+03 -0.25523990116E+02 -0.65660973892E+03  0.67743733591E+03  0.10566000000E+00 0. -1.
          4    1    1    2  501    0 -0.15538884229E+03  0.34709215087E+01  0.35202954837E+03  0.38481494583E+03  0.00000000000E+00 0.  1.
</event>
<event>
 5    1  0.4881333E-005  0.5058990E+03  0.7818608E-02  0.9465136E-01
         21   -1    0    0  501  502  0.00000000000E+00  0.00000000000E+00  0.49579159265E+03  0.49579159265E+03  0.00000000000E+00 0. -1.
         -4   -1    0    0    0  501 -0.00000000000E+00 -0.00000000000E+00 -0.10662233958E+04  0.10662233958E+04  0.00000000000E+00 0. -1.
        -13    1    1    2    0    0  0.34855007173E+03 -0.14076337183E+03 -0.74917689123E+02  0.38329381766E+03  0.10566000000E+00 0.  1.
         13    1    1    2    0    0 -0.47450249816E+03  0.44603818989E+03 -0.53936261226E+03  0.84558543404E+03  0.10566000000E+00 0. -1.
         -4    1    1    2    0  502  0.12595242643E+03 -0.30527481806E+03  0.43848498278E+02  0.33313573670E+03  0.00000000000E+00 0. -1.
</event>
<event>
 5    1  0.4881333E-005  0.4305093E+03  0.7818608E-02  0.9929739E-01
          4   -1    0    0  502    0 -0.00000000000E+00  0.00000000000E+00  0.94469308423E+03  0.94469308423E+03  0.00000000000E+00 0.  1.
         21   -1    0    0  501  502  0.00000000000E+00 -0.00000000000E+00 -0.37379683699E+03  0.37379683699E+03  0.00000000000E+00 0.  1.
        -13    1    1    2    0    0  0.36297107247E+03  0.39952160584E+03  0.47072366733E+03  0.71620269137E+03  0.10566000000E+00 0.  1.
         13    1    1    2    0    0 -0.14912165543E+03 -0.64223104369E+02  0.12337805389E+03  0.20392162857E+03  0.10566000000E+00 0. -1.
          4    1    1    2  501    0 -0.21384941705E+03 -0.33529850147E+03 -0.23205473986E+02  0.39836560128E+03  0.00000000000E+00 0.  1.
</event>
<event>
 5    1  0.4881333E-005  0.8885369E+02  0.7818608E-02  0.1184443E+00
         -4   -1    0    0    0  501 -0.00000000000E+00  0.00000000000E+00  0.14819502986E+03  0.14819502986E+03  0.00000000000E+00 0. -1.
         21   -1    0    0  501  502  0.00000000000E+00 -0.00000000000E+00 -0.24866609774E+03  0.24866609774E+03  0.00000000000E+00 0. -1.
        -13    1    1    2    0    0  0.66129101307E+02  0.54005955847E+02 -0.73071262246E+02  0.11237936571E+03  0.10566000000E+00 0.  1.
         13    1    1    2    0    0 -0.84640574801E+02 -0.31039239702E+02  0.11098581892E+03  0.14298714792E+03  0.10566000000E+00 0. -1.
         -4    1    1    2    0  502  0.18511473493E+02 -0.22966716145E+02 -0.13838562456E+03  0.14149461398E+03  0.00000000000E+00 0. -1.
</event>
<event>
 5    1  0.4881333E-005  0.4005624E+03  0.7818608E-02  0.9867441E-01
          4   -1    0    0  502    0 -0.00000000000E+00  0.00000000000E+00  0.13175187389E+04  0.13175187389E+04  0.00000000000E+00 0.  1.
         21   -1    0    0  501  502  0.00000000000E+00 -0.00000000000E+00 -0.30153551733E+03  0.30153551733E+03  0.00000000000E+00 0.  1.
        -13    1    1    2    0    0  0.34127030234E+03  0.38038947367E+03  0.69543179138E+03  0.86301040467E+03  0.10566000000E+00 0.  1.
         13    1    1    2    0    0  0.17091036221E+02 -0.24770423202E+03  0.27611250512E+03  0.37133221881E+03  0.10566000000E+00 0. -1.
          4    1    1    2  501    0 -0.35836133856E+03 -0.13268524166E+03  0.44438925104E+02  0.38471163278E+03  0.00000000000E+00 0.  1.
</event>
<event>
 5    1  0.4881333E-005  0.2386920E+03  0.7818608E-02  0.1036425E+00
          4   -1    0    0  502    0 -0.00000000000E+00  0.00000000000E+00  0.27401009937E+03  0.27401009937E+03  0.00000000000E+00 0.  1.
         21   -1    0    0  501  502  0.00000000000E+00 -0.00000000000E+00 -0.68785254332E+03  0.68785254332E+03  0.00000000000E+00 0. -1.
        -13    1    1    2    0    0 -0.20162374155E+03  0.12586092138E+03  0.18162085263E+03  0.29913082416E+03  0.10566000000E+00 0.  1.
         13    1    1    2    0    0  0.20529581790E+03 -0.13660037888E+03 -0.42100689768E+03  0.48790660522E+03  0.10566000000E+00 0. -1.
          4    1    1    2  501    0 -0.36720763485E+01  0.10739457500E+02 -0.17445639890E+03  0.17482521331E+03  0.00000000000E+00 0.  1.
</event>
<event>
 5    1  0.4881333E-005  0.1173003E+03  0.7818608E-02  0.1138733E+00
         21   -1    0    0  501  502  0.00000000000E+00  0.00000000000E+00  0.84073383865E+02  0.84073383865E+02  0.00000000000E+00 0.  1.
          4   -1    0    0  502    0 -0.00000000000E+00 -0.00000000000E+00 -0.42429988991E+03  0.42429988991E+03  0.00000000000E+00 0.  1.
        -13    1    1    2    0    0 -0.45482485323E+02  0.10840166994E+03 -0.33142496592E+03  0.35165622093E+03  0.10566000000E+00 0.  1.
         13    1    1    2    0    0  0.11415531506E+02 -0.11994863509E+03 -0.60962742531E+01  0.12064478913E+03  0.10566000000E+00 0. -1.
          4    1    1    2  501    0  0.34066953817E+02  0.11546965152E+02 -0.27052658705E+01  0.36072263722E+02  0.00000000000E+00 0.  1.
</event>
<event>
 5    1  0.4881333E-005  0.4117351E+03  0.7818608E-02  0.9899289E-01
          4   -1    0    0  502    0 -0.00000000000E+00  0.00000000000E+00  0.27338905011E+03  0.27338905011E+03  0.00000000000E+00 0.  1.
         21   -1    0    0  501  502  0.00000000000E+00 -0.00000000000E+00 -0.16051156492E+04  0.16051156492E+04  0.00000000000E+00 0.  1.
        -13    1    1    2    0    0 -0.82143705703E+02 -0.36749437134E+03 -0.92403329185E+03  0.99781623407E+03  0.10566000000E+00 0.  1.
         13    1    1    2    0    0  0.40027214920E+02 -0.20150590476E+03 -0.66699618798E+02  0.21599920809E+03  0.10566000000E+00 0. -1.
          4    1    1    2  501    0  0.42116490783E+02  0.56900027609E+03 -0.34099368840E+03  0.66468925711E+03  0.00000000000E+00 0.  1.
</event>
<event>
 5    1  0.4881333E-005  0.8525959E+03  0.7818608E-02  0.9272773E-01
         -4   -1    0    0    0  501 -0.00000000000E+00  0.00000000000E+00  0.18021543850E+04  0.18021543850E+04  0.00000000000E+00 0. -1.
         21   -1    0    0  501  502  0.00000000000E+00 -0.00000000000E+00 -0.54691396395E+03  0.54691396395E+03  0.00000000000E+00 0. -1.
        -13    1    1    2    0    0  0.13451981672E+03  0.16998958728E+03  0.30457203462E+03  0.37383977359E+03  0.10566000000E+00 0.  1.
         13    1    1    2    0    0  0.62685820393E+03  0.38823328258E+03  0.65408115833E+03  0.98564621563E+03  0.10566000000E+00 0. -1.
         -4    1    1    2    0  502 -0.76137802066E+03 -0.55822286986E+03  0.29658722806E+03  0.98958235970E+03  0.00000000000E+00 0. -1.
</event>
<event>
 5    1  0.4881333E-005  0.3074170E+03  0.7818608E-02  0.1054679E+00
         21   -1    0    0  501  502  0.00000000000E+00  0.00000000000E+00  0.15654848686E+04  0.15654848686E+04  0.00000000000E+00 0.  1.
          4   -1    0    0  502    0 -0.00000000000E+00 -0.00000000000E+00 -0.22666351042E+03  0.22666351042E+03  0.00000000000E+00 0.  1.
        -13    1    1    2    0    0  0.32423563927E+03  0.15018095655E+03  0.45787074539E+02  0.36024927043E+03  0.10566000000E+00 0.  1.
         13    1    1    2    0    0 -0.38446785961E+02 -0.51950673407E+02 -0.32508098876E+02  0.72345113690E+02  0.10566000000E+00 0. -1.
          4    1    1    2  501    0 -0.28578885331E+03 -0.98230283143E+02  0.13255423825E+04  0.13595539949E+04  0.00000000000E+00 0.  1.
</event>
<event>
 5    1  0.4881333E-005  0.1006674E+03  0.7818608E-02  0.1163456E+00
         21   -1    0    0  501  502  0.00000000000E+00  0.00000000000E+00  0.31180500840E+03  0.31180500840E+03  0.00000000000E+00 0. -1.
         -4   -1    0    0    0  501 -0.00000000000E+00 -0.00000000000E+00 -0.12532288432E+03  0.12532288432E+03  0.00000000000E+00 0. -1.
        -13    1    1    2    0    0  0.12123185660E+02 -0.10642534362E+03  0.10267685337E+03  0.14837746721E+03  0.10566000000E+00 0.  1.
         13    1    1    2    0    0 -0.34387832262E+02  0.93788986313E+02 -0.76870758209E+02  0.12604769571E+03  0.10566000000E+00 0. -1.
         -4    1    1    2    0  502  0.22264646602E+02  0.12636357304E+02  0.16067602892E+03  0.16270272980E+03  0.00000000000E+00 0. -1.
</event>
<event>
 5    1  0.4881333E-005  0.3055027E+02  0.7818608E-02  0.1400544E+00
         21   -1    0    0  501  502  0.00000000000E+00  0.00000000000E+00  0.20719451156E+03  0.20719451156E+03  0.00000000000E+00 0. -1.
         -4   -1    0    0    0  501 -0.00000000000E+00 -0.00000000000E+00 -0.17139914743E+02  0.17139914743E+02  0.00000000000E+00 0. -1.
        -13    1    1    2    0    0 -0.22364510985E+02  0.54640721913E+00  0.33128445296E+02  0.39974679039E+02  0.10566000000E+00 0.  1.
         13    1    1    2    0    0  0.35949619427E+02  0.25497725170E+00  0.10710575851E+02  0.37512234664E+02  0.10566000000E+00 0. -1.
         -4    1    1    2    0  502 -0.13585108442E+02 -0.80138447083E+00  0.14621557567E+03  0.14684751260E+03  0.00000000000E+00 0. -1.
</event>
<event>
 5    1  0.4881333E-005  0.4472857E+03  0.7818608E-02  0.9803778E-01
         21   -1    0    0  501  502  0.00000000000E+00  0.00000000000E+00  0.33562498870E+03  0.33562498870E+03  0.00000000000E+00 0.  1.
          4   -1    0    0  502    0 -0.00000000000E+00 -0.00000000000E+00 -0.17967077028E+04  0.17967077028E+04  0.00000000000E+00 0.  1.
        -13    1    1    2    0    0 -0.12195608654E+03  0.48126664942E+03 -0.62299113003E+02  0.50037192720E+03  0.10566000000E+00 0.  1.
         13    1    1    2    0    0 -0.13968248015E+03 -0.17161598013E+03 -0.11159101089E+04  0.11376372982E+04  0.10566000000E+00 0. -1.
          4    1    1    2  501    0  0.26163856669E+03 -0.30965066928E+03 -0.28287349220E+03  0.49432346612E+03  0.00000000000E+00 0.  1.
</event>
<event>
 5    1  0.4881333E-005  0.3141020E+03  0.7818608E-02  0.1001648E+00
         21   -1    0    0  501  502  0.00000000000E+00  0.00000000000E+00  0.74911841849E+03  0.74911841849E+03  0.00000000000E+00 0.  1.
          4   -1    0    0  502    0 -0.00000000000E+00 -0.00000000000E+00 -0.31787916332E+03  0.31787916332E+03  0.00000000000E+00 0.  1.
        -13    1    1    2    0    0 -0.36386004017E+03 -0.11709594020E+03  0.42326749770E+03  0.57031655580E+03  0.10566000000E+00 0.  1.
         13    1    1    2    0    0  0.25636313765E+03  0.15944716121E+03 -0.11945158493E+03  0.32467545006E+03  0.10566000000E+00 0. -1.
          4    1    1    2  501    0  0.10749690252E+03 -0.42351221015E+02  0.12742334239E+03  0.17200557596E+03  0.00000000000E+00 0.  1.
</event>
<event>
 5    1  0.4881333E-005  0.1316268E+03  0.7818608E-02  0.1120791E+00
          4   -1    0    0  502    0 -0.00000000000E+00  0.00000000000E+00  0.70201798982E+03  0.70201798982E+03  0.00000000000E+00 0.  1.
         21   -1    0    0  501  502  0.00000000000E+00 -0.00000000000E+00 -0.41196864639E+02  0.41196864639E+02  0.00000000000E+00 0. -1.
        -13    1    1    2    0    0 -0.46409365644E+02 -0.13616488947E+03  0.13837231242E+03  0.19960364314E+03  0.10566000000E+00 0.  1.
         13    1    1    2    0    0  0.53328474098E+02  0.11674873501E+03  0.47131473734E+03  0.48847905388E+03  0.10566000000E+00 0. -1.
          4    1    1    2  501    0 -0.69191084541E+01  0.19416154460E+02  0.51134075414E+02  0.55132157443E+02  0.00000000000E+00 0.  1.
</event>
<event>
 5    1  0.4881333E-005  0.2241529E+03  0.7818608E-02  0.1044731E+00
         21   -1    0    0  501  502  0.00000000000E+00  0.00000000000E+00  0.22561656408E+03  0.22561656408E+03  0.00000000000E+00 0.  1.
         -4   -1    0    0    0  501 -0.00000000000E+00 -0.00000000000E+00 -0.42701918765E+03  0.42701918765E+03  0.00000000000E+00 0. -1.
        -13    1    1    2    0    0 -0.17553348833E+03 -0.12740587189E+03  0.64331954203E+02  0.22623632160E+03  0.10566000000E+00 0.  1.
         13    1    1    2    0    0  0.16440386362E+03  0.15567389026E+03 -0.30304510151E+03  0.37828472768E+03  0.10566000000E+00 0. -1.
         -4    1    1    2    0  502  0.11129624707E+02 -0.28268018376E+02  0.37310523740E+02  0.48114702439E+02  0.00000000000E+00 0. -1.
</event>
<event>
 5    1  0.5101575E-005  0.5636656E+03  0.7818608E-02  0.9348380E-01
          4   -1    0    0  502    0 -0.00000000000E+00  0.00000000000E+00  0.21694002802E+04  0.21694002802E+04  0.00000000000E+00 0.  1.
         21   -1    0    0  501  502  0.00000000000E+00 -0.00000000000E+00 -0.46491157766E+03  0.46491157766E+03  0.00000000000E+00 0.  1.
        -13    1    1    2    0    0  0.58730634985E+02  0.28534318084E+03 -0.27490008849E+03  0.40054973243E+03  0.10566000000E+00 0.  1.
         13    1    1    2    0    0 -0.40243340066E+03 -0.49073237009E+03  0.11923011912E+04  0.13506861378E+04  0.10566000000E+00 0. -1.
          4    1    1    2  501    0  0.34370276567E+03  0.20538918926E+03  0.78708759981E+03  0.88307598765E+03  0.00000000000E+00 0.  1.
</event>
<event>
 5    1  0.4881333E-005  0.1723117E+03  0.7818608E-02  0.1080975E+00
          4   -1    0    0  502    0 -0.00000000000E+00  0.00000000000E+00  0.45597910681E+02  0.45597910681E+02  0.00000000000E+00 0.  1.
         21   -1    0    0  501  502  0.00000000000E+00 -0.00000000000E+00 -0.81460079580E+03  0.81460079580E+03  0.00000000000E+00 0. -1.
        -13    1    1    2    0    0 -0.45419485390E+02 -0.17630061650E+03 -0.25482046019E+03  0.31317457612E+03  0.10566000000E+00 0.  1.
         13    1    1    2    0    0  0.39864728750E+02  0.15311094000E+03 -0.39554722407E+03  0.42601616657E+03  0.10566000000E+00 0. -1.
          4    1    1    2  501    0  0.55547566397E+01  0.23189676501E+02 -0.11863520086E+03  0.12100796379E+03  0.00000000000E+00 0.  1.
</event>
<event>
 5    1  0.4881333E-005  0.1623075E+03  0.7818608E-02  0.1089570E+00
         21   -1    0    0  501  502  0.00000000000E+00  0.00000000000E+00  0.23913120325E+03  0.23913120325E+03  0.00000000000E+00 0. -1.
          4   -1    0    0  502    0 -0.00000000000E+00 -0.00000000000E+00 -0.18686138101E+03  0.18686138101E+03  0.00000000000E+00 0.  1.
        -13    1    1    2    0    0  0.14800695436E+03 -0.85173728813E+02 -0.79229064995E+02  0.18824951135E+03  0.10566000000E+00 0.  1.
         13    1    1    2    0    0 -0.13470252404E+03  0.40009073639E+02  0.12874339016E+03  0.19057903250E+03  0.10566000000E+00 0. -1.
          4    1    1    2  501    0 -0.13304430327E+02  0.45164655174E+02  0.27554970834E+01  0.47164040407E+02  0.00000000000E+00 0.  1.
</event>
<event>
 5    1  0.4881333E-005  0.1418508E+04  0.7818608E-02  0.8457998E-01
          4   -1    0    0  502    0 -0.00000000000E+00  0.00000000000E+00  0.41863579580E+04  0.41863579580E+04  0.00000000000E+00 0.  1.
         21   -1    0    0  501  502  0.00000000000E+00 -0.00000000000E+00 -0.60475577739E+03  0.60475577739E+03  0.00000000000E+00 0. -1.
        -13    1    1    2    0    0 -0.13941516395E+04  0.27382670217E+03  0.12459638653E+04  0.18897263880E+04  0.10566000000E+00 0.  1.
         13    1    1    2    0    0  0.13930220888E+04 -0.26050824633E+03  0.24262389074E+04  0.28098061024E+04  0.10566000000E+00 0. -1.
          4    1    1    2  501    0  0.11295506963E+01 -0.13318455839E+02 -0.90600592094E+02  0.91581245015E+02  0.00000000000E+00 0.  1.
</event>
<event>
 5    1  0.4881333E-005  0.1968396E+03  0.7818608E-02  0.1093739E+00
         21   -1    0    0  501  502  0.00000000000E+00  0.00000000000E+00  0.82266135924E+03  0.82266135924E+03  0.00000000000E+00 0.  1.
          4   -1    0    0  502    0 -0.00000000000E+00 -0.00000000000E+00 -0.50580812213E+03  0.50580812213E+03  0.00000000000E+00 0.  1.
        -13    1    1    2    0    0 -0.14452268112E+03  0.13567591444E+03  0.77617689796E+03  0.80109009930E+03  0.10566000000E+00 0.  1.
         13    1    1    2    0    0  0.76379740781E+02  0.27364116828E+02 -0.16984093776E+03  0.18822490535E+03  0.10566000000E+00 0. -1.
          4    1    1    2  501    0  0.68142940339E+02 -0.16304003127E+03 -0.28948272308E+03  0.33915447671E+03  0.00000000000E+00 0.  1.
</event>
<event>
 5    1  0.4881333E-005  0.5181322E+03  0.7818608E-02  0.9439092E-01
         21   -1    0    0  501  502  0.00000000000E+00  0.00000000000E+00  0.24616689011E+03  0.24616689011E+03  0.00000000000E+00 0.  1.
         -4   -1    0    0    0  501 -0.00000000000E+00 -0.00000000000E+00 -0.23970849516E+04  0.23970849516E+04  0.00000000000E+00 0. -1.
        -13    1    1    2    0    0 -0.41810207562E+03 -0.12760198900E+03 -0.76283547679E+03  0.87920963885E+03  0.10566000000E+00 0.  1.
         13    1    1    2    0    0  0.73360810109E+03  0.56591276853E+02 -0.76135123183E+03  0.10587913524E+04  0.10566000000E+00 0. -1.
         -4    1    1    2    0  502 -0.31550602547E+03  0.71010712146E+02 -0.62673135284E+03  0.70525085039E+03  0.00000000000E+00 0. -1.
</event>
<event>
 5    1  0.4881333E-005  0.4055571E+03  0.7818608E-02  0.9941246E-01
          4   -1    0    0  502    0 -0.00000000000E+00  0.00000000000E+00  0.16144274006E+04  0.16144274006E+04  0.00000000000E+00 0.  1.
         21   -1    0    0  501  502  0.00000000000E+00 -0.00000000000E+00 -0.24691888520E+03  0.24691888520E+03  0.00000000000E+00 0.  1.
        -13    1    1    2    0    0  0.50278379340E+03  0.21785628318E+02  0.80849053950E+03  0.95232511262E+03  0.10566000000E+00 0.  1.
         13    1    1    2    0    0 -0.13364248076E+03 -0.13070251893E+03  0.48137064962E+03  0.51639246179E+03  0.10566000000E+00 0. -1.
          4    1    1    2  501    0 -0.36914131264E+03  0.10891689061E+03  0.77647326333E+02  0.39262871144E+03  0.00000000000E+00 0.  1.
</event>
<event>
 5    1  0.4881333E-005  0.4923838E+03  0.7818608E-02  0.9653859E-01
          4   -1    0    0  502    0 -0.00000000000E+00  0.00000000000E+00  0.42385120341E+03  0.42385120341E+03  0.00000000000E+00 0.  1.
         21   -1    0    0  501  502  0.00000000000E+00 -0.00000000000E+00 -0.10297019918E+04  0.10297019918E+04  0.00000000000E+00 0.  1.
        -13    1    1    2    0    0  0.27989663490E+03 -0.16715123997E+03  0.62777999071E+02  0.33199811985E+03  0.10566000000E+00 0.  1.
         13    1    1    2    0    0  0.22890333529E+03 -0.15912221873E+03 -0.11387397872E+03  0.30113769540E+03  0.10566000000E+00 0. -1.
          4    1    1    2  501    0 -0.50879997019E+03  0.32627345870E+03 -0.55475480878E+03  0.82041737999E+03  0.00000000000E+00 0.  1.
</event>
<event>
 5    1  0.4881333E-005  0.2909454E+03  0.7818608E-02  0.1024340E+00
         21   -1    0    0  501  502  0.00000000000E+00  0.00000000000E+00  0.16053240149E+03  0.16053240149E+03  0.00000000000E+00 0. -1.
         -4   -1    0    0    0  501 -0.00000000000E+00 -0.00000000000E+00 -0.10549577649E+04  0.10549577649E+04  0.00000000000E+00 0. -1.
        -13    1    1    2    0    0 -0.26779141232E+02 -0.18953335762E+03 -0.32681880923E+03  0.37874867826E+03  0.10566000000E+00 0.  1.
         13    1    1    2    0    0  0.26792109721E+03  0.24630417172E+03 -0.29586165038E+03  0.46902194689E+03  0.10566000000E+00 0. -1.
         -4    1    1    2    0  502 -0.24114195598E+03 -0.56770814093E+02 -0.27174490381E+03  0.36771954124E+03  0.00000000000E+00 0. -1.
</event>
<event>
 5    1  0.4881333E-005  0.3949156E+03  0.7818608E-02  0.9969682E-01
          4   -1    0    0  502    0 -0.00000000000E+00  0.00000000000E+00  0.25450747143E+04  0.25450747143E+04  0.00000000000E+00 0.  1.
         21   -1    0    0  501  502  0.00000000000E+00 -0.00000000000E+00 -0.14020068982E+03  0.14020068982E+03  0.00000000000E+00 0.  1.
        -13    1    1    2    0    0 -0.45011964888E+03  0.16922340459E+03  0.17066819312E+04  0.17731349313E+04  0.10566000000E+00 0.  1.
         13    1    1    2    0    0  0.70389700345E+02 -0.17030658784E+03  0.35648329881E+03  0.40129714336E+03  0.10566000000E+00 0. -1.
          4    1    1    2  501    0  0.37972994854E+03  0.10831832477E+01  0.34170879450E+03  0.51084332954E+03  0.00000000000E+00 0.  1.
</event>
<event>
 5    1  0.4881333E-005  0.3374934E+02  0.7818608E-02  0.1393883E+00
         21   -1    0    0  501  502  0.00000000000E+00  0.00000000000E+00  0.11073588299E+03  0.11073588299E+03  0.00000000000E+00 0. -1.
         -4   -1    0    0    0  501 -0.00000000000E+00 -0.00000000000E+00 -0.62972199497E+02  0.62972199497E+02  0.00000000000E+00 0. -1.
        -13    1    1    2    0    0 -0.44456370635E+01  0.24948326681E+02  0.27645416698E+02  0.37502838846E+02  0.10566000000E+00 0.  1.
         13    1    1    2    0    0  0.22780410600E+02  0.49279061855E+01 -0.51466796914E+02  0.56498439935E+02  0.10566000000E+00 0. -1.
         -4    1    1    2    0  502 -0.18334773536E+02 -0.29876232866E+02  0.71585063709E+02  0.79706803707E+02  0.00000000000E+00 0. -1.
</event>
<event>
 5    1  0.4881333E-005  0.3951250E+03  0.7818608E-02  0.9743231E-01
         21   -1    0    0  501  502  0.00000000000E+00  0.00000000000E+00  0.67442882137E+03  0.67442882137E+03  0.00000000000E+00 0. -1.
          4   -1    0    0  502    0 -0.00000000000E+00 -0.00000000000E+00 -0.37275141381E+03  0.37275141381E+03  0.00000000000E+00 0.  1.
        -13    1    1    2    0    0  0.44107553062E+03 -0.11757650336E+03  0.24694795586E+03  0.51899437562E+03  0.10566000000E+00 0.  1.
         13    1    1    2    0    0 -0.34701656948E+03  0.13043839987E+03 -0.63961214743E+02  0.37619904812E+03  0.10566000000E+00 0. -1.
          4    1    1    2  501    0 -0.94058961140E+02 -0.12861896510E+02  0.11869066645E+03  0.15198681145E+03  0.00000000000E+00 0.  1.
</event>
<event>
 5    1  0.4881333E-005  0.5958691E+02  0.7818608E-02  0.1257032E+00
         21   -1    0    0  501  502  0.00000000000E+00  0.00000000000E+00  0.44534367726E+02  0.44534367726E+02  0.00000000000E+00 0.  1.
         -4   -1    0    0    0  501 -0.00000000000E+00 -0.00000000000E+00 -0.12347680078E+03  0.12347680078E+03  0.00000000000E+00 0. -1.
        -13    1    1    2    0    0 -0.62215513428E+02 -0.25911083150E+02 -0.34448597736E+02  0.75689308301E+02  0.10566000000E+00 0.  1.
         13    1    1    2    0    0  0.52092643547E+02  0.18242994516E+02 -0.53409654792E+02  0.76805291157E+02  0.10566000000E+00 0. -1.
         -4    1    1    2    0  502  0.10122869880E+02  0.76680886335E+01  0.89158194786E+01  0.15516569044E+02  0.00000000000E+00 0. -1.
</event>
<event>
 5    1  0.4881333E-005  0.4964140E+03  0.7818608E-02  0.9616894E-01
         21   -1    0    0  501  502  0.00000000000E+00  0.00000000000E+00  0.59298143260E+03  0.59298143260E+03  0.00000000000E+00 0. -1.
         -4   -1    0    0    0  501 -0.00000000000E+00 -0.00000000000E+00 -0.12541935911E+04  0.12541935911E+04  0.00000000000E+00 0. -1.
        -13    1    1    2    0    0  0.25001132773E+03 -0.18323197466E+03 -0.72806528380E+03  0.79130189509E+03  0.10566000000E+00 0.  1.
         13    1    1    2    0    0  0.14174892777E+03  0.50753939876E+03  0.13172045649E+03  0.54317519240E+03  0.10566000000E+00 0. -1.
         -4    1    1    2    0  502 -0.39176025550E+03 -0.32430742411E+03 -0.64867331175E+02  0.51269793619E+03  0.00000000000E+00 0. -1.
</event>
<event>
 5    1  0.4881333E-005  0.4260908E+03  0.7818608E-02  0.9755847E-01
          4   -1    0    0  502    0 -0.00000000000E+00  0.00000000000E+00  0.32461825268E+04  0.32461825268E+04  0.00000000000E+00 0.  1.
         21   -1    0    0  501  502  0.00000000000E+00 -0.00000000000E+00 -0.16218140821E+03  0.16218140821E+03  0.00000000000E+00 0.  1.
        -13    1    1    2    0    0 -0.10208419195E+03 -0.51872530024E+03  0.12974241175E+04  0.14010019526E+04  0.10566000000E+00 0.  1.
         13    1    1    2    0    0 -0.19501801287E+03  0.23016237574E+03  0.14280508521E+04  0.14595670563E+04  0.10566000000E+00 0. -1.
          4    1    1    2  501    0  0.29710220481E+03  0.28856292450E+03  0.35852614889E+03  0.54779492599E+03  0.00000000000E+00 0.  1.
</event>
<event>
 5    1  0.4881333E-005  0.7228758E+02  0.7818608E-02  0.1220850E+00
          4   -1    0    0  502    0 -0.00000000000E+00  0.00000000000E+00  0.96950753814E+02  0.96950753814E+02  0.00000000000E+00 0.  1.
         21   -1    0    0  501  502  0.00000000000E+00 -0.00000000000E+00 -0.90522573261E+02  0.90522573261E+02  0.00000000000E+00 0.  1.
        -13    1    1    2    0    0 -0.48156615228E+02  0.63458741229E+02  0.28442715451E+02  0.84587650723E+02  0.10566000000E+00 0.  1.
         13    1    1    2    0    0  0.51830519998E+02 -0.40392388318E+02  0.64933019884E+01  0.66031219677E+02  0.10566000000E+00 0. -1.
          4    1    1    2  501    0 -0.36739047695E+01 -0.23066352911E+02 -0.28507836887E+02  0.36854456675E+02  0.00000000000E+00 0.  1.
</event>
<event>
 5    1  0.4881333E-005  0.4950716E+03  0.7818608E-02  0.9584863E-01
         21   -1    0    0  501  502  0.00000000000E+00  0.00000000000E+00  0.14898118285E+03  0.14898118285E+03  0.00000000000E+00 0. -1.
         -4   -1    0    0    0  501 -0.00000000000E+00 -0.00000000000E+00 -0.34606809275E+04  0.34606809275E+04  0.00000000000E+00 0. -1.
        -13    1    1    2    0    0  0.27658872874E+03  0.21480576748E+03 -0.10935818369E+04  0.11482874587E+04  0.10566000000E+00 0.  1.
         13    1    1    2    0    0  0.12823590393E+03  0.27214041404E+03 -0.13716422667E+04  0.14042461931E+04  0.10566000000E+00 0. -1.
         -4    1    1    2    0  502 -0.40482463266E+03 -0.48694618152E+03 -0.84647564105E+03  0.10571284585E+04  0.00000000000E+00 0. -1.
</event>
<event>
 5    1  0.4881333E-005  0.1605722E+03  0.7818608E-02  0.1091129E+00
         -4   -1    0    0    0  501 -0.00000000000E+00  0.00000000000E+00  0.91685811421E+03  0.91685811421E+03  0.00000000000E+00 0. -1.
         21   -1    0    0  501  502  0.00000000000E+00 -0.00000000000E+00 -0.68162985033E+02  0.68162985033E+02  0.00000000000E+00 0. -1.
        -13    1    1    2    0    0 -0.73499075628E+02 -0.96217027524E+02  0.97863283519E+02  0.15568257426E+03  0.10566000000E+00 0.  1.
         13    1    1    2    0    0  0.84645523368E+02  0.15271138954E+03  0.75173747168E+03  0.77174793204E+03  0.10566000000E+00 0. -1.
         -4    1    1    2    0  502 -0.11146447740E+02 -0.56494362015E+02 -0.90562601760E+00  0.57590592940E+02  0.00000000000E+00 0. -1.
</event>
<event>
 5    1  0.4881333E-005  0.5383494E+03  0.7818608E-02  0.9665506E-01
         21   -1    0    0  501  502  0.00000000000E+00  0.00000000000E+00  0.36438057473E+03  0.36438057473E+03  0.00000000000E+00 0. -1.
         -4   -1    0    0    0  501 -0.00000000000E+00 -0.00000000000E+00 -0.11983883670E+04  0.11983883670E+04  0.00000000000E+00 0. -1.
        -13    1    1    2    0    0  0.16365661351E+03 -0.12302914575E+03 -0.14967219629E+03  0.25361670954E+03  0.10566000000E+00 0.  1.
         13    1    1    2    0    0 -0.18209919929E+02 -0.48650867597E+03 -0.25554179010E+03  0.54983989545E+03  0.10566000000E+00 0. -1.
         -4    1    1    2    0  502 -0.14544669358E+03  0.60953782172E+03 -0.42879380590E+03  0.75931233676E+03  0.00000000000E+00 0. -1.
</event>
<event>
 5    1  0.4881333E-005  0.5076977E+03  0.7818608E-02  0.9610259E-01
         -4   -1    0    0    0  501 -0.00000000000E+00  0.00000000000E+00  0.26455406403E+04  0.26455406403E+04  0.00000000000E+00 0. -1.
         21   -1    0    0  501  502  0.00000000000E+00 -0.00000000000E+00 -0.18155000951E+03  0.18155000951E+03  0.00000000000E+00 0. -1.
        -13    1    1    2    0    0 -0.28785604808E+03 -0.71722676799E+02  0.72209384956E+03  0.78065663740E+03  0.10566000000E+00 0.  1.
         13    1    1    2    0    0 -0.32072825935E+03 -0.22613988577E+03  0.72669664037E+03  0.82588975207E+03  0.10566000000E+00 0. -1.
         -4    1    1    2    0  502  0.60858430743E+03  0.29786256257E+03  0.10152001408E+04  0.12205442603E+04  0.00000000000E+00 0. -1.
</event>
<event>
 5    1  0.4881333E-005  0.6521183E+03  0.7818608E-02  0.9195490E-01
         21   -1    0    0  501  502  0.00000000000E+00  0.00000000000E+00  0.50867962445E+03  0.50867962445E+03  0.00000000000E+00 0. -1.
         -4   -1    0    0    0  501 -0.00000000000E+00 -0.00000000000E+00 -0.20728645332E+04  0.20728645332E+04  0.00000000000E+00 0. -1.
        -13    1    1    2    0    0  0.45071610912E+03  0.40912067953E+03 -0.12486962410E+04  0.13891605577E+04  0.10566000000E+00 0.  1.
         13    1    1    2    0    0 -0.48322445981E+03 -0.66576631924E+03 -0.40719974012E+03  0.91791192928E+03  0.10566000000E+00 0. -1.
         -4    1    1    2    0  502  0.32508350697E+02  0.25664563971E+03  0.91711072374E+02  0.27447167074E+03  0.00000000000E+00 0. -1.
</event>
<event>
 5    1  0.4881333E-005  0.6698608E+02  0.7818608E-02  0.1234865E+00
         -4   -1    0    0    0  501 -0.00000000000E+00  0.00000000000E+00  0.45423087507E+03  0.45423087507E+03  0.00000000000E+00 0. -1.
         21   -1    0    0  501  502  0.00000000000E+00 -0.00000000000E+00 -0.16364923296E+02  0.16364923296E+02  0.00000000000E+00 0. -1.
        -13    1    1    2    0    0 -0.61696210373E+02 -0.20088240029E+02  0.16277068942E+03  0.17522633438E+03  0.10566000000E+00 0.  1.
         13    1    1    2    0    0  0.59570125210E+02  0.34988784995E+02  0.27114556370E+03  0.27980840368E+03  0.10566000000E+00 0. -1.
         -4    1    1    2    0  502  0.21260851628E+01 -0.14900544966E+02  0.39496986562E+01  0.15561060307E+02  0.00000000000E+00 0. -1.
</event>
<event>
 5    1  0.4881333E-005  0.8331686E+02  0.7818608E-02  0.1195564E+00
         -4   -1    0    0    0  501 -0.00000000000E+00  0.00000000000E+00  0.14215539560E+03  0.14215539560E+03  0.00000000000E+00 0. -1.
         21   -1    0    0  501  502  0.00000000000E+00 -0.00000000000E+00 -0.66721504655E+03  0.66721504655E+03  0.00000000000E+00 0. -1.
        -13    1    1    2    0    0 -0.79436156440E+02  0.38780552230E+02 -0.32579504060E+03  0.33757436785E+03  0.10566000000E+00 0.  1.
         13    1    1    2    0    0  0.17195615371E+02 -0.82691464501E+02  0.11822589029E+03  0.14529604189E+03  0.10566000000E+00 0. -1.
         -4    1    1    2    0  502  0.62240541069E+02  0.43910912271E+02 -0.31749050064E+03  0.32650003241E+03  0.00000000000E+00 0. -1.
</event>
<event>
 5    1  0.4881333E-005  0.1846977E+03  0.7818608E-02  0.1093941E+00
         21   -1    0    0  501  502  0.00000000000E+00  0.00000000000E+00  0.54589114929E+02  0.54589114929E+02  0.00000000000E+00 0.  1.
          4   -1    0    0  502    0 -0.00000000000E+00 -0.00000000000E+00 -0.11337478482E+04  0.11337478482E+04  0.00000000000E+00 0.  1.
        -13    1    1    2    0    0 -0.16828108635E+03 -0.11506411796E+03 -0.45769113325E+03  0.50103838165E+03  0.10566000000E+00 0.  1.
         13    1    1    2    0    0 -0.68194556948E+01  0.97427121075E+02 -0.11364250932E+03  0.14984385201E+03  0.10566000000E+00 0. -1.
          4    1    1    2  501    0  0.17510054204E+03  0.17636996888E+02 -0.50782509067E+03  0.53745472944E+03  0.00000000000E+00 0.  1.
</event>
<event>
 5    1  0.4881333E-005  0.1318399E+03  0.7818608E-02  0.1120543E+00
         21   -1    0    0  501  502  0.00000000000E+00  0.00000000000E+00  0.40883429113E+03  0.40883429113E+03  0.00000000000E+00 0.  1.
         -4   -1    0    0    0  501 -0.00000000000E+00 -0.00000000000E+00 -0.45296357982E+03  0.45296357982E+03  0.00000000000E+00 0. -1.
        -13    1    1    2    0    0 -0.12701071850E+03 -0.51221949783E+02  0.59026795344E+02  0.14912942193E+03  0.10566000000E+00 0.  1.
         13    1    1    2    0    0  0.13105476341E+03  0.13996732650E+02 -0.39604269720E+03  0.41739799797E+03  0.10566000000E+00 0. -1.
         -4    1    1    2    0  502 -0.40440449092E+01  0.37225217132E+02  0.29288661317E+03  0.29527045105E+03  0.00000000000E+00 0. -1.
</event>
<event>
 5    1  0.4881333E-005  0.3798272E+03  0.7818608E-02  0.1006647E+00
          4   -1    0    0  502    0 -0.00000000000E+00  0.00000000000E+00  0.20437724069E+04  0.20437724069E+04  0.00000000000E+00 0.  1.
         21   -1    0    0  501  502  0.00000000000E+00 -0.00000000000E+00 -0.16818950340E+03  0.16818950340E+03  0.00000000000E+00 0.  1.
        -13    1    1    2    0    0 -0.17387853495E+03  0.30882081772E+03  0.25145989659E+03  0.43455279671E+03  0.10566000000E+00 0.  1.
         13    1    1    2    0    0 -0.17110787945E+02  0.15002740414E+03  0.11871467662E+03  0.19207859502E+03  0.10566000000E+00 0. -1.
          4    1    1    2  501    0  0.19098932290E+03 -0.45884822186E+03  0.15054083303E+04  0.15853305186E+04  0.00000000000E+00 0.  1.
</event>
<event>
 5    1  0.4881333E-005  0.2637161E+03  0.7818608E-02  0.1023520E+00
          4   -1    0    0  502    0 -0.00000000000E+00  0.00000000000E+00  0.31854566852E+03  0.31854566852E+03  0.00000000000E+00 0.  1.
         21   -1    0    0  501  502  0.00000000000E+00 -0.00000000000E+00 -0.37033205135E+03  0.37033205135E+03  0.00000000000E+00 0. -1.
        -13    1    1    2    0    0  0.25392253246E+03  0.89620336467E+02  0.15430768080E+03  0.31035355438E+03  0.10566000000E+00 0.  1.
         13    1    1    2    0    0 -0.23590890012E+03 -0.84606081882E+02 -0.98444840418E+02  0.26926306100E+03  0.10566000000E+00 0. -1.
          4    1    1    2  501    0 -0.18013632334E+02 -0.50142545858E+01 -0.10764922321E+03  0.10926110450E+03  0.00000000000E+00 0.  1.
</event>
<event>
 5    1  0.4881333E-005  0.9601902E+03  0.7818608E-02  0.8812922E-01
         21   -1    0    0  501  502  0.00000000000E+00  0.00000000000E+00  0.93774899579E+03  0.93774899579E+03  0.00000000000E+00 0. -1.
         -4   -1    0    0    0  501 -0.00000000000E+00 -0.00000000000E+00 -0.13401087365E+04  0.13401087365E+04  0.00000000000E+00 0. -1.
        -13    1    1    2    0    0 -0.13505685418E+03  0.89305448106E+03 -0.17216753464E+03  0.91947176746E+03  0.10566000000E+00 0.  1.
         13    1    1    2    0    0  0.41765561785E+03 -0.96015875511E+03 -0.15616897675E+03  0.10586452714E+04  0.10566000000E+00 0. -1.
         -4    1    1    2    0  502 -0.28259876366E+03  0.67104274041E+02 -0.74023229273E+02  0.29974069342E+03  0.00000000000E+00 0. -1.
</event>
<event>
 5    1  0.4881333E-005  0.3595021E+03  0.7818608E-02  0.9853901E-01
         21   -1    0    0  501  502  0.00000000000E+00  0.00000000000E+00  0.78153375683E+02  0.78153375683E+02  0.00000000000E+00 0.  1.
          4   -1    0    0  502    0 -0.00000000000E+00 -0.00000000000E+00 -0.31109128238E+04  0.31109128238E+04  0.00000000000E+00 0.  1.
        -13    1    1    2    0    0  0.31316082210E+03  0.19164205130E+03 -0.19677548966E+04  0.20017131964E+04  0.10566000000E+00 0.  1.
         13    1    1    2    0    0 -0.29924016745E+03 -0.17653683489E+03 -0.10962340050E+04  0.11499734505E+04  0.10566000000E+00 0. -1.
          4    1    1    2  501    0 -0.13920654650E+02 -0.15105216409E+02  0.31229453496E+02  0.37379552623E+02  0.00000000000E+00 0.  1.
</event>
<event>
 5    1  0.4881333E-005  0.3131185E+03  0.7818608E-02  0.1002032E+00
          4   -1    0    0  502    0 -0.00000000000E+00  0.00000000000E+00  0.19469372686E+04  0.19469372686E+04  0.00000000000E+00 0.  1.
         21   -1    0    0  501  502  0.00000000000E+00 -0.00000000000E+00 -0.23632343406E+03  0.23632343406E+03  0.00000000000E+00 0.  1.
        -13    1    1    2    0    0 -0.24394763410E+03 -0.30980118919E+03  0.11032222819E+04  0.11715744276E+04  0.10566000000E+00 0.  1.
         13    1    1    2    0    0  0.24027081436E+03  0.12158156179E+03  0.73598676348E+03  0.78370189969E+03  0.10566000000E+00 0. -1.
          4    1    1    2  501    0  0.36768197400E+01  0.18821962740E+03 -0.12859521085E+03  0.22798437533E+03  0.00000000000E+00 0.  1.
</event>
<event>
 5    1  0.4881333E-005  0.2357486E+03  0.7818608E-02  0.1051041E+00
         21   -1    0    0  501  502  0.00000000000E+00  0.00000000000E+00  0.15675149283E+03  0.15675149283E+03  0.00000000000E+00 0.  1.
          4   -1    0    0  502    0 -0.00000000000E+00 -0.00000000000E+00 -0.26991894238E+04  0.26991894238E+04  0.00000000000E+00 0.  1.
        -13    1    1    2    0    0  0.36833436310E+03 -0.62103429654E+02 -0.16083894016E+04  0.16511945728E+04  0.10566000000E+00 0.  1.
         13    1    1    2    0    0 -0.15769569774E+03 -0.24520527072E+02 -0.96212154692E+03  0.97526769225E+03  0.10566000000E+00 0. -1.
          4    1    1    2  501    0 -0.21063866537E+03  0.86623956726E+02  0.28073017498E+02  0.22947865159E+03  0.00000000000E+00 0.  1.
</event>
<event>
 5    1  0.4881333E-005  0.5452102E+03  0.7818608E-02  0.9384029E-01
         21   -1    0    0  501  502  0.00000000000E+00  0.00000000000E+00  0.23116602839E+03  0.23116602839E+03  0.00000000000E+00 0.  1.
          4   -1    0    0  502    0 -0.00000000000E+00 -0.00000000000E+00 -0.33397020796E+04  0.33397020796E+04  0.00000000000E+00 0.  1.
        -13    1    1    2    0    0  0.15991566523E+03  0.52438938092E+03 -0.14928488110E+04  0.15903316719E+04  0.10566000000E+00 0.  1.
         13    1    1    2    0    0  0.16191553088E+03 -0.56851788303E+03 -0.15363481306E+04  0.16461454407E+04  0.10566000000E+00 0. -1.
          4    1    1    2  501    0 -0.32183119611E+03  0.44128502116E+02 -0.79339109580E+02  0.33439099539E+03  0.00000000000E+00 0.  1.
</event>
<event>
 5    1  0.4881333E-005  0.4941281E+03  0.7818608E-02  0.9490936E-01
         21   -1    0    0  501  502  0.00000000000E+00  0.00000000000E+00  0.12972390874E+04  0.12972390874E+04  0.00000000000E+00 0.  1.
         -4   -1    0    0    0  501 -0.00000000000E+00 -0.00000000000E+00 -0.32237670108E+03  0.32237670108E+03  0.00000000000E+00 0. -1.
        -13    1    1    2    0    0 -0.38488233375E+03 -0.30237813202E+03  0.14150149457E+03  0.50949939125E+03  0.10566000000E+00 0.  1.
         13    1    1    2    0    0  0.39215213977E+03  0.31120953919E+03  0.31470061139E+03  0.59132999584E+03  0.10566000000E+00 0. -1.
         -4    1    1    2    0  502 -0.72698060231E+01 -0.88314071637E+01  0.51866028032E+03  0.51878640134E+03  0.00000000000E+00 0. -1.
</event>
<event>
 5    1  0.4881333E-005  0.4677475E+03  0.7818608E-02  0.9774349E-01
          4   -1    0    0  502    0 -0.00000000000E+00  0.00000000000E+00  0.30694636168E+04  0.30694636168E+04  0.00000000000E+00 0.  1.
         21   -1    0    0  501  502  0.00000000000E+00 -0.00000000000E+00 -0.14694971027E+03  0.14694971027E+03  0.00000000000E+00 0.  1.
        -13    1    1    2    0    0  0.47027014503E+03  0.25269935607E+03  0.11794879115E+04  0.12946824778E+04  0.10566000000E+00 0.  1.
         13    1    1    2    0    0 -0.24198608485E+02 -0.21261295168E+03  0.11948409911E+04  0.12138512450E+04  0.10566000000E+00 0. -1.
          4    1    1    2  501    0 -0.44607153654E+03 -0.40086404386E+02  0.54818500392E+03  0.70787960421E+03  0.00000000000E+00 0.  1.
</event>
<event>
 5    1  0.4881333E-005  0.3722575E+03  0.7818608E-02  0.9953593E-01
         21   -1    0    0  501  502  0.00000000000E+00  0.00000000000E+00  0.12393137936E+03  0.12393137936E+03  0.00000000000E+00 0. -1.
         -4   -1    0    0    0  501 -0.00000000000E+00 -0.00000000000E+00 -0.32024297938E+04  0.32024297938E+04  0.00000000000E+00 0. -1.
        -13    1    1    2    0    0 -0.22829943727E+03  0.41433934251E+02 -0.55839790432E+03  0.60468639366E+03  0.10566000000E+00 0.  1.
         13    1    1    2    0    0  0.56136706006E+03 -0.66571209812E+02 -0.21502716833E+04  0.22233382616E+04  0.10566000000E+00 0. -1.
         -4    1    1    2    0  502 -0.33306762279E+03  0.25137275560E+02 -0.36982882684E+03  0.49833651796E+03  0.00000000000E+00 0. -1.
</event>
<event>
 5    1  0.4881333E-005  0.4923683E+03  0.7818608E-02  0.9660213E-01
         21   -1    0    0  501  502  0.00000000000E+00  0.00000000000E+00  0.32530005212E+03  0.32530005212E+03  0.00000000000E+00 0.  1.
          4   -1    0    0  502    0 -0.00000000000E+00 -0.00000000000E+00 -0.15947378501E+04  0.15947378501E+04  0.00000000000E+00 0.  1.
        -13    1    1    2    0    0 -0.42875619787E+03  0.17493514132E+03 -0.39756050810E+03  0.61031840022E+03  0.10566000000E+00 0.  1.
         13    1    1    2    0    0  0.95820626280E+02  0.25525429887E+03 -0.68045736655E+03  0.73304746666E+03  0.10566000000E+00 0. -1.
          4    1    1    2  501    0  0.33293557159E+03 -0.43018944019E+03 -0.19141992332E+03  0.57667203533E+03  0.00000000000E+00 0.  1.
</event>
<event>
 5    1  0.4881333E-005  0.3269958E+03  0.7818608E-02  0.1022325E+00
          4   -1    0    0  502    0 -0.00000000000E+00  0.00000000000E+00  0.14776830451E+04  0.14776830451E+04  0.00000000000E+00 0.  1.
         21   -1    0    0  501  502  0.00000000000E+00 -0.00000000000E+00 -0.28326486864E+03  0.28326486864E+03  0.00000000000E+00 0.  1.
        -13    1    1    2    0    0 -0.44375301672E+03 -0.60938989689E+02  0.66678317028E+03  0.80326216620E+03  0.10566000000E+00 0.  1.
         13    1    1    2    0    0  0.13574856804E+03  0.46870804807E+02  0.61952963330E+03  0.63595717133E+03  0.10566000000E+00 0. -1.
          4    1    1    2  501    0  0.30800444868E+03  0.14068184882E+02 -0.91894627141E+02  0.32172857618E+03  0.00000000000E+00 0.  1.
</event>
<event>
 5    1  0.4881333E-005  0.3499897E+03  0.7818608E-02  0.9885768E-01
          4   -1    0    0  502    0 -0.00000000000E+00  0.00000000000E+00  0.73171823507E+03  0.73171823507E+03  0.00000000000E+00 0.  1.
         21   -1    0    0  501  502  0.00000000000E+00 -0.00000000000E+00 -0.65303851859E+03  0.65303851859E+03  0.00000000000E+00 0. -1.
        -13    1    1    2    0    0 -0.16965313653E+03 -0.31105164850E+03  0.61563610197E+03  0.71031199905E+03  0.10566000000E+00 0.  1.
         13    1    1    2    0    0  0.11757166816E+03  0.29434295139E+03 -0.31884924784E+03  0.44958394567E+03  0.10566000000E+00 0. -1.
          4    1    1    2  501    0  0.52081468374E+02  0.16708697114E+02 -0.21810713765E+03  0.22486080895E+03  0.00000000000E+00 0.  1.
</event>
<event>
 5    1  0.4881333E-005  0.4159302E+03  0.7818608E-02  0.9733479E-01
         21   -1    0    0  501  502  0.00000000000E+00  0.00000000000E+00  0.18877435949E+03  0.18877435949E+03  0.00000000000E+00 0.  1.
         -4   -1    0    0    0  501 -0.00000000000E+00 -0.00000000000E+00 -0.26995973069E+04  0.26995973069E+04  0.00000000000E+00 0. -1.
        -13    1    1    2    0    0  0.25226421593E+03  0.24313563160E+03 -0.50784332801E+03  0.61697408937E+03  0.10566000000E+00 0.  1.
         13    1    1    2    0    0  0.21790519013E+03 -0.19587719835E+03 -0.16646178197E+04  0.16902079888E+04  0.10566000000E+00 0. -1.
         -4    1    1    2    0  502 -0.47016940606E+03 -0.47258433252E+02 -0.33836179973E+03  0.58118958819E+03  0.00000000000E+00 0. -1.
</event>
<event>
 5    1  0.4881333E-005  0.3956691E+02  0.7818608E-02  0.1356357E+00
         21   -1    0    0  501  502  0.00000000000E+00  0.00000000000E+00  0.35389658099E+03  0.35389658099E+03  0.00000000000E+00 0.  1.
         -4   -1    0    0    0  501 -0.00000000000E+00 -0.00000000000E+00 -0.24098624311E+02  0.24098624311E+02  0.00000000000E+00 0. -1.
        -13    1    1    2    0    0 -0.29452547284E+02 -0.64257540569E+01  0.61338998616E+02  0.68346373511E+02  0.10566000000E+00 0.  1.
         13    1    1    2    0    0  0.19105976923E+02 -0.32761926900E+02 -0.22325040231E+00  0.37926813907E+02  0.10566000000E+00 0. -1.
         -4    1    1    2    0  502  0.10346570361E+02  0.39187680957E+02  0.26868220847E+03  0.27172201789E+03  0.00000000000E+00 0. -1.
</event>
<event>
 5    1  0.4881333E-005  0.4161378E+03  0.7818608E-02  0.9683561E-01
         21   -1    0    0  501  502  0.00000000000E+00  0.00000000000E+00  0.38476944028E+03  0.38476944028E+03  0.00000000000E+00 0.  1.
          4   -1    0    0  502    0 -0.00000000000E+00 -0.00000000000E+00 -0.21885494229E+04  0.21885494229E+04  0.00000000000E+00 0.  1.
        -13    1    1    2    0    0  0.40155678773E+03  0.30799511466E+03 -0.60413072172E+03  0.78808805632E+03  0.10566000000E+00 0.  1.
         13    1    1    2    0    0 -0.42032339691E+03  0.76688157142E+02 -0.13154170368E+04  0.13830671796E+04  0.10566000000E+00 0. -1.
          4    1    1    2  501    0  0.18766609184E+02 -0.38468327180E+03  0.11576777581E+03  0.40216362732E+03  0.00000000000E+00 0.  1.
</event>
<event>
 5    1  0.4881333E-005  0.5753346E+03  0.7818608E-02  0.9326999E-01
         -4   -1    0    0    0  501 -0.00000000000E+00  0.00000000000E+00  0.20687713829E+04  0.20687713829E+04  0.00000000000E+00 0. -1.
         21   -1    0    0  501  502  0.00000000000E+00 -0.00000000000E+00 -0.49412149714E+03  0.49412149714E+03  0.00000000000E+00 0. -1.
        -13    1    1    2    0    0 -0.59654295177E+03 -0.42099349129E+03  0.31982618393E+03  0.79711217034E+03  0.10566000000E+00 0.  1.
         13    1    1    2    0    0  0.44909156622E+02  0.58604367545E+03  0.94244854633E+03  0.11107084656E+04  0.10566000000E+00 0. -1.
         -4    1    1    2    0  502  0.55163379515E+03 -0.16505018416E+03  0.31237515552E+03  0.65507224413E+03  0.00000000000E+00 0. -1.
</event>
<event>
 5    1  0.4881333E-005  0.4691982E+02  0.7818608E-02  0.1304864E+00
         21   -1    0    0  501  502  0.00000000000E+00  0.00000000000E+00  0.11827841367E+02  0.11827841367E+02  0.00000000000E+00 0. -1.
          4   -1    0    0  502    0 -0.00000000000E+00 -0.00000000000E+00 -0.31253454625E+03  0.31253454625E+03  0.00000000000E+00 0.  1.
        -13    1    1    2    0    0  0.13488361095E+02  0.50098160611E+02 -0.23157031733E+03  0.23731115569E+03  0.10566000000E+00 0.  1.
         13    1    1    2    0    0 -0.85776917588E+01 -0.34073189547E+02 -0.38451601503E+02  0.52087386804E+02  0.10566000000E+00 0. -1.
          4    1    1    2  501    0 -0.49106693363E+01 -0.16024971064E+02 -0.30684786047E+02  0.34963845121E+02  0.00000000000E+00 0.  1.
</event>
<event>
 5    1  0.4881333E-005  0.6370803E+03  0.7818608E-02  0.9475961E-01
         21   -1    0    0  501  502  0.00000000000E+00  0.00000000000E+00  0.41597963472E+03  0.41597963472E+03  0.00000000000E+00 0. -1.
          4   -1    0    0  502    0 -0.00000000000E+00 -0.00000000000E+00 -0.26492983527E+04  0.26492983527E+04  0.00000000000E+00 0.  1.
        -13    1    1    2    0    0 -0.81298860292E+02 -0.19255685371E+03 -0.10773353945E+04  0.10974238972E+04  0.10566000000E+00 0.  1.
         13    1    1    2    0    0 -0.11501445198E+03  0.79863637169E+03 -0.10464874161E+04  0.13214326701E+04  0.10566000000E+00 0. -1.
          4    1    1    2  501    0  0.19631331228E+03 -0.60607951798E+03 -0.10949590732E+03  0.64642142013E+03  0.00000000000E+00 0.  1.
</event>
<event>
 5    1  0.4881333E-005  0.3628803E+03  0.7818608E-02  0.9842835E-01
         21   -1    0    0  501  502  0.00000000000E+00  0.00000000000E+00  0.33768578467E+03  0.33768578467E+03  0.00000000000E+00 0.  1.
          4   -1    0    0  502    0 -0.00000000000E+00 -0.00000000000E+00 -0.15264814665E+04  0.15264814665E+04  0.00000000000E+00 0.  1.
        -13    1    1    2    0    0  0.23819953119E+03  0.40203299082E+03 -0.80630722364E+03  0.93193395282E+03  0.10566000000E+00 0.  1.
         13    1    1    2    0    0 -0.15544048368E+03 -0.25943223804E+03 -0.59250562090E+03  0.66522909743E+03  0.10566000000E+00 0. -1.
          4    1    1    2  501    0 -0.82759047516E+02 -0.14260075278E+03  0.21001716275E+03  0.26700420088E+03  0.00000000000E+00 0.  1.
</event>
<event>
 5    1  0.4881333E-005  0.5143686E+03  0.7818608E-02  0.9477267E-01
         -4   -1    0    0    0  501 -0.00000000000E+00  0.00000000000E+00  0.17107698064E+04  0.17107698064E+04  0.00000000000E+00 0. -1.
         21   -1    0    0  501  502  0.00000000000E+00 -0.00000000000E+00 -0.56886319363E+03  0.56886319363E+03  0.00000000000E+00 0. -1.
        -13    1    1    2    0    0 -0.16646037865E+03  0.51754543446E+03  0.10201268384E+04  0.11559503069E+04  0.10566000000E+00 0.  1.
         13    1    1    2    0    0 -0.37123686745E+03 -0.51216151592E+02  0.16747379685E+03  0.41047215464E+03  0.10566000000E+00 0. -1.
         -4    1    1    2    0  502  0.53769724610E+03 -0.46632928287E+03 -0.45694022498E+02  0.71321053849E+03  0.00000000000E+00 0. -1.
</event>
<event>
 5    1  0.4881333E-005  0.3447402E+03  0.7818608E-02  0.9903818E-01
         -4   -1    0    0    0  501 -0.00000000000E+00  0.00000000000E+00  0.88228194790E+03  0.88228194790E+03  0.00000000000E+00 0. -1.
         21   -1    0    0  501  502  0.00000000000E+00 -0.00000000000E+00 -0.20365436078E+03  0.20365436078E+03  0.00000000000E+00 0.  1.
        -13    1    1    2    0    0 -0.13906843603E+03  0.29859145827E+03  0.30603841830E+02  0.33080733842E+03  0.10566000000E+00 0.  1.
         13    1    1    2    0    0  0.13448495677E+03 -0.32243508875E+03  0.64071704127E+03  0.72977320326E+03  0.10566000000E+00 0. -1.
         -4    1    1    2    0  502  0.45834792629E+01  0.23843630480E+02  0.73067040141E+01  0.25355767000E+02  0.00000000000E+00 0. -1.
</event>
<event>
 5    1  0.4881333E-005  0.4198729E+03  0.7818608E-02  0.9673344E-01
         -4   -1    0    0    0  501 -0.00000000000E+00  0.00000000000E+00  0.19165733536E+04  0.19165733536E+04  0.00000000000E+00 0. -1.
         21   -1    0    0  501  502  0.00000000000E+00 -0.00000000000E+00 -0.46250663481E+03  0.46250663481E+03  0.00000000000E+00 0. -1.
        -13    1    1    2    0    0 -0.35299426321E+03  0.26776466751E+03  0.11573876974E+04  0.12392938151E+04  0.10566000000E+00 0.  1.
         13    1    1    2    0    0  0.35563916946E+02 -0.48001688773E+03  0.51091693559E+03  0.70193812472E+03  0.10566000000E+00 0. -1.
         -4    1    1    2    0  502  0.31743034626E+03  0.21225222022E+03 -0.21423791420E+03  0.43784804853E+03  0.00000000000E+00 0. -1.
</event>
<event>
 5    1  0.4881333E-005  0.7121027E+02  0.7818608E-02  0.1248430E+00
          4   -1    0    0  502    0 -0.00000000000E+00  0.00000000000E+00  0.95684657943E+02  0.95684657943E+02  0.00000000000E+00 0.  1.
         21   -1    0    0  501  502  0.00000000000E+00 -0.00000000000E+00 -0.15369854436E+03  0.15369854436E+03  0.00000000000E+00 0. -1.
        -13    1    1    2    0    0  0.37556078212E+02 -0.64791130281E+01  0.65066672086E+02  0.75406371725E+02  0.10566000000E+00 0.  1.
         13    1    1    2    0    0  0.41466776216E+02 -0.51499803009E+01 -0.54675946739E+02  0.68814868616E+02  0.10566000000E+00 0. -1.
          4    1    1    2  501    0 -0.79022854427E+02  0.11629093329E+02 -0.68404611768E+02  0.10516196197E+03  0.00000000000E+00 0.  1.
</event>
<event>
 5    1  0.4881333E-005  0.4967888E+03  0.7818608E-02  0.9613756E-01
         21   -1    0    0  501  502  0.00000000000E+00  0.00000000000E+00  0.76110067307E+03  0.76110067307E+03  0.00000000000E+00 0. -1.
         -4   -1    0    0    0  501 -0.00000000000E+00 -0.00000000000E+00 -0.13659778579E+04  0.13659778579E+04  0.00000000000E+00 0. -1.
        -13    1    1    2    0    0 -0.67059060612E+02  0.30545207932E+03 -0.97120027237E+03  0.10203077333E+04  0.10566000000E+00 0.  1.
         13    1    1    2    0    0  0.35817281557E+02  0.35566660618E+03  0.15776318629E+02  0.35781352099E+03  0.10566000000E+00 0. -1.
         -4    1    1    2    0  502  0.31241779055E+02 -0.66111868550E+03  0.35054676893E+03  0.74895727668E+03  0.00000000000E+00 0. -1.
</event>
<event>
 5    1  0.4881333E-005  0.1876433E+03  0.7818608E-02  0.1068954E+00
          4   -1    0    0  502    0 -0.00000000000E+00  0.00000000000E+00  0.13951326708E+04  0.13951326708E+04  0.00000000000E+00 0.  1.
         21   -1    0    0  501  502  0.00000000000E+00 -0.00000000000E+00 -0.32321082833E+02  0.32321082833E+02  0.00000000000E+00 0. -1.
        -13    1    1    2    0    0  0.15527755842E+03 -0.11048069963E+03  0.98978975967E+03  0.10079686923E+04  0.10566000000E+00 0.  1.
         13    1    1    2    0    0 -0.14896449561E+03  0.10241406830E+03  0.36067677724E+03  0.40344369018E+03  0.10566000000E+00 0. -1.
          4    1    1    2  501    0 -0.63130628082E+01  0.80666313280E+01  0.12345051039E+02  0.16041371143E+02  0.00000000000E+00 0.  1.
</event>
<event>
 5    1  0.4881333E-005  0.4674536E+03  0.7818608E-02  0.9705784E-01
          4   -1    0    0  502    0 -0.00000000000E+00  0.00000000000E+00  0.14678842800E+04  0.14678842800E+04  0.00000000000E+00 0.  1.
         21   -1    0    0  501  502  0.00000000000E+00 -0.00000000000E+00 -0.67849355370E+03  0.67849355370E+03  0.00000000000E+00 0.  1.
        -13    1    1    2    0    0  0.30384771876E+03 -0.95688212524E+02 -0.11595105998E+03  0.33900491101E+03  0.10566000000E+00 0.  1.
         13    1    1    2    0    0  0.48389254844E+03  0.37655880815E+03  0.56483871374E+02  0.61574261938E+03  0.10566000000E+00 0. -1.
          4    1    1    2  501    0 -0.78774026720E+03 -0.28087059562E+03  0.84885791487E+03  0.11916303033E+04  0.00000000000E+00 0.  1.
</event>
<event>
 5    1  0.4881333E-005  0.5308877E+02  0.7818608E-02  0.1279699E+00
         21   -1    0    0  501  502  0.00000000000E+00  0.00000000000E+00  0.14264741306E+03  0.14264741306E+03  0.00000000000E+00 0.  1.
         -4   -1    0    0    0  501 -0.00000000000E+00 -0.00000000000E+00 -0.50293678304E+02  0.50293678304E+02  0.00000000000E+00 0. -1.
        -13    1    1    2    0    0  0.54203204831E+02  0.15009432454E+02 -0.19076542352E+02  0.59390202127E+02  0.10566000000E+00 0.  1.
         13    1    1    2    0    0 -0.45957135155E+02  0.81074218417E+01  0.55768195856E+02  0.72717889090E+02  0.10566000000E+00 0. -1.
         -4    1    1    2    0  502 -0.82460696763E+01 -0.23116854296E+02  0.55662081249E+02  0.60833000145E+02  0.00000000000E+00 0. -1.
</event>
<event>
 5    1  0.4881333E-005  0.3967458E+03  0.7818608E-02  0.9745725E-01
         -4   -1    0    0    0  501 -0.00000000000E+00  0.00000000000E+00  0.11166410515E+04  0.11166410515E+04  0.00000000000E+00 0. -1.
         21   -1    0    0  501  502  0.00000000000E+00 -0.00000000000E+00 -0.61054107372E+03  0.61054107372E+03  0.00000000000E+00 0. -1.
        -13    1    1    2    0    0 -0.32883219796E+03 -0.23077850853E+03  0.59655976727E+03  0.71921686682E+03  0.10566000000E+00 0.  1.
         13    1    1    2    0    0 -0.46452756170E+02  0.43140010647E+03  0.21490151909E+03  0.48419684477E+03  0.10566000000E+00 0. -1.
         -4    1    1    2    0  502  0.37528495413E+03 -0.20062159793E+03 -0.30536130857E+03  0.52376841364E+03  0.00000000000E+00 0. -1.
</event>
<event>
 5    1  0.4881333E-005  0.6702474E+03  0.7818608E-02  0.9167293E-01
         -4   -1    0    0    0  501 -0.00000000000E+00  0.00000000000E+00  0.33527853455E+04  0.33527853455E+04  0.00000000000E+00 0. -1.
         21   -1    0    0  501  502  0.00000000000E+00 -0.00000000000E+00 -0.28707585612E+03  0.28707585612E+03  0.00000000000E+00 0.  1.
        -13    1    1    2    0    0  0.50938303415E+03 -0.41260097371E+03  0.17205756430E+04  0.18412200285E+04  0.10566000000E+00 0.  1.
         13    1    1    2    0    0 -0.43959577510E+03  0.59699990894E+03  0.41867531918E+03  0.85143547660E+03  0.10566000000E+00 0. -1.
         -4    1    1    2    0  502 -0.69787259060E+02 -0.18439893523E+03  0.92645852725E+03  0.94720569654E+03  0.00000000000E+00 0. -1.
</event>
<event>
 5    1  0.4881333E-005  0.4587642E+03  0.7818608E-02  0.9668158E-01
         -4   -1    0    0    0  501 -0.00000000000E+00  0.00000000000E+00  0.21025091577E+04  0.21025091577E+04  0.00000000000E+00 0. -1.
         21   -1    0    0  501  502  0.00000000000E+00 -0.00000000000E+00 -0.26890109526E+03  0.26890109526E+03  0.00000000000E+00 0. -1.
        -13    1    1    2    0    0  0.13478781834E+03  0.29879398548E+03  0.94194584523E+03  0.99735028362E+03  0.10566000000E+00 0.  1.
         13    1    1    2    0    0  0.19668765220E+02 -0.65112111071E+03  0.64716514431E+03  0.91824195957E+03  0.10566000000E+00 0. -1.
         -4    1    1    2    0  502 -0.15445658356E+03  0.35232712523E+03  0.24449707293E+03  0.45581800979E+03  0.00000000000E+00 0. -1.
</event>
<event>
 5    1  0.4881333E-005  0.1383063E+03  0.7818608E-02  0.1113254E+00
          4   -1    0    0  502    0 -0.00000000000E+00  0.00000000000E+00  0.89285269723E+02  0.89285269723E+02  0.00000000000E+00 0.  1.
         21   -1    0    0  501  502  0.00000000000E+00 -0.00000000000E+00 -0.16669916134E+04  0.16669916134E+04  0.00000000000E+00 0. -1.
        -13    1    1    2    0    0 -0.13232403420E+03  0.40559215122E+02  0.25873972450E+02  0.14079834364E+03  0.10566000000E+00 0.  1.
         13    1    1    2    0    0  0.13616017678E+03 -0.22896945088E+02 -0.80936531072E+03  0.82105790368E+03  0.10566000000E+00 0. -1.
          4    1    1    2  501    0 -0.38361425830E+01 -0.17662270034E+02 -0.79421500540E+03  0.79442063580E+03  0.00000000000E+00 0.  1.
</event>
<event>
 5    1  0.4881333E-005  0.1191559E+03  0.7818608E-02  0.1136255E+00
          4   -1    0    0  502    0 -0.00000000000E+00  0.00000000000E+00  0.16064451682E+03  0.16064451682E+03  0.00000000000E+00 0.  1.
         21   -1    0    0  501  502  0.00000000000E+00 -0.00000000000E+00 -0.29909810340E+03  0.29909810340E+03  0.00000000000E+00 0.  1.
        -13    1    1    2    0    0 -0.63819778001E+02  0.10600879364E+03  0.11741179654E+03  0.17057657964E+03  0.10566000000E+00 0.  1.
         13    1    1    2    0    0  0.41599500434E+02 -0.83896056326E+02 -0.13498121056E+03  0.16428330734E+03  0.10566000000E+00 0. -1.
          4    1    1    2  501    0  0.22220277566E+02 -0.22112737312E+02 -0.12088417256E+03  0.12488273324E+03  0.00000000000E+00 0.  1.
</event>
<event>
 5    1  0.4881333E-005  0.4879103E+03  0.7818608E-02  0.9667326E-01
          4   -1    0    0  502    0 -0.00000000000E+00  0.00000000000E+00  0.11260865994E+04  0.11260865994E+04  0.00000000000E+00 0.  1.
         21   -1    0    0  501  502  0.00000000000E+00 -0.00000000000E+00 -0.42677862518E+03  0.42677862518E+03  0.00000000000E+00 0.  1.
        -13    1    1    2    0    0  0.31084240954E+03  0.26975945338E+03  0.15002792049E+03  0.43806569638E+03  0.10566000000E+00 0.  1.
         13    1    1    2    0    0 -0.33078834836E+02  0.27127252057E+03  0.40695606253E+03  0.49020020168E+03  0.10566000000E+00 0. -1.
          4    1    1    2  501    0 -0.27776357470E+03 -0.54103197395E+03  0.14232399124E+03  0.62459932657E+03  0.00000000000E+00 0.  1.
</event>
<event>
 5    1  0.4881333E-005  0.4833595E+03  0.7818608E-02  0.9515209E-01
         21   -1    0    0  501  502  0.00000000000E+00  0.00000000000E+00  0.49288482092E+03  0.49288482092E+03  0.00000000000E+00 0.  1.
         -4   -1    0    0    0  501 -0.00000000000E+00 -0.00000000000E+00 -0.10336491995E+04  0.10336491995E+04  0.00000000000E+00 0. -1.
        -13    1    1    2    0    0  0.15349106066E+03 -0.31924920642E+03 -0.58297092683E+02  0.35899599396E+03  0.10566000000E+00 0.  1.
         13    1    1    2    0    0 -0.29550209602E+03  0.63623964995E+03 -0.23045193214E+03  0.73839724073E+03  0.10566000000E+00 0. -1.
         -4    1    1    2    0  502  0.14201103536E+03 -0.31699044353E+03 -0.25201535377E+03  0.42914078575E+03  0.00000000000E+00 0. -1.
</event>
<event>
 5    1  0.4881333E-005  0.2879955E+03  0.7818608E-02  0.1015345E+00
         21   -1    0    0  501  502  0.00000000000E+00  0.00000000000E+00  0.45656278335E+03  0.45656278335E+03  0.00000000000E+00 0. -1.
         -4   -1    0    0    0  501 -0.00000000000E+00 -0.00000000000E+00 -0.13677333078E+04  0.13677333078E+04  0.00000000000E+00 0. -1.
        -13    1    1    2    0    0  0.47427314838E+02  0.25774382911E+03 -0.71331162567E+03  0.75993073245E+03  0.10566000000E+00 0.  1.
         13    1    1    2    0    0 -0.30372884178E+03 -0.11207843374E+03 -0.52950375409E+03  0.62063437014E+03  0.10566000000E+00 0. -1.
         -4    1    1    2    0  502  0.25630152695E+03 -0.14566539537E+03  0.33164485533E+03  0.44373098854E+03  0.00000000000E+00 0. -1.
</event>
<event>
 5    1  0.4881333E-005  0.4120547E+02  0.7818608E-02  0.1332418E+00
         -4   -1    0    0    0  501 -0.00000000000E+00  0.00000000000E+00  0.14417541721E+03  0.14417541721E+03  0.00000000000E+00 0. -1.
         21   -1    0    0  501  502  0.00000000000E+00 -0.00000000000E+00 -0.25935586039E+02  0.25935586039E+02  0.00000000000E+00 0.  1.
        -13    1    1    2    0    0  0.32551672538E+02  0.52879676828E+01  0.22482527674E+02  0.39913020455E+02  0.10566000000E+00 0.  1.
         13    1    1    2    0    0 -0.40738153686E+02 -0.23840743262E+02  0.98985802274E+02  0.10966393400E+03  0.10566000000E+00 0. -1.
         -4    1    1    2    0  502  0.81864811481E+01  0.18552775579E+02 -0.32284987804E+01  0.20534048788E+02  0.00000000000E+00 0. -1.
</event>
<event>
 5    1  0.4881333E-005  0.4781603E+03  0.7818608E-02  0.9553867E-01
         21   -1    0    0  501  502  0.00000000000E+00  0.00000000000E+00  0.73761905506E+03  0.73761905506E+03  0.00000000000E+00 0. -1.
         -4   -1    0    0    0  501 -0.00000000000E+00 -0.00000000000E+00 -0.84329016646E+03  0.84329016646E+03  0.00000000000E+00 0. -1.
        -13    1    1    2    0    0 -0.55705709054E+02 -0.43072691233E+03 -0.24740870946E+03  0.49983985406E+03  0.10566000000E+00 0.  1.
         13    1    1    2    0    0  0.23617033947E+03 -0.25890400990E+03 -0.16644365282E+02  0.35083437922E+03  0.10566000000E+00 0. -1.
         -4    1    1    2    0  502 -0.18046463041E+03  0.68963092223E+03  0.15838196334E+03  0.73023498823E+03  0.00000000000E+00 0. -1.
</event>
<event>
 5    1  0.4881333E-005  0.9368811E+02  0.7818608E-02  0.1175443E+00
          4   -1    0    0  502    0 -0.00000000000E+00  0.00000000000E+00  0.82166458807E+02  0.82166458807E+02  0.00000000000E+00 0.  1.
         21   -1    0    0  501  502  0.00000000000E+00 -0.00000000000E+00 -0.17684337888E+03  0.17684337888E+03  0.00000000000E+00 0. -1.
        -13    1    1    2    0    0 -0.56062192656E+02  0.83180926429E+02 -0.10938042558E+03  0.14841200973E+03  0.10566000000E+00 0.  1.
         13    1    1    2    0    0  0.42862627756E+02 -0.81372945080E+02  0.23127895350E+02  0.94834971168E+02  0.10566000000E+00 0. -1.
          4    1    1    2  501    0  0.13199564900E+02 -0.18079813496E+01 -0.84243898468E+01  0.15762856797E+02  0.00000000000E+00 0.  1.
</event>
<event>
 5    1  0.4881333E-005  0.4236208E+03  0.7818608E-02  0.9765954E-01
          4   -1    0    0  502    0 -0.00000000000E+00  0.00000000000E+00  0.21155191096E+04  0.21155191096E+04  0.00000000000E+00 0.  1.
         21   -1    0    0  501  502  0.00000000000E+00 -0.00000000000E+00 -0.27142234393E+03  0.27142234393E+03  0.00000000000E+00 0.  1.
        -13    1    1    2    0    0  0.12773889324E+03  0.35420113825E+03  0.15492125031E+03  0.40715632888E+03  0.10566000000E+00 0.  1.
         13    1    1    2    0    0 -0.20704608713E+03  0.21222135682E+03  0.11712110253E+04  0.12081561420E+04  0.10566000000E+00 0. -1.
          4    1    1    2  501    0  0.79307193894E+02 -0.56642249507E+03  0.51796449004E+03  0.77162898265E+03  0.00000000000E+00 0.  1.
</event>
<event>
 5    1  0.4881333E-005  0.7249760E+03  0.7818608E-02  0.9087514E-01
         21   -1    0    0  501  502  0.00000000000E+00  0.00000000000E+00  0.29692962184E+03  0.29692962184E+03  0.00000000000E+00 0. -1.
         -4   -1    0    0    0  501 -0.00000000000E+00 -0.00000000000E+00 -0.27653566823E+04  0.27653566823E+04  0.00000000000E+00 0. -1.
        -13    1    1    2    0    0 -0.35537703877E+03 -0.47332470176E+03 -0.49836363077E+03  0.77375411638E+03  0.10566000000E+00 0.  1.
         13    1    1    2    0    0  0.39490126325E+03  0.70535623650E+03 -0.18612602622E+04  0.20292274892E+04  0.10566000000E+00 0. -1.
         -4    1    1    2    0  502 -0.39524224484E+02 -0.23203153474E+03 -0.10880316745E+03  0.25930469854E+03  0.00000000000E+00 0. -1.
</event>
<event>
 5    1  0.4881333E-005  0.6036541E+02  0.7818608E-02  0.1329202E+00
         21   -1    0    0  501  502  0.00000000000E+00  0.00000000000E+00  0.15394565799E+03  0.15394565799E+03  0.00000000000E+00 0. -1.
         -4   -1    0    0    0  501 -0.00000000000E+00 -0.00000000000E+00 -0.70759357209E+02  0.70759357209E+02  0.00000000000E+00 0. -1.
        -13    1    1    2    0    0 -0.13611738780E+02  0.28601206043E+01  0.46062622913E+02  0.48116900525E+02  0.10566000000E+00 0.  1.
         13    1    1    2    0    0  0.66120107538E+02  0.23581404412E+02 -0.39078315586E+02  0.80343494871E+02  0.10566000000E+00 0. -1.
         -4    1    1    2    0  502 -0.52508368758E+02 -0.26441525017E+02  0.76201993455E+02  0.96244619805E+02  0.00000000000E+00 0. -1.
</event>
<event>
 5    1  0.4881333E-005  0.3582108E+03  0.7818608E-02  0.9858165E-01
         21   -1    0    0  501  502  0.00000000000E+00  0.00000000000E+00  0.13376891117E+03  0.13376891117E+03  0.00000000000E+00 0.  1.
         -4   -1    0    0    0  501 -0.00000000000E+00 -0.00000000000E+00 -0.21826261032E+04  0.21826261032E+04  0.00000000000E+00 0. -1.
        -13    1    1    2    0    0 -0.30951845994E+03 -0.26093564022E+03 -0.55132147502E+03  0.68399156819E+03  0.10566000000E+00 0.  1.
         13    1    1    2    0    0  0.33775235257E+03  0.96890146901E+02 -0.13911837595E+04  0.14348716375E+04  0.10566000000E+00 0. -1.
         -4    1    1    2    0  502 -0.28233892633E+02  0.16404549332E+03 -0.10635195749E+03  0.19753180867E+03  0.00000000000E+00 0. -1.
</event>
<event>
 5    1  0.4881333E-005  0.2524678E+03  0.7818608E-02  0.1042111E+00
          4   -1    0    0  502    0 -0.00000000000E+00  0.00000000000E+00  0.93963024976E+03  0.93963024976E+03  0.00000000000E+00 0.  1.
         21   -1    0    0  501  502  0.00000000000E+00 -0.00000000000E+00 -0.26250524079E+03  0.26250524079E+03  0.00000000000E+00 0.  1.
        -13    1    1    2    0    0  0.18200717946E+03 -0.32149911676E+03  0.69893277569E+03  0.79056646245E+03  0.10566000000E+00 0.  1.
         13    1    1    2    0    0 -0.14688883843E+03  0.85081428614E+02  0.12019385232E+02  0.17017537171E+03  0.10566000000E+00 0. -1.
          4    1    1    2  501    0 -0.35118341029E+02  0.23641768814E+03 -0.33827151954E+02  0.24139365640E+03  0.00000000000E+00 0.  1.
</event>
<event>
 5    1  0.4881333E-005  0.2687308E+03  0.7818608E-02  0.1021119E+00
          4   -1    0    0  502    0 -0.00000000000E+00  0.00000000000E+00  0.15438080291E+03  0.15438080291E+03  0.00000000000E+00 0.  1.
         21   -1    0    0  501  502  0.00000000000E+00 -0.00000000000E+00 -0.61914387483E+03  0.61914387483E+03  0.00000000000E+00 0. -1.
        -13    1    1    2    0    0  0.24576917581E+03  0.67110448255E+02 -0.24738209688E+03  0.35511155017E+03  0.10566000000E+00 0.  1.
         13    1    1    2    0    0 -0.28223453996E+03 -0.93765071190E+01 -0.13992996020E+03  0.31515814976E+03  0.10566000000E+00 0. -1.
          4    1    1    2  501    0  0.36465364155E+02 -0.57733941136E+02 -0.77451014851E+02  0.10325497781E+03  0.00000000000E+00 0.  1.
</event>
<event>
 5    1  0.4881333E-005  0.4285080E+03  0.7818608E-02  0.9934501E-01
         21   -1    0    0  501  502  0.00000000000E+00  0.00000000000E+00  0.99805713316E+03  0.99805713316E+03  0.00000000000E+00 0. -1.
         -4   -1    0    0    0  501 -0.00000000000E+00 -0.00000000000E+00 -0.47705653164E+03  0.47705653164E+03  0.00000000000E+00 0. -1.
        -13    1    1    2    0    0  0.12943218310E+03 -0.97529415430E+02 -0.18555512953E+03  0.24636435244E+03  0.10566000000E+00 0.  1.
         13    1    1    2    0    0 -0.39707262684E+03  0.24874332082E+03  0.78254323373E+03  0.91209310624E+03  0.10566000000E+00 0. -1.
         -4    1    1    2    0  502  0.26764044374E+03 -0.15121390539E+03 -0.75987502680E+02  0.31665620612E+03  0.00000000000E+00 0. -1.
</event>
<event>
 5    1  0.4881333E-005  0.3813343E+03  0.7818608E-02  0.9948756E-01
          4   -1    0    0  502    0 -0.00000000000E+00  0.00000000000E+00  0.10986108549E+04  0.10986108549E+04  0.00000000000E+00 0.  1.
         21   -1    0    0  501  502  0.00000000000E+00 -0.00000000000E+00 -0.34698031486E+03  0.34698031486E+03  0.00000000000E+00 0.  1.
        -13    1    1    2    0    0 -0.19462042342E+03  0.50930698958E+03  0.60641708525E+03  0.81548293133E+03  0.10566000000E+00 0.  1.
         13    1    1    2    0    0  0.14308869200E+03 -0.16623479983E+03  0.17684399603E+03  0.28174845616E+03  0.10566000000E+00 0. -1.
          4    1    1    2  501    0  0.51531731419E+02 -0.34307218975E+03 -0.31630541293E+02  0.34835978222E+03  0.00000000000E+00 0.  1.
</event>
<event>
 5    1  0.4881333E-005  0.6768235E+03  0.7818608E-02  0.9157294E-01
         -4   -1    0    0    0  501 -0.00000000000E+00  0.00000000000E+00  0.21105614604E+04  0.21105614604E+04  0.00000000000E+00 0. -1.
         21   -1    0    0  501  502  0.00000000000E+00 -0.00000000000E+00 -0.40886654230E+03  0.40886654230E+03  0.00000000000E+00 0. -1.
        -13    1    1    2    0    0 -0.46976752015E+03  0.44602156103E+03  0.75764743758E+03  0.99681814125E+03  0.10566000000E+00 0.  1.
         13    1    1    2    0    0  0.20723372498E+03 -0.75695928277E+03  0.67089543775E+03  0.10324891632E+04  0.10566000000E+00 0. -1.
         -4    1    1    2    0  502  0.26253379518E+03  0.31093772174E+03  0.27315204278E+03  0.49012069828E+03  0.00000000000E+00 0. -1.
</event>
<event>
 5    1  0.4881333E-005  0.1609571E+03  0.7818608E-02  0.1090781E+00
         21   -1    0    0  501  502  0.00000000000E+00  0.00000000000E+00  0.84234461125E+03  0.84234461125E+03  0.00000000000E+00 0.  1.
         -4   -1    0    0    0  501 -0.00000000000E+00 -0.00000000000E+00 -0.15922413413E+03  0.15922413413E+03  0.00000000000E+00 0. -1.
        -13    1    1    2    0    0  0.50897937772E+02 -0.13260639529E+03  0.55925998753E+03  0.57701542524E+03  0.10566000000E+00 0.  1.
         13    1    1    2    0    0 -0.40557080253E+02  0.15735125546E+03 -0.10542966993E+03  0.19370007955E+03  0.10566000000E+00 0. -1.
         -4    1    1    2    0  502 -0.10340857519E+02 -0.24744860171E+02  0.22929015952E+03  0.23085324059E+03  0.00000000000E+00 0. -1.
</event>
<event>
 5    1  0.4881333E-005  0.3781482E+03  0.7818608E-02  0.9996729E-01
         -4   -1    0    0    0  501 -0.00000000000E+00  0.00000000000E+00  0.18258815879E+04  0.18258815879E+04  0.00000000000E+00 0. -1.
         21   -1    0    0  501  502  0.00000000000E+00 -0.00000000000E+00 -0.27846954266E+03  0.27846954266E+03  0.00000000000E+00 0. -1.
        -13    1    1    2    0    0  0.44306068578E+02  0.18685094561E+03  0.86779157816E+03  0.88878486592E+03  0.10566000000E+00 0.  1.
         13    1    1    2    0    0  0.22275017067E+03  0.12169453609E+03  0.75858895477E+03  0.79992775431E+03  0.10566000000E+00 0. -1.
         -4    1    1    2    0  502 -0.26705623925E+03 -0.30854548170E+03 -0.78968487724E+02  0.41563851031E+03  0.00000000000E+00 0. -1.
</event>
<event>
 5    1  0.4881333E-005  0.4409637E+03  0.7818608E-02  0.9684771E-01
         -4   -1    0    0    0  501 -0.00000000000E+00  0.00000000000E+00  0.23358501965E+04  0.23358501965E+04  0.00000000000E+00 0. -1.
         21   -1    0    0  501  502  0.00000000000E+00 -0.00000000000E+00 -0.22835042124E+03  0.22835042124E+03  0.00000000000E+00 0. -1.
        -13    1    1    2    0    0 -0.22068931639E+03 -0.26940939221E+03  0.28348538192E+03  0.44905363589E+03  0.10566000000E+00 0.  1.
         13    1    1    2    0    0 -0.11926998980E+03  0.53837104213E+03  0.14170576427E+04  0.15205660404E+04  0.10566000000E+00 0. -1.
         -4    1    1    2    0  502  0.33995930618E+03 -0.26896164992E+03  0.40695675062E+03  0.59458094139E+03  0.00000000000E+00 0. -1.
</event>
<event>
 5    1  0.4881333E-005  0.4737023E+03  0.7818608E-02  0.9946010E-01
         21   -1    0    0  501  502  0.00000000000E+00  0.00000000000E+00  0.16720224776E+03  0.16720224776E+03  0.00000000000E+00 0. -1.
         -4   -1    0    0    0  501 -0.00000000000E+00 -0.00000000000E+00 -0.22052003793E+04  0.22052003793E+04  0.00000000000E+00 0. -1.
        -13    1    1    2    0    0 -0.89098391210E+02  0.73446605549E+02 -0.61121448392E+03  0.62202579022E+03  0.10566000000E+00 0.  1.
         13    1    1    2    0    0  0.62059632194E+02  0.44833234422E+03 -0.42668654739E+03  0.62202468578E+03  0.10566000000E+00 0. -1.
         -4    1    1    2    0  502  0.27038759016E+02 -0.52177894977E+03 -0.10000971003E+04  0.11283521511E+04  0.00000000000E+00 0. -1.
</event>
<event>
 5    1  0.4881333E-005  0.9111045E+02  0.7818608E-02  0.1180165E+00
         21   -1    0    0  501  502  0.00000000000E+00  0.00000000000E+00  0.92498552904E+02  0.92498552904E+02  0.00000000000E+00 0.  1.
         -4   -1    0    0    0  501 -0.00000000000E+00 -0.00000000000E+00 -0.29558572454E+03  0.29558572454E+03  0.00000000000E+00 0. -1.
        -13    1    1    2    0    0  0.95405284126E+02 -0.12796037326E+02  0.43496395215E+02  0.10563074539E+03  0.10566000000E+00 0.  1.
         13    1    1    2    0    0 -0.90644926302E+02  0.80169919838E-01 -0.25202168333E+03  0.26782727480E+03  0.10566000000E+00 0. -1.
         -4    1    1    2    0  502 -0.47603578239E+01  0.12715867407E+02  0.54381164817E+01  0.14626257258E+02  0.00000000000E+00 0. -1.
</event>
<event>
 5    1  0.4881333E-005  0.8425190E+03  0.7818608E-02  0.8938556E-01
         -4   -1    0    0    0  501 -0.00000000000E+00  0.00000000000E+00  0.11591129452E+04  0.11591129452E+04  0.00000000000E+00 0. -1.
         21   -1    0    0  501  502  0.00000000000E+00 -0.00000000000E+00 -0.98440124488E+03  0.98440124488E+03  0.00000000000E+00 0. -1.
        -13    1    1    2    0    0  0.26208445818E+03  0.64825365139E+03 -0.39376640285E+03  0.80247931496E+03  0.10566000000E+00 0.  1.
         13    1    1    2    0    0 -0.16725192384E+03 -0.89006805291E+03  0.58923924023E+03  0.10804615857E+04  0.10566000000E+00 0. -1.
         -4    1    1    2    0  502 -0.94832534341E+02  0.24181440152E+03 -0.20761137024E+02  0.26057328943E+03  0.00000000000E+00 0. -1.
</event>
<event>
 5    1  0.4881333E-005  0.4903379E+03  0.7818608E-02  0.9499404E-01
         21   -1    0    0  501  502  0.00000000000E+00  0.00000000000E+00  0.11159815258E+03  0.11159815258E+03  0.00000000000E+00 0. -1.
         -4   -1    0    0    0  501 -0.00000000000E+00 -0.00000000000E+00 -0.47081600164E+04  0.47081600164E+04  0.00000000000E+00 0. -1.
        -13    1    1    2    0    0  0.37478660446E+03  0.11687732091E+03 -0.12520594948E+04  0.13121654989E+04  0.10566000000E+00 0.  1.
         13    1    1    2    0    0 -0.67650520043E+03 -0.19588192382E+03 -0.18201373637E+04  0.19516477777E+04  0.10566000000E+00 0. -1.
         -4    1    1    2    0  502  0.30171859597E+03  0.79004602905E+02 -0.15243650054E+04  0.15559448923E+04  0.00000000000E+00 0. -1.
</event>
<event>
 5    1  0.4881333E-005  0.3048446E+03  0.7818608E-02  0.1026666E+00
         -4   -1    0    0    0  501 -0.00000000000E+00  0.00000000000E+00  0.14286623540E+04  0.14286623540E+04  0.00000000000E+00 0. -1.
         21   -1    0    0  501  502  0.00000000000E+00 -0.00000000000E+00 -0.24629352590E+03  0.24629352590E+03  0.00000000000E+00 0. -1.
        -13    1    1    2    0    0 -0.32382861004E+00  0.15476793265E+03  0.48360891335E+02  0.16214809532E+03  0.10566000000E+00 0.  1.
         13    1    1    2    0    0 -0.23318881260E+03 -0.33433013347E+03  0.11476844810E+04  0.12179217296E+04  0.10566000000E+00 0. -1.
         -4    1    1    2    0  502  0.23351264121E+03  0.17956220082E+03 -0.13676544171E+02  0.29488605500E+03  0.00000000000E+00 0. -1.
</event>
<event>
 5    1  0.4881333E-005  0.4938461E+03  0.7818608E-02  0.9577083E-01
         21   -1    0    0  501  502  0.00000000000E+00  0.00000000000E+00  0.99674818710E+03  0.99674818710E+03  0.00000000000E+00 0. -1.
         -4   -1    0    0    0  501 -0.00000000000E+00 -0.00000000000E+00 -0.50928057804E+03  0.50928057804E+03  0.00000000000E+00 0. -1.
        -13    1    1    2    0    0  0.29629490963E+02 -0.36154683581E+03  0.49789110914E+02  0.36615978472E+03  0.10566000000E+00 0.  1.
         13    1    1    2    0    0 -0.23979393251E+03 -0.26317770548E+03  0.13993461374E+02  0.35631371410E+03  0.10566000000E+00 0. -1.
         -4    1    1    2    0  502  0.21016444155E+03  0.62472454129E+03  0.42368503677E+03  0.78355526631E+03  0.00000000000E+00 0. -1.
</event>
<event>
 5    1  0.4881333E-005  0.4203648E+03  0.7818608E-02  0.9807858E-01
          4   -1    0    0  502    0 -0.00000000000E+00  0.00000000000E+00  0.24537576270E+03  0.24537576270E+03  0.00000000000E+00 0.  1.
         21   -1    0    0  501  502  0.00000000000E+00 -0.00000000000E+00 -0.20833204190E+04  0.20833204190E+04  0.00000000000E+00 0.  1.
        -13    1    1    2    0    0 -0.40020380785E+03 -0.14486061301E+03 -0.13901149630E+04  0.14538113037E+04  0.10566000000E+00 0.  1.
         13    1    1    2    0    0  0.12728758236E+03 -0.23001621960E+03 -0.58270519304E+02  0.26926762614E+03  0.10566000000E+00 0. -1.
          4    1    1    2  501    0  0.27291622549E+03  0.37487683261E+03 -0.38955917392E+03  0.60561725186E+03  0.00000000000E+00 0.  1.
</event>
<event>
 5    1  0.4881333E-005  0.6611338E+03  0.7818608E-02  0.9181350E-01
         21   -1    0    0  501  502  0.00000000000E+00  0.00000000000E+00  0.39589362309E+03  0.39589362309E+03  0.00000000000E+00 0.  1.
         -4   -1    0    0    0  501 -0.00000000000E+00 -0.00000000000E+00 -0.25094968102E+04  0.25094968102E+04  0.00000000000E+00 0. -1.
        -13    1    1    2    0    0  0.37362945600E+03 -0.59016193455E+03 -0.11707116052E+04  0.13632519037E+04  0.10566000000E+00 0.  1.
         13    1    1    2    0    0 -0.44374702515E+03  0.45506809492E+03 -0.11326949420E+04  0.12988441924E+04  0.10566000000E+00 0. -1.
         -4    1    1    2    0  502  0.70117569158E+02  0.13509383963E+03  0.18980336005E+03  0.24329433716E+03  0.00000000000E+00 0. -1.
</event>
<event>
 5    1  0.4881333E-005  0.1033754E+03  0.7818608E-02  0.1159089E+00
          4   -1    0    0  502    0 -0.00000000000E+00  0.00000000000E+00  0.10595504867E+03  0.10595504867E+03  0.00000000000E+00 0.  1.
         21   -1    0    0  501  502  0.00000000000E+00 -0.00000000000E+00 -0.27396153557E+03  0.27396153557E+03  0.00000000000E+00 0. -1.
        -13    1    1    2    0    0 -0.77935912324E+02 -0.57413398986E+02  0.28409860412E+02  0.10088327981E+03  0.10566000000E+00 0.  1.
         13    1    1    2    0    0  0.74236157242E+02  0.10414223655E+03 -0.73561305428E+02  0.14753944996E+03  0.10566000000E+00 0. -1.
          4    1    1    2  501    0  0.36997550825E+01 -0.46728837562E+02 -0.12285504188E+03  0.13149385447E+03  0.00000000000E+00 0.  1.
</event>
<event>
 5    1  0.4881333E-005  0.2324526E+03  0.7818608E-02  0.1075802E+00
         -4   -1    0    0    0  501 -0.00000000000E+00  0.00000000000E+00  0.78778283833E+03  0.78778283833E+03  0.00000000000E+00 0. -1.
         21   -1    0    0  501  502  0.00000000000E+00 -0.00000000000E+00 -0.10166416505E+03  0.10166416505E+03  0.00000000000E+00 0. -1.
        -13    1    1    2    0    0  0.34835543458E+02  0.73350324274E+02  0.47243782753E+02  0.93945576436E+02  0.10566000000E+00 0.  1.
         13    1    1    2    0    0  0.15980227342E+03  0.11910937904E+03  0.29427912599E+03  0.35542091374E+03  0.10566000000E+00 0. -1.
         -4    1    1    2    0  502 -0.19463781688E+03 -0.19245970332E+03  0.34459576454E+03  0.44008051320E+03  0.00000000000E+00 0. -1.
</event>
<event>
 5    1  0.4881333E-005  0.5105466E+03  0.7818608E-02  0.9457605E-01
         21   -1    0    0  501  502  0.00000000000E+00  0.00000000000E+00  0.29426086514E+03  0.29426086514E+03  0.00000000000E+00 0.  1.
          4   -1    0    0  502    0 -0.00000000000E+00 -0.00000000000E+00 -0.24673008157E+04  0.24673008157E+04  0.00000000000E+00 0.  1.
        -13    1    1    2    0    0 -0.10453932855E+02 -0.33609936061E+03 -0.10992261886E+04  0.11495087167E+04  0.10566000000E+00 0.  1.
         13    1    1    2    0    0  0.48766497888E+03 -0.15873326617E+03 -0.41255244126E+03  0.65818911368E+03  0.10566000000E+00 0. -1.
          4    1    1    2  501    0 -0.47721104602E+03  0.49483262678E+03 -0.66126132076E+03  0.95386385051E+03  0.00000000000E+00 0.  1.
</event>
<event>
 5    1  0.4881333E-005  0.6754435E+03  0.7818608E-02  0.9159382E-01
          4   -1    0    0  502    0 -0.00000000000E+00  0.00000000000E+00  0.22904648097E+04  0.22904648097E+04  0.00000000000E+00 0.  1.
         21   -1    0    0  501  502  0.00000000000E+00 -0.00000000000E+00 -0.41113574068E+03  0.41113574068E+03  0.00000000000E+00 0. -1.
        -13    1    1    2    0    0  0.11830919221E+03  0.80616998610E+03  0.54501803545E+03  0.98028148079E+03  0.10566000000E+00 0.  1.
         13    1    1    2    0    0 -0.36937199602E+03 -0.52676468441E+03  0.11123594446E+04  0.12850137156E+04  0.10566000000E+00 0. -1.
          4    1    1    2  501    0  0.25106280381E+03 -0.27940530170E+03  0.22195158904E+03  0.43630535403E+03  0.00000000000E+00 0.  1.
</event>
<event>
 5    1  0.4881333E-005  0.2876915E+03  0.7818608E-02  0.1035833E+00
         21   -1    0    0  501  502  0.00000000000E+00  0.00000000000E+00  0.34664989678E+03  0.34664989678E+03  0.00000000000E+00 0. -1.
         -4   -1    0    0    0  501 -0.00000000000E+00 -0.00000000000E+00 -0.10888222122E+04  0.10888222122E+04  0.00000000000E+00 0. -1.
        -13    1    1    2    0    0  0.10690031301E+03  0.88548494414E+02 -0.24758991195E+03  0.28384729777E+03  0.10566000000E+00 0.  1.
         13    1    1    2    0    0  0.26920722611E+03 -0.80406313120E+02  0.21143947919E+03  0.35163101442E+03  0.10566000000E+00 0. -1.
         -4    1    1    2    0  502 -0.37610753912E+03 -0.81421812943E+01 -0.70602188261E+03  0.79999379674E+03  0.00000000000E+00 0. -1.
</event>
<event>
 5    1  0.4881333E-005  0.3306230E+03  0.7818608E-02  0.9954109E-01
         -4   -1    0    0    0  501 -0.00000000000E+00  0.00000000000E+00  0.13814330157E+04  0.13814330157E+04  0.00000000000E+00 0. -1.
         21   -1    0    0  501  502  0.00000000000E+00 -0.00000000000E+00 -0.88208419606E+02  0.88208419606E+02  0.00000000000E+00 0.  1.
        -13    1    1    2    0    0 -0.23302213296E+03  0.22909669307E+03  0.81060500033E+03  0.87399375681E+03  0.10566000000E+00 0.  1.
         13    1    1    2    0    0  0.23872934852E+03 -0.23806120012E+03  0.47535271882E+03  0.58277358837E+03  0.10566000000E+00 0. -1.
         -4    1    1    2    0  502 -0.57072155642E+01  0.89645070443E+01  0.72668769478E+01  0.12874090128E+02  0.00000000000E+00 0. -1.
</event>
<event>
 5    1  0.4881333E-005  0.8511360E+02  0.7818608E-02  0.1191853E+00
          4   -1    0    0  502    0 -0.00000000000E+00  0.00000000000E+00  0.37473715631E+03  0.37473715631E+03  0.00000000000E+00 0.  1.
         21   -1    0    0  501  502  0.00000000000E+00 -0.00000000000E+00 -0.45048347613E+02  0.45048347613E+02  0.00000000000E+00 0. -1.
        -13    1    1    2    0    0 -0.15788530748E+02  0.77053742075E+02  0.21205900231E+03  0.22617601220E+03  0.10566000000E+00 0.  1.
         13    1    1    2    0    0  0.44467590229E+02 -0.95313085636E+02  0.11995189113E+03  0.15953187213E+03  0.10566000000E+00 0. -1.
          4    1    1    2  501    0 -0.28679059480E+02  0.18259343560E+02 -0.23220847392E+01  0.34077619598E+02  0.00000000000E+00 0.  1.
</event>
<event>
 5    1  0.4881333E-005  0.5003617E+03  0.7818608E-02  0.9487141E-01
         21   -1    0    0  501  502  0.00000000000E+00  0.00000000000E+00  0.50168642671E+03  0.50168642671E+03  0.00000000000E+00 0. -1.
         -4   -1    0    0    0  501 -0.00000000000E+00 -0.00000000000E+00 -0.14200063619E+04  0.14200063619E+04  0.00000000000E+00 0. -1.
        -13    1    1    2    0    0 -0.26009453693E+03  0.43814875495E+03 -0.14103615552E+03  0.52869150545E+03  0.10566000000E+00 0.  1.
         13    1    1    2    0    0 -0.34257620759E+03  0.87412701274E+02 -0.28358282606E+03  0.45323136338E+03  0.10566000000E+00 0. -1.
         -4    1    1    2    0  502  0.60267074452E+03 -0.52556145623E+03 -0.49370095363E+03  0.93976991981E+03  0.00000000000E+00 0. -1.
</event>
<event>
 5    1  0.4881333E-005  0.4287296E+03  0.7818608E-02  0.9735995E-01
         21   -1    0    0  501  502  0.00000000000E+00  0.00000000000E+00  0.26889642893E+03  0.26889642893E+03  0.00000000000E+00 0.  1.
          4   -1    0    0  502    0 -0.00000000000E+00 -0.00000000000E+00 -0.17610237480E+04  0.17610237480E+04  0.00000000000E+00 0.  1.
        -13    1    1    2    0    0  0.32943016382E+03  0.40221784698E+03 -0.83167343652E+03  0.98080790445E+03  0.10566000000E+00 0.  1.
         13    1    1    2    0    0 -0.31637546316E+03  0.21968109192E+02 -0.50663774773E+03  0.59771050694E+03  0.10566000000E+00 0. -1.
          4    1    1    2  501    0 -0.13054700666E+02 -0.42418595617E+03 -0.15381613484E+03  0.45140176557E+03  0.00000000000E+00 0.  1.
</event>
<event>
 5    1  0.4881333E-005  0.3554657E+02  0.7818608E-02  0.1365208E+00
         21   -1    0    0  501  502  0.00000000000E+00  0.00000000000E+00  0.55238619155E+02  0.55238619155E+02  0.00000000000E+00 0. -1.
         -4   -1    0    0    0  501 -0.00000000000E+00 -0.00000000000E+00 -0.12728913750E+03  0.12728913750E+03  0.00000000000E+00 0. -1.
        -13    1    1    2    0    0 -0.26659690844E+02  0.29689750085E+01  0.41990619730E+01  0.27151375913E+02  0.10566000000E+00 0.  1.
         13    1    1    2    0    0  0.34724994469E+02 -0.13926136561E+02 -0.11149034057E+03  0.11760046652E+03  0.10566000000E+00 0. -1.
         -4    1    1    2    0  502 -0.80653036255E+01  0.10957161553E+02  0.35240760256E+02  0.37775914222E+02  0.00000000000E+00 0. -1.
</event>
<event>
 5    1  0.4881333E-005  0.1204028E+03  0.7818608E-02  0.1134618E+00
         21   -1    0    0  501  502  0.00000000000E+00  0.00000000000E+00  0.44576630534E+02  0.44576630534E+02  0.00000000000E+00 0.  1.
         -4   -1    0    0    0  501 -0.00000000000E+00 -0.00000000000E+00 -0.75075247755E+03  0.75075247755E+03  0.00000000000E+00 0. -1.
        -13    1    1    2    0    0  0.69732880126E+02  0.10755943408E+03 -0.24972294589E+03  0.28070138457E+03  0.10566000000E+00 0.  1.
         13    1    1    2    0    0 -0.48856557811E+02 -0.10655873569E+03 -0.47341376100E+03  0.48771131590E+03  0.10566000000E+00 0. -1.
         -4    1    1    2    0  502 -0.20876322315E+02 -0.10006983896E+01  0.16960859880E+02  0.26916407608E+02  0.00000000000E+00 0. -1.
</event>
<event>
 5    1  0.4881333E-005  0.5139274E+03  0.7818608E-02  0.9461141E-01
         -4   -1    0    0    0  501 -0.00000000000E+00  0.00000000000E+00  0.20949799220E+04  0.20949799220E+04  0.00000000000E+00 0. -1.
         21   -1    0    0  501  502  0.00000000000E+00 -0.00000000000E+00 -0.41805184503E+03  0.41805184503E+03  0.00000000000E+00 0. -1.
        -13    1    1    2    0    0 -0.42254148340E+03  0.24745534418E+03  0.11302816186E+04  0.12317921907E+04  0.10566000000E+00 0.  1.
         13    1    1    2    0    0 -0.25228881387E+03 -0.23361856099E+03  0.49712847780E+03  0.60445348228E+03  0.10566000000E+00 0. -1.
         -4    1    1    2    0  502  0.67483029726E+03 -0.13836783190E+02  0.49517980540E+02  0.67678609403E+03  0.00000000000E+00 0. -1.
</event>
<event>
 5    1  0.4881333E-005  0.2033163E+03  0.7818608E-02  0.1057886E+00
         21   -1    0    0  501  502  0.00000000000E+00  0.00000000000E+00  0.71257721156E+03  0.71257721156E+03  0.00000000000E+00 0. -1.
          4   -1    0    0  502    0 -0.00000000000E+00 -0.00000000000E+00 -0.27520782329E+03  0.27520782329E+03  0.00000000000E+00 0.  1.
        -13    1    1    2    0    0  0.20023649475E+03 -0.38994394949E+02 -0.21311375263E+03  0.29501304953E+03  0.10566000000E+00 0.  1.
         13    1    1    2    0    0 -0.19353490137E+03  0.13249389728E+02  0.63002071804E+03  0.65920969403E+03  0.10566000000E+00 0. -1.
          4    1    1    2  501    0 -0.67015933811E+01  0.25745005222E+02  0.20462422859E+02  0.33562291295E+02  0.00000000000E+00 0.  1.
</event>
<event>
 5    1  0.4881333E-005  0.1478503E+03  0.7818608E-02  0.1103251E+00
         21   -1    0    0  501  502  0.00000000000E+00  0.00000000000E+00  0.17043836981E+04  0.17043836981E+04  0.00000000000E+00 0.  1.
          4   -1    0    0  502    0 -0.00000000000E+00 -0.00000000000E+00 -0.46244888248E+02  0.46244888248E+02  0.00000000000E+00 0.  1.
        -13    1    1    2    0    0 -0.81239050008E+02 -0.12187261513E+03  0.95417328676E+02  0.17480616505E+03  0.10566000000E+00 0.  1.
         13    1    1    2    0    0  0.90534220492E+02  0.12910499810E+03  0.95074667858E+03  0.96373430135E+03  0.10566000000E+00 0. -1.
          4    1    1    2  501    0 -0.92951704839E+01 -0.72323829698E+01  0.61197480262E+03  0.61208811997E+03  0.00000000000E+00 0.  1.
</event>
<event>
 5    1  0.4881333E-005  0.1089266E+03  0.7818608E-02  0.1158120E+00
         21   -1    0    0  501  502  0.00000000000E+00  0.00000000000E+00  0.29214686199E+02  0.29214686199E+02  0.00000000000E+00 0.  1.
          4   -1    0    0  502    0 -0.00000000000E+00 -0.00000000000E+00 -0.13957000779E+04  0.13957000779E+04  0.00000000000E+00 0.  1.
        -13    1    1    2    0    0  0.51183612298E+02 -0.17715433125E+03 -0.82967798459E+03  0.84992293093E+03  0.10566000000E+00 0.  1.
         13    1    1    2    0    0 -0.17588700438E+02  0.88751949586E+02 -0.39002293145E+03  0.40038003092E+03  0.10566000000E+00 0. -1.
          4    1    1    2  501    0 -0.33594911860E+02  0.88402381668E+02 -0.14678447565E+03  0.17461180223E+03  0.00000000000E+00 0.  1.
</event>
<event>
 5    1  0.4881333E-005  0.5517733E+03  0.7818608E-02  0.9630713E-01
         21   -1    0    0  501  502  0.00000000000E+00  0.00000000000E+00  0.42595692981E+03  0.42595692981E+03  0.00000000000E+00 0. -1.
         -4   -1    0    0    0  501 -0.00000000000E+00 -0.00000000000E+00 -0.12941894018E+04  0.12941894018E+04  0.00000000000E+00 0. -1.
        -13    1    1    2    0    0  0.21474953330E+03 -0.91383343958E+01 -0.47833402111E+03  0.52440854124E+03  0.10566000000E+00 0.  1.
         13    1    1    2    0    0  0.37434539283E+03 -0.24261530751E+03 -0.32479276121E+03  0.55180341560E+03  0.10566000000E+00 0. -1.
         -4    1    1    2    0  502 -0.58909492612E+03  0.25175364190E+03 -0.65105689673E+02  0.64393437478E+03  0.00000000000E+00 0. -1.
</event>
<event>
 5    1  0.4881333E-005  0.2433964E+03  0.7818608E-02  0.1039060E+00
         21   -1    0    0  501  502  0.00000000000E+00  0.00000000000E+00  0.25740835121E+03  0.25740835121E+03  0.00000000000E+00 0.  1.
          4   -1    0    0  502    0 -0.00000000000E+00 -0.00000000000E+00 -0.15047032753E+04  0.15047032753E+04  0.00000000000E+00 0.  1.
        -13    1    1    2    0    0 -0.12821710463E+02  0.33051041447E+03 -0.10673994960E+04  0.11174718008E+04  0.10566000000E+00 0.  1.
         13    1    1    2    0    0  0.15700834781E+03 -0.13607857224E+03 -0.30741555303E+03  0.37104357226E+03  0.10566000000E+00 0. -1.
          4    1    1    2  501    0 -0.14418663734E+03 -0.19443184223E+03  0.12752012493E+03  0.27359625349E+03  0.00000000000E+00 0.  1.
</event>
<event>
 5    1  0.4881333E-005  0.3772235E+03  0.7818608E-02  0.9797232E-01
          4   -1    0    0  502    0 -0.00000000000E+00  0.00000000000E+00  0.17296729929E+03  0.17296729929E+03  0.00000000000E+00 0.  1.
         21   -1    0    0  501  502  0.00000000000E+00 -0.00000000000E+00 -0.10291820888E+04  0.10291820888E+04  0.00000000000E+00 0. -1.
        -13    1    1    2    0    0  0.31041690032E+03  0.22074097570E+03 -0.26427992283E+03  0.46360448567E+03  0.10566000000E+00 0.  1.
         13    1    1    2    0    0 -0.28949391814E+03 -0.23490382260E+03 -0.40718109709E+03  0.55207154563E+03  0.10566000000E+00 0. -1.
          4    1    1    2  501    0 -0.20922982186E+02  0.14162846895E+02 -0.18475376955E+03  0.18647335676E+03  0.00000000000E+00 0.  1.
</event>
<event>
 5    1  0.4881333E-005  0.4973818E+03  0.7818608E-02  0.9819764E-01
         21   -1    0    0  501  502  0.00000000000E+00  0.00000000000E+00  0.87258842413E+03  0.87258842413E+03  0.00000000000E+00 0. -1.
         -4   -1    0    0    0  501 -0.00000000000E+00 -0.00000000000E+00 -0.59598114390E+03  0.59598114390E+03  0.00000000000E+00 0. -1.
        -13    1    1    2    0    0 -0.88759406579E+02 -0.12388032439E+03  0.23725351560E+03  0.28198193002E+03  0.10566000000E+00 0.  1.
         13    1    1    2    0    0 -0.19286539707E+03 -0.32846499942E+03 -0.35734445039E+03  0.52228477349E+03  0.10566000000E+00 0. -1.
         -4    1    1    2    0  502  0.28162480364E+03  0.45234532381E+03  0.39669821502E+03  0.66430286452E+03  0.00000000000E+00 0. -1.
</event>
<event>
 5    1  0.4881333E-005  0.4226441E+03  0.7818608E-02  0.1015867E+00
          4   -1    0    0  502    0 -0.00000000000E+00  0.00000000000E+00  0.15327577115E+03  0.15327577115E+03  0.00000000000E+00 0.  1.
         21   -1    0    0  501  502  0.00000000000E+00 -0.00000000000E+00 -0.16408781558E+04  0.16408781558E+04  0.00000000000E+00 0.  1.
        -13    1    1    2    0    0  0.42412593418E+03 -0.42839924487E+02 -0.10319438024E+04  0.11165241107E+04  0.10566000000E+00 0.  1.
         13    1    1    2    0    0 -0.58993574561E+01  0.81339934951E+02 -0.75363510626E+02  0.11104349298E+03  0.10566000000E+00 0. -1.
          4    1    1    2  501    0 -0.41822657673E+03 -0.38500010464E+02 -0.38029507165E+03  0.56658632335E+03  0.00000000000E+00 0.  1.
</event>
<event>
 5    1  0.4881333E-005  0.4745052E+03  0.7818608E-02  0.9710661E-01
         21   -1    0    0  501  502  0.00000000000E+00  0.00000000000E+00  0.60658898541E+03  0.60658898541E+03  0.00000000000E+00 0.  1.
          4   -1    0    0  502    0 -0.00000000000E+00 -0.00000000000E+00 -0.12785930591E+04  0.12785930591E+04  0.00000000000E+00 0.  1.
        -13    1    1    2    0    0 -0.16654287707E+03 -0.49008903726E+03  0.28877855782E+03  0.59271988406E+03  0.10566000000E+00 0.  1.
         13    1    1    2    0    0 -0.15089499789E+03  0.20605333721E+03 -0.79561106680E+03  0.83559814441E+03  0.10566000000E+00 0. -1.
          4    1    1    2  501    0  0.31743787496E+03  0.28403570004E+03 -0.16517156470E+03  0.45686401603E+03  0.00000000000E+00 0.  1.
</event>
<event>
 5    1  0.4881333E-005  0.4482986E+02  0.7818608E-02  0.1367004E+00
         21   -1    0    0  501  502  0.00000000000E+00  0.00000000000E+00  0.12904150587E+03  0.12904150587E+03  0.00000000000E+00 0. -1.
          4   -1    0    0  502    0 -0.00000000000E+00 -0.00000000000E+00 -0.84026557581E+02  0.84026557581E+02  0.00000000000E+00 0.  1.
        -13    1    1    2    0    0 -0.10288874752E+01 -0.33016330184E+02 -0.70014193750E+02  0.77415341883E+02  0.10566000000E+00 0.  1.
         13    1    1    2    0    0 -0.12949007682E+02 -0.11275907346E+02  0.65668272672E+02  0.67876034697E+02  0.10566000000E+00 0. -1.
          4    1    1    2  501    0  0.13977895157E+02  0.44292237531E+02  0.49360869362E+02  0.67776686867E+02  0.00000000000E+00 0.  1.
</event>
<event>
 5    1  0.4881333E-005  0.5409051E+03  0.7818608E-02  0.9698504E-01
         21   -1    0    0  501  502  0.00000000000E+00  0.00000000000E+00  0.26611728898E+03  0.26611728898E+03  0.00000000000E+00 0. -1.
         -4   -1    0    0    0  501 -0.00000000000E+00 -0.00000000000E+00 -0.15430818751E+04  0.15430818751E+04  0.00000000000E+00 0. -1.
        -13    1    1    2    0    0  0.17207021332E+03 -0.52372657353E+02 -0.18374189713E+03  0.25712282955E+03  0.10566000000E+00 0.  1.
         13    1    1    2    0    0  0.46236966216E+03  0.54045671581E+02 -0.50636949095E+03  0.68783479967E+03  0.10566000000E+00 0. -1.
         -4    1    1    2    0  502 -0.63443987548E+03 -0.16730142280E+01 -0.58685319807E+03  0.86424153491E+03  0.00000000000E+00 0. -1.
</event>
<event>
 5    1  0.4881333E-005  0.1447569E+03  0.7818608E-02  0.1106401E+00
          4   -1    0    0  502    0 -0.00000000000E+00  0.00000000000E+00  0.22309250671E+03  0.22309250671E+03  0.00000000000E+00 0.  1.
         21   -1    0    0  501  502  0.00000000000E+00 -0.00000000000E+00 -0.49011022637E+03  0.49011022637E+03  0.00000000000E+00 0. -1.
        -13    1    1    2    0    0  0.13270823863E+03  0.27171463143E+02  0.12736075331E+03  0.18593154025E+03  0.10566000000E+00 0.  1.
         13    1    1    2    0    0 -0.23856524114E+03 -0.42913932958E+02 -0.25963540678E+03  0.35519788223E+03  0.10566000000E+00 0. -1.
          4    1    1    2  501    0  0.10585700251E+03  0.15742469815E+02 -0.13474306620E+03  0.17207331061E+03  0.00000000000E+00 0.  1.
</event>
<event>
 5    1  0.4881333E-005  0.8881792E+02  0.7818608E-02  0.1184512E+00
         21   -1    0    0  501  502  0.00000000000E+00  0.00000000000E+00  0.59810472040E+03  0.59810472040E+03  0.00000000000E+00 0.  1.
         -4   -1    0    0    0  501 -0.00000000000E+00 -0.00000000000E+00 -0.22990282290E+02  0.22990282290E+02  0.00000000000E+00 0. -1.
        -13    1    1    2    0    0  0.75242247719E+02  0.40844495624E+02  0.44876875604E+03  0.45686220704E+03  0.10566000000E+00 0.  1.
         13    1    1    2    0    0 -0.84682898466E+02 -0.30103549428E+02  0.10155063470E+03  0.13560958503E+03  0.10566000000E+00 0. -1.
         -4    1    1    2    0  502  0.94406507469E+01 -0.10740946196E+02  0.24795047378E+02  0.28623210620E+02  0.00000000000E+00 0. -1.
</event>
<event>
 5    1  0.4881333E-005  0.4743375E+03  0.7818608E-02  0.9874843E-01
         -4   -1    0    0    0  501 -0.00000000000E+00  0.00000000000E+00  0.14041325953E+04  0.14041325953E+04  0.00000000000E+00 0. -1.
         21   -1    0    0  501  502  0.00000000000E+00 -0.00000000000E+00 -0.25955169259E+03  0.25955169259E+03  0.00000000000E+00 0. -1.
        -13    1    1    2    0    0  0.10186597352E+03  0.10437634903E+03  0.45414919743E+03  0.47699329502E+03  0.10566000000E+00 0.  1.
         13    1    1    2    0    0  0.36423638001E+03  0.19230773899E+03  0.31827036664E+03  0.52052516216E+03  0.10566000000E+00 0. -1.
         -4    1    1    2    0  502 -0.46610235353E+03 -0.29668408802E+03  0.37216133868E+03  0.66616583075E+03  0.00000000000E+00 0. -1.
</event>
<event>
 5    1  0.4881333E-005  0.4421526E+03  0.7818608E-02  0.1015815E+00
         21   -1    0    0  501  502  0.00000000000E+00  0.00000000000E+00  0.39925722114E+03  0.39925722114E+03  0.00000000000E+00 0.  1.
          4   -1    0    0  502    0 -0.00000000000E+00 -0.00000000000E+00 -0.58398132280E+03  0.58398132280E+03  0.00000000000E+00 0.  1.
        -13    1    1    2    0    0 -0.31534003486E+03 -0.36041901193E+03 -0.96348520114E+02  0.48849181185E+03  0.10566000000E+00 0.  1.
         13    1    1    2    0    0  0.62757850883E+02  0.33933312309E+02 -0.31774256038E+02  0.78100141117E+02  0.10566000000E+00 0. -1.
          4    1    1    2  501    0  0.25258218398E+03  0.32648569962E+03 -0.56601325504E+02  0.41664659097E+03  0.00000000000E+00 0.  1.
</event>
<event>
 5    1  0.6887727E-005  0.5572566E+03  0.7818608E-02  0.9360595E-01
         -4   -1    0    0    0  501 -0.00000000000E+00  0.00000000000E+00  0.15380487615E+04  0.15380487615E+04  0.00000000000E+00 0. -1.
         21   -1    0    0  501  502  0.00000000000E+00 -0.00000000000E+00 -0.57685460531E+03  0.57685460531E+03  0.00000000000E+00 0. -1.
        -13    1    1    2    0    0  0.30579054067E+03 -0.53708798282E+03  0.64617833548E+03  0.89415759710E+03  0.10566000000E+00 0.  1.
         13    1    1    2    0    0 -0.34284905274E+03  0.38892449009E+03  0.66245391077E+03  0.84122109283E+03  0.10566000000E+00 0. -1.
         -4    1    1    2    0  502  0.37058512079E+02  0.14816349272E+03 -0.34743809009E+03  0.37952467685E+03  0.00000000000E+00 0. -1.
</event>
<event>
 5    1  0.4881333E-005  0.8832327E+02  0.7818608E-02  0.1185469E+00
         21   -1    0    0  501  502  0.00000000000E+00  0.00000000000E+00  0.63047360977E+03  0.63047360977E+03  0.00000000000E+00 0.  1.
         -4   -1    0    0    0  501 -0.00000000000E+00 -0.00000000000E+00 -0.74879377797E+02  0.74879377797E+02  0.00000000000E+00 0. -1.
        -13    1    1    2    0    0  0.63253870947E+02  0.90971571166E+02  0.38010214841E+03  0.39592238298E+03  0.10566000000E+00 0.  1.
         13    1    1    2    0    0 -0.58218817112E+02 -0.64294011134E+02 -0.37658120662E+02  0.94558425058E+02  0.10566000000E+00 0. -1.
         -4    1    1    2    0  502 -0.50350538355E+01 -0.26677560031E+02  0.21315020422E+03  0.21487217953E+03  0.00000000000E+00 0. -1.
</event>
<event>
 5    1  0.4881333E-005  0.5020539E+03  0.7818608E-02  0.9685981E-01
          4   -1    0    0  502    0 -0.00000000000E+00  0.00000000000E+00  0.10915841774E+04  0.10915841774E+04  0.00000000000E+00 0.  1.
         21   -1    0    0  501  502  0.00000000000E+00 -0.00000000000E+00 -0.41722047687E+03  0.41722047687E+03  0.00000000000E+00 0.  1.
        -13    1    1    2    0    0 -0.42945052422E+03  0.22243587099E+03  0.33333428416E+03  0.58738166946E+03  0.10566000000E+00 0.  1.
         13    1    1    2    0    0 -0.12069018848E+03 -0.20161394736E+03 -0.57342353882E+02  0.24187282212E+03  0.10566000000E+00 0. -1.
          4    1    1    2  501    0  0.55014071270E+03 -0.20821923626E+02  0.39837177023E+03  0.67955016267E+03  0.00000000000E+00 0.  1.
</event>
<event>
 5    1  0.4881333E-005  0.9383606E+02  0.7818608E-02  0.1175177E+00
         21   -1    0    0  501  502  0.00000000000E+00  0.00000000000E+00  0.28220347601E+03  0.28220347601E+03  0.00000000000E+00 0. -1.
         -4   -1    0    0    0  501 -0.00000000000E+00 -0.00000000000E+00 -0.10578025408E+03  0.10578025408E+03  0.00000000000E+00 0. -1.
        -13    1    1    2    0    0  0.89092151886E+02 -0.25521761260E+02  0.76216337601E+02  0.11999047090E+03  0.10566000000E+00 0.  1.
         13    1    1    2    0    0 -0.55033609319E+02  0.83559340633E+02 -0.43660692235E+02  0.10916560251E+03  0.10566000000E+00 0. -1.
         -4    1    1    2    0  502 -0.34058542567E+02 -0.58037579373E+02  0.14386757656E+03  0.15882765668E+03  0.00000000000E+00 0. -1.
</event>
<event>
 5    1  0.4881333E-005  0.1517518E+03  0.7818608E-02  0.1099397E+00
          4   -1    0    0  502    0 -0.00000000000E+00  0.00000000000E+00  0.99861798422E+03  0.99861798422E+03  0.00000000000E+00 0.  1.
         21   -1    0    0  501  502  0.00000000000E+00 -0.00000000000E+00 -0.81143585835E+02  0.81143585835E+02  0.00000000000E+00 0. -1.
        -13    1    1    2    0    0 -0.51949625975E+02 -0.14523348749E+03  0.86106831553E+03  0.87477436217E+03  0.10566000000E+00 0.  1.
         13    1    1    2    0    0  0.52698995307E+02  0.12792391004E+03  0.91483471926E+02  0.16586424469E+03  0.10566000000E+00 0. -1.
          4    1    1    2  501    0 -0.74936933156E+00  0.17309577451E+02 -0.35077389071E+02  0.39122963205E+02  0.00000000000E+00 0.  1.
</event>
<event>
 5    1  0.4881333E-005  0.4423995E+03  0.7818608E-02  0.9710913E-01
         21   -1    0    0  501  502  0.00000000000E+00  0.00000000000E+00  0.33442466757E+03  0.33442466757E+03  0.00000000000E+00 0. -1.
         -4   -1    0    0    0  501 -0.00000000000E+00 -0.00000000000E+00 -0.17095960591E+04  0.17095960591E+04  0.00000000000E+00 0. -1.
        -13    1    1    2    0    0  0.15873107804E+03 -0.27191743461E+03 -0.75184250677E+03  0.81510846673E+03  0.10566000000E+00 0.  1.
         13    1    1    2    0    0 -0.55713346174E+03  0.14987268329E+03 -0.56616452432E+03  0.80833272552E+03  0.10566000000E+00 0. -1.
         -4    1    1    2    0  502  0.39840238370E+03  0.12204475131E+03 -0.57164360432E+02  0.42057953441E+03  0.00000000000E+00 0. -1.
</event>
<event>
 5    1  0.4881333E-005  0.4286450E+03  0.7818608E-02  0.1014653E+00
         21   -1    0    0  501  502  0.00000000000E+00  0.00000000000E+00  0.56596579513E+03  0.56596579513E+03  0.00000000000E+00 0. -1.
         -4   -1    0    0    0  501 -0.00000000000E+00 -0.00000000000E+00 -0.52332567197E+03  0.52332567197E+03  0.00000000000E+00 0. -1.
        -13    1    1    2    0    0  0.36964912694E+02 -0.72359321038E+02 -0.24962022535E+02  0.85002293172E+02  0.10566000000E+00 0.  1.
         13    1    1    2    0    0 -0.24856809866E+03 -0.33782916511E+03  0.27158292487E+03  0.49967183302E+03  0.10566000000E+00 0. -1.
         -4    1    1    2    0  502  0.21160318596E+03  0.41018848615E+03 -0.20398077917E+03  0.50461734091E+03  0.00000000000E+00 0. -1.
</event>
<event>
 5    1  0.4881333E-005  0.2491082E+03  0.7818608E-02  0.1030856E+00
          4   -1    0    0  502    0 -0.00000000000E+00  0.00000000000E+00  0.18164619561E+04  0.18164619561E+04  0.00000000000E+00 0.  1.
         21   -1    0    0  501  502  0.00000000000E+00 -0.00000000000E+00 -0.23113841573E+03  0.23113841573E+03  0.00000000000E+00 0.  1.
        -13    1    1    2    0    0  0.22081424011E+03 -0.12587283403E+03  0.14281751035E+04  0.14506160885E+04  0.10566000000E+00 0.  1.
         13    1    1    2    0    0 -0.11540510015E+03  0.23772183387E+03  0.29107000772E+03  0.39313072635E+03  0.10566000000E+00 0. -1.
          4    1    1    2  501    0 -0.10540913995E+03 -0.11184899984E+03 -0.13392157082E+03  0.20385355695E+03  0.00000000000E+00 0.  1.
</event>
<event>
 5    1  0.4881333E-005  0.3009310E+03  0.7818608E-02  0.1006922E+00
         -4   -1    0    0    0  501 -0.00000000000E+00  0.00000000000E+00  0.26496094426E+03  0.26496094426E+03  0.00000000000E+00 0. -1.
         21   -1    0    0  501  502  0.00000000000E+00 -0.00000000000E+00 -0.38654769455E+03  0.38654769455E+03  0.00000000000E+00 0.  1.
        -13    1    1    2    0    0  0.83564536082E+01 -0.30545594728E+03 -0.88334472592E+02  0.31808199612E+03  0.10566000000E+00 0.  1.
         13    1    1    2    0    0  0.12944856249E+02  0.29750643383E+03 -0.58837352184E+01  0.29784606256E+03  0.10566000000E+00 0. -1.
         -4    1    1    2    0  502 -0.21301309857E+02  0.79495134423E+01 -0.27368542478E+02  0.35580580138E+02  0.00000000000E+00 0. -1.
</event>
<event>
 5    1  0.4881333E-005  0.2312908E+03  0.7818608E-02  0.1040572E+00
         21   -1    0    0  501  502  0.00000000000E+00  0.00000000000E+00  0.11450372321E+04  0.11450372321E+04  0.00000000000E+00 0. -1.
          4   -1    0    0  502    0 -0.00000000000E+00 -0.00000000000E+00 -0.34352183720E+03  0.34352183720E+03  0.00000000000E+00 0.  1.
        -13    1    1    2    0    0  0.18287974584E+03 -0.20357084535E+03 -0.17252613363E+03  0.32349863750E+03  0.10566000000E+00 0.  1.
         13    1    1    2    0    0 -0.19968277346E+03  0.23340483061E+02  0.29338027946E+02  0.20317164964E+03  0.10566000000E+00 0. -1.
          4    1    1    2  501    0  0.16803027621E+02  0.18023036228E+03  0.94470350063E+03  0.96188878220E+03  0.00000000000E+00 0.  1.
</event>
<event>
 5    1  0.4881333E-005  0.5028470E+03  0.7818608E-02  0.9790605E-01
         21   -1    0    0  501  502  0.00000000000E+00  0.00000000000E+00  0.13295967265E+03  0.13295967265E+03  0.00000000000E+00 0.  1.
          4   -1    0    0  502    0 -0.00000000000E+00 -0.00000000000E+00 -0.27284015698E+04  0.27284015698E+04  0.00000000000E+00 0.  1.
        -13    1    1    2    0    0  0.22425703708E+03  0.40844497041E+03 -0.88361085126E+03  0.99894277121E+03  0.10566000000E+00 0.  1.
         13    1    1    2    0    0 -0.88381373344E+02  0.13684157380E+03 -0.51648244479E+03  0.54156348697E+03  0.10566000000E+00 0. -1.
          4    1    1    2  501    0 -0.13587566373E+03 -0.54528654421E+03 -0.11953486011E+04  0.13208549843E+04  0.00000000000E+00 0.  1.
</event>
<event>
 5    1  0.4881333E-005  0.2128656E+03  0.7818608E-02  0.1082840E+00
         21   -1    0    0  501  502  0.00000000000E+00  0.00000000000E+00  0.28926317611E+03  0.28926317611E+03  0.00000000000E+00 0. -1.
         -4   -1    0    0    0  501 -0.00000000000E+00 -0.00000000000E+00 -0.23205163476E+04  0.23205163476E+04  0.00000000000E+00 0. -1.
        -13    1    1    2    0    0  0.11473754124E+03 -0.31308702743E+03 -0.12500903761E+04  0.12937983419E+04  0.10566000000E+00 0.  1.
         13    1    1    2    0    0  0.38885963001E+02 -0.12371772445E+03  0.19579565297E+03  0.23484919065E+03  0.10566000000E+00 0. -1.
         -4    1    1    2    0  502 -0.15362350424E+03  0.43680475188E+03 -0.97695844844E+03  0.10811319912E+04  0.00000000000E+00 0. -1.
</event>
<event>
 5    1  0.4881333E-005  0.4985516E+03  0.7818608E-02  0.9615184E-01
          4   -1    0    0  502    0 -0.00000000000E+00  0.00000000000E+00  0.27696870465E+04  0.27696870465E+04  0.00000000000E+00 0.  1.
         21   -1    0    0  501  502  0.00000000000E+00 -0.00000000000E+00 -0.16539255453E+03  0.16539255453E+03  0.00000000000E+00 0.  1.
        -13    1    1    2    0    0 -0.43924465066E+03  0.45528562327E+03  0.95901717202E+03  0.11488841583E+04  0.10566000000E+00 0.  1.
         13    1    1    2    0    0  0.29143169127E+03 -0.99219068688E+02  0.66382929503E+03  0.73174189328E+03  0.10566000000E+00 0. -1.
          4    1    1    2  501    0  0.14781295939E+03 -0.35606655458E+03  0.98144802491E+03  0.10544535494E+04  0.00000000000E+00 0.  1.
</event>
<event>
 5    1  0.4881333E-005  0.1932847E+03  0.7818608E-02  0.1091904E+00
         21   -1    0    0  501  502  0.00000000000E+00  0.00000000000E+00  0.29996271856E+03  0.29996271856E+03  0.00000000000E+00 0.  1.
          4   -1    0    0  502    0 -0.00000000000E+00 -0.00000000000E+00 -0.13843142647E+04  0.13843142647E+04  0.00000000000E+00 0.  1.
        -13    1    1    2    0    0  0.44421791846E+02  0.11872011402E+03  0.16698736697E+03  0.20964864167E+03  0.10566000000E+00 0.  1.
         13    1    1    2    0    0  0.21834533128E+02  0.28222232776E+03 -0.19751561387E+03  0.34516462451E+03  0.10566000000E+00 0. -1.
          4    1    1    2  501    0 -0.66256324974E+02 -0.40094244178E+03 -0.10538232993E+04  0.11294637171E+04  0.00000000000E+00 0.  1.
</event>
<event>
 5    1  0.4881333E-005  0.1000042E+03  0.7818608E-02  0.1164548E+00
         -4   -1    0    0    0  501 -0.00000000000E+00  0.00000000000E+00  0.35747091389E+03  0.35747091389E+03  0.00000000000E+00 0. -1.
         21   -1    0    0  501  502  0.00000000000E+00 -0.00000000000E+00 -0.11698364213E+03  0.11698364213E+03  0.00000000000E+00 0. -1.
        -13    1    1    2    0    0  0.80273319366E+02  0.30212301740E+02  0.15464118189E+03  0.17683465520E+03  0.10566000000E+00 0.  1.
         13    1    1    2    0    0 -0.10937680627E+03 -0.78977527586E+02  0.15672711068E+03  0.20679490806E+03  0.10566000000E+00 0. -1.
         -4    1    1    2    0  502  0.29103486903E+02  0.48765225847E+02 -0.70881020805E+02  0.90824992772E+02  0.00000000000E+00 0. -1.
</event>
<event>
 5    1  0.5827241E-005  0.4156194E+03  0.7818608E-02  0.9961079E-01
         21   -1    0    0  501  502  0.00000000000E+00  0.00000000000E+00  0.33641159359E+03  0.33641159359E+03  0.00000000000E+00 0.  1.
          4   -1    0    0  502    0 -0.00000000000E+00 -0.00000000000E+00 -0.10559807173E+04  0.10559807173E+04  0.00000000000E+00 0.  1.
        -13    1    1    2    0    0  0.14649282505E+03 -0.27474673028E+03 -0.61938295333E+03  0.69323961776E+03  0.10566000000E+00 0.  1.
         13    1    1    2    0    0 -0.35758074560E+02 -0.15866407830E+03 -0.18234058067E+03  0.24433793844E+03  0.10566000000E+00 0. -1.
          4    1    1    2  501    0 -0.11073475049E+03  0.43341080859E+03  0.82154410282E+02  0.45481475470E+03  0.00000000000E+00 0.  1.
</event>
<event>
 5    1  0.4881333E-005  0.5198062E+03  0.7818608E-02  0.9435586E-01
          4   -1    0    0  502    0 -0.00000000000E+00  0.00000000000E+00  0.10706174332E+04  0.10706174332E+04  0.00000000000E+00 0.  1.
         21   -1    0    0  501  502  0.00000000000E+00 -0.00000000000E+00 -0.69960390837E+03  0.69960390837E+03  0.00000000000E+00 0.  1.
        -13    1    1    2    0    0  0.10947012818E+03 -0.64914145212E+03  0.28493673829E+03  0.71732648760E+03  0.10566000000E+00 0.  1.
         13    1    1    2    0    0 -0.18988969912E+02  0.45846245108E+03  0.44327787907E+03  0.63799975648E+03  0.10566000000E+00 0. -1.
          4    1    1    2  501    0 -0.90481158268E+02  0.19067900104E+03 -0.35720109252E+03  0.41489509751E+03  0.00000000000E+00 0.  1.
</event>
<event>
 5    1  0.4881333E-005  0.4819895E+03  0.7818608E-02  0.9946574E-01
         21   -1    0    0  501  502  0.00000000000E+00  0.00000000000E+00  0.10738896545E+04  0.10738896545E+04  0.00000000000E+00 0. -1.
         -4   -1    0    0    0  501 -0.00000000000E+00 -0.00000000000E+00 -0.30556440581E+03  0.30556440581E+03  0.00000000000E+00 0. -1.
        -13    1    1    2    0    0  0.97435021160E+02 -0.49767638410E+02 -0.68117101706E+01  0.10962121939E+03  0.10566000000E+00 0.  1.
         13    1    1    2    0    0  0.93598776639E+02 -0.44601837630E+03  0.48067031477E+03  0.66237231649E+03  0.10566000000E+00 0. -1.
         -4    1    1    2    0  502 -0.19103379780E+03  0.49578601471E+03  0.29446664413E+03  0.60746052447E+03  0.00000000000E+00 0. -1.
</event>
<event>
 5    1  0.4881333E-005  0.4246713E+03  0.7818608E-02  0.9678950E-01
         21   -1    0    0  501  502  0.00000000000E+00  0.00000000000E+00  0.70756660816E+03  0.70756660816E+03  0.00000000000E+00 0. -1.
         -4   -1    0    0    0  501 -0.00000000000E+00 -0.00000000000E+00 -0.77106532659E+03  0.77106532659E+03  0.00000000000E+00 0. -1.
        -13    1    1    2    0    0  0.15318254278E+03  0.36724893544E+03  0.62471370653E+01  0.39796445806E+03  0.10566000000E+00 0.  1.
         13    1    1    2    0    0  0.11542222294E+03  0.74125646421E+02 -0.42963390484E+03  0.45100133520E+03  0.10566000000E+00 0. -1.
         -4    1    1    2    0  502 -0.26860476571E+03 -0.44137458186E+03  0.35988804934E+03  0.62966614149E+03  0.00000000000E+00 0. -1.
</event>
<event>
 5    1  0.4881333E-005  0.5425369E+03  0.7818608E-02  0.9406451E-01
          4   -1    0    0  502    0 -0.00000000000E+00  0.00000000000E+00  0.24694353898E+04  0.24694353898E+04  0.00000000000E+00 0.  1.
         21   -1    0    0  501  502  0.00000000000E+00 -0.00000000000E+00 -0.30098961666E+03  0.30098961666E+03  0.00000000000E+00 0.  1.
        -13    1    1    2    0    0 -0.35492614163E+03 -0.47737455554E+03  0.72369320655E+03  0.93679821769E+03  0.10566000000E+00 0.  1.
         13    1    1    2    0    0 -0.18513220270E+03  0.52917489106E+03  0.92906003659E+03  0.10851048615E+04  0.10566000000E+00 0. -1.
          4    1    1    2  501    0  0.54005834433E+03 -0.51800335514E+02  0.51569253003E+03  0.74852192725E+03  0.00000000000E+00 0.  1.
</event>
<event>
 5    1  0.4881333E-005  0.2813730E+03  0.7818608E-02  0.1045719E+00
         21   -1    0    0  501  502  0.00000000000E+00  0.00000000000E+00  0.13457036006E+04  0.13457036006E+04  0.00000000000E+00 0.  1.
          4   -1    0    0  502    0 -0.00000000000E+00 -0.00000000000E+00 -0.23476689214E+03  0.23476689214E+03  0.00000000000E+00 0.  1.
        -13    1    1    2    0    0 -0.28443991021E+03  0.24601436268E+03 -0.23848758042E+02  0.37682609197E+03  0.10566000000E+00 0.  1.
         13    1    1    2    0    0  0.10040005536E+03 -0.44980637106E+02  0.18223933412E+03  0.21287229715E+03  0.10566000000E+00 0. -1.
          4    1    1    2  501    0  0.18403985485E+03 -0.20103372557E+03  0.95254613234E+03  0.99077210358E+03  0.00000000000E+00 0.  1.
</event>
<event>
 5    1  0.4881333E-005  0.4903629E+03  0.7818608E-02  0.9722487E-01
         21   -1    0    0  501  502  0.00000000000E+00  0.00000000000E+00  0.33618690789E+03  0.33618690789E+03  0.00000000000E+00 0.  1.
          4   -1    0    0  502    0 -0.00000000000E+00 -0.00000000000E+00 -0.13038276490E+04  0.13038276490E+04  0.00000000000E+00 0.  1.
        -13    1    1    2    0    0  0.97211111525E+02  0.53400711397E+03 -0.11942345012E+03  0.55576575063E+03  0.10566000000E+00 0.  1.
         13    1    1    2    0    0  0.14030179524E+03 -0.17217866613E+03 -0.42156831379E+03  0.47649757730E+03  0.10566000000E+00 0. -1.
          4    1    1    2  501    0 -0.23751290677E+03 -0.36182844784E+03 -0.42664897719E+03  0.60775122894E+03  0.00000000000E+00 0.  1.
</event>
<event>
 5    1  0.4881333E-005  0.4429592E+03  0.7818608E-02  0.9672521E-01
         -4   -1    0    0    0  501 -0.00000000000E+00  0.00000000000E+00  0.25609293194E+04  0.25609293194E+04  0.00000000000E+00 0. -1.
         21   -1    0    0  501  502  0.00000000000E+00 -0.00000000000E+00 -0.33503016780E+03  0.33503016780E+03  0.00000000000E+00 0. -1.
        -13    1    1    2    0    0 -0.35594034926E+03 -0.43741370777E+02  0.16617695071E+04  0.17000249250E+04  0.10566000000E+00 0.  1.
         13    1    1    2    0    0  0.12984681995E+03 -0.39233613934E+03  0.57078286433E+03  0.70468498796E+03  0.10566000000E+00 0. -1.
         -4    1    1    2    0  502  0.22609352931E+03  0.43607751011E+03 -0.66532198562E+01  0.49124957421E+03  0.00000000000E+00 0. -1.
</event>
<event>
 5    1  0.4881333E-005  0.4156019E+03  0.7818608E-02  0.9843188E-01
         21   -1    0    0  501  502  0.00000000000E+00  0.00000000000E+00  0.17026544463E+03  0.17026544463E+03  0.00000000000E+00 0.  1.
          4   -1    0    0  502    0 -0.00000000000E+00 -0.00000000000E+00 -0.25729342292E+04  0.25729342292E+04  0.00000000000E+00 0.  1.
        -13    1    1    2    0    0 -0.38394713494E+03 -0.19640591245E+02 -0.28688909734E+03  0.47969419487E+03  0.10566000000E+00 0.  1.
         13    1    1    2    0    0 -0.12072811886E+03 -0.20889090551E+03 -0.80712447555E+03  0.84241356784E+03  0.10566000000E+00 0. -1.
          4    1    1    2  501    0  0.50467525380E+03  0.22853149675E+03 -0.13086552116E+04  0.14210919111E+04  0.00000000000E+00 0.  1.
</event>
<event>
 5    1  0.4881333E-005  0.5748579E+02  0.7818608E-02  0.1310652E+00
          4   -1    0    0  502    0 -0.00000000000E+00  0.00000000000E+00  0.24644807236E+03  0.24644807236E+03  0.00000000000E+00 0.  1.
         21   -1    0    0  501  502  0.00000000000E+00 -0.00000000000E+00 -0.24555781893E+02  0.24555781893E+02  0.00000000000E+00 0.  1.
        -13    1    1    2    0    0 -0.50145546037E+02  0.43562150643E+02  0.14838132786E+03  0.16257080420E+03  0.10566000000E+00 0.  1.
         13    1    1    2    0    0  0.22602050487E+02  0.32378974530E+01  0.10155504853E+02  0.24989640033E+02  0.10566000000E+00 0. -1.
          4    1    1    2  501    0  0.27543495551E+02 -0.46800048096E+02  0.63355457751E+02  0.83443410020E+02  0.00000000000E+00 0.  1.
</event>
<event>
 5    1  0.4881333E-005  0.2833277E+03  0.7818608E-02  0.1014435E+00
         21   -1    0    0  501  502  0.00000000000E+00  0.00000000000E+00  0.60190024525E+02  0.60190024525E+02  0.00000000000E+00 0.  1.
          4   -1    0    0  502    0 -0.00000000000E+00 -0.00000000000E+00 -0.27752832579E+04  0.27752832579E+04  0.00000000000E+00 0.  1.
        -13    1    1    2    0    0  0.31798294190E+03  0.19549405881E+03 -0.17995531416E+04  0.18378581553E+04  0.10566000000E+00 0.  1.
         13    1    1    2    0    0 -0.16381133922E+03 -0.12887877721E+03 -0.65738651682E+03  0.68963826586E+03  0.10566000000E+00 0. -1.
          4    1    1    2  501    0 -0.15417160268E+03 -0.66615281600E+02 -0.25815357494E+03  0.30797686126E+03  0.00000000000E+00 0.  1.
</event>
<event>
 5    1  0.4881333E-005  0.1101216E+03  0.7818608E-02  0.1165285E+00
         -4   -1    0    0    0  501 -0.00000000000E+00  0.00000000000E+00  0.17888066886E+03  0.17888066886E+03  0.00000000000E+00 0. -1.
         21   -1    0    0  501  502  0.00000000000E+00 -0.00000000000E+00 -0.22076508128E+03  0.22076508128E+03  0.00000000000E+00 0.  1.
        -13    1    1    2    0    0 -0.66329312793E+01  0.73275607100E+02 -0.81369525913E+02  0.10970105416E+03  0.10566000000E+00 0.  1.
         13    1    1    2    0    0 -0.87349776878E+02  0.51666859703E+00  0.11811324204E+03  0.14690472959E+03  0.10566000000E+00 0. -1.
         -4    1    1    2    0  502  0.93982708157E+02 -0.73792275697E+02 -0.78628128546E+02  0.14303996639E+03  0.00000000000E+00 0. -1.
</event>
<event>
 5    1  0.4881333E-005  0.4688532E+03  0.7818608E-02  0.1004779E+00
         21   -1    0    0  501  502  0.00000000000E+00  0.00000000000E+00  0.24391192710E+03  0.24391192710E+03  0.00000000000E+00 0.  1.
          4   -1    0    0  502    0 -0.00000000000E+00 -0.00000000000E+00 -0.13554887548E+04  0.13554887548E+04  0.00000000000E+00 0.  1.
        -13    1    1    2    0    0 -0.62101112985E+02  0.48324905786E+03 -0.22606653350E+03  0.53711478185E+03  0.10566000000E+00 0.  1.
         13    1    1    2    0    0  0.75612174701E+02 -0.39465954944E+02 -0.38011756206E+03  0.38956916550E+03  0.10566000000E+00 0. -1.
          4    1    1    2  501    0 -0.13511061715E+02 -0.44378310291E+03 -0.50539273211E+03  0.67271673451E+03  0.00000000000E+00 0.  1.
</event>
<event>
 5    1  0.4881333E-005  0.2331303E+02  0.7818608E-02  0.1468389E+00
         21   -1    0    0  501  502  0.00000000000E+00  0.00000000000E+00  0.99863043581E+02  0.99863043581E+02  0.00000000000E+00 0. -1.
         -4   -1    0    0    0  501 -0.00000000000E+00 -0.00000000000E+00 -0.12850370622E+03  0.12850370622E+03  0.00000000000E+00 0. -1.
        -13    1    1    2    0    0 -0.11497395178E+02  0.89917212893E+01  0.44313788106E+01  0.15254161066E+02  0.10566000000E+00 0.  1.
         13    1    1    2    0    0  0.16335059425E+02 -0.18142437494E+02 -0.12157727602E+03  0.12400414273E+03  0.10566000000E+00 0. -1.
         -4    1    1    2    0  502 -0.48376642470E+01  0.91507162046E+01  0.88505234575E+02  0.89108446006E+02  0.00000000000E+00 0. -1.
</event>
<event>
 5    1  0.4881333E-005  0.3963270E+03  0.7818608E-02  0.9739714E-01
         -4   -1    0    0    0  501 -0.00000000000E+00  0.00000000000E+00  0.31708663977E+04  0.31708663977E+04  0.00000000000E+00 0. -1.
         21   -1    0    0  501  502  0.00000000000E+00 -0.00000000000E+00 -0.16316398187E+03  0.16316398187E+03  0.00000000000E+00 0. -1.
        -13    1    1    2    0    0 -0.34451069493E+03 -0.14199770117E+03  0.60544382708E+03  0.71092419074E+03  0.10566000000E+00 0.  1.
         13    1    1    2    0    0  0.26273033888E+03  0.32297331543E+03  0.23879751981E+04  0.24239976385E+04  0.10566000000E+00 0. -1.
         -4    1    1    2    0  502  0.81780356058E+02 -0.18097561426E+03  0.14283390706E+02  0.19910855041E+03  0.00000000000E+00 0. -1.
</event>
<event>
 5    1  0.4881333E-005  0.5413878E+03  0.7818608E-02  0.9616024E-01
         -4   -1    0    0    0  501 -0.00000000000E+00  0.00000000000E+00  0.29979028423E+04  0.29979028423E+04  0.00000000000E+00 0. -1.
         21   -1    0    0  501  502  0.00000000000E+00 -0.00000000000E+00 -0.15663570758E+03  0.15663570758E+03  0.00000000000E+00 0. -1.
        -13    1    1    2    0    0 -0.14632194729E+03 -0.18985351565E+03  0.44262274505E+03  0.50335809844E+03  0.10566000000E+00 0.  1.
         13    1    1    2    0    0  0.57919621230E+03  0.22670258559E+03  0.92374102823E+03  0.11136246284E+04  0.10566000000E+00 0. -1.
         -4    1    1    2    0  502 -0.43287426501E+03 -0.36849069947E+02  0.14749033615E+04  0.15375558230E+04  0.00000000000E+00 0. -1.
</event>
<event>
 5    1  0.4881333E-005  0.4525392E+03  0.7818608E-02  0.9884978E-01
          4   -1    0    0  502    0 -0.00000000000E+00  0.00000000000E+00  0.10390602485E+04  0.10390602485E+04  0.00000000000E+00 0.  1.
         21   -1    0    0  501  502  0.00000000000E+00 -0.00000000000E+00 -0.39965219728E+03  0.39965219728E+03  0.00000000000E+00 0.  1.
        -13    1    1    2    0    0  0.39442418381E+03 -0.20159028375E+03  0.33124531895E+03  0.55311169918E+03  0.10566000000E+00 0.  1.
         13    1    1    2    0    0  0.68071308936E+02  0.14736938207E+03  0.38112574367E+03  0.41425629932E+03  0.10566000000E+00 0. -1.
          4    1    1    2  501    0 -0.46249549275E+03  0.54220901683E+02 -0.72963011362E+02  0.47134444732E+03  0.00000000000E+00 0.  1.
</event>
<event>
 5    1  0.4881333E-005  0.2498195E+03  0.7818608E-02  0.1030486E+00
         21   -1    0    0  501  502  0.00000000000E+00  0.00000000000E+00  0.65533369732E+03  0.65533369732E+03  0.00000000000E+00 0. -1.
         -4   -1    0    0    0  501 -0.00000000000E+00 -0.00000000000E+00 -0.38958217704E+03  0.38958217704E+03  0.00000000000E+00 0. -1.
        -13    1    1    2    0    0  0.11288393376E+03  0.22951057531E+03  0.17202069247E+03  0.30823532646E+03  0.10566000000E+00 0.  1.
         13    1    1    2    0    0 -0.38639065762E+01 -0.25285468401E+03 -0.26185194448E+03  0.36402867056E+03  0.10566000000E+00 0. -1.
         -4    1    1    2    0  502 -0.10902002718E+03  0.23344108703E+02  0.35558277229E+03  0.37265187734E+03  0.00000000000E+00 0. -1.
</event>
<event>
 5    1  0.4881333E-005  0.2957882E+03  0.7818608E-02  0.1009059E+00
         21   -1    0    0  501  502  0.00000000000E+00  0.00000000000E+00  0.90836949639E+03  0.90836949639E+03  0.00000000000E+00 0. -1.
         -4   -1    0    0    0  501 -0.00000000000E+00 -0.00000000000E+00 -0.11589978786E+04  0.11589978786E+04  0.00000000000E+00 0. -1.
        -13    1    1    2    0    0 -0.46852127966E+03 -0.17315656425E+03 -0.61393625883E+03  0.79146264997E+03  0.10566000000E+00 0.  1.
         13    1    1    2    0    0  0.22797886916E+03  0.22514040198E+02 -0.40032205691E+03  0.46123638972E+03  0.10566000000E+00 0. -1.
         -4    1    1    2    0  502  0.24054241049E+03  0.15064252405E+03  0.76362993348E+03  0.81466833534E+03  0.00000000000E+00 0. -1.
</event>
<event>
 5    1  0.4881333E-005  0.8659477E+02  0.7818608E-02  0.1188869E+00
         -4   -1    0    0    0  501 -0.00000000000E+00  0.00000000000E+00  0.51425231104E+02  0.51425231104E+02  0.00000000000E+00 0. -1.
         21   -1    0    0  501  502  0.00000000000E+00 -0.00000000000E+00 -0.32043767848E+03  0.32043767848E+03  0.00000000000E+00 0. -1.
        -13    1    1    2    0    0 -0.49769908608E+02  0.46454353369E+02 -0.14001982304E+03  0.15569397149E+03  0.10566000000E+00 0.  1.
         13    1    1    2    0    0  0.80019297819E+02 -0.48517827642E+02 -0.10859822916E+02  0.94207295579E+02  0.10566000000E+00 0. -1.
         -4    1    1    2    0  502 -0.30249389210E+02  0.20634742731E+01 -0.11813280142E+03  0.12196164251E+03  0.00000000000E+00 0. -1.
</event>
<event>
 5    1  0.4881333E-005  0.4867164E+03  0.7818608E-02  0.9682148E-01
         -4   -1    0    0    0  501 -0.00000000000E+00  0.00000000000E+00  0.25945748308E+04  0.25945748308E+04  0.00000000000E+00 0. -1.
         21   -1    0    0  501  502  0.00000000000E+00 -0.00000000000E+00 -0.25898947661E+03  0.25898947661E+03  0.00000000000E+00 0. -1.
        -13    1    1    2    0    0  0.24731075010E+03  0.84586908419E+02  0.15071832909E+04  0.15296793899E+04  0.10566000000E+00 0.  1.
         13    1    1    2    0    0 -0.58646472584E+03  0.16654783982E+03  0.51817089120E+03  0.80011258037E+03  0.10566000000E+00 0. -1.
         -4    1    1    2    0  502  0.33915397574E+03 -0.25113474824E+03  0.31023117200E+03  0.52377233711E+03  0.00000000000E+00 0. -1.
</event>
<event>
 5    1  0.4881333E-005  0.4559998E+03  0.7818608E-02  0.9597524E-01
         21   -1    0    0  501  502  0.00000000000E+00  0.00000000000E+00  0.33637723983E+03  0.33637723983E+03  0.00000000000E+00 0.  1.
          4   -1    0    0  502    0 -0.00000000000E+00 -0.00000000000E+00 -0.17314133846E+04  0.17314133846E+04  0.00000000000E+00 0.  1.
        -13    1    1    2    0    0 -0.10615511118E+02 -0.15548846528E+03 -0.92696274226E+03  0.93997302547E+03  0.10566000000E+00 0.  1.
         13    1    1    2    0    0 -0.12439541783E+03 -0.40992619517E+03 -0.29902239931E+03  0.52242522136E+03  0.10566000000E+00 0. -1.
          4    1    1    2  501    0  0.13501092894E+03  0.56541466044E+03 -0.16905100320E+03  0.60539237760E+03  0.00000000000E+00 0.  1.
</event>
<event>
 5    1  0.4881333E-005  0.2048021E+03  0.7818608E-02  0.1099346E+00
         21   -1    0    0  501  502  0.00000000000E+00  0.00000000000E+00  0.15330565908E+03  0.15330565908E+03  0.00000000000E+00 0.  1.
          4   -1    0    0  502    0 -0.00000000000E+00 -0.00000000000E+00 -0.18237837120E+04  0.18237837120E+04  0.00000000000E+00 0.  1.
        -13    1    1    2    0    0 -0.32371297718E+02 -0.19944672395E+03  0.62155421282E+02  0.21140057751E+03  0.10566000000E+00 0.  1.
         13    1    1    2    0    0 -0.20997951627E+02 -0.58145053662E+02 -0.16630686479E+03  0.17742532423E+03  0.10566000000E+00 0. -1.
          4    1    1    2  501    0  0.53369249345E+02  0.25759177761E+03 -0.15663266094E+04  0.15882634693E+04  0.00000000000E+00 0.  1.
</event>
<event>
 5    1  0.4881333E-005  0.8174586E+03  0.7818608E-02  0.8968090E-01
         -4   -1    0    0    0  501 -0.00000000000E+00  0.00000000000E+00  0.40119399315E+03  0.40119399315E+03  0.00000000000E+00 0. -1.
         21   -1    0    0  501  502  0.00000000000E+00 -0.00000000000E+00 -0.25159671626E+04  0.25159671626E+04  0.00000000000E+00 0. -1.
        -13    1    1    2    0    0  0.10555163678E+03  0.67312614307E+03 -0.12943609891E+04  0.14627406926E+04  0.10566000000E+00 0.  1.
         13    1    1    2    0    0 -0.21295075585E+02 -0.91618601399E+03 -0.75903237144E+03  0.11899497655E+04  0.10566000000E+00 0. -1.
         -4    1    1    2    0  502 -0.84256561190E+02  0.24305987092E+03 -0.61379808929E+02  0.26447069762E+03  0.00000000000E+00 0. -1.
</event>
<event>
 5    1  0.4881333E-005  0.2982495E+03  0.7818608E-02  0.1008031E+00
          4   -1    0    0  502    0 -0.00000000000E+00  0.00000000000E+00  0.84582104525E+03  0.84582104525E+03  0.00000000000E+00 0.  1.
         21   -1    0    0  501  502  0.00000000000E+00 -0.00000000000E+00 -0.70074894024E+03  0.70074894024E+03  0.00000000000E+00 0.  1.
        -13    1    1    2    0    0 -0.25978986329E+03  0.69912749817E+02  0.46409238400E+03  0.53643295733E+03  0.10566000000E+00 0.  1.
         13    1    1    2    0    0  0.41393531671E+03  0.74973327675E+01  0.20246935304E+03  0.46086061504E+03  0.10566000000E+00 0. -1.
          4    1    1    2  501    0 -0.15414545342E+03 -0.77410082584E+02 -0.52148963203E+03  0.54927641312E+03  0.00000000000E+00 0.  1.
</event>
<event>
 5    1  0.4881333E-005  0.4492138E+03  0.7818608E-02  0.9723582E-01
          4   -1    0    0  502    0 -0.00000000000E+00  0.00000000000E+00  0.24700769578E+04  0.24700769578E+04  0.00000000000E+00 0.  1.
         21   -1    0    0  501  502  0.00000000000E+00 -0.00000000000E+00 -0.21381078493E+03  0.21381078493E+03  0.00000000000E+00 0.  1.
        -13    1    1    2    0    0 -0.39638663887E+02  0.31912259121E+03  0.96731069670E+03  0.10193627652E+04  0.10566000000E+00 0.  1.
         13    1    1    2    0    0 -0.27413089955E+03  0.87666001198E+02  0.10665681738E+04  0.11047175016E+04  0.10566000000E+00 0. -1.
          4    1    1    2  501    0  0.31376956344E+03 -0.40678859241E+03  0.22238730235E+03  0.55980747592E+03  0.00000000000E+00 0.  1.
</event>
<event>
 5    1  0.4881333E-005  0.1722701E+03  0.7818608E-02  0.1081009E+00
         -4   -1    0    0    0  501 -0.00000000000E+00  0.00000000000E+00  0.55685354539E+02  0.55685354539E+02  0.00000000000E+00 0. -1.
         21   -1    0    0  501  502  0.00000000000E+00 -0.00000000000E+00 -0.68860911404E+03  0.68860911404E+03  0.00000000000E+00 0.  1.
        -13    1    1    2    0    0  0.15851417197E+03 -0.32300749623E+02 -0.28696815998E+03  0.32942497954E+03  0.10566000000E+00 0.  1.
         13    1    1    2    0    0 -0.17551316186E+03  0.42304623191E+02 -0.20763130659E+03  0.27514600082E+03  0.10566000000E+00 0. -1.
         -4    1    1    2    0  502  0.16998989891E+02 -0.10003873568E+02 -0.13832429293E+03  0.13972348821E+03  0.00000000000E+00 0. -1.
</event>
<event>
 5    1  0.4881333E-005  0.1345982E+03  0.7818608E-02  0.1117380E+00
         -4   -1    0    0    0  501 -0.00000000000E+00  0.00000000000E+00  0.13797668775E+03  0.13797668775E+03  0.00000000000E+00 0. -1.
         21   -1    0    0  501  502  0.00000000000E+00 -0.00000000000E+00 -0.20848195983E+03  0.20848195983E+03  0.00000000000E+00 0. -1.
        -13    1    1    2    0    0 -0.10529058872E+03  0.33806875465E+02 -0.53508782680E+02  0.12285037195E+03  0.10566000000E+00 0.  1.
         13    1    1    2    0    0  0.16121870569E+03 -0.99107301597E+01 -0.19754118270E+02  0.16272654974E+03  0.10566000000E+00 0. -1.
         -4    1    1    2    0  502 -0.55928116977E+02 -0.23896145305E+02  0.27576288711E+01  0.60881725879E+02  0.00000000000E+00 0. -1.
</event>
<event>
 5    1  0.4881333E-005  0.3551437E+02  0.7818608E-02  0.1365414E+00
         21   -1    0    0  501  502  0.00000000000E+00  0.00000000000E+00  0.27479857787E+02  0.27479857787E+02  0.00000000000E+00 0. -1.
          4   -1    0    0  502    0 -0.00000000000E+00 -0.00000000000E+00 -0.90181701355E+02  0.90181701355E+02  0.00000000000E+00 0.  1.
        -13    1    1    2    0    0 -0.29027880581E+02 -0.10944436028E+02 -0.24561678194E+02  0.39568746894E+02  0.10566000000E+00 0.  1.
         13    1    1    2    0    0  0.33716193844E+02  0.22177914750E+02 -0.47796499745E+02  0.62555241043E+02  0.10566000000E+00 0. -1.
          4    1    1    2  501    0 -0.46883132634E+01 -0.11233478722E+02  0.96563343716E+01  0.15537571205E+02  0.00000000000E+00 0.  1.
</event>
<event>
 5    1  0.4881333E-005  0.4441657E+03  0.7818608E-02  0.1022527E+00
         -4   -1    0    0    0  501 -0.00000000000E+00  0.00000000000E+00  0.30515241719E+04  0.30515241719E+04  0.00000000000E+00 0. -1.
         21   -1    0    0  501  502  0.00000000000E+00 -0.00000000000E+00 -0.92178772987E+02  0.92178772987E+02  0.00000000000E+00 0. -1.
        -13    1    1    2    0    0 -0.70279282743E+01 -0.56506185833E+02  0.69494236502E+02  0.89843201658E+02  0.10566000000E+00 0.  1.
         13    1    1    2    0    0  0.18062866541E+03 -0.36748735760E+03  0.21101553153E+04  0.21495183504E+04  0.10566000000E+00 0. -1.
         -4    1    1    2    0  502 -0.17360073713E+03  0.42399354343E+03  0.77969584704E+03  0.90434139278E+03  0.00000000000E+00 0. -1.
</event>
<event>
 5    1  0.4881333E-005  0.4704286E+03  0.7818608E-02  0.9812856E-01
          4   -1    0    0  502    0 -0.00000000000E+00  0.00000000000E+00  0.21094362244E+04  0.21094362244E+04  0.00000000000E+00 0.  1.
         21   -1    0    0  501  502  0.00000000000E+00 -0.00000000000E+00 -0.20369384702E+03  0.20369384702E+03  0.00000000000E+00 0.  1.
        -13    1    1    2    0    0 -0.51868677285E+03 -0.68015234843E+02  0.83948998210E+03  0.98914381246E+03  0.10566000000E+00 0.  1.
         13    1    1    2    0    0  0.11573094816E+03 -0.14356694767E+03  0.74352055951E+03  0.76604696619E+03  0.10566000000E+00 0. -1.
          4    1    1    2  501    0  0.40295582469E+03  0.21158218252E+03  0.32273183576E+03  0.55793929278E+03  0.00000000000E+00 0.  1.
</event>
<event>
 5    1  0.4881333E-005  0.2007359E+03  0.7818608E-02  0.1059632E+00
          4   -1    0    0  502    0 -0.00000000000E+00  0.00000000000E+00  0.20610575683E+03  0.20610575683E+03  0.00000000000E+00 0.  1.
         21   -1    0    0  501  502  0.00000000000E+00 -0.00000000000E+00 -0.54858756166E+03  0.54858756166E+03  0.00000000000E+00 0.  1.
        -13    1    1    2    0    0 -0.12722745702E+02  0.19363146813E+03 -0.10917301680E+03  0.22265168418E+03  0.10566000000E+00 0.  1.
         13    1    1    2    0    0 -0.41386244631E+02 -0.20157826049E+03  0.74921321158E+02  0.21899733304E+03  0.10566000000E+00 0. -1.
          4    1    1    2  501    0  0.54108990333E+02  0.79467923655E+01 -0.30823010919E+03  0.31304430127E+03  0.00000000000E+00 0.  1.
</event>
<event>
 5    1  0.4881333E-005  0.3724023E+03  0.7818608E-02  0.9963940E-01
          4   -1    0    0  502    0 -0.00000000000E+00  0.00000000000E+00  0.38484641755E+04  0.38484641755E+04  0.00000000000E+00 0.  1.
         21   -1    0    0  501  502  0.00000000000E+00 -0.00000000000E+00 -0.11357918552E+03  0.11357918552E+03  0.00000000000E+00 0.  1.
        -13    1    1    2    0    0  0.42724900355E+03 -0.28570232597E+03  0.20736300402E+04  0.21363775614E+04  0.10566000000E+00 0.  1.
         13    1    1    2    0    0 -0.22396037881E+03  0.16426656666E+01  0.13146002812E+04  0.13335422229E+04  0.10566000000E+00 0. -1.
          4    1    1    2  501    0 -0.20328862474E+03  0.28405966030E+03  0.34665466858E+03  0.49212357677E+03  0.00000000000E+00 0.  1.
</event>
<event>
 5    1  0.4881333E-005  0.5581671E+03  0.7818608E-02  0.9358849E-01
         21   -1    0    0  501  502  0.00000000000E+00  0.00000000000E+00  0.13400689878E+04  0.13400689878E+04  0.00000000000E+00 0.  1.
          4   -1    0    0  502    0 -0.00000000000E+00 -0.00000000000E+00 -0.59842390781E+03  0.59842390781E+03  0.00000000000E+00 0.  1.
        -13    1    1    2    0    0  0.65849792546E+03 -0.42773042312E+03  0.81280949432E+03  0.11301469453E+04  0.10566000000E+00 0.  1.
         13    1    1    2    0    0 -0.42925274463E+03  0.27866066488E+03 -0.13133312668E+03  0.52835412958E+03  0.10566000000E+00 0. -1.
          4    1    1    2  501    0 -0.22924518083E+03  0.14906975824E+03  0.60168712371E+02  0.27999182078E+03  0.00000000000E+00 0.  1.
</event>
<event>
 5    1  0.4881333E-005  0.3125381E+03  0.7818608E-02  0.1002260E+00
          4   -1    0    0  502    0 -0.00000000000E+00  0.00000000000E+00  0.10232333398E+04  0.10232333398E+04  0.00000000000E+00 0.  1.
         21   -1    0    0  501  502  0.00000000000E+00 -0.00000000000E+00 -0.28813651078E+03  0.28813651078E+03  0.00000000000E+00 0.  1.
        -13    1    1    2    0    0  0.37416602817E+03  0.10015071235E+03  0.50606384824E+03  0.63728409009E+03  0.10566000000E+00 0.  1.
         13    1    1    2    0    0 -0.18541520634E+03 -0.20835168395E+03  0.33181622712E+03  0.43346423461E+03  0.10566000000E+00 0. -1.
          4    1    1    2  501    0 -0.18875082183E+03  0.10820097160E+03 -0.10278324633E+03  0.24062152589E+03  0.00000000000E+00 0.  1.
</event>
<event>
 5    1  0.4881333E-005  0.1944749E+03  0.7818608E-02  0.1063991E+00
          4   -1    0    0  502    0 -0.00000000000E+00  0.00000000000E+00  0.99792758509E+03  0.99792758509E+03  0.00000000000E+00 0.  1.
         21   -1    0    0  501  502  0.00000000000E+00 -0.00000000000E+00 -0.57185218679E+02  0.57185218679E+02  0.00000000000E+00 0. -1.
        -13    1    1    2    0    0  0.19229639044E+03 -0.40162170986E+02  0.67609742866E+03  0.70405869496E+03  0.10566000000E+00 0.  1.
         13    1    1    2    0    0 -0.17679469705E+03  0.74144554590E+02  0.20496901197E+03  0.28065296526E+03  0.10566000000E+00 0. -1.
          4    1    1    2  501    0 -0.15501693383E+02 -0.33982383604E+02  0.59675925789E+02  0.70401143542E+02  0.00000000000E+00 0.  1.
</event>
<event>
 5    1  0.4881333E-005  0.4189123E+03  0.7818608E-02  0.9767710E-01
         21   -1    0    0  501  502  0.00000000000E+00  0.00000000000E+00  0.76384006764E+03  0.76384006764E+03  0.00000000000E+00 0. -1.
         -4   -1    0    0    0  501 -0.00000000000E+00 -0.00000000000E+00 -0.15171792286E+04  0.15171792286E+04  0.00000000000E+00 0. -1.
        -13    1    1    2    0    0 -0.30268973755E+03 -0.35415217160E+02 -0.11331312763E+04  0.11733975521E+04  0.10566000000E+00 0.  1.
         13    1    1    2    0    0  0.10371860735E+03  0.42569099481E+03  0.48856363618E+03  0.65625056978E+03  0.10566000000E+00 0. -1.
         -4    1    1    2    0  502  0.19897113020E+03 -0.39027577765E+03 -0.10877152083E+03  0.45137117434E+03  0.00000000000E+00 0. -1.
</event>
<event>
 5    1  0.4881333E-005  0.4965278E+03  0.7818608E-02  0.9544579E-01
         21   -1    0    0  501  502  0.00000000000E+00  0.00000000000E+00  0.57764276420E+03  0.57764276420E+03  0.00000000000E+00 0. -1.
          4   -1    0    0  502    0 -0.00000000000E+00 -0.00000000000E+00 -0.11888434893E+04  0.11888434893E+04  0.00000000000E+00 0.  1.
        -13    1    1    2    0    0 -0.32271648378E+03  0.46860339745E+02 -0.19410045393E+03  0.37949547787E+03  0.10566000000E+00 0.  1.
         13    1    1    2    0    0 -0.32835311586E+03 -0.23027200500E+03 -0.56668003787E+03  0.69423860557E+03  0.10566000000E+00 0. -1.
          4    1    1    2  501    0  0.65106959964E+03  0.18341166526E+03  0.14957976670E+03  0.69275217007E+03  0.00000000000E+00 0.  1.
</event>
<event>
 5    1  0.4881333E-005  0.5399978E+03  0.7818608E-02  0.9394365E-01
          4   -1    0    0  502    0 -0.00000000000E+00  0.00000000000E+00  0.28331886546E+04  0.28331886546E+04  0.00000000000E+00 0.  1.
         21   -1    0    0  501  502  0.00000000000E+00 -0.00000000000E+00 -0.27340432879E+03  0.27340432879E+03  0.00000000000E+00 0. -1.
        -13    1    1    2    0    0 -0.63006218464E+03  0.29996524440E+03  0.10005461687E+04  0.12198566109E+04  0.10566000000E+00 0.  1.
         13    1    1    2    0    0  0.49825120868E+03  0.73680956987E+01  0.14526694350E+04  0.15357594390E+04  0.10566000000E+00 0. -1.
          4    1    1    2  501    0  0.13181097597E+03 -0.30733334010E+03  0.10656872209E+03  0.35097693350E+03  0.00000000000E+00 0.  1.
</event>
<event>
 5    1  0.4881333E-005  0.5036875E+03  0.7818608E-02  0.9729270E-01
         21   -1    0    0  501  502  0.00000000000E+00  0.00000000000E+00  0.19538386334E+03  0.19538386334E+03  0.00000000000E+00 0.  1.
          4   -1    0    0  502    0 -0.00000000000E+00 -0.00000000000E+00 -0.24623316836E+04  0.24623316836E+04  0.00000000000E+00 0.  1.
        -13    1    1    2    0    0  0.11955737849E+03  0.41446076728E+03 -0.85745137829E+03  0.95984090956E+03  0.10566000000E+00 0.  1.
         13    1    1    2    0    0 -0.13845488567E+03  0.14457573360E+03 -0.95898460688E+03  0.97965472770E+03  0.10566000000E+00 0. -1.
          4    1    1    2  501    0  0.18897507176E+02 -0.55903650088E+03 -0.45051183509E+03  0.71821990967E+03  0.00000000000E+00 0.  1.
</event>
<event>
 5    1  0.4881333E-005  0.5036335E+03  0.7818608E-02  0.9472669E-01
         -4   -1    0    0    0  501 -0.00000000000E+00  0.00000000000E+00  0.18298912898E+04  0.18298912898E+04  0.00000000000E+00 0. -1.
         21   -1    0    0  501  502  0.00000000000E+00 -0.00000000000E+00 -0.41974174700E+03  0.41974174700E+03  0.00000000000E+00 0. -1.
        -13    1    1    2    0    0  0.23713058211E+03  0.44705854870E+03  0.86305518989E+03  0.10004781511E+04  0.10566000000E+00 0.  1.
         13    1    1    2    0    0 -0.43538200392E+03  0.16604232782E+03  0.32287757394E+03  0.56690165186E+03  0.10566000000E+00 0. -1.
         -4    1    1    2    0  502  0.19825142181E+03 -0.61310087652E+03  0.22421677895E+03  0.68225323378E+03  0.00000000000E+00 0. -1.
</event>
<event>
 5    1  0.4881333E-005  0.3744644E+03  0.7818608E-02  0.9908147E-01
         -4   -1    0    0    0  501 -0.00000000000E+00  0.00000000000E+00  0.64858451242E+03  0.64858451242E+03  0.00000000000E+00 0. -1.
         21   -1    0    0  501  502  0.00000000000E+00 -0.00000000000E+00 -0.75854886825E+03  0.75854886825E+03  0.00000000000E+00 0. -1.
        -13    1    1    2    0    0  0.22555595376E+03 -0.13934401458E+03  0.19361402078E+03  0.32829657763E+03  0.10566000000E+00 0.  1.
         13    1    1    2    0    0  0.83476606866E+02  0.37424765300E+03  0.20833885346E+03  0.43638828891E+03  0.10566000000E+00 0. -1.
         -4    1    1    2    0  502 -0.30903256063E+03 -0.23490363842E+03 -0.51191723007E+03  0.64244851413E+03  0.00000000000E+00 0. -1.
</event>
<event>
 5    1  0.4881333E-005  0.3931498E+03  0.7818608E-02  0.1038442E+00
          4   -1    0    0  502    0 -0.00000000000E+00  0.00000000000E+00  0.23522271175E+03  0.23522271175E+03  0.00000000000E+00 0.  1.
         21   -1    0    0  501  502  0.00000000000E+00 -0.00000000000E+00 -0.78376921929E+03  0.78376921929E+03  0.00000000000E+00 0.  1.
        -13    1    1    2    0    0 -0.13543781582E+02 -0.41364693645E+03 -0.18357175455E+03  0.45275359997E+03  0.10566000000E+00 0.  1.
         13    1    1    2    0    0 -0.34002423180E+02  0.36978478405E+02 -0.66281901459E+02  0.83167747789E+02  0.10566000000E+00 0. -1.
          4    1    1    2  501    0  0.47546204762E+02  0.37666845804E+03 -0.29869285153E+03  0.48307058328E+03  0.00000000000E+00 0.  1.
</event>
<event>
 5    1  0.4881333E-005  0.4817402E+03  0.7818608E-02  0.1027609E+00
         -4   -1    0    0    0  501 -0.00000000000E+00  0.00000000000E+00  0.86640650446E+03  0.86640650446E+03  0.00000000000E+00 0. -1.
         21   -1    0    0  501  502  0.00000000000E+00 -0.00000000000E+00 -0.34454508083E+03  0.34454508083E+03  0.00000000000E+00 0. -1.
        -13    1    1    2    0    0 -0.53151764822E+01  0.37712404801E+02  0.13640982548E+03  0.14162672145E+03  0.10566000000E+00 0.  1.
         13    1    1    2    0    0 -0.17706344371E+01 -0.50539771115E+03  0.31703660274E+03  0.59660891732E+03  0.10566000000E+00 0. -1.
         -4    1    1    2    0  502  0.70858109193E+01  0.46768530635E+03  0.68414995411E+02  0.47271594652E+03  0.00000000000E+00 0. -1.
</event>
<event>
 5    1  0.4881333E-005  0.1807592E+03  0.7818608E-02  0.1074192E+00
         -4   -1    0    0    0  501 -0.00000000000E+00  0.00000000000E+00  0.29920820170E+03  0.29920820170E+03  0.00000000000E+00 0. -1.
         21   -1    0    0  501  502  0.00000000000E+00 -0.00000000000E+00 -0.32668892874E+03  0.32668892874E+03  0.00000000000E+00 0. -1.
        -13    1    1    2    0    0  0.15413387178E+03  0.18897456085E+02  0.98357876258E+02  0.18381688514E+03  0.10566000000E+00 0.  1.
         13    1    1    2    0    0 -0.24767673217E+03  0.23585068243E+02  0.34982013479E+02  0.25124444578E+03  0.10566000000E+00 0. -1.
         -4    1    1    2    0  502  0.93542860392E+02 -0.42482524329E+02 -0.16082061678E+03  0.19083579953E+03  0.00000000000E+00 0. -1.
</event>
<event>
 5    1  0.4881333E-005  0.5005528E+03  0.7818608E-02  0.9572711E-01
         -4   -1    0    0    0  501 -0.00000000000E+00  0.00000000000E+00  0.12429381332E+04  0.12429381332E+04  0.00000000000E+00 0. -1.
         21   -1    0    0  501  502  0.00000000000E+00 -0.00000000000E+00 -0.43034471682E+03  0.43034471682E+03  0.00000000000E+00 0. -1.
        -13    1    1    2    0    0 -0.18614568164E+03  0.30094529500E+03  0.39943779493E+03  0.53363737553E+03  0.10566000000E+00 0.  1.
         13    1    1    2    0    0 -0.38055322159E+03  0.22204565222E+02  0.28215385415E+03  0.47426216985E+03  0.10566000000E+00 0. -1.
         -4    1    1    2    0  502  0.56669890323E+03 -0.32314986022E+03  0.13100176732E+03  0.66538330466E+03  0.00000000000E+00 0. -1.
</event>
<event>
 5    1  0.4881333E-005  0.2344813E+03  0.7818608E-02  0.1038764E+00
         21   -1    0    0  501  502  0.00000000000E+00  0.00000000000E+00  0.96777676920E+02  0.96777676920E+02  0.00000000000E+00 0. -1.
          4   -1    0    0  502    0 -0.00000000000E+00 -0.00000000000E+00 -0.93112562224E+03  0.93112562224E+03  0.00000000000E+00 0.  1.
        -13    1    1    2    0    0  0.17234651118E+03  0.18324709974E+03 -0.58485237994E+03  0.63665935709E+03  0.10566000000E+00 0.  1.
         13    1    1    2    0    0 -0.17443744722E+03 -0.10093545570E+03 -0.11089476152E+03  0.23003053820E+03  0.10566000000E+00 0. -1.
          4    1    1    2  501    0  0.20909360401E+01 -0.82311644044E+02 -0.13860080386E+03  0.16121340388E+03  0.00000000000E+00 0.  1.
</event>
<event>
 5    1  0.4881333E-005  0.1027244E+04  0.7818608E-02  0.8749407E-01
         21   -1    0    0  501  502  0.00000000000E+00  0.00000000000E+00  0.69073916723E+03  0.69073916723E+03  0.00000000000E+00 0.  1.
         -4   -1    0    0    0  501 -0.00000000000E+00 -0.00000000000E+00 -0.22663623462E+04  0.22663623462E+04  0.00000000000E+00 0. -1.
        -13    1    1    2    0    0 -0.10070046386E+04  0.23314512045E+03 -0.11804991054E+04  0.15690739748E+04  0.10566000000E+00 0.  1.
         13    1    1    2    0    0  0.99799546488E+03 -0.20043938215E+03 -0.59917354338E+03  0.11811773110E+04  0.10566000000E+00 0. -1.
         -4    1    1    2    0  502  0.90091737499E+01 -0.32705738301E+02  0.20404946979E+03  0.20685022758E+03  0.00000000000E+00 0. -1.
</event>
<event>
 5    1  0.4881333E-005  0.5140463E+02  0.7818608E-02  0.1286173E+00
         21   -1    0    0  501  502  0.00000000000E+00  0.00000000000E+00  0.59796159104E+02  0.59796159104E+02  0.00000000000E+00 0.  1.
         -4   -1    0    0    0  501 -0.00000000000E+00 -0.00000000000E+00 -0.82372554258E+02  0.82372554258E+02  0.00000000000E+00 0. -1.
        -13    1    1    2    0    0  0.24350837319E+02  0.23818861463E+02  0.22381617172E+02  0.40758427237E+02  0.10566000000E+00 0.  1.
         13    1    1    2    0    0 -0.44047915651E+02 -0.44228184466E+02 -0.28523842657E+02  0.68629235304E+02  0.10566000000E+00 0. -1.
         -4    1    1    2    0  502  0.19697078332E+02  0.20409323003E+02 -0.16434169669E+02  0.32781050822E+02  0.00000000000E+00 0. -1.
</event>
<event>
 5    1  0.4881333E-005  0.5181505E+03  0.7818608E-02  0.9439053E-01
         -4   -1    0    0    0  501 -0.00000000000E+00  0.00000000000E+00  0.26867227006E+04  0.26867227006E+04  0.00000000000E+00 0. -1.
         21   -1    0    0  501  502  0.00000000000E+00 -0.00000000000E+00 -0.20835493026E+03  0.20835493026E+03  0.00000000000E+00 0. -1.
        -13    1    1    2    0    0 -0.33936472867E+03 -0.22921393538E+03  0.73242493846E+03  0.83913869467E+03  0.10566000000E+00 0.  1.
         13    1    1    2    0    0  0.66751015463E+03  0.18517890127E+03  0.14696016605E+04  0.16246815330E+04  0.10566000000E+00 0. -1.
         -4    1    1    2    0  502 -0.32814542595E+03  0.44035034113E+02  0.27634117140E+03  0.43125740320E+03  0.00000000000E+00 0. -1.
</event>
<event>
 5    1  0.4881333E-005  0.3315074E+03  0.7818608E-02  0.1008453E+00
         21   -1    0    0  501  502  0.00000000000E+00  0.00000000000E+00  0.74562523525E+03  0.74562523525E+03  0.00000000000E+00 0. -1.
         -4   -1    0    0    0  501 -0.00000000000E+00 -0.00000000000E+00 -0.59798438278E+03  0.59798438278E+03  0.00000000000E+00 0. -1.
        -13    1    1    2    0    0 -0.18962053892E+03 -0.99739724927E+02 -0.17411241386E+03  0.27607807833E+03  0.10566000000E+00 0.  1.
         13    1    1    2    0    0 -0.23988486172E+02 -0.18494912267E+03 -0.29875896119E+03  0.35219107527E+03  0.10566000000E+00 0. -1.
         -4    1    1    2    0  502  0.21360902509E+03  0.28468884760E+03  0.62051222753E+03  0.71534046443E+03  0.00000000000E+00 0. -1.
</event>
<event>
 5    1  0.4881333E-005  0.5685933E+03  0.7818608E-02  0.9339104E-01
         21   -1    0    0  501  502  0.00000000000E+00  0.00000000000E+00  0.36370992901E+03  0.36370992901E+03  0.00000000000E+00 0.  1.
          4   -1    0    0  502    0 -0.00000000000E+00 -0.00000000000E+00 -0.23009460122E+04  0.23009460122E+04  0.00000000000E+00 0.  1.
        -13    1    1    2    0    0  0.68394081751E+03 -0.37761397242E+03 -0.41759210803E+03  0.88586146426E+03  0.10566000000E+00 0.  1.
         13    1    1    2    0    0 -0.35847414071E+03  0.38612069783E+03 -0.12484230815E+04  0.13550472702E+04  0.10566000000E+00 0. -1.
          4    1    1    2  501    0 -0.32546667680E+03 -0.85067254095E+01 -0.27122089370E+03  0.42374720679E+03  0.00000000000E+00 0.  1.
</event>
<event>
 5    1  0.4881333E-005  0.5385274E+03  0.7818608E-02  0.9435436E-01
         21   -1    0    0  501  502  0.00000000000E+00  0.00000000000E+00  0.51331583518E+03  0.51331583518E+03  0.00000000000E+00 0. -1.
         -4   -1    0    0    0  501 -0.00000000000E+00 -0.00000000000E+00 -0.15738586488E+04  0.15738586488E+04  0.00000000000E+00 0. -1.
        -13    1    1    2    0    0  0.29219137695E+03 -0.49854094357E+03 -0.61186573932E+03  0.84160475717E+03  0.10566000000E+00 0.  1.
         13    1    1    2    0    0  0.33072621691E+03  0.41915089687E+03 -0.19894930341E+03  0.56977902857E+03  0.10566000000E+00 0. -1.
         -4    1    1    2    0  502 -0.62291759387E+03  0.79390046701E+02 -0.24972777090E+03  0.67579069824E+03  0.00000000000E+00 0. -1.
</event>
<event>
 5    1  0.4881333E-005  0.4605409E+03  0.7818608E-02  0.9884139E-01
         21   -1    0    0  501  502  0.00000000000E+00  0.00000000000E+00  0.18217648801E+03  0.18217648801E+03  0.00000000000E+00 0. -1.
         -4   -1    0    0    0  501 -0.00000000000E+00 -0.00000000000E+00 -0.19403555068E+04  0.19403555068E+04  0.00000000000E+00 0. -1.
        -13    1    1    2    0    0 -0.14717363691E+03  0.46849978753E+02 -0.32746281326E+03  0.36205925640E+03  0.10566000000E+00 0.  1.
         13    1    1    2    0    0 -0.99368808762E+02 -0.45167227088E+03 -0.34872726024E+03  0.57921732850E+03  0.10566000000E+00 0. -1.
         -4    1    1    2    0  502  0.24654244567E+03  0.40482229212E+03 -0.10819889452E+04  0.11812554099E+04  0.00000000000E+00 0. -1.
</event>
<event>
 5    1  0.1140172E-004  0.3917909E+03  0.7818608E-02  0.1078637E+00
          4   -1    0    0  502    0 -0.00000000000E+00  0.00000000000E+00  0.25255796819E+03  0.25255796819E+03  0.00000000000E+00 0.  1.
         21   -1    0    0  501  502  0.00000000000E+00 -0.00000000000E+00 -0.11403369678E+04  0.11403369678E+04  0.00000000000E+00 0.  1.
        -13    1    1    2    0    0  0.39652636926E+03  0.79695230024E+02 -0.54706616663E+02  0.40813884437E+03  0.10566000000E+00 0.  1.
         13    1    1    2    0    0 -0.15280790740E+02 -0.33984840469E+01  0.32387587063E+02  0.35972478636E+02  0.10566000000E+00 0. -1.
          4    1    1    2  501    0 -0.38124557852E+03 -0.76296745977E+02 -0.86545997000E+03  0.94878361298E+03  0.00000000000E+00 0.  1.
</event>
<event>
 5    1  0.4881333E-005  0.1819494E+03  0.7818608E-02  0.1073268E+00
         21   -1    0    0  501  502  0.00000000000E+00  0.00000000000E+00  0.12691786290E+04  0.12691786290E+04  0.00000000000E+00 0.  1.
         -4   -1    0    0    0  501 -0.00000000000E+00 -0.00000000000E+00 -0.29885848162E+02  0.29885848162E+02  0.00000000000E+00 0. -1.
        -13    1    1    2    0    0 -0.18069380739E+03 -0.12065574783E+02  0.50414270780E+03  0.53568247229E+03  0.10566000000E+00 0.  1.
         13    1    1    2    0    0  0.18160605120E+03  0.23586020108E+02  0.58988527997E+03  0.61765824925E+03  0.10566000000E+00 0. -1.
         -4    1    1    2    0  502 -0.91224381298E+00 -0.11520445324E+02  0.14526479311E+03  0.14572375567E+03  0.00000000000E+00 0. -1.
</event>
<event>
 5    1  0.4881333E-005  0.7375306E+03  0.7818608E-02  0.9070243E-01
         21   -1    0    0  501  502  0.00000000000E+00  0.00000000000E+00  0.30220619142E+03  0.30220619142E+03  0.00000000000E+00 0.  1.
          4   -1    0    0  502    0 -0.00000000000E+00 -0.00000000000E+00 -0.24771954600E+04  0.24771954600E+04  0.00000000000E+00 0.  1.
        -13    1    1    2    0    0 -0.68810856479E+03  0.30953062002E+03 -0.12919073345E+04  0.14961039983E+04  0.10566000000E+00 0.  1.
         13    1    1    2    0    0  0.70964631413E+03 -0.14871974737E+03 -0.85084614636E+03  0.11178795241E+04  0.10566000000E+00 0. -1.
          4    1    1    2  501    0 -0.21537749340E+02 -0.16081087265E+03 -0.32235787754E+02  0.16541812906E+03  0.00000000000E+00 0.  1.
</event>
<event>
 5    1  0.4881333E-005  0.4866449E+03  0.7818608E-02  0.9620348E-01
         21   -1    0    0  501  502  0.00000000000E+00  0.00000000000E+00  0.33213441482E+03  0.33213441482E+03  0.00000000000E+00 0.  1.
          4   -1    0    0  502    0 -0.00000000000E+00 -0.00000000000E+00 -0.14478297475E+04  0.14478297475E+04  0.00000000000E+00 0.  1.
        -13    1    1    2    0    0 -0.29515852850E+03 -0.43435268785E+03 -0.30048565035E+03  0.60503921494E+03  0.10566000000E+00 0.  1.
         13    1    1    2    0    0  0.32041472344E+03 -0.54462216392E+02 -0.17527214957E+03  0.36925880570E+03  0.10566000000E+00 0. -1.
          4    1    1    2  501    0 -0.25256194934E+02  0.48881490424E+03 -0.63993753274E+03  0.80566614165E+03  0.00000000000E+00 0.  1.
</event>
<event>
 5    1  0.4881333E-005  0.3551461E+03  0.7818608E-02  0.9868362E-01
          4   -1    0    0  502    0 -0.00000000000E+00  0.00000000000E+00  0.21574314507E+04  0.21574314507E+04  0.00000000000E+00 0.  1.
         21   -1    0    0  501  502  0.00000000000E+00 -0.00000000000E+00 -0.32617424715E+03  0.32617424715E+03  0.00000000000E+00 0.  1.
        -13    1    1    2    0    0 -0.25325455787E+03 -0.26444583413E+03 -0.17971112561E+03  0.40787935729E+03  0.10566000000E+00 0.  1.
         13    1    1    2    0    0  0.32657987784E+03  0.14290307529E+03  0.11782103867E+04  0.12309571203E+04  0.10566000000E+00 0. -1.
          4    1    1    2  501    0 -0.73325319964E+02  0.12154275884E+03  0.83275794241E+03  0.84476922021E+03  0.00000000000E+00 0.  1.
</event>
<event>
 5    1  0.4881333E-005  0.4643348E+03  0.7818608E-02  0.9655312E-01
         21   -1    0    0  501  502  0.00000000000E+00  0.00000000000E+00  0.35359053607E+03  0.35359053607E+03  0.00000000000E+00 0. -1.
         -4   -1    0    0    0  501 -0.00000000000E+00 -0.00000000000E+00 -0.40382547984E+04  0.40382547984E+04  0.00000000000E+00 0. -1.
        -13    1    1    2    0    0  0.44620008868E+03  0.32190585168E+03 -0.30334399222E+04  0.30829329654E+04  0.10566000000E+00 0.  1.
         13    1    1    2    0    0  0.30398248501E+03 -0.99894377594E+02 -0.53622463246E+02  0.32443738625E+03  0.10566000000E+00 0. -1.
         -4    1    1    2    0  502 -0.75018257369E+03 -0.22201147408E+03 -0.59760187685E+03  0.98447498277E+03  0.00000000000E+00 0. -1.
</event>
<event>
 5    1  0.4881333E-005  0.6829755E+03  0.7818608E-02  0.9148047E-01
         -4   -1    0    0    0  501 -0.00000000000E+00  0.00000000000E+00  0.15724394157E+04  0.15724394157E+04  0.00000000000E+00 0. -1.
         21   -1    0    0  501  502  0.00000000000E+00 -0.00000000000E+00 -0.10214939452E+04  0.10214939452E+04  0.00000000000E+00 0.  1.
        -13    1    1    2    0    0 -0.67686886030E+03  0.12752442254E+03  0.87321477191E+03  0.11121681444E+04  0.10566000000E+00 0.  1.
         13    1    1    2    0    0  0.64877092213E+03 -0.18747433638E+03  0.38100543882E+03  0.77538086885E+03  0.10566000000E+00 0. -1.
         -4    1    1    2    0  502  0.28097938174E+02  0.59949913844E+02 -0.70327474027E+03  0.70638434765E+03  0.00000000000E+00 0. -1.
</event>
<event>
 5    1  0.4881333E-005  0.1869505E+03  0.7818608E-02  0.1069470E+00
         -4   -1    0    0    0  501 -0.00000000000E+00  0.00000000000E+00  0.62664968521E+03  0.62664968521E+03  0.00000000000E+00 0. -1.
         21   -1    0    0  501  502  0.00000000000E+00 -0.00000000000E+00 -0.67856879644E+03  0.67856879644E+03  0.00000000000E+00 0. -1.
        -13    1    1    2    0    0 -0.85855592965E+02  0.16101181205E+03 -0.83542186013E+01  0.18266305208E+03  0.10566000000E+00 0.  1.
         13    1    1    2    0    0  0.26312324126E+02 -0.18756075696E+03  0.52093854201E+03  0.55429987522E+03  0.10566000000E+00 0. -1.
         -4    1    1    2    0  502  0.59543268840E+02  0.26548944908E+02 -0.56450343463E+03  0.56825555435E+03  0.00000000000E+00 0. -1.
</event>
<event>
 5    1  0.4881333E-005  0.1107579E+03  0.7818608E-02  0.1147887E+00
         -4   -1    0    0    0  501 -0.00000000000E+00  0.00000000000E+00  0.11079151260E+04  0.11079151260E+04  0.00000000000E+00 0. -1.
         21   -1    0    0  501  502  0.00000000000E+00 -0.00000000000E+00 -0.28602167469E+02  0.28602167469E+02  0.00000000000E+00 0.  1.
        -13    1    1    2    0    0  0.81994745363E+02 -0.10490566621E+03  0.65678072660E+03  0.67014123218E+03  0.10566000000E+00 0.  1.
         13    1    1    2    0    0 -0.63549911890E+02  0.68557475839E+02  0.41439925262E+03  0.42481227681E+03  0.10566000000E+00 0. -1.
         -4    1    1    2    0  502 -0.18444833474E+02  0.36348190373E+02  0.81329792774E+01  0.41563784443E+02  0.00000000000E+00 0. -1.
</event>
<event>
 5    1  0.4881333E-005  0.4783285E+03  0.7818608E-02  0.9685007E-01
          4   -1    0    0  502    0 -0.00000000000E+00  0.00000000000E+00  0.19676831842E+04  0.19676831842E+04  0.00000000000E+00 0.  1.
         21   -1    0    0  501  502  0.00000000000E+00 -0.00000000000E+00 -0.42280164916E+03  0.42280164916E+03  0.00000000000E+00 0.  1.
        -13    1    1    2    0    0 -0.26139586086E+03  0.51068435297E+03 -0.99026856135E+02  0.58217921111E+03  0.10566000000E+00 0.  1.
         13    1    1    2    0    0  0.34843838663E+02 -0.27039569933E+03  0.13122266491E+04  0.13402487519E+04  0.10566000000E+00 0. -1.
          4    1    1    2  501    0  0.22655202220E+03 -0.24028865364E+03  0.33168174214E+03  0.46805687037E+03  0.00000000000E+00 0.  1.
</event>
<event>
 5    1  0.4881333E-005  0.4968660E+03  0.7818608E-02  0.9803470E-01
         -4   -1    0    0    0  501 -0.00000000000E+00  0.00000000000E+00  0.52320482091E+03  0.52320482091E+03  0.00000000000E+00 0. -1.
         21   -1    0    0  501  502  0.00000000000E+00 -0.00000000000E+00 -0.10176794935E+04  0.10176794935E+04  0.00000000000E+00 0. -1.
        -13    1    1    2    0    0  0.15333813679E+03 -0.50994784564E+02  0.22596515617E+03  0.27780085531E+03  0.10566000000E+00 0.  1.
         13    1    1    2    0    0  0.31435347719E+03  0.31274915216E+03 -0.12237422568E+03  0.46000609026E+03  0.10566000000E+00 0. -1.
         -4    1    1    2    0  502 -0.46769161398E+03 -0.26175436760E+03 -0.59806560305E+03  0.80307736881E+03  0.00000000000E+00 0. -1.
</event>
<event>
 5    1  0.4881333E-005  0.3816992E+03  0.7818608E-02  0.9838330E-01
         21   -1    0    0  501  502  0.00000000000E+00  0.00000000000E+00  0.35150912883E+03  0.35150912883E+03  0.00000000000E+00 0. -1.
         -4   -1    0    0    0  501 -0.00000000000E+00 -0.00000000000E+00 -0.13375366792E+04  0.13375366792E+04  0.00000000000E+00 0. -1.
        -13    1    1    2    0    0 -0.30891641245E+03  0.69339300194E+02 -0.35834081315E+03  0.47816883834E+03  0.10566000000E+00 0.  1.
         13    1    1    2    0    0 -0.10948107619E+03 -0.17859955915E+03 -0.73588217055E+03  0.76511861085E+03  0.10566000000E+00 0. -1.
         -4    1    1    2    0  502  0.41839748864E+03  0.10926025896E+03  0.10819543332E+03  0.44575835884E+03  0.00000000000E+00 0. -1.
</event>
<event>
 5    1  0.4881333E-005  0.1155597E+03  0.7818608E-02  0.1141103E+00
         21   -1    0    0  501  502  0.00000000000E+00  0.00000000000E+00  0.21600323110E+03  0.21600323110E+03  0.00000000000E+00 0. -1.
          4   -1    0    0  502    0 -0.00000000000E+00 -0.00000000000E+00 -0.64400329106E+03  0.64400329106E+03  0.00000000000E+00 0.  1.
        -13    1    1    2    0    0  0.57646649008E+02 -0.10041070905E+03 -0.61346965809E+03  0.62429999134E+03  0.10566000000E+00 0.  1.
         13    1    1    2    0    0 -0.28705246964E+02  0.10949754126E+03  0.12914462215E+03  0.17173248773E+03  0.10566000000E+00 0. -1.
          4    1    1    2  501    0 -0.28941402043E+02 -0.90868322096E+01  0.56324975974E+02  0.63974043098E+02  0.00000000000E+00 0.  1.
</event>
<event>
 5    1  0.4881333E-005  0.9151207E+02  0.7818608E-02  0.1196896E+00
         21   -1    0    0  501  502  0.00000000000E+00  0.00000000000E+00  0.65092891813E+03  0.65092891813E+03  0.00000000000E+00 0. -1.
          4   -1    0    0  502    0 -0.00000000000E+00 -0.00000000000E+00 -0.33091553353E+02  0.33091553353E+02  0.00000000000E+00 0.  1.
        -13    1    1    2    0    0 -0.63445243170E+02 -0.92194160118E+02  0.12950420137E+03  0.17116194488E+03  0.10566000000E+00 0.  1.
         13    1    1    2    0    0  0.60936165963E+02  0.25075428682E+01  0.13207676229E+03  0.14547778660E+03  0.10566000000E+00 0. -1.
          4    1    1    2  501    0  0.25090772072E+01  0.89686617250E+02  0.35625640112E+03  0.36738074000E+03  0.00000000000E+00 0.  1.
</event>
<event>
 5    1  0.4881333E-005  0.1898057E+02  0.7818608E-02  0.1524547E+00
          4   -1    0    0  502    0 -0.00000000000E+00  0.00000000000E+00  0.10624843809E+02  0.10624843809E+02  0.00000000000E+00 0.  1.
         21   -1    0    0  501  502  0.00000000000E+00 -0.00000000000E+00 -0.84733834274E+02  0.84733834274E+02  0.00000000000E+00 0. -1.
        -13    1    1    2    0    0 -0.87041113648E+01 -0.17890153122E+02 -0.59154652065E+01  0.20756276786E+02  0.10566000000E+00 0.  1.
         13    1    1    2    0    0  0.15367156229E+02  0.89806761188E+01 -0.51946135733E+02  0.54910966261E+02  0.10566000000E+00 0. -1.
          4    1    1    2  501    0 -0.66630448643E+01  0.89094770033E+01 -0.16247389526E+02  0.19691435035E+02  0.00000000000E+00 0.  1.
</event>
<event>
 5    1  0.4881333E-005  0.4959593E+03  0.7818608E-02  0.9792983E-01
         21   -1    0    0  501  502  0.00000000000E+00  0.00000000000E+00  0.18067022762E+04  0.18067022762E+04  0.00000000000E+00 0.  1.
          4   -1    0    0  502    0 -0.00000000000E+00 -0.00000000000E+00 -0.22438892993E+03  0.22438892993E+03  0.00000000000E+00 0.  1.
        -13    1    1    2    0    0  0.31058585522E+03 -0.38219176471E+03  0.78676031109E+03  0.92818420410E+03  0.10566000000E+00 0.  1.
         13    1    1    2    0    0 -0.13466956109E+03 -0.10112019013E+03  0.16266513955E+02  0.16919159015E+03  0.10566000000E+00 0. -1.
          4    1    1    2  501    0 -0.17591629413E+03  0.48331195483E+03  0.77928652126E+03  0.93371541191E+03  0.00000000000E+00 0.  1.
</event>
<event>
 5    1  0.4881333E-005  0.3762549E+03  0.7818608E-02  0.1002615E+00
         21   -1    0    0  501  502  0.00000000000E+00  0.00000000000E+00  0.23182402111E+03  0.23182402111E+03  0.00000000000E+00 0.  1.
          4   -1    0    0  502    0 -0.00000000000E+00 -0.00000000000E+00 -0.17148171762E+04  0.17148171762E+04  0.00000000000E+00 0.  1.
        -13    1    1    2    0    0  0.97671182056E+00 -0.44075199939E+03 -0.10138889754E+04  0.11055469889E+04  0.10566000000E+00 0.  1.
         13    1    1    2    0    0  0.14516959215E+03  0.10137949295E+03 -0.43543647549E+03  0.47006057846E+03  0.10566000000E+00 0. -1.
          4    1    1    2  501    0 -0.14614630397E+03  0.33937250644E+03 -0.33667704194E+02  0.37103363000E+03  0.00000000000E+00 0.  1.
</event>
<event>
 5    1  0.4881333E-005  0.1517683E+03  0.7818608E-02  0.1116076E+00
         -4   -1    0    0    0  501 -0.00000000000E+00  0.00000000000E+00  0.46218832838E+03  0.46218832838E+03  0.00000000000E+00 0. -1.
         21   -1    0    0  501  502  0.00000000000E+00 -0.00000000000E+00 -0.11812004773E+04  0.11812004773E+04  0.00000000000E+00 0. -1.
        -13    1    1    2    0    0 -0.93954882284E+02  0.24756570571E+02  0.23846762842E+03  0.25750190030E+03  0.10566000000E+00 0.  1.
         13    1    1    2    0    0  0.13262711106E+03 -0.17032221156E+03  0.15341297764E+03  0.26483043483E+03  0.10566000000E+00 0. -1.
         -4    1    1    2    0  502 -0.38672228780E+02  0.14556564099E+03 -0.11108927549E+04  0.11210564705E+04  0.00000000000E+00 0. -1.
</event>
<event>
 5    1  0.4881333E-005  0.2331145E+03  0.7818608E-02  0.1146097E+00
         21   -1    0    0  501  502  0.00000000000E+00  0.00000000000E+00  0.15339065949E+04  0.15339065949E+04  0.00000000000E+00 0.  1.
          4   -1    0    0  502    0 -0.00000000000E+00 -0.00000000000E+00 -0.59200111073E+02  0.59200111073E+02  0.00000000000E+00 0.  1.
        -13    1    1    2    0    0 -0.14748556103E+03 -0.18899355485E+03  0.28330431228E+03  0.37112248518E+03  0.10566000000E+00 0.  1.
         13    1    1    2    0    0 -0.19875691777E+01  0.12260744075E+02  0.52946341200E+01  0.13502614229E+02  0.10566000000E+00 0. -1.
          4    1    1    2  501    0  0.14947313021E+03  0.17673281077E+03  0.11861075374E+04  0.12084816066E+04  0.00000000000E+00 0.  1.
</event>
<event>
 5    1  0.4881333E-005  0.4894176E+03  0.7818608E-02  0.9501473E-01
          4   -1    0    0  502    0 -0.00000000000E+00  0.00000000000E+00  0.20388252744E+04  0.20388252744E+04  0.00000000000E+00 0.  1.
         21   -1    0    0  501  502  0.00000000000E+00 -0.00000000000E+00 -0.30443224744E+03  0.30443224744E+03  0.00000000000E+00 0. -1.
        -13    1    1    2    0    0 -0.49915644792E+03  0.63694554348E+02  0.16575890459E+04  0.17322862385E+04  0.10566000000E+00 0.  1.
         13    1    1    2    0    0  0.40492087010E+03 -0.17699032895E+03  0.11905665957E+03  0.45766908017E+03  0.10566000000E+00 0. -1.
          4    1    1    2  501    0  0.94235577814E+02  0.11329577461E+03 -0.42252678495E+02  0.15330220321E+03  0.00000000000E+00 0.  1.
</event>
<event>
 5    1  0.4881333E-005  0.3187415E+03  0.7818608E-02  0.1008333E+00
         -4   -1    0    0    0  501 -0.00000000000E+00  0.00000000000E+00  0.25924902946E+04  0.25924902946E+04  0.00000000000E+00 0. -1.
         21   -1    0    0  501  502  0.00000000000E+00 -0.00000000000E+00 -0.17769542006E+03  0.17769542006E+03  0.00000000000E+00 0. -1.
        -13    1    1    2    0    0  0.18204659479E+03 -0.15940622260E+03  0.95101993465E+03  0.98132065796E+03  0.10566000000E+00 0.  1.
         13    1    1    2    0    0  0.29887116135E+02 -0.29634695475E+03  0.68227237266E+02  0.30556459934E+03  0.10566000000E+00 0. -1.
         -4    1    1    2    0  502 -0.21193371093E+03  0.45575317735E+03  0.13955477026E+04  0.14833004573E+04  0.00000000000E+00 0. -1.
</event>
<event>
 5    1  0.4881333E-005  0.4090833E+02  0.7818608E-02  0.1379637E+00
         21   -1    0    0  501  502  0.00000000000E+00  0.00000000000E+00  0.19687308615E+02  0.19687308615E+02  0.00000000000E+00 0.  1.
          4   -1    0    0  502    0 -0.00000000000E+00 -0.00000000000E+00 -0.20512189450E+03  0.20512189450E+03  0.00000000000E+00 0.  1.
        -13    1    1    2    0    0 -0.40887136859E+02  0.24088167952E+02 -0.14779765391E+03  0.15522936404E+03  0.10566000000E+00 0.  1.
         13    1    1    2    0    0  0.16529270621E+02  0.74761906827E+01 -0.76359786474E+01  0.19683230129E+02  0.10566000000E+00 0. -1.
          4    1    1    2  501    0  0.24357866238E+02 -0.31564358634E+02 -0.30000953334E+02  0.49896608949E+02  0.00000000000E+00 0.  1.
</event>
<event>
 5    1  0.4881333E-005  0.4796041E+03  0.7818608E-02  0.9839312E-01
          4   -1    0    0  502    0 -0.00000000000E+00  0.00000000000E+00  0.13893300767E+04  0.13893300767E+04  0.00000000000E+00 0.  1.
         21   -1    0    0  501  502  0.00000000000E+00 -0.00000000000E+00 -0.41198735772E+03  0.41198735772E+03  0.00000000000E+00 0.  1.
        -13    1    1    2    0    0 -0.56895313012E+02  0.47649989180E+03  0.24499399548E+02  0.48050957875E+03  0.10566000000E+00 0.  1.
         13    1    1    2    0    0  0.15890933832E+03  0.71212812079E+01  0.78175005212E+03  0.79776941882E+03  0.10566000000E+00 0. -1.
          4    1    1    2  501    0 -0.10201402530E+03 -0.48362117300E+03  0.17109326735E+03  0.52303843690E+03  0.00000000000E+00 0.  1.
</event>
<event>
 5    1  0.4881333E-005  0.2259033E+03  0.7818608E-02  0.1043696E+00
         21   -1    0    0  501  502  0.00000000000E+00  0.00000000000E+00  0.20513700233E+03  0.20513700233E+03  0.00000000000E+00 0. -1.
         -4   -1    0    0    0  501 -0.00000000000E+00 -0.00000000000E+00 -0.67821139673E+03  0.67821139673E+03  0.00000000000E+00 0. -1.
        -13    1    1    2    0    0 -0.22496158352E+03 -0.69131387627E+02 -0.33695310734E+03  0.41100397873E+03  0.10566000000E+00 0.  1.
         13    1    1    2    0    0  0.14142038170E+03  0.19551880641E+03 -0.19455283587E+03  0.30996474820E+03  0.10566000000E+00 0. -1.
         -4    1    1    2    0  502  0.83541201820E+02 -0.12638741878E+03  0.58431548814E+02  0.16237967214E+03  0.00000000000E+00 0. -1.
</event>
<event>
 5    1  0.4881333E-005  0.5655699E+02  0.7818608E-02  0.1267175E+00
         -4   -1    0    0    0  501 -0.00000000000E+00  0.00000000000E+00  0.79345995978E+02  0.79345995978E+02  0.00000000000E+00 0. -1.
         21   -1    0    0  501  502  0.00000000000E+00 -0.00000000000E+00 -0.87700990791E+03  0.87700990791E+03  0.00000000000E+00 0. -1.
        -13    1    1    2    0    0  0.27326691867E+02  0.53736094021E+02 -0.14712321093E+03  0.15899549128E+03  0.10566000000E+00 0.  1.
         13    1    1    2    0    0 -0.35611366900E+02 -0.43713281492E+02  0.62515516218E+02  0.84185636324E+02  0.10566000000E+00 0. -1.
         -4    1    1    2    0  502  0.82846750331E+01 -0.10022812529E+02 -0.71305621723E+03  0.71317477629E+03  0.00000000000E+00 0. -1.
</event>
<event>
 5    1  0.4881333E-005  0.2415715E+03  0.7818608E-02  0.1034855E+00
         21   -1    0    0  501  502  0.00000000000E+00  0.00000000000E+00  0.34914820197E+02  0.34914820197E+02  0.00000000000E+00 0.  1.
         -4   -1    0    0    0  501 -0.00000000000E+00 -0.00000000000E+00 -0.21736817850E+04  0.21736817850E+04  0.00000000000E+00 0. -1.
        -13    1    1    2    0    0  0.13114545602E+03 -0.21525892932E+03 -0.71470634578E+03  0.75785269621E+03  0.10566000000E+00 0.  1.
         13    1    1    2    0    0 -0.12668209753E+03  0.20004162864E+03 -0.14093864408E+04  0.14291379072E+04  0.10566000000E+00 0. -1.
         -4    1    1    2    0  502 -0.44633584908E+01  0.15217300682E+02 -0.14674178283E+02  0.21606001883E+02  0.00000000000E+00 0. -1.
</event>
<event>
 5    1  0.4881333E-005  0.4954700E+03  0.7818608E-02  0.9488703E-01
         21   -1    0    0  501  502  0.00000000000E+00  0.00000000000E+00  0.82765273840E+03  0.82765273840E+03  0.00000000000E+00 0.  1.
          4   -1    0    0  502    0 -0.00000000000E+00 -0.00000000000E+00 -0.83546754128E+03  0.83546754128E+03  0.00000000000E+00 0.  1.
        -13    1    1    2    0    0 -0.33381969676E+03 -0.35771918429E+03 -0.24792343373E+03  0.54851129879E+03  0.10566000000E+00 0.  1.
         13    1    1    2    0    0 -0.24921493957E+03  0.42901123139E+03  0.16277285245E+03  0.52216255651E+03  0.10566000000E+00 0. -1.
          4    1    1    2  501    0  0.58303463633E+03 -0.71292047104E+02  0.77335778403E+02  0.59244642438E+03  0.00000000000E+00 0.  1.
</event>
<event>
 5    1  0.4881333E-005  0.2345390E+03  0.7818608E-02  0.1038732E+00
          4   -1    0    0  502    0 -0.00000000000E+00  0.00000000000E+00  0.17230945855E+04  0.17230945855E+04  0.00000000000E+00 0.  1.
         21   -1    0    0  501  502  0.00000000000E+00 -0.00000000000E+00 -0.65107236709E+02  0.65107236709E+02  0.00000000000E+00 0. -1.
        -13    1    1    2    0    0 -0.13683091097E+03  0.18733564022E+03  0.13812577472E+04  0.14006035541E+04  0.10566000000E+00 0.  1.
         13    1    1    2    0    0  0.14867484599E+03 -0.19715991740E+03  0.27838472215E+03  0.37212136132E+03  0.10566000000E+00 0. -1.
          4    1    1    2  501    0 -0.11843935021E+02  0.98242771796E+01 -0.16551206115E+01  0.15476906769E+02  0.00000000000E+00 0.  1.
</event>
<event>
 5    1  0.4881333E-005  0.4030382E+03  0.7818608E-02  0.9720313E-01
          4   -1    0    0  502    0 -0.00000000000E+00  0.00000000000E+00  0.25204344082E+04  0.25204344082E+04  0.00000000000E+00 0.  1.
         21   -1    0    0  501  502  0.00000000000E+00 -0.00000000000E+00 -0.27274981769E+03  0.27274981769E+03  0.00000000000E+00 0.  1.
        -13    1    1    2    0    0  0.75888698382E+02 -0.40838916432E+03  0.18793252495E+04  0.19246828852E+04  0.10566000000E+00 0.  1.
         13    1    1    2    0    0 -0.11241096537E+03  0.35674103323E+03  0.55621567012E+03  0.67028074177E+03  0.10566000000E+00 0. -1.
          4    1    1    2  501    0  0.36522266991E+02  0.51648131093E+02 -0.18785632912E+03  0.19822059889E+03  0.00000000000E+00 0.  1.
</event>
<event>
 5    1  0.4881333E-005  0.4061003E+03  0.7818608E-02  0.1048651E+00
          4   -1    0    0  502    0 -0.00000000000E+00  0.00000000000E+00  0.15695273751E+04  0.15695273751E+04  0.00000000000E+00 0.  1.
         21   -1    0    0  501  502  0.00000000000E+00 -0.00000000000E+00 -0.16742548082E+03  0.16742548082E+03  0.00000000000E+00 0.  1.
        -13    1    1    2    0    0  0.85850349673E+02 -0.39863018387E+03  0.11361010007E+04  0.12070632962E+04  0.10566000000E+00 0.  1.
         13    1    1    2    0    0 -0.33295528122E+02 -0.38927173532E+01  0.73159088783E+02  0.80473653309E+02  0.10566000000E+00 0. -1.
          4    1    1    2  501    0 -0.52554821551E+02  0.40252290122E+03  0.19284180479E+03  0.44941590643E+03  0.00000000000E+00 0.  1.
</event>
<event>
 5    1  0.4881333E-005  0.1494008E+03  0.7818608E-02  0.1101704E+00
         21   -1    0    0  501  502  0.00000000000E+00  0.00000000000E+00  0.75596043374E+03  0.75596043374E+03  0.00000000000E+00 0.  1.
         -4   -1    0    0    0  501 -0.00000000000E+00 -0.00000000000E+00 -0.82308668348E+02  0.82308668348E+02  0.00000000000E+00 0. -1.
        -13    1    1    2    0    0  0.10280760365E+03  0.87718662204E+02  0.42450516427E+03  0.44549816243E+03  0.10566000000E+00 0.  1.
         13    1    1    2    0    0 -0.53005258308E+02 -0.14633790725E+03  0.27364543134E+02  0.15802901598E+03  0.10566000000E+00 0. -1.
         -4    1    1    2    0  502 -0.49802345344E+02  0.58619245043E+02  0.22178205799E+03  0.23474192369E+03  0.00000000000E+00 0. -1.
</event>
<event>
 5    1  0.4881333E-005  0.5112931E+03  0.7818608E-02  0.9557299E-01
         -4   -1    0    0    0  501 -0.00000000000E+00  0.00000000000E+00  0.54417465627E+03  0.54417465627E+03  0.00000000000E+00 0. -1.
         21   -1    0    0  501  502  0.00000000000E+00 -0.00000000000E+00 -0.95601125781E+03  0.95601125781E+03  0.00000000000E+00 0.  1.
        -13    1    1    2    0    0 -0.33316755616E+03 -0.11008073637E+03 -0.17253420505E+03  0.39100697190E+03  0.10566000000E+00 0.  1.
         13    1    1    2    0    0  0.61623718582E+03 -0.17122772107E+03 -0.29836571401E+03  0.70575442763E+03  0.10566000000E+00 0. -1.
         -4    1    1    2    0  502 -0.28306962966E+03  0.28130845744E+03  0.59063317517E+02  0.40342451455E+03  0.00000000000E+00 0. -1.
</event>
<event>
 5    1  0.4881333E-005  0.4252676E+03  0.7818608E-02  0.9797346E-01
          4   -1    0    0  502    0 -0.00000000000E+00  0.00000000000E+00  0.11434907868E+04  0.11434907868E+04  0.00000000000E+00 0.  1.
         21   -1    0    0  501  502  0.00000000000E+00 -0.00000000000E+00 -0.40477750797E+03  0.40477750797E+03  0.00000000000E+00 0.  1.
        -13    1    1    2    0    0 -0.20760575153E+03 -0.50675704177E+03  0.68002009264E+03  0.87311521863E+03  0.10566000000E+00 0.  1.
         13    1    1    2    0    0  0.24216551600E+03  0.10302809453E+03  0.60095632210E+02  0.26994521959E+03  0.10566000000E+00 0. -1.
          4    1    1    2  501    0 -0.34559764479E+02  0.40372894724E+03 -0.14024460178E+01  0.40520785655E+03  0.00000000000E+00 0.  1.
</event>
<event>
 5    1  0.5354124E-005  0.3165767E+03  0.7818608E-02  0.1000688E+00
         21   -1    0    0  501  502  0.00000000000E+00  0.00000000000E+00  0.51080308127E+03  0.51080308127E+03  0.00000000000E+00 0.  1.
          4   -1    0    0  502    0 -0.00000000000E+00 -0.00000000000E+00 -0.14206060871E+04  0.14206060871E+04  0.00000000000E+00 0.  1.
        -13    1    1    2    0    0  0.80837472515E+02  0.26916026865E+03 -0.58621744430E+03  0.65010218454E+03  0.10566000000E+00 0.  1.
         13    1    1    2    0    0 -0.33266961007E+03 -0.26457766358E+03 -0.70559697231E+03  0.82373388180E+03  0.10566000000E+00 0. -1.
          4    1    1    2  501    0  0.25183213756E+03 -0.45826050732E+01  0.38201141076E+03  0.45757310205E+03  0.00000000000E+00 0.  1.
</event>
<event>
 5    1  0.4881333E-005  0.9469493E+02  0.7818608E-02  0.1173644E+00
         21   -1    0    0  501  502  0.00000000000E+00  0.00000000000E+00  0.73495734061E+03  0.73495734061E+03  0.00000000000E+00 0. -1.
          4   -1    0    0  502    0 -0.00000000000E+00 -0.00000000000E+00 -0.15264873515E+02  0.15264873515E+02  0.00000000000E+00 0.  1.
        -13    1    1    2    0    0 -0.29430592340E+02 -0.97980654992E+02  0.31151684935E+03  0.32788584464E+03  0.10566000000E+00 0.  1.
         13    1    1    2    0    0  0.15743845483E+02  0.84686545180E+02  0.36672102153E+03  0.37670147119E+03  0.10566000000E+00 0. -1.
          4    1    1    2  501    0  0.13686746857E+02  0.13294109812E+02  0.41454596217E+02  0.45634898299E+02  0.00000000000E+00 0.  1.
</event>
<event>
 5    1  0.4881333E-005  0.4821412E+03  0.7818608E-02  0.9573906E-01
         21   -1    0    0  501  502  0.00000000000E+00  0.00000000000E+00  0.17639411501E+04  0.17639411501E+04  0.00000000000E+00 0. -1.
         -4   -1    0    0    0  501 -0.00000000000E+00 -0.00000000000E+00 -0.31730074822E+03  0.31730074822E+03  0.00000000000E+00 0. -1.
        -13    1    1    2    0    0  0.39348710170E+03  0.24985808056E+02  0.23752420093E+03  0.46029788942E+03  0.10566000000E+00 0.  1.
         13    1    1    2    0    0 -0.37080955683E+03 -0.43298539158E+03  0.10247646988E+04  0.11726545851E+04  0.10566000000E+00 0. -1.
         -4    1    1    2    0  502 -0.22677544876E+02  0.40799958352E+03  0.18435150215E+03  0.44828942386E+03  0.00000000000E+00 0. -1.
</event>
<event>
 5    1  0.4881333E-005  0.4678948E+03  0.7818608E-02  0.9691008E-01
         21   -1    0    0  501  502  0.00000000000E+00  0.00000000000E+00  0.63798286819E+03  0.63798286819E+03  0.00000000000E+00 0.  1.
          4   -1    0    0  502    0 -0.00000000000E+00 -0.00000000000E+00 -0.82453234729E+03  0.82453234729E+03  0.00000000000E+00 0.  1.
        -13    1    1    2    0    0  0.15474584648E+03 -0.24328352679E+03 -0.32103643107E+03  0.43150614439E+03  0.10566000000E+00 0.  1.
         13    1    1    2    0    0 -0.32831724886E+02 -0.28334563996E+03 -0.24051813912E+03  0.37311078818E+03  0.10566000000E+00 0. -1.
          4    1    1    2  501    0 -0.12191412159E+03  0.52662916675E+03  0.37500509108E+03  0.65789828291E+03  0.00000000000E+00 0.  1.
</event>
<event>
 5    1  0.5615963E-005  0.4369083E+03  0.7818608E-02  0.1025996E+00
         21   -1    0    0  501  502  0.00000000000E+00  0.00000000000E+00  0.72640273799E+03  0.72640273799E+03  0.00000000000E+00 0. -1.
         -4   -1    0    0    0  501 -0.00000000000E+00 -0.00000000000E+00 -0.42345961252E+03  0.42345961252E+03  0.00000000000E+00 0. -1.
        -13    1    1    2    0    0  0.40548209626E+02 -0.35174990968E+02 -0.61249806915E+02  0.81443153823E+02  0.10566000000E+00 0.  1.
         13    1    1    2    0    0  0.42657482975E+03  0.12203531351E+02  0.41835181201E+03  0.59760627618E+03  0.10566000000E+00 0. -1.
         -4    1    1    2    0  502 -0.46712303937E+03  0.22971459617E+02 -0.54158879636E+02  0.47081292050E+03  0.00000000000E+00 0. -1.
</event>
<event>
 5    1  0.4881333E-005  0.1477829E+03  0.7818608E-02  0.1103319E+00
         21   -1    0    0  501  502  0.00000000000E+00  0.00000000000E+00  0.12058482146E+03  0.12058482146E+03  0.00000000000E+00 0. -1.
          4   -1    0    0  502    0 -0.00000000000E+00 -0.00000000000E+00 -0.42543948393E+03  0.42543948393E+03  0.00000000000E+00 0.  1.
        -13    1    1    2    0    0  0.12744245270E+03 -0.46711821882E+02 -0.22882876365E+03  0.26605673698E+03  0.10566000000E+00 0.  1.
         13    1    1    2    0    0 -0.19162837137E+03  0.20500269098E+02 -0.83895406289E+02  0.21019073269E+03  0.10566000000E+00 0. -1.
          4    1    1    2  501    0  0.64185918677E+02  0.26211552785E+02  0.78695074753E+01  0.69776835724E+02  0.00000000000E+00 0.  1.
</event>
<event>
 5    1  0.4881333E-005  0.6552069E+03  0.7818608E-02  0.9190619E-01
         -4   -1    0    0    0  501 -0.00000000000E+00  0.00000000000E+00  0.14710110781E+04  0.14710110781E+04  0.00000000000E+00 0. -1.
         21   -1    0    0  501  502  0.00000000000E+00 -0.00000000000E+00 -0.63275449433E+03  0.63275449433E+03  0.00000000000E+00 0.  1.
        -13    1    1    2    0    0  0.64731316778E+03  0.20876962314E+03  0.46082151811E+03  0.82155679989E+03  0.10566000000E+00 0.  1.
         13    1    1    2    0    0 -0.46243122089E+03 -0.48873475223E+03  0.58169140999E+03  0.88942071019E+03  0.10566000000E+00 0. -1.
         -4    1    1    2    0  502 -0.18488194689E+03  0.27996512908E+03 -0.20425634427E+03  0.39278806240E+03  0.00000000000E+00 0. -1.
</event>
<event>
 5    1  0.4881333E-005  0.3185741E+03  0.7818608E-02  0.1006638E+00
         21   -1    0    0  501  502  0.00000000000E+00  0.00000000000E+00  0.77931805668E+03  0.77931805668E+03  0.00000000000E+00 0.  1.
          4   -1    0    0  502    0 -0.00000000000E+00 -0.00000000000E+00 -0.23065167091E+04  0.23065167091E+04  0.00000000000E+00 0.  1.
        -13    1    1    2    0    0  0.25138952355E+03  0.25690019938E+03 -0.18616117705E+04  0.18959938819E+04  0.10566000000E+00 0.  1.
         13    1    1    2    0    0  0.68106651414E+02 -0.24676690378E+03 -0.35048552689E+03  0.43401905084E+03  0.10566000000E+00 0. -1.
          4    1    1    2  501    0 -0.31949617496E+03 -0.10133295608E+02  0.68489864494E+03  0.75582183307E+03  0.00000000000E+00 0.  1.
</event>
<event>
 5    1  0.4881333E-005  0.2476044E+02  0.7818608E-02  0.1461970E+00
         21   -1    0    0  501  502  0.00000000000E+00  0.00000000000E+00  0.23596739868E+02  0.23596739868E+02  0.00000000000E+00 0. -1.
         -4   -1    0    0    0  501 -0.00000000000E+00 -0.00000000000E+00 -0.16271123371E+03  0.16271123371E+03  0.00000000000E+00 0. -1.
        -13    1    1    2    0    0 -0.21457916106E+02 -0.46030373801E+00 -0.99081823776E+01  0.23639739533E+02  0.10566000000E+00 0.  1.
         13    1    1    2    0    0  0.12934376445E+02  0.24177186034E+02 -0.13420313016E+03  0.13697563918E+03  0.10566000000E+00 0. -1.
         -4    1    1    2    0  502  0.85235396611E+01 -0.23716882296E+02  0.49968186936E+01  0.25692594872E+02  0.00000000000E+00 0. -1.
</event>
<event>
 5    1  0.4881333E-005  0.4793349E+03  0.7818608E-02  0.9950960E-01
         21   -1    0    0  501  502  0.00000000000E+00  0.00000000000E+00  0.29398691192E+04  0.29398691192E+04  0.00000000000E+00 0.  1.
          4   -1    0    0  502    0 -0.00000000000E+00 -0.00000000000E+00 -0.14408157359E+03  0.14408157359E+03  0.00000000000E+00 0.  1.
        -13    1    1    2    0    0  0.26436769002E+03 -0.39120705567E+03  0.93888194702E+03  0.10509198626E+04  0.10566000000E+00 0.  1.
         13    1    1    2    0    0 -0.89042890621E+02 -0.63958942332E+02 -0.35573556014E+01  0.10969069522E+03  0.10566000000E+00 0. -1.
          4    1    1    2  501    0 -0.17532479940E+03  0.45516599801E+03  0.18604629541E+04  0.19233401350E+04  0.00000000000E+00 0.  1.
</event>
<event>
 5    1  0.4881333E-005  0.5020420E+03  0.7818608E-02  0.9813153E-01
         -4   -1    0    0    0  501 -0.00000000000E+00  0.00000000000E+00  0.15534578660E+04  0.15534578660E+04  0.00000000000E+00 0. -1.
         21   -1    0    0  501  502  0.00000000000E+00 -0.00000000000E+00 -0.22115440358E+03  0.22115440358E+03  0.00000000000E+00 0. -1.
        -13    1    1    2    0    0 -0.41370967664E+02  0.14580738681E+03  0.21900542831E+03  0.26633576517E+03  0.10566000000E+00 0.  1.
         13    1    1    2    0    0  0.32628631859E+03  0.32168615866E+03  0.62297283660E+03  0.77333040330E+03  0.10566000000E+00 0. -1.
         -4    1    1    2    0  502 -0.28491535092E+03 -0.46749354547E+03  0.49032519756E+03  0.73494610117E+03  0.00000000000E+00 0. -1.
</event>
<event>
 5    1  0.4881333E-005  0.8520374E+02  0.7818608E-02  0.1219450E+00
         21   -1    0    0  501  502  0.00000000000E+00  0.00000000000E+00  0.17141988488E+03  0.17141988488E+03  0.00000000000E+00 0. -1.
         -4   -1    0    0    0  501 -0.00000000000E+00 -0.00000000000E+00 -0.11587825956E+03  0.11587825956E+03  0.00000000000E+00 0. -1.
        -13    1    1    2    0    0 -0.45072914004E+02 -0.64109510698E+01 -0.58620489172E+02  0.74222912805E+02  0.10566000000E+00 0.  1.
         13    1    1    2    0    0  0.10099327910E+03  0.21602240381E+02  0.11572343312E+03  0.15510713507E+03  0.10566000000E+00 0. -1.
         -4    1    1    2    0  502 -0.55920365096E+02 -0.15191289312E+02 -0.15613186193E+01  0.57968096564E+02  0.00000000000E+00 0. -1.
</event>
<event>
 5    1  0.4881333E-005  0.1311972E+03  0.7818608E-02  0.1121292E+00
         -4   -1    0    0    0  501 -0.00000000000E+00  0.00000000000E+00  0.39755781736E+02  0.39755781736E+02  0.00000000000E+00 0. -1.
         21   -1    0    0  501  502  0.00000000000E+00 -0.00000000000E+00 -0.65807608527E+03  0.65807608527E+03  0.00000000000E+00 0.  1.
        -13    1    1    2    0    0  0.11543815507E+03 -0.87302530445E+01 -0.38912452754E+03  0.40598041094E+03  0.10566000000E+00 0.  1.
         13    1    1    2    0    0 -0.13811395751E+03 -0.24665371353E+02 -0.17626327401E+03  0.22528337430E+03  0.10566000000E+00 0. -1.
         -4    1    1    2    0  502  0.22675802447E+02  0.33395624398E+02 -0.52932501976E+02  0.66568081773E+02  0.00000000000E+00 0. -1.
</event>
<event>
 5    1  0.4881333E-005  0.1741315E+03  0.7818608E-02  0.1079479E+00
         21   -1    0    0  501  502  0.00000000000E+00  0.00000000000E+00  0.93083005532E+03  0.93083005532E+03  0.00000000000E+00 0.  1.
         -4   -1    0    0    0  501 -0.00000000000E+00 -0.00000000000E+00 -0.11302122873E+03  0.11302122873E+03  0.00000000000E+00 0. -1.
        -13    1    1    2    0    0  0.21563437714E+03 -0.33777350252E+02  0.55040840815E+03  0.59210516035E+03  0.10566000000E+00 0.  1.
         13    1    1    2    0    0 -0.15879991660E+03 -0.64026923755E+02  0.11085953884E+02  0.17158021453E+03  0.10566000000E+00 0. -1.
         -4    1    1    2    0  502 -0.56834460536E+02  0.97804274006E+02  0.25631446456E+03  0.28016590917E+03  0.00000000000E+00 0. -1.
</event>
<event>
 5    1  0.4881333E-005  0.5115540E+03  0.7818608E-02  0.9453001E-01
         21   -1    0    0  501  502  0.00000000000E+00  0.00000000000E+00  0.83317184442E+03  0.83317184442E+03  0.00000000000E+00 0. -1.
         -4   -1    0    0    0  501 -0.00000000000E+00 -0.00000000000E+00 -0.34321433704E+04  0.34321433704E+04  0.00000000000E+00 0. -1.
        -13    1    1    2    0    0  0.51923384908E+03  0.42490122635E+02 -0.20172033041E+04  0.20833910775E+04  0.10566000000E+00 0.  1.
         13    1    1    2    0    0 -0.49890969712E+03 -0.14700984437E+02 -0.13363694763E+04  0.14265379046E+04  0.10566000000E+00 0. -1.
         -4    1    1    2    0  502 -0.20324151959E+02 -0.27789138197E+02  0.75460125445E+03  0.75538623271E+03  0.00000000000E+00 0. -1.
</event>
<event>
 5    1  0.4881333E-005  0.2656462E+03  0.7818608E-02  0.1022589E+00
         -4   -1    0    0    0  501 -0.00000000000E+00  0.00000000000E+00  0.72720465525E+03  0.72720465525E+03  0.00000000000E+00 0. -1.
         21   -1    0    0  501  502  0.00000000000E+00 -0.00000000000E+00 -0.27385302655E+03  0.27385302655E+03  0.00000000000E+00 0.  1.
        -13    1    1    2    0    0 -0.62288115826E+02  0.25055512275E+03 -0.17644693935E+03  0.31271586541E+03  0.10566000000E+00 0.  1.
         13    1    1    2    0    0  0.71752382829E+02 -0.25667239287E+03  0.60536014983E+03  0.66143030159E+03  0.10566000000E+00 0. -1.
         -4    1    1    2    0  502 -0.94642670028E+01  0.61172701191E+01  0.24438418220E+02  0.26911514797E+02  0.00000000000E+00 0. -1.
</event>
<event>
 5    1  0.4881333E-005  0.4554848E+03  0.7818608E-02  0.9969480E-01
         -4   -1    0    0    0  501 -0.00000000000E+00  0.00000000000E+00  0.38858277936E+04  0.38858277936E+04  0.00000000000E+00 0. -1.
         21   -1    0    0  501  502  0.00000000000E+00 -0.00000000000E+00 -0.96789065425E+02  0.96789065425E+02  0.00000000000E+00 0. -1.
        -13    1    1    2    0    0  0.11849101114E+03 -0.20122008288E+02  0.84698209325E+02  0.14703337296E+03  0.10566000000E+00 0.  1.
         13    1    1    2    0    0 -0.53567437243E+03 -0.27852747445E+02  0.25849573484E+04  0.26400241122E+04  0.10566000000E+00 0. -1.
         -4    1    1    2    0  502  0.41718336129E+03  0.47974755734E+02  0.11193831704E+04  0.11955593738E+04  0.00000000000E+00 0. -1.
</event>
<event>
 5    1  0.4881333E-005  0.7088325E+03  0.7818608E-02  0.9110263E-01
         -4   -1    0    0    0  501 -0.00000000000E+00  0.00000000000E+00  0.22049558936E+04  0.22049558936E+04  0.00000000000E+00 0. -1.
         21   -1    0    0  501  502  0.00000000000E+00 -0.00000000000E+00 -0.31359685192E+03  0.31359685192E+03  0.00000000000E+00 0.  1.
        -13    1    1    2    0    0 -0.22097101165E+03  0.69513041167E+03  0.13417463466E+04  0.15271927668E+04  0.10566000000E+00 0.  1.
         13    1    1    2    0    0  0.13627094360E+03 -0.66300205594E+03  0.58448055664E+03  0.89429247369E+03  0.10566000000E+00 0. -1.
         -4    1    1    2    0  502  0.84700068055E+02 -0.32128355733E+02 -0.34867861531E+02  0.97067505059E+02  0.00000000000E+00 0. -1.
</event>
<event>
 5    1  0.4881333E-005  0.4809967E+03  0.7818608E-02  0.9998768E-01
         21   -1    0    0  501  502  0.00000000000E+00  0.00000000000E+00  0.31372142596E+03  0.31372142596E+03  0.00000000000E+00 0.  1.
          4   -1    0    0  502    0 -0.00000000000E+00 -0.00000000000E+00 -0.96083261200E+03  0.96083261200E+03  0.00000000000E+00 0.  1.
        -13    1    1    2    0    0 -0.95877953097E+02  0.42710029970E+03 -0.33297194017E+03  0.54997961053E+03  0.10566000000E+00 0.  1.
         13    1    1    2    0    0 -0.69140596101E+02  0.61732575701E+02 -0.16205707422E+03  0.18669183003E+03  0.10566000000E+00 0. -1.
          4    1    1    2  501    0  0.16501854920E+03 -0.48883287540E+03 -0.15208217165E+03  0.53788259740E+03  0.00000000000E+00 0.  1.
</event>
<event>
 5    1  0.4881333E-005  0.4802364E+03  0.7818608E-02  0.9675737E-01
         -4   -1    0    0    0  501 -0.00000000000E+00  0.00000000000E+00  0.48619759264E+03  0.48619759264E+03  0.00000000000E+00 0. -1.
         21   -1    0    0  501  502  0.00000000000E+00 -0.00000000000E+00 -0.11073957530E+04  0.11073957530E+04  0.00000000000E+00 0. -1.
        -13    1    1    2    0    0  0.15938368792E+03  0.22810372481E+03  0.13601173786E+03  0.30973161486E+03  0.10566000000E+00 0.  1.
         13    1    1    2    0    0 -0.38202173124E+03  0.24449471030E+03 -0.13879636999E+03  0.47432342340E+03  0.10566000000E+00 0. -1.
         -4    1    1    2    0  502  0.22263804332E+03 -0.47259843511E+03 -0.61841352820E+03  0.80953830734E+03  0.00000000000E+00 0. -1.
</event>
<event>
 5    1  0.5601018E-005  0.2753310E+03  0.7818608E-02  0.1026539E+00
          4   -1    0    0  502    0 -0.00000000000E+00  0.00000000000E+00  0.16386683066E+04  0.16386683066E+04  0.00000000000E+00 0.  1.
         21   -1    0    0  501  502  0.00000000000E+00 -0.00000000000E+00 -0.35632943627E+03  0.35632943627E+03  0.00000000000E+00 0.  1.
        -13    1    1    2    0    0 -0.14317101760E+03  0.89869300468E+01  0.67442453539E+03  0.68951226987E+03  0.10566000000E+00 0.  1.
         13    1    1    2    0    0 -0.80692651418E+02 -0.19485177484E+03  0.88133158438E+03  0.90621404256E+03  0.10566000000E+00 0. -1.
          4    1    1    2  501    0  0.22386366902E+03  0.18586484480E+03 -0.27341724947E+03  0.39927143042E+03  0.00000000000E+00 0.  1.
</event>
<event>
 5    1  0.4881333E-005  0.4406071E+03  0.7818608E-02  0.9877705E-01
         21   -1    0    0  501  502  0.00000000000E+00  0.00000000000E+00  0.16469008515E+03  0.16469008515E+03  0.00000000000E+00 0.  1.
          4   -1    0    0  502    0 -0.00000000000E+00 -0.00000000000E+00 -0.22234209914E+04  0.22234209914E+04  0.00000000000E+00 0.  1.
        -13    1    1    2    0    0  0.90613394835E+02 -0.53919210052E+03 -0.12816747364E+04  0.13934234997E+04  0.10566000000E+00 0.  1.
         13    1    1    2    0    0  0.71792535510E+02  0.16531286944E+03 -0.40290688028E+03  0.44138019700E+03  0.10566000000E+00 0. -1.
          4    1    1    2  501    0 -0.16240593035E+03  0.37387923108E+03 -0.37414928956E+03  0.55330737978E+03  0.00000000000E+00 0.  1.
</event>
<event>
 5    1  0.4881333E-005  0.3382741E+03  0.7818608E-02  0.1008912E+00
         21   -1    0    0  501  502  0.00000000000E+00  0.00000000000E+00  0.19370782382E+03  0.19370782382E+03  0.00000000000E+00 0. -1.
         -4   -1    0    0    0  501 -0.00000000000E+00 -0.00000000000E+00 -0.22203729710E+04  0.22203729710E+04  0.00000000000E+00 0. -1.
        -13    1    1    2    0    0 -0.15004923260E+03 -0.13024097913E+03 -0.85030851175E+03  0.87321364004E+03  0.10566000000E+00 0.  1.
         13    1    1    2    0    0  0.35775605743E+03  0.50144743629E+02 -0.18416708603E+02  0.36172237733E+03  0.10566000000E+00 0. -1.
         -4    1    1    2    0  502 -0.20770682483E+03  0.80096235500E+02 -0.11579399269E+04  0.11791447775E+04  0.00000000000E+00 0. -1.
</event>
<event>
 5    1  0.4881333E-005  0.1370902E+03  0.7818608E-02  0.1114591E+00
         -4   -1    0    0    0  501 -0.00000000000E+00  0.00000000000E+00  0.39406913173E+03  0.39406913173E+03  0.00000000000E+00 0. -1.
         21   -1    0    0  501  502  0.00000000000E+00 -0.00000000000E+00 -0.44443265624E+03  0.44443265624E+03  0.00000000000E+00 0. -1.
        -13    1    1    2    0    0  0.21669609949E+02  0.12549339959E+03  0.32933036650E+02  0.13153996124E+03  0.10566000000E+00 0.  1.
         13    1    1    2    0    0 -0.15740323254E+02 -0.13937549405E+03  0.29590254179E+03  0.32746238184E+03  0.10566000000E+00 0. -1.
         -4    1    1    2    0  502 -0.59292866949E+01  0.13882094463E+02 -0.37919910295E+03  0.37949944489E+03  0.00000000000E+00 0. -1.
</event>
<event>
 5    1  0.4881333E-005  0.1945440E+03  0.7818608E-02  0.1063942E+00
         -4   -1    0    0    0  501 -0.00000000000E+00  0.00000000000E+00  0.40123225973E+02  0.40123225973E+02  0.00000000000E+00 0. -1.
         21   -1    0    0  501  502  0.00000000000E+00 -0.00000000000E+00 -0.12511536753E+04  0.12511536753E+04  0.00000000000E+00 0.  1.
        -13    1    1    2    0    0 -0.18378635684E+03 -0.66952496993E+02 -0.71835607581E+03  0.74451025824E+03  0.10566000000E+00 0.  1.
         13    1    1    2    0    0  0.18625954467E+03  0.54827934543E+02 -0.32460366206E+03  0.37824101969E+03  0.10566000000E+00 0. -1.
         -4    1    1    2    0  502 -0.24731878290E+01  0.12124562449E+02 -0.16807071143E+03  0.16852562331E+03  0.00000000000E+00 0. -1.
</event>
<event>
 5    1  0.4881333E-005  0.3844554E+03  0.7818608E-02  0.9876063E-01
         21   -1    0    0  501  502  0.00000000000E+00  0.00000000000E+00  0.65196734385E+03  0.65196734385E+03  0.00000000000E+00 0.  1.
          4   -1    0    0  502    0 -0.00000000000E+00 -0.00000000000E+00 -0.10548031596E+04  0.10548031596E+04  0.00000000000E+00 0.  1.
        -13    1    1    2    0    0 -0.36247140859E+03  0.67680275607E+02 -0.26754862618E+03  0.45557482402E+03  0.10566000000E+00 0.  1.
         13    1    1    2    0    0  0.11122553639E+03  0.24909125980E+03 -0.58559217715E+03  0.64601531309E+03  0.10566000000E+00 0. -1.
          4    1    1    2  501    0  0.25124587220E+03 -0.31677153540E+03  0.45030498759E+03  0.60518036633E+03  0.00000000000E+00 0.  1.
</event>
<event>
 5    1  0.4881333E-005  0.4670648E+03  0.7818608E-02  0.9833136E-01
         -4   -1    0    0    0  501 -0.00000000000E+00  0.00000000000E+00  0.27818848474E+04  0.27818848474E+04  0.00000000000E+00 0. -1.
         21   -1    0    0  501  502  0.00000000000E+00 -0.00000000000E+00 -0.12917479472E+03  0.12917479472E+03  0.00000000000E+00 0. -1.
        -13    1    1    2    0    0 -0.14099887972E+03  0.10511704463E+03  0.51118589622E+03  0.54059347833E+03  0.10566000000E+00 0.  1.
         13    1    1    2    0    0  0.52258105063E+03 -0.26129384497E+03  0.14777809791E+04  0.15890884372E+04  0.10566000000E+00 0. -1.
         -4    1    1    2    0  502 -0.38158217091E+03  0.15617680034E+03  0.66374317740E+03  0.78137772663E+03  0.00000000000E+00 0. -1.
</event>
<event>
 5    1  0.4881333E-005  0.1848210E+03  0.7818608E-02  0.1071071E+00
         21   -1    0    0  501  502  0.00000000000E+00  0.00000000000E+00  0.25202055883E+03  0.25202055883E+03  0.00000000000E+00 0.  1.
         -4   -1    0    0    0  501 -0.00000000000E+00 -0.00000000000E+00 -0.55731955566E+03  0.55731955566E+03  0.00000000000E+00 0. -1.
        -13    1    1    2    0    0  0.12596273899E+03 -0.19580398206E+03  0.11928614064E+03  0.26160085152E+03  0.10566000000E+00 0.  1.
         13    1    1    2    0    0 -0.14494394589E+03  0.10903271816E+03 -0.42149478205E+03  0.45886244512E+03  0.10566000000E+00 0. -1.
         -4    1    1    2    0  502  0.18981206904E+02  0.86771263901E+02 -0.30903554156E+01  0.88876817850E+02  0.00000000000E+00 0. -1.
</event>
<event>
 5    1  0.4881333E-005  0.4660943E+03  0.7818608E-02  0.9555552E-01
         -4   -1    0    0    0  501 -0.00000000000E+00  0.00000000000E+00  0.20960438789E+04  0.20960438789E+04  0.00000000000E+00 0. -1.
         21   -1    0    0  501  502  0.00000000000E+00 -0.00000000000E+00 -0.36277127266E+03  0.36277127266E+03  0.00000000000E+00 0. -1.
        -13    1    1    2    0    0  0.73290518706E+02 -0.41854784492E+03  0.11664245354E+04  0.12414104907E+04  0.10566000000E+00 0.  1.
         13    1    1    2    0    0  0.14494839665E+03  0.69005802156E+03  0.49555083059E+03  0.86183568485E+03  0.10566000000E+00 0. -1.
         -4    1    1    2    0  502 -0.21823891536E+03 -0.27151017663E+03  0.71297240249E+02  0.35556897595E+03  0.00000000000E+00 0. -1.
</event>
<event>
 5    1  0.4881333E-005  0.3197816E+03  0.7818608E-02  0.9994586E-01
          4   -1    0    0  502    0 -0.00000000000E+00  0.00000000000E+00  0.74135296570E+03  0.74135296570E+03  0.00000000000E+00 0.  1.
         21   -1    0    0  501  502  0.00000000000E+00 -0.00000000000E+00 -0.18077018274E+03  0.18077018274E+03  0.00000000000E+00 0.  1.
        -13    1    1    2    0    0  0.35029381708E+03 -0.86626649015E+01  0.31033292772E+03  0.46806766310E+03  0.10566000000E+00 0.  1.
         13    1    1    2    0    0 -0.29330161793E+03  0.25112487862E+02  0.26141738727E+03  0.39369472648E+03  0.10566000000E+00 0. -1.
          4    1    1    2  501    0 -0.56992199152E+02 -0.16449822961E+02 -0.11167532025E+02  0.60360758868E+02  0.00000000000E+00 0.  1.
</event>
<event>
 5    1  0.4881333E-005  0.1509407E+03  0.7818608E-02  0.1100188E+00
         21   -1    0    0  501  502  0.00000000000E+00  0.00000000000E+00  0.10011297798E+03  0.10011297798E+03  0.00000000000E+00 0. -1.
         -4   -1    0    0    0  501 -0.00000000000E+00 -0.00000000000E+00 -0.13741927976E+04  0.13741927976E+04  0.00000000000E+00 0. -1.
        -13    1    1    2    0    0 -0.26586822117E+02  0.11832139308E+03 -0.42489691018E+03  0.44186446634E+03  0.10566000000E+00 0.  1.
         13    1    1    2    0    0  0.11558644124E+03 -0.15631281057E+03 -0.90164559321E+03  0.92236582063E+03  0.10566000000E+00 0. -1.
         -4    1    1    2    0  502 -0.88999619119E+02  0.37991417482E+02  0.52462683766E+02  0.11007548861E+03  0.00000000000E+00 0. -1.
</event>
<event>
 5    1  0.4881333E-005  0.4025288E+03  0.7818608E-02  0.9893733E-01
         -4   -1    0    0    0  501 -0.00000000000E+00  0.00000000000E+00  0.64717902903E+03  0.64717902903E+03  0.00000000000E+00 0. -1.
         21   -1    0    0  501  502  0.00000000000E+00 -0.00000000000E+00 -0.61140392564E+03  0.61140392564E+03  0.00000000000E+00 0. -1.
        -13    1    1    2    0    0  0.12047286707E+03 -0.18883520234E+03  0.55410799102E+02  0.23074404253E+03  0.10566000000E+00 0.  1.
         13    1    1    2    0    0  0.21151425843E+03  0.36432135066E+03 -0.33439471914E+03  0.53785515468E+03  0.10566000000E+00 0. -1.
         -4    1    1    2    0  502 -0.33198712549E+03 -0.17548614832E+03  0.31475902343E+03  0.48998375746E+03  0.00000000000E+00 0. -1.
</event>
<event>
 5    1  0.4881333E-005  0.5560511E+02  0.7818608E-02  0.1270510E+00
          4   -1    0    0  502    0 -0.00000000000E+00  0.00000000000E+00  0.47098956256E+02  0.47098956256E+02  0.00000000000E+00 0.  1.
         21   -1    0    0  501  502  0.00000000000E+00 -0.00000000000E+00 -0.13159841324E+03  0.13159841324E+03  0.00000000000E+00 0.  1.
        -13    1    1    2    0    0 -0.56299910222E+02 -0.13996435731E+02  0.97627207317E+01  0.58829431276E+02  0.10566000000E+00 0.  1.
         13    1    1    2    0    0  0.42320422036E+02  0.29739234280E+02 -0.56264808597E+02  0.76427612990E+02  0.10566000000E+00 0. -1.
          4    1    1    2  501    0  0.13979488186E+02 -0.15742798548E+02 -0.37997369118E+02  0.43440325228E+02  0.00000000000E+00 0.  1.
</event>
<event>
 5    1  0.4881333E-005  0.3909689E+03  0.7818608E-02  0.9896417E-01
         21   -1    0    0  501  502  0.00000000000E+00  0.00000000000E+00  0.55413584423E+03  0.55413584423E+03  0.00000000000E+00 0. -1.
         -4   -1    0    0    0  501 -0.00000000000E+00 -0.00000000000E+00 -0.76199223550E+03  0.76199223550E+03  0.00000000000E+00 0. -1.
        -13    1    1    2    0    0 -0.16144219695E+03  0.18063639181E+03 -0.12203452758E+03  0.27126652223E+03  0.10566000000E+00 0.  1.
         13    1    1    2    0    0  0.33397242436E+03  0.18705498610E+03 -0.38307657583E+03  0.54154854092E+03  0.10566000000E+00 0. -1.
         -4    1    1    2    0  502 -0.17253022741E+03 -0.36769137791E+03  0.29725471214E+03  0.50331301657E+03  0.00000000000E+00 0. -1.
</event>
<event>
 5    1  0.4881333E-005  0.4425300E+03  0.7818608E-02  0.9672313E-01
          4   -1    0    0  502    0 -0.00000000000E+00  0.00000000000E+00  0.81014999447E+03  0.81014999447E+03  0.00000000000E+00 0.  1.
         21   -1    0    0  501  502  0.00000000000E+00 -0.00000000000E+00 -0.66250785770E+03  0.66250785770E+03  0.00000000000E+00 0. -1.
        -13    1    1    2    0    0  0.17025817859E+03  0.49504217880E+03  0.20249447426E+03  0.56130083684E+03  0.10566000000E+00 0.  1.
         13    1    1    2    0    0  0.22493775098E+03 -0.28097734494E+03  0.18199589196E+03  0.40332093429E+03  0.10566000000E+00 0. -1.
          4    1    1    2  501    0 -0.39519592957E+03 -0.21406483386E+03 -0.23684822944E+03  0.50803608103E+03  0.00000000000E+00 0.  1.
</event>
<event>
 5    1  0.4881333E-005  0.4866321E+03  0.7818608E-02  0.9507763E-01
          4   -1    0    0  502    0 -0.00000000000E+00  0.00000000000E+00  0.33286438530E+04  0.33286438530E+04  0.00000000000E+00 0.  1.
         21   -1    0    0  501  502  0.00000000000E+00 -0.00000000000E+00 -0.22076280552E+03  0.22076280552E+03  0.00000000000E+00 0.  1.
        -13    1    1    2    0    0 -0.12903284905E+03  0.58230597652E+03  0.11885653929E+04  0.13298185706E+04  0.10566000000E+00 0.  1.
         13    1    1    2    0    0 -0.25049855779E+03 -0.41513676847E+03  0.16625753445E+04  0.17318328012E+04  0.10566000000E+00 0. -1.
          4    1    1    2  501    0  0.37953140684E+03 -0.16716920805E+03  0.25674031015E+03  0.48775528675E+03  0.00000000000E+00 0.  1.
</event>
<event>
 5    1  0.4881333E-005  0.2869576E+03  0.7818608E-02  0.1013298E+00
         21   -1    0    0  501  502  0.00000000000E+00  0.00000000000E+00  0.57938640106E+03  0.57938640106E+03  0.00000000000E+00 0.  1.
          4   -1    0    0  502    0 -0.00000000000E+00 -0.00000000000E+00 -0.55545371893E+03  0.55545371893E+03  0.00000000000E+00 0.  1.
        -13    1    1    2    0    0  0.14146276404E+03  0.28941219463E+03 -0.17518128145E+03  0.36668736622E+03  0.10566000000E+00 0.  1.
         13    1    1    2    0    0  0.15669291803E+03 -0.24291498569E+03 -0.13405675030E+03  0.31864021137E+03  0.10566000000E+00 0. -1.
          4    1    1    2  501    0 -0.29815568207E+03 -0.46497208942E+02  0.33317071388E+03  0.44951254240E+03  0.00000000000E+00 0.  1.
</event>
<event>
 5    1  0.4881333E-005  0.5088320E+03  0.7818608E-02  0.9634167E-01
         -4   -1    0    0    0  501 -0.00000000000E+00  0.00000000000E+00  0.56752579051E+03  0.56752579051E+03  0.00000000000E+00 0. -1.
         21   -1    0    0  501  502  0.00000000000E+00 -0.00000000000E+00 -0.85507325852E+03  0.85507325852E+03  0.00000000000E+00 0. -1.
        -13    1    1    2    0    0 -0.39333899640E+02  0.26788725822E+03 -0.23071969920E+03  0.35572788693E+03  0.10566000000E+00 0.  1.
         13    1    1    2    0    0 -0.12309494392E+03 -0.60225223781E+03 -0.23059524803E+03  0.65653202721E+03  0.10566000000E+00 0. -1.
         -4    1    1    2    0  502  0.16242884356E+03  0.33436497959E+03  0.17376747922E+03  0.41033913490E+03  0.00000000000E+00 0. -1.
</event>
<event>
 5    1  0.4881333E-005  0.4843356E+03  0.7818608E-02  0.9992189E-01
          4   -1    0    0  502    0 -0.00000000000E+00  0.00000000000E+00  0.17986583330E+04  0.17986583330E+04  0.00000000000E+00 0.  1.
         21   -1    0    0  501  502  0.00000000000E+00 -0.00000000000E+00 -0.17821712836E+03  0.17821712836E+03  0.00000000000E+00 0.  1.
        -13    1    1    2    0    0 -0.42406185757E+03 -0.25346905294E+03  0.55830181405E+03  0.74550382064E+03  0.10566000000E+00 0.  1.
         13    1    1    2    0    0 -0.20501044780E+02  0.90472455319E+02  0.32881123494E+02  0.98421224615E+02  0.10566000000E+00 0. -1.
          4    1    1    2  501    0  0.44456290235E+03  0.16299659762E+03  0.10292582671E+04  0.11329504161E+04  0.00000000000E+00 0.  1.
</event>
<event>
 5    1  0.4881333E-005  0.5728547E+03  0.7818608E-02  0.9418468E-01
          4   -1    0    0  502    0 -0.00000000000E+00  0.00000000000E+00  0.32431590180E+04  0.32431590180E+04  0.00000000000E+00 0.  1.
         21   -1    0    0  501  502  0.00000000000E+00 -0.00000000000E+00 -0.41140902997E+03  0.41140902997E+03  0.00000000000E+00 0.  1.
        -13    1    1    2    0    0  0.13374334215E+03  0.46008535484E+03  0.23621943100E+03  0.53419607454E+03  0.10566000000E+00 0.  1.
         13    1    1    2    0    0  0.58410072322E+03 -0.33655132798E+03  0.21798603522E+04  0.22817168136E+04  0.10566000000E+00 0. -1.
          4    1    1    2  501    0 -0.71784406537E+03 -0.12353402686E+03  0.41567020491E+03  0.83865515991E+03  0.00000000000E+00 0.  1.
</event>
<event>
 5    1  0.4881333E-005  0.4771478E+03  0.7818608E-02  0.1018442E+00
         21   -1    0    0  501  502  0.00000000000E+00  0.00000000000E+00  0.30996405062E+03  0.30996405062E+03  0.00000000000E+00 0. -1.
         -4   -1    0    0    0  501 -0.00000000000E+00 -0.00000000000E+00 -0.90118684936E+03  0.90118684936E+03  0.00000000000E+00 0. -1.
        -13    1    1    2    0    0 -0.51812351181E+02 -0.66369180987E+01  0.10314437866E+02  0.53244410122E+02  0.10566000000E+00 0.  1.
         13    1    1    2    0    0  0.10561768863E+03 -0.46679695240E+03 -0.15023417394E+03  0.50162217764E+03  0.10566000000E+00 0. -1.
         -4    1    1    2    0  502 -0.53805337451E+02  0.47343387050E+03 -0.45130306267E+03  0.65628431221E+03  0.00000000000E+00 0. -1.
</event>
<event>
 5    1  0.4881333E-005  0.4767759E+03  0.7818608E-02  0.9710347E-01
         21   -1    0    0  501  502  0.00000000000E+00  0.00000000000E+00  0.12142346091E+04  0.12142346091E+04  0.00000000000E+00 0. -1.
         -4   -1    0    0    0  501 -0.00000000000E+00 -0.00000000000E+00 -0.45181338204E+03  0.45181338204E+03  0.00000000000E+00 0. -1.
        -13    1    1    2    0    0 -0.92773895635E+02 -0.23434314314E+03 -0.12990149331E+03  0.28354561110E+03  0.10566000000E+00 0.  1.
         13    1    1    2    0    0  0.50396751571E+03  0.11910386979E+03  0.78796620358E+03  0.94289964357E+03  0.10566000000E+00 0. -1.
         -4    1    1    2    0  502 -0.41119362008E+03  0.11523927335E+03  0.10435651678E+03  0.43960273647E+03  0.00000000000E+00 0. -1.
</event>
<event>
 5    1  0.4881333E-005  0.5079456E+03  0.7818608E-02  0.9559060E-01
         21   -1    0    0  501  502  0.00000000000E+00  0.00000000000E+00  0.74474155379E+03  0.74474155379E+03  0.00000000000E+00 0. -1.
          4   -1    0    0  502    0 -0.00000000000E+00 -0.00000000000E+00 -0.76449163806E+03  0.76449163806E+03  0.00000000000E+00 0.  1.
        -13    1    1    2    0    0 -0.54652314760E+03 -0.19493836316E+03  0.85117360654E+01  0.58031110373E+03  0.10566000000E+00 0.  1.
         13    1    1    2    0    0  0.28961065085E+03 -0.20636173667E+03  0.19183222818E+03  0.40405335091E+03  0.10566000000E+00 0. -1.
          4    1    1    2  501    0  0.25691249674E+03  0.40130009983E+03 -0.22009404851E+03  0.52486873721E+03  0.00000000000E+00 0.  1.
</event>
<event>
 5    1  0.4881333E-005  0.5026593E+03  0.7818608E-02  0.9851874E-01
         21   -1    0    0  501  502  0.00000000000E+00  0.00000000000E+00  0.40532369616E+03  0.40532369616E+03  0.00000000000E+00 0. -1.
         -4   -1    0    0    0  501 -0.00000000000E+00 -0.00000000000E+00 -0.81391603751E+03  0.81391603751E+03  0.00000000000E+00 0. -1.
        -13    1    1    2    0    0 -0.80741698090E+02  0.10495769100E+03 -0.70852863293E+02  0.15018481318E+03  0.10566000000E+00 0.  1.
         13    1    1    2    0    0 -0.26855323180E+03 -0.44848509571E+03 -0.14391996274E+03  0.54219248079E+03  0.10566000000E+00 0. -1.
         -4    1    1    2    0  502  0.34929492989E+03  0.34352740472E+03 -0.19381951532E+03  0.52686243969E+03  0.00000000000E+00 0. -1.
</event>
<event>
 5    1  0.4881333E-005  0.3760588E+02  0.7818608E-02  0.1384108E+00
         21   -1    0    0  501  502  0.00000000000E+00  0.00000000000E+00  0.51875106992E+02  0.51875106992E+02  0.00000000000E+00 0.  1.
          4   -1    0    0  502    0 -0.00000000000E+00 -0.00000000000E+00 -0.48373038942E+02  0.48373038942E+02  0.00000000000E+00 0.  1.
        -13    1    1    2    0    0 -0.27529163814E+02  0.37139281396E+02  0.13874414540E+02  0.48266879180E+02  0.10566000000E+00 0.  1.
         13    1    1    2    0    0  0.32239000111E+01 -0.21385242140E+02 -0.14584401969E+01  0.21676261775E+02  0.10566000000E+00 0. -1.
          4    1    1    2  501    0  0.24305263803E+02 -0.15754039256E+02 -0.89139062930E+01  0.30305004979E+02  0.00000000000E+00 0.  1.
</event>
<event>
 5    1  0.4881333E-005  0.7843373E+02  0.7818608E-02  0.1206505E+00
         -4   -1    0    0    0  501 -0.00000000000E+00  0.00000000000E+00  0.18826194614E+03  0.18826194614E+03  0.00000000000E+00 0. -1.
         21   -1    0    0  501  502  0.00000000000E+00 -0.00000000000E+00 -0.10675338714E+03  0.10675338714E+03  0.00000000000E+00 0. -1.
        -13    1    1    2    0    0 -0.66563277512E+02  0.87805696372E+02  0.26446321968E+02  0.11331341200E+03  0.10566000000E+00 0.  1.
         13    1    1    2    0    0  0.73429967411E+02 -0.96731236700E+01  0.69941534519E+02  0.10186932242E+03  0.10566000000E+00 0. -1.
         -4    1    1    2    0  502 -0.68666898990E+01 -0.78132572702E+02 -0.14879297490E+02  0.79832598861E+02  0.00000000000E+00 0. -1.
</event>
<event>
 5    1  0.4881333E-005  0.4088263E+03  0.7818608E-02  0.9820371E-01
         21   -1    0    0  501  502  0.00000000000E+00  0.00000000000E+00  0.27921067375E+03  0.27921067375E+03  0.00000000000E+00 0. -1.
         -4   -1    0    0    0  501 -0.00000000000E+00 -0.00000000000E+00 -0.16545652999E+04  0.16545652999E+04  0.00000000000E+00 0. -1.
        -13    1    1    2    0    0  0.10347950731E+03  0.25355890875E+03 -0.58790774329E+03  0.64856430246E+03  0.10566000000E+00 0.  1.
         13    1    1    2    0    0 -0.38388911820E+03 -0.46998394317E+03 -0.68781744698E+03  0.91725057288E+03  0.10566000000E+00 0. -1.
         -4    1    1    2    0  502  0.28040961088E+03  0.21642503442E+03 -0.99629435910E+02  0.36796109835E+03  0.00000000000E+00 0. -1.
</event>
<event>
 5    1  0.4881333E-005  0.4378124E+03  0.7818608E-02  0.9700145E-01
         21   -1    0    0  501  502  0.00000000000E+00  0.00000000000E+00  0.29428731881E+03  0.29428731881E+03  0.00000000000E+00 0. -1.
         -4   -1    0    0    0  501 -0.00000000000E+00 -0.00000000000E+00 -0.23025763034E+04  0.23025763034E+04  0.00000000000E+00 0. -1.
        -13    1    1    2    0    0  0.26747777587E+03  0.20542083298E+03 -0.12777307097E+04  0.13214907707E+04  0.10566000000E+00 0.  1.
         13    1    1    2    0    0 -0.80759346111E+02 -0.57291402745E+03 -0.62119856239E+03  0.84890530680E+03  0.10566000000E+00 0. -1.
         -4    1    1    2    0  502 -0.18671842976E+03  0.36749319447E+03 -0.10935971243E+03  0.42646754472E+03  0.00000000000E+00 0. -1.
</event>
<event>
 5    1  0.1536494E-004  0.4728274E+03  0.7818608E-02  0.9539604E-01
         21   -1    0    0  501  502  0.00000000000E+00  0.00000000000E+00  0.60467912123E+03  0.60467912123E+03  0.00000000000E+00 0. -1.
         -4   -1    0    0    0  501 -0.00000000000E+00 -0.00000000000E+00 -0.11550999547E+04  0.11550999547E+04  0.00000000000E+00 0. -1.
        -13    1    1    2    0    0 -0.16952264892E+03 -0.45787788241E+03 -0.40302592525E+03  0.63310346018E+03  0.10566000000E+00 0.  1.
         13    1    1    2    0    0  0.97044166041E+02  0.39834459605E+03  0.39911291057E+03  0.57217751958E+03  0.10566000000E+00 0. -1.
         -4    1    1    2    0  502  0.72478482883E+02  0.59533286359E+02 -0.54650781876E+03  0.55449809615E+03  0.00000000000E+00 0. -1.
</event>
<event>
 5    1  0.4881333E-005  0.4657306E+03  0.7818608E-02  0.9659868E-01
         21   -1    0    0  501  502  0.00000000000E+00  0.00000000000E+00  0.10234296715E+04  0.10234296715E+04  0.00000000000E+00 0. -1.
         -4   -1    0    0    0  501 -0.00000000000E+00 -0.00000000000E+00 -0.75157122011E+03  0.75157122011E+03  0.00000000000E+00 0. -1.
        -13    1    1    2    0    0  0.64323981977E+02  0.31606806069E+03 -0.40684689801E+03  0.51919264559E+03  0.10566000000E+00 0.  1.
         13    1    1    2    0    0 -0.47277722644E+03 -0.40036436715E+03  0.28375008747E+03  0.68141327814E+03  0.10566000000E+00 0. -1.
         -4    1    1    2    0  502  0.40845324446E+03  0.84296306453E+02  0.39495526191E+03  0.57439496786E+03  0.00000000000E+00 0. -1.
</event>
<event>
 5    1  0.4881333E-005  0.4269152E+03  0.7818608E-02  0.9849637E-01
          4   -1    0    0  502    0 -0.00000000000E+00  0.00000000000E+00  0.10383720841E+04  0.10383720841E+04  0.00000000000E+00 0.  1.
         21   -1    0    0  501  502  0.00000000000E+00 -0.00000000000E+00 -0.51944217686E+03  0.51944217686E+03  0.00000000000E+00 0.  1.
        -13    1    1    2    0    0 -0.27465726553E+03  0.29488227415E+03  0.19880946463E+03  0.44935218204E+03  0.10566000000E+00 0.  1.
         13    1    1    2    0    0 -0.15500829552E+03 -0.15298564710E+03  0.55675188089E+03  0.59783346171E+03  0.10566000000E+00 0. -1.
          4    1    1    2  501    0  0.42966556105E+03 -0.14189662705E+03 -0.23663143829E+03  0.51062861721E+03  0.00000000000E+00 0.  1.
</event>
<event>
 5    1  0.4881333E-005  0.4173200E+03  0.7818608E-02  0.9745966E-01
         -4   -1    0    0    0  501 -0.00000000000E+00  0.00000000000E+00  0.78960453362E+03  0.78960453362E+03  0.00000000000E+00 0. -1.
         21   -1    0    0  501  502  0.00000000000E+00 -0.00000000000E+00 -0.10346272788E+04  0.10346272788E+04  0.00000000000E+00 0. -1.
        -13    1    1    2    0    0  0.27528379203E+03  0.18598832394E+03  0.44642721357E+03  0.55648009037E+03  0.10566000000E+00 0.  1.
         13    1    1    2    0    0  0.17658129734E+03 -0.10939534517E+01  0.19045516617E+03  0.25972164482E+03  0.10566000000E+00 0. -1.
         -4    1    1    2    0  502 -0.45186508937E+03 -0.18489437049E+03 -0.88190512492E+03  0.10080300772E+04  0.00000000000E+00 0. -1.
</event>
<event>
 5    1  0.4881333E-005  0.5449406E+02  0.7818608E-02  0.1286818E+00
         -4   -1    0    0    0  501 -0.00000000000E+00  0.00000000000E+00  0.24035919920E+03  0.24035919920E+03  0.00000000000E+00 0. -1.
         21   -1    0    0  501  502  0.00000000000E+00 -0.00000000000E+00 -0.52988126356E+02  0.52988126356E+02  0.00000000000E+00 0. -1.
        -13    1    1    2    0    0 -0.53938622881E+02  0.29821543800E+02  0.16581674365E+03  0.17690082858E+03  0.10566000000E+00 0.  1.
         13    1    1    2    0    0  0.32343495471E+02  0.33364125301E+02  0.17133968357E+02  0.49526261641E+02  0.10566000000E+00 0. -1.
         -4    1    1    2    0  502  0.21595127409E+02 -0.63185669101E+02  0.44203608378E+01  0.66920235337E+02  0.00000000000E+00 0. -1.
</event>
<event>
 5    1  0.4881333E-005  0.9857244E+02  0.7818608E-02  0.1166939E+00
          4   -1    0    0  502    0 -0.00000000000E+00  0.00000000000E+00  0.35658937277E+02  0.35658937277E+02  0.00000000000E+00 0.  1.
         21   -1    0    0  501  502  0.00000000000E+00 -0.00000000000E+00 -0.33491671205E+03  0.33491671205E+03  0.00000000000E+00 0. -1.
        -13    1    1    2    0    0  0.45503095732E+02  0.93778737492E+02 -0.12015474033E+03  0.15906651475E+03  0.10566000000E+00 0.  1.
         13    1    1    2    0    0 -0.53427493446E+02 -0.75945789953E+02 -0.14388263881E+03  0.17124393415E+03  0.10566000000E+00 0. -1.
          4    1    1    2  501    0  0.79243977135E+01 -0.17832947539E+02 -0.35220395638E+02  0.40265200434E+02  0.00000000000E+00 0.  1.
</event>
<event>
 5    1  0.4881333E-005  0.3352553E+03  0.7818608E-02  0.1000552E+00
         21   -1    0    0  501  502  0.00000000000E+00  0.00000000000E+00  0.24544106499E+03  0.24544106499E+03  0.00000000000E+00 0. -1.
         -4   -1    0    0    0  501 -0.00000000000E+00 -0.00000000000E+00 -0.26147177561E+04  0.26147177561E+04  0.00000000000E+00 0. -1.
        -13    1    1    2    0    0 -0.22986865081E+03  0.13729315528E+03 -0.14322366573E+04  0.14570486817E+04  0.10566000000E+00 0.  1.
         13    1    1    2    0    0  0.98832294176E+01 -0.39551122038E+03 -0.98409145250E+03  0.10606426362E+04  0.10566000000E+00 0. -1.
         -4    1    1    2    0  502  0.21998542139E+03  0.25821806510E+03  0.47051418680E+02  0.34246750323E+03  0.00000000000E+00 0. -1.
</event>
<event>
 5    1  0.4881333E-005  0.6806197E+03  0.7818608E-02  0.9151576E-01
          4   -1    0    0  502    0 -0.00000000000E+00  0.00000000000E+00  0.78979928451E+03  0.78979928451E+03  0.00000000000E+00 0.  1.
         21   -1    0    0  501  502  0.00000000000E+00 -0.00000000000E+00 -0.69241299747E+03  0.69241299747E+03  0.00000000000E+00 0. -1.
        -13    1    1    2    0    0 -0.66219670312E+03  0.15632961321E+03 -0.13436334348E+03  0.69353942990E+03  0.10566000000E+00 0.  1.
         13    1    1    2    0    0  0.65600085462E+03 -0.18256650151E+03  0.27771393298E+03  0.73538608123E+03  0.10566000000E+00 0. -1.
          4    1    1    2  501    0  0.61958485066E+01  0.26236888296E+02 -0.45964302468E+02  0.53286770849E+02  0.00000000000E+00 0.  1.
</event>
<event>
 5    1  0.4881333E-005  0.2138379E+03  0.7818608E-02  0.1051042E+00
          4   -1    0    0  502    0 -0.00000000000E+00  0.00000000000E+00  0.46806096472E+03  0.46806096472E+03  0.00000000000E+00 0.  1.
         21   -1    0    0  501  502  0.00000000000E+00 -0.00000000000E+00 -0.27863869682E+03  0.27863869682E+03  0.00000000000E+00 0.  1.
        -13    1    1    2    0    0  0.11633822187E+03  0.17592185270E+03  0.34034084637E+03  0.40039353516E+03  0.10566000000E+00 0.  1.
         13    1    1    2    0    0 -0.76061536457E+02 -0.22321819045E+03 -0.73427858256E+02  0.24698862203E+03  0.10566000000E+00 0. -1.
          4    1    1    2  501    0 -0.40276685413E+02  0.47296337753E+02 -0.77490720213E+02  0.99317504357E+02  0.00000000000E+00 0.  1.
</event>
<event>
 5    1  0.4881333E-005  0.1948080E+03  0.7818608E-02  0.1063755E+00
         -4   -1    0    0    0  501 -0.00000000000E+00  0.00000000000E+00  0.28389065548E+03  0.28389065548E+03  0.00000000000E+00 0. -1.
         21   -1    0    0  501  502  0.00000000000E+00 -0.00000000000E+00 -0.28443665352E+03  0.28443665352E+03  0.00000000000E+00 0.  1.
        -13    1    1    2    0    0 -0.10160096214E+03 -0.11061660190E+03 -0.13765019684E+03  0.20373113650E+03  0.10566000000E+00 0.  1.
         13    1    1    2    0    0  0.17213123352E+03  0.11657468787E+03  0.18568796566E+03  0.27874513656E+03  0.10566000000E+00 0. -1.
         -4    1    1    2    0  502 -0.70530271376E+02 -0.59580859681E+01 -0.48583766860E+02  0.85851035935E+02  0.00000000000E+00 0. -1.
</event>
<event>
 5    1  0.4881333E-005  0.4041165E+03  0.7818608E-02  0.9908676E-01
         -4   -1    0    0    0  501 -0.00000000000E+00  0.00000000000E+00  0.32682945301E+04  0.32682945301E+04  0.00000000000E+00 0. -1.
         21   -1    0    0  501  502  0.00000000000E+00 -0.00000000000E+00 -0.11776982683E+03  0.11776982683E+03  0.00000000000E+00 0. -1.
        -13    1    1    2    0    0  0.14911747701E+03  0.14867471372E+03  0.67266355212E+03  0.70485208233E+03  0.10566000000E+00 0.  1.
         13    1    1    2    0    0  0.20675691754E+03 -0.35753593222E+03  0.44594960944E+03  0.60782516491E+03  0.10566000000E+00 0. -1.
         -4    1    1    2    0  502 -0.35587439455E+03  0.20886121850E+03  0.20319115417E+04  0.20733871097E+04  0.00000000000E+00 0. -1.
</event>
<event>
 5    1  0.4881333E-005  0.2496247E+03  0.7818608E-02  0.1030587E+00
         -4   -1    0    0    0  501 -0.00000000000E+00  0.00000000000E+00  0.18173000194E+03  0.18173000194E+03  0.00000000000E+00 0. -1.
         21   -1    0    0  501  502  0.00000000000E+00 -0.00000000000E+00 -0.82177174925E+03  0.82177174925E+03  0.00000000000E+00 0. -1.
        -13    1    1    2    0    0 -0.13693543621E+03 -0.17601438588E+03 -0.12702991566E+03  0.25664954386E+03  0.10566000000E+00 0.  1.
         13    1    1    2    0    0  0.20502453198E+03  0.18225928451E+03 -0.50029845856E+02  0.27884852903E+03  0.10566000000E+00 0. -1.
         -4    1    1    2    0  502 -0.68089095774E+02 -0.62448986258E+01 -0.46298198580E+03  0.46800367829E+03  0.00000000000E+00 0. -1.
</event>
<event>
 5    1  0.4881333E-005  0.4910325E+03  0.7818608E-02  0.9548270E-01
         21   -1    0    0  501  502  0.00000000000E+00  0.00000000000E+00  0.35265392162E+03  0.35265392162E+03  0.00000000000E+00 0. -1.
         -4   -1    0    0    0  501 -0.00000000000E+00 -0.00000000000E+00 -0.15924810788E+04  0.15924810788E+04  0.00000000000E+00 0. -1.
        -13    1    1    2    0    0  0.58631929423E+02  0.40497263837E+03 -0.50169018934E+03  0.64740528127E+03  0.10566000000E+00 0.  1.
         13    1    1    2    0    0  0.38413471170E+03  0.40760501914E+02 -0.48584516882E+03  0.62069834420E+03  0.10566000000E+00 0. -1.
         -4    1    1    2    0  502 -0.44276664113E+03 -0.44573314029E+03 -0.25229179906E+03  0.67703137499E+03  0.00000000000E+00 0. -1.
</event>
<event>
 5    1  0.4881333E-005  0.4605413E+03  0.7818608E-02  0.9568922E-01
         21   -1    0    0  501  502  0.00000000000E+00  0.00000000000E+00  0.36893003216E+03  0.36893003216E+03  0.00000000000E+00 0.  1.
         -4   -1    0    0    0  501 -0.00000000000E+00 -0.00000000000E+00 -0.25077988175E+04  0.25077988175E+04  0.00000000000E+00 0. -1.
        -13    1    1    2    0    0 -0.39704639570E+03 -0.25403527387E+03  0.12115372096E+03  0.48668058927E+03  0.10566000000E+00 0.  1.
         13    1    1    2    0    0  0.37505871088E+03  0.26592769098E+03 -0.22985719822E+04  0.23441031850E+04  0.10566000000E+00 0. -1.
         -4    1    1    2    0  502  0.21987684821E+02 -0.11892417109E+02  0.38549475851E+02  0.45945075436E+02  0.00000000000E+00 0. -1.
</event>
<event>
 5    1  0.4881333E-005  0.3376473E+03  0.7818608E-02  0.1030349E+00
         -4   -1    0    0    0  501 -0.00000000000E+00  0.00000000000E+00  0.15734693035E+04  0.15734693035E+04  0.00000000000E+00 0. -1.
         21   -1    0    0  501  502  0.00000000000E+00 -0.00000000000E+00 -0.59308662382E+03  0.59308662382E+03  0.00000000000E+00 0. -1.
        -13    1    1    2    0    0 -0.60083657109E+03  0.13348852501E+03  0.72584012689E+03  0.95166573566E+03  0.10566000000E+00 0.  1.
         13    1    1    2    0    0 -0.65114644714E+02  0.15956630156E+03 -0.26833634514E+03  0.31891335318E+03  0.10566000000E+00 0. -1.
         -4    1    1    2    0  502  0.66595121580E+03 -0.29305482657E+03  0.52287889795E+03  0.89597683850E+03  0.00000000000E+00 0. -1.
</event>
<event>
 5    1  0.4881333E-005  0.2998685E+03  0.7818608E-02  0.1015376E+00
         21   -1    0    0  501  502  0.00000000000E+00  0.00000000000E+00  0.13604552315E+03  0.13604552315E+03  0.00000000000E+00 0.  1.
          4   -1    0    0  502    0 -0.00000000000E+00 -0.00000000000E+00 -0.29071489365E+04  0.29071489365E+04  0.00000000000E+00 0.  1.
        -13    1    1    2    0    0  0.30172527990E+03  0.40981924914E+02 -0.13879892950E+03  0.33463833715E+03  0.10566000000E+00 0.  1.
         13    1    1    2    0    0 -0.23899500412E+02 -0.23069546686E+03 -0.51664529508E+03  0.56631612783E+03  0.10566000000E+00 0. -1.
          4    1    1    2  501    0 -0.27782577948E+03  0.18971354195E+03 -0.21156591888E+04  0.21422399947E+04  0.00000000000E+00 0.  1.
</event>
<event>
 5    1  0.4881333E-005  0.2136163E+03  0.7818608E-02  0.1051182E+00
          4   -1    0    0  502    0 -0.00000000000E+00  0.00000000000E+00  0.19179073711E+03  0.19179073711E+03  0.00000000000E+00 0.  1.
         21   -1    0    0  501  502  0.00000000000E+00 -0.00000000000E+00 -0.52467298779E+03  0.52467298779E+03  0.00000000000E+00 0.  1.
        -13    1    1    2    0    0  0.61954575071E+02 -0.24019060631E+03 -0.13637423536E+03  0.28306861353E+03  0.10566000000E+00 0.  1.
         13    1    1    2    0    0 -0.33514283954E+02  0.19685020842E+03  0.29203736293E+02  0.20180703942E+03  0.10566000000E+00 0. -1.
          4    1    1    2  501    0 -0.28440291117E+02  0.43340397890E+02 -0.22571175162E+03  0.23158807194E+03  0.00000000000E+00 0.  1.
</event>
<event>
 5    1  0.4881333E-005  0.5129189E+03  0.7818608E-02  0.1011116E+00
         21   -1    0    0  501  502  0.00000000000E+00  0.00000000000E+00  0.20830237618E+03  0.20830237618E+03  0.00000000000E+00 0. -1.
         -4   -1    0    0    0  501 -0.00000000000E+00 -0.00000000000E+00 -0.15144635412E+04  0.15144635412E+04  0.00000000000E+00 0. -1.
        -13    1    1    2    0    0  0.34995995989E+02  0.39932765745E+02 -0.21304688097E+03  0.21956395463E+03  0.10566000000E+00 0.  1.
         13    1    1    2    0    0 -0.21307433914E+03  0.45540773411E+03 -0.47993358264E+03  0.69507778931E+03  0.10566000000E+00 0. -1.
         -4    1    1    2    0  502  0.17807834316E+03 -0.49534049985E+03 -0.61318070136E+03  0.80812417339E+03  0.00000000000E+00 0. -1.
</event>
<event>
 5    1  0.4881333E-005  0.5186589E+03  0.7818608E-02  0.9437987E-01
         21   -1    0    0  501  502  0.00000000000E+00  0.00000000000E+00  0.17342775073E+04  0.17342775073E+04  0.00000000000E+00 0.  1.
         -4   -1    0    0    0  501 -0.00000000000E+00 -0.00000000000E+00 -0.41758158370E+03  0.41758158370E+03  0.00000000000E+00 0. -1.
        -13    1    1    2    0    0  0.38104159370E+03 -0.30622279047E+03  0.96643956291E+02  0.49830227673E+03  0.10566000000E+00 0.  1.
         13    1    1    2    0    0 -0.26045357010E+03  0.53440190503E+03  0.24171880308E+03  0.64175497598E+03  0.10566000000E+00 0. -1.
         -4    1    1    2    0  502 -0.12058802360E+03 -0.22817911455E+03  0.97833316419E+03  0.10118018383E+04  0.00000000000E+00 0. -1.
</event>
<event>
 5    1  0.4881333E-005  0.4222204E+02  0.7818608E-02  0.1327160E+00
          4   -1    0    0  502    0 -0.00000000000E+00  0.00000000000E+00  0.70354827553E+02  0.70354827553E+02  0.00000000000E+00 0.  1.
         21   -1    0    0  501  502  0.00000000000E+00 -0.00000000000E+00 -0.49499768996E+02  0.49499768996E+02  0.00000000000E+00 0.  1.
        -13    1    1    2    0    0  0.52921218898E+02 -0.12302259814E+02 -0.11131430503E+02  0.55460985524E+02  0.10566000000E+00 0.  1.
         13    1    1    2    0    0 -0.36430828678E+02  0.92016385323E+01  0.14829636816E+02  0.40395602755E+02  0.10566000000E+00 0. -1.
          4    1    1    2  501    0 -0.16490390221E+02  0.31006212818E+01  0.17156852245E+02  0.23998008270E+02  0.00000000000E+00 0.  1.
</event>
<event>
 5    1  0.4881333E-005  0.5040841E+03  0.7818608E-02  0.9849247E-01
          4   -1    0    0  502    0 -0.00000000000E+00  0.00000000000E+00  0.43327200197E+03  0.43327200197E+03  0.00000000000E+00 0.  1.
         21   -1    0    0  501  502  0.00000000000E+00 -0.00000000000E+00 -0.89877931015E+03  0.89877931015E+03  0.00000000000E+00 0.  1.
        -13    1    1    2    0    0 -0.17194311332E+03 -0.42143617802E+03 -0.24600557939E+03  0.51738925638E+03  0.10566000000E+00 0.  1.
         13    1    1    2    0    0 -0.11366588607E+03 -0.68036332467E+02  0.98270974392E+02  0.16494263173E+03  0.10566000000E+00 0. -1.
          4    1    1    2  501    0  0.28560899939E+03  0.48947251048E+03 -0.31777270317E+03  0.64971942401E+03  0.00000000000E+00 0.  1.
</event>
<event>
 5    1  0.4881333E-005  0.4211236E+02  0.7818608E-02  0.1327719E+00
         21   -1    0    0  501  502  0.00000000000E+00  0.00000000000E+00  0.19388813995E+03  0.19388813995E+03  0.00000000000E+00 0.  1.
          4   -1    0    0  502    0 -0.00000000000E+00 -0.00000000000E+00 -0.85188934402E+02  0.85188934402E+02  0.00000000000E+00 0.  1.
        -13    1    1    2    0    0 -0.44822667855E+02 -0.21289502175E+01 -0.70889670902E+02  0.83898513617E+02  0.10566000000E+00 0.  1.
         13    1    1    2    0    0  0.29591599092E+02 -0.21800168958E+01  0.22356857193E+02  0.37151789164E+02  0.10566000000E+00 0. -1.
          4    1    1    2  501    0  0.15231068763E+02  0.43089671133E+01  0.15723201926E+03  0.15802677157E+03  0.00000000000E+00 0.  1.
</event>
<event>
 5    1  0.4881333E-005  0.3217973E+03  0.7818608E-02  0.1048541E+00
         21   -1    0    0  501  502  0.00000000000E+00  0.00000000000E+00  0.15384299031E+04  0.15384299031E+04  0.00000000000E+00 0.  1.
          4   -1    0    0  502    0 -0.00000000000E+00 -0.00000000000E+00 -0.19634998223E+03  0.19634998223E+03  0.00000000000E+00 0.  1.
        -13    1    1    2    0    0  0.18127300517E+03  0.27295920575E+03 -0.90556066980E+01  0.32779360211E+03  0.10566000000E+00 0.  1.
         13    1    1    2    0    0 -0.62347827199E+02  0.26106966610E+02  0.17469254452E+03  0.18731343128E+03  0.10566000000E+00 0. -1.
          4    1    1    2  501    0 -0.11892517797E+03 -0.29906617236E+03  0.11764429830E+04  0.12196728519E+04  0.00000000000E+00 0.  1.
</event>
<event>
 5    1  0.4881333E-005  0.1431614E+03  0.7818608E-02  0.1108059E+00
          4   -1    0    0  502    0 -0.00000000000E+00  0.00000000000E+00  0.49478544722E+03  0.49478544722E+03  0.00000000000E+00 0.  1.
         21   -1    0    0  501  502  0.00000000000E+00 -0.00000000000E+00 -0.10753583499E+03  0.10753583499E+03  0.00000000000E+00 0.  1.
        -13    1    1    2    0    0  0.52151759912E+02 -0.13380453453E+03  0.38455765234E+03  0.41049733088E+03  0.10566000000E+00 0.  1.
         13    1    1    2    0    0 -0.61949531391E+02  0.12748023533E+03  0.44391361609E+02  0.14852460735E+03  0.10566000000E+00 0. -1.
          4    1    1    2  501    0  0.97977714792E+01  0.63242992059E+01 -0.41699401712E+02  0.43299343985E+02  0.00000000000E+00 0.  1.
</event>
<event>
 5    1  0.4881333E-005  0.1325256E+03  0.7818608E-02  0.1119749E+00
          4   -1    0    0  502    0 -0.00000000000E+00  0.00000000000E+00  0.64739216797E+02  0.64739216797E+02  0.00000000000E+00 0.  1.
         21   -1    0    0  501  502  0.00000000000E+00 -0.00000000000E+00 -0.10002070138E+04  0.10002070138E+04  0.00000000000E+00 0. -1.
        -13    1    1    2    0    0 -0.11484940973E+03  0.13581296254E+03 -0.23203454359E+03  0.29236208423E+03  0.10566000000E+00 0.  1.
         13    1    1    2    0    0  0.68033476308E+02 -0.93008436870E+02 -0.67610931651E+02  0.13360528609E+03  0.10566000000E+00 0. -1.
          4    1    1    2  501    0  0.46815933421E+02 -0.42804525673E+02 -0.63582232174E+03  0.63897886026E+03  0.00000000000E+00 0.  1.
</event>
<event>
 5    1  0.4881333E-005  0.1653006E+03  0.7818608E-02  0.1086930E+00
         -4   -1    0    0    0  501 -0.00000000000E+00  0.00000000000E+00  0.27869853085E+03  0.27869853085E+03  0.00000000000E+00 0. -1.
         21   -1    0    0  501  502  0.00000000000E+00 -0.00000000000E+00 -0.13269632661E+03  0.13269632661E+03  0.00000000000E+00 0.  1.
        -13    1    1    2    0    0  0.12981288586E+03 -0.92369270205E+02  0.33756234976E+02  0.16285871784E+03  0.10566000000E+00 0.  1.
         13    1    1    2    0    0 -0.13597091075E+03  0.10035376781E+03  0.13971820460E+03  0.21927187495E+03  0.10566000000E+00 0. -1.
         -4    1    1    2    0  502  0.61580248819E+01 -0.79844976038E+01 -0.27472235332E+02  0.29264264668E+02  0.00000000000E+00 0. -1.
</event>
<event>
 5    1  0.4881333E-005  0.7705689E+03  0.7818608E-02  0.9026448E-01
         21   -1    0    0  501  502  0.00000000000E+00  0.00000000000E+00  0.34458035583E+03  0.34458035583E+03  0.00000000000E+00 0. -1.
          4   -1    0    0  502    0 -0.00000000000E+00 -0.00000000000E+00 -0.46410666891E+04  0.46410666891E+04  0.00000000000E+00 0.  1.
        -13    1    1    2    0    0  0.78327423253E+03  0.46671245516E+03 -0.95598896588E+03  0.13210806006E+04  0.10566000000E+00 0.  1.
         13    1    1    2    0    0 -0.51926982123E+03 -0.53294109343E+03 -0.33077606708E+04  0.33904200364E+04  0.10566000000E+00 0. -1.
          4    1    1    2  501    0 -0.26400441130E+03  0.66228638269E+02 -0.32736696533E+02  0.27414640799E+03  0.00000000000E+00 0.  1.
</event>
<event>
 5    1  0.4881333E-005  0.9305965E+02  0.7818608E-02  0.1215842E+00
         -4   -1    0    0    0  501 -0.00000000000E+00  0.00000000000E+00  0.42648679025E+03  0.42648679025E+03  0.00000000000E+00 0. -1.
         21   -1    0    0  501  502  0.00000000000E+00 -0.00000000000E+00 -0.45992898086E+02  0.45992898086E+02  0.00000000000E+00 0. -1.
        -13    1    1    2    0    0  0.11334260051E+02 -0.36107987921E+02  0.12319236087E+03  0.12887443961E+03  0.10566000000E+00 0.  1.
         13    1    1    2    0    0 -0.10009566721E+03  0.99310939464E+01  0.22348681835E+03  0.24507986119E+03  0.10566000000E+00 0. -1.
         -4    1    1    2    0  502  0.88761407159E+02  0.26176893975E+02  0.33814712948E+02  0.98525387544E+02  0.00000000000E+00 0. -1.
</event>
<event>
 5    1  0.4881333E-005  0.5058512E+03  0.7818608E-02  0.9465239E-01
         21   -1    0    0  501  502  0.00000000000E+00  0.00000000000E+00  0.24949874360E+03  0.24949874360E+03  0.00000000000E+00 0.  1.
          4   -1    0    0  502    0 -0.00000000000E+00 -0.00000000000E+00 -0.15627497732E+04  0.15627497732E+04  0.00000000000E+00 0.  1.
        -13    1    1    2    0    0 -0.18514235449E+03  0.53806145377E+03 -0.76440502742E+03  0.95294431977E+03  0.10566000000E+00 0.  1.
         13    1    1    2    0    0  0.15204897292E+03 -0.42745735930E+03 -0.58316342788E+03  0.73886282825E+03  0.10566000000E+00 0. -1.
          4    1    1    2  501    0  0.33093381574E+02 -0.11060409447E+03  0.34317425681E+02  0.12044136882E+03  0.00000000000E+00 0.  1.
</event>
<event>
 5    1  0.4881333E-005  0.2987935E+03  0.7818608E-02  0.1043109E+00
         -4   -1    0    0    0  501 -0.00000000000E+00  0.00000000000E+00  0.13842736866E+04  0.13842736866E+04  0.00000000000E+00 0. -1.
         21   -1    0    0  501  502  0.00000000000E+00 -0.00000000000E+00 -0.58163154052E+03  0.58163154052E+03  0.00000000000E+00 0. -1.
        -13    1    1    2    0    0  0.41756943534E+03 -0.43069961445E+03  0.47150377950E+03  0.76300866081E+03  0.10566000000E+00 0.  1.
         13    1    1    2    0    0  0.20784556851E+02  0.15447700708E+03  0.59947619939E+03  0.61940848260E+03  0.10566000000E+00 0. -1.
         -4    1    1    2    0  502 -0.43835399219E+03  0.27622260737E+03 -0.26833783283E+03  0.58348808370E+03  0.00000000000E+00 0. -1.
</event>
<event>
 5    1  0.4881333E-005  0.5412453E+03  0.7818608E-02  0.9627318E-01
         21   -1    0    0  501  502  0.00000000000E+00  0.00000000000E+00  0.89461098285E+03  0.89461098285E+03  0.00000000000E+00 0.  1.
          4   -1    0    0  502    0 -0.00000000000E+00 -0.00000000000E+00 -0.10985883579E+04  0.10985883579E+04  0.00000000000E+00 0.  1.
        -13    1    1    2    0    0  0.33766833333E+02 -0.58457270324E+03  0.31237992370E+03  0.66366156459E+03  0.10566000000E+00 0.  1.
         13    1    1    2    0    0 -0.20970496128E+03  0.95634077379E+02 -0.73163432106E+03  0.76707942122E+03  0.10566000000E+00 0. -1.
          4    1    1    2  501    0  0.17593812795E+03  0.48893862587E+03  0.21527702230E+03  0.56245835496E+03  0.00000000000E+00 0.  1.
</event>
<event>
 5    1  0.4881333E-005  0.7131884E+02  0.7818608E-02  0.1257088E+00
         21   -1    0    0  501  502  0.00000000000E+00  0.00000000000E+00  0.31500689497E+03  0.31500689497E+03  0.00000000000E+00 0.  1.
          4   -1    0    0  502    0 -0.00000000000E+00 -0.00000000000E+00 -0.40393380083E+02  0.40393380083E+02  0.00000000000E+00 0.  1.
        -13    1    1    2    0    0 -0.50531327553E+02 -0.40563573179E+02  0.92594758245E+01  0.65456608451E+02  0.10566000000E+00 0.  1.
         13    1    1    2    0    0  0.21234529409E+02 -0.27459779360E+02  0.41218028417E+02  0.53887677184E+02  0.10566000000E+00 0. -1.
          4    1    1    2  501    0  0.29296798145E+02  0.68023352538E+02  0.22413601064E+03  0.23605598942E+03  0.00000000000E+00 0.  1.
</event>
<event>
 5    1  0.4881333E-005  0.1817528E+03  0.7818608E-02  0.1076724E+00
         -4   -1    0    0    0  501 -0.00000000000E+00  0.00000000000E+00  0.84605099651E+03  0.84605099651E+03  0.00000000000E+00 0. -1.
         21   -1    0    0  501  502  0.00000000000E+00 -0.00000000000E+00 -0.68117548064E+03  0.68117548064E+03  0.00000000000E+00 0. -1.
        -13    1    1    2    0    0  0.13168467748E+03 -0.10024843978E+03  0.43612154277E+03  0.46646823600E+03  0.10566000000E+00 0.  1.
         13    1    1    2    0    0  0.54353202214E+02  0.10318672202E+03  0.37267352237E+03  0.39049626840E+03  0.10566000000E+00 0. -1.
         -4    1    1    2    0  502 -0.18603787970E+03 -0.29382822374E+01 -0.64391954927E+03  0.67026197275E+03  0.00000000000E+00 0. -1.
</event>
<event>
 5    1  0.4881333E-005  0.4651239E+03  0.7818608E-02  0.9618477E-01
         21   -1    0    0  501  502  0.00000000000E+00  0.00000000000E+00  0.80558152272E+03  0.80558152272E+03  0.00000000000E+00 0. -1.
         -4   -1    0    0    0  501 -0.00000000000E+00 -0.00000000000E+00 -0.64159190101E+03  0.64159190101E+03  0.00000000000E+00 0. -1.
        -13    1    1    2    0    0  0.25097869902E+03 -0.27825258195E+03 -0.86910152710E+02  0.38466633923E+03  0.10566000000E+00 0.  1.
         13    1    1    2    0    0 -0.24341427725E+03 -0.28251208013E+03 -0.11812025571E+03  0.39117258565E+03  0.10566000000E+00 0. -1.
         -4    1    1    2    0  502 -0.75644217689E+01  0.56076466208E+03  0.36902003013E+03  0.67133449886E+03  0.00000000000E+00 0. -1.
</event>
<event>
 5    1  0.4881333E-005  0.4276812E+03  0.7818608E-02  0.9687159E-01
         -4   -1    0    0    0  501 -0.00000000000E+00  0.00000000000E+00  0.25924944967E+04  0.25924944967E+04  0.00000000000E+00 0. -1.
         21   -1    0    0  501  502  0.00000000000E+00 -0.00000000000E+00 -0.40179084785E+03  0.40179084785E+03  0.00000000000E+00 0. -1.
        -13    1    1    2    0    0  0.21867255288E+02  0.45405852418E+03  0.19649216825E+04  0.20168204060E+04  0.10566000000E+00 0.  1.
         13    1    1    2    0    0  0.38362002798E+03 -0.73750082539E+02  0.46808272539E+02  0.39343922794E+03  0.10566000000E+00 0. -1.
         -4    1    1    2    0  502 -0.40548728327E+03 -0.38030844164E+03  0.17897369382E+03  0.58402571069E+03  0.00000000000E+00 0. -1.
</event>
<event>
 5    1  0.4881333E-005  0.4322293E+03  0.7818608E-02  0.9794135E-01
         21   -1    0    0  501  502  0.00000000000E+00  0.00000000000E+00  0.24056426652E+03  0.24056426652E+03  0.00000000000E+00 0.  1.
          4   -1    0    0  502    0 -0.00000000000E+00 -0.00000000000E+00 -0.22476102603E+04  0.22476102603E+04  0.00000000000E+00 0.  1.
        -13    1    1    2    0    0  0.58141608881E+02  0.52349947378E+03 -0.15407097855E+04  0.16282563681E+04  0.10566000000E+00 0.  1.
         13    1    1    2    0    0  0.17746421559E+03 -0.18091497122E+03 -0.26724769527E+02  0.25482935290E+03  0.10566000000E+00 0. -1.
          4    1    1    2  501    0 -0.23560582448E+03 -0.34258450257E+03 -0.43961143875E+03  0.60508880588E+03  0.00000000000E+00 0.  1.
</event>
<event>
 5    1  0.4881333E-005  0.3248950E+03  0.7818608E-02  0.1004034E+00
         -4   -1    0    0    0  501 -0.00000000000E+00  0.00000000000E+00  0.13016717114E+04  0.13016717114E+04  0.00000000000E+00 0. -1.
         21   -1    0    0  501  502  0.00000000000E+00 -0.00000000000E+00 -0.60513874971E+03  0.60513874971E+03  0.00000000000E+00 0. -1.
        -13    1    1    2    0    0 -0.24929641436E+03 -0.82527644006E+02  0.83379612166E+03  0.87417132068E+03  0.10566000000E+00 0.  1.
         13    1    1    2    0    0 -0.20586510502E+03 -0.21258404539E+03 -0.34251507664E+03  0.45264666873E+03  0.10566000000E+00 0. -1.
         -4    1    1    2    0  502  0.45516151938E+03  0.29511168939E+03  0.20525191669E+03  0.57999247172E+03  0.00000000000E+00 0. -1.
</event>
<event>
 5    1  0.4881333E-005  0.2734036E+03  0.7818608E-02  0.1018931E+00
          4   -1    0    0  502    0 -0.00000000000E+00  0.00000000000E+00  0.18954816967E+04  0.18954816967E+04  0.00000000000E+00 0.  1.
         21   -1    0    0  501  502  0.00000000000E+00 -0.00000000000E+00 -0.49843870630E+03  0.49843870630E+03  0.00000000000E+00 0.  1.
        -13    1    1    2    0    0 -0.30391626454E+03  0.24561842536E+03 -0.38869121553E+03  0.55115730869E+03  0.10566000000E+00 0.  1.
         13    1    1    2    0    0  0.13272438186E+03 -0.23592584270E+03  0.12934359061E+04  0.13214587466E+04  0.10566000000E+00 0. -1.
          4    1    1    2  501    0  0.17119188269E+03 -0.96925826530E+01  0.49229829983E+03  0.52130434765E+03  0.00000000000E+00 0.  1.
</event>
<event>
 5    1  0.4881333E-005  0.4483228E+03  0.7818608E-02  0.9599054E-01
          4   -1    0    0  502    0 -0.00000000000E+00  0.00000000000E+00  0.51492207562E+03  0.51492207562E+03  0.00000000000E+00 0.  1.
         21   -1    0    0  501  502  0.00000000000E+00 -0.00000000000E+00 -0.67184799072E+03  0.67184799072E+03  0.00000000000E+00 0. -1.
        -13    1    1    2    0    0 -0.40196399211E+03 -0.19462023640E+03  0.28054328206E+03  0.52740556656E+03  0.10566000000E+00 0.  1.
         13    1    1    2    0    0  0.40231316186E+03  0.21280059744E+03 -0.36142971574E+03  0.58118106048E+03  0.10566000000E+00 0. -1.
          4    1    1    2  501    0 -0.34916975203E+00 -0.18180361040E+02 -0.76039481422E+02  0.78183439308E+02  0.00000000000E+00 0.  1.
</event>
<event>
 5    1  0.4881333E-005  0.1309166E+03  0.7818608E-02  0.1121769E+00
         -4   -1    0    0    0  501 -0.00000000000E+00  0.00000000000E+00  0.12360119994E+04  0.12360119994E+04  0.00000000000E+00 0. -1.
         21   -1    0    0  501  502  0.00000000000E+00 -0.00000000000E+00 -0.51173648254E+03  0.51173648254E+03  0.00000000000E+00 0. -1.
        -13    1    1    2    0    0  0.76979708364E+02  0.10526839450E+03  0.76625406380E+03  0.77727254669E+03  0.10566000000E+00 0.  1.
         13    1    1    2    0    0 -0.12371330765E+03  0.18448247886E+02  0.44687468678E+03  0.46404990808E+03  0.10566000000E+00 0. -1.
         -4    1    1    2    0  502  0.46733599291E+02 -0.12371664239E+03 -0.48885323370E+03  0.50642602718E+03  0.00000000000E+00 0. -1.
</event>
<event>
 5    1  0.4881333E-005  0.4344662E+03  0.7818608E-02  0.9778942E-01
         -4   -1    0    0    0  501 -0.00000000000E+00  0.00000000000E+00  0.16918369970E+04  0.16918369970E+04  0.00000000000E+00 0. -1.
         21   -1    0    0  501  502  0.00000000000E+00 -0.00000000000E+00 -0.29771446068E+03  0.29771446068E+03  0.00000000000E+00 0. -1.
        -13    1    1    2    0    0  0.87022130604E+02 -0.24802767610E+03  0.67682159854E+03  0.72607029050E+03  0.10566000000E+00 0.  1.
         13    1    1    2    0    0 -0.47897149248E+03  0.31987668474E+03  0.63368138778E+03  0.85632172484E+03  0.10566000000E+00 0. -1.
         -4    1    1    2    0  502  0.39194936188E+03 -0.71849008642E+02  0.83619549944E+02  0.40715944230E+03  0.00000000000E+00 0. -1.
</event>
<event>
 5    1  0.4881333E-005  0.4735094E+03  0.7818608E-02  0.9544102E-01
          4   -1    0    0  502    0 -0.00000000000E+00  0.00000000000E+00  0.71761179160E+03  0.71761179160E+03  0.00000000000E+00 0.  1.
         21   -1    0    0  501  502  0.00000000000E+00 -0.00000000000E+00 -0.10476114665E+04  0.10476114665E+04  0.00000000000E+00 0.  1.
        -13    1    1    2    0    0 -0.18448565255E+02  0.31450208718E+03 -0.85013550119E+02  0.32631154940E+03  0.10566000000E+00 0.  1.
         13    1    1    2    0    0  0.27513564773E+03  0.39177900394E+03  0.24898858514E+03  0.53961628892E+03  0.10566000000E+00 0. -1.
          4    1    1    2  501    0 -0.25668708247E+03 -0.70628109112E+03 -0.49397470992E+03  0.89929541977E+03  0.00000000000E+00 0.  1.
</event>
<event>
 5    1  0.4881333E-005  0.2534303E+03  0.7818608E-02  0.1028630E+00
         21   -1    0    0  501  502  0.00000000000E+00  0.00000000000E+00  0.23450460164E+03  0.23450460164E+03  0.00000000000E+00 0.  1.
         -4   -1    0    0    0  501 -0.00000000000E+00 -0.00000000000E+00 -0.67643821810E+03  0.67643821810E+03  0.00000000000E+00 0. -1.
        -13    1    1    2    0    0  0.19539796210E+03  0.13053974757E+03 -0.10384946638E+03  0.25691576853E+03  0.10566000000E+00 0.  1.
         13    1    1    2    0    0 -0.22264538080E+03 -0.13777684597E+03 -0.45978234871E+03  0.52910608032E+03  0.10566000000E+00 0. -1.
         -4    1    1    2    0  502  0.27247418706E+02  0.72370983987E+01  0.12169819863E+03  0.12492097089E+03  0.00000000000E+00 0. -1.
</event>
<event>
 5    1  0.4881333E-005  0.8042634E+03  0.7818608E-02  0.8984089E-01
         -4   -1    0    0    0  501 -0.00000000000E+00  0.00000000000E+00  0.16600675669E+04  0.16600675669E+04  0.00000000000E+00 0. -1.
         21   -1    0    0  501  502  0.00000000000E+00 -0.00000000000E+00 -0.86457489280E+03  0.86457489280E+03  0.00000000000E+00 0.  1.
        -13    1    1    2    0    0 -0.82686432398E+03 -0.43489531774E+03  0.67440236263E+01  0.93428263426E+03  0.10566000000E+00 0.  1.
         13    1    1    2    0    0  0.78991686416E+03 -0.36150845792E+02  0.79015573403E+03  0.11178647642E+04  0.10566000000E+00 0. -1.
         -4    1    1    2    0  502  0.36947459819E+02  0.47104616353E+03 -0.14070835828E+01  0.47249506119E+03  0.00000000000E+00 0. -1.
</event>
<event>
 5    1  0.4881333E-005  0.1052545E+03  0.7818608E-02  0.1156143E+00
         21   -1    0    0  501  502  0.00000000000E+00  0.00000000000E+00  0.71692349808E+03  0.71692349808E+03  0.00000000000E+00 0. -1.
         -4   -1    0    0    0  501 -0.00000000000E+00 -0.00000000000E+00 -0.10419187368E+03  0.10419187368E+03  0.00000000000E+00 0. -1.
        -13    1    1    2    0    0  0.86436413509E+02 -0.49558028869E+02  0.69148540322E+01  0.99875313145E+02  0.10566000000E+00 0.  1.
         13    1    1    2    0    0 -0.90363162771E+02  0.64750678968E+02 -0.39828246320E+01  0.11123859793E+03  0.10566000000E+00 0. -1.
         -4    1    1    2    0  502  0.39267492621E+01 -0.15192650100E+02  0.60979959501E+03  0.61000146069E+03  0.00000000000E+00 0. -1.
</event>
<event>
 5    1  0.4881333E-005  0.4826591E+03  0.7818608E-02  0.9716798E-01
         21   -1    0    0  501  502  0.00000000000E+00  0.00000000000E+00  0.22704303553E+03  0.22704303553E+03  0.00000000000E+00 0. -1.
         -4   -1    0    0    0  501 -0.00000000000E+00 -0.00000000000E+00 -0.17356620897E+04  0.17356620897E+04  0.00000000000E+00 0. -1.
        -13    1    1    2    0    0 -0.22817726673E+03 -0.66076731721E+02 -0.28518486510E+03  0.37116225289E+03  0.10566000000E+00 0.  1.
         13    1    1    2    0    0  0.57426768597E+03 -0.16890471935E+03 -0.75519316492E+03  0.96365393523E+03  0.10566000000E+00 0. -1.
         -4    1    1    2    0  502 -0.34609041924E+03  0.23498145107E+03 -0.46824102410E+03  0.62788893707E+03  0.00000000000E+00 0. -1.
</event>
<event>
 5    1  0.4881333E-005  0.4858896E+03  0.7818608E-02  0.1033398E+00
         -4   -1    0    0    0  501 -0.00000000000E+00  0.00000000000E+00  0.44740189051E+03  0.44740189051E+03  0.00000000000E+00 0. -1.
         21   -1    0    0  501  502  0.00000000000E+00 -0.00000000000E+00 -0.95561395400E+03  0.95561395400E+03  0.00000000000E+00 0. -1.
        -13    1    1    2    0    0  0.84205571166E+01  0.29879180282E+02  0.18716255987E+03  0.18971954612E+03  0.10566000000E+00 0.  1.
         13    1    1    2    0    0 -0.49092927460E+03 -0.10998931342E+02 -0.22845851278E+03  0.54159563548E+03  0.10566000000E+00 0. -1.
         -4    1    1    2    0  502  0.48250871748E+03 -0.18880248940E+02 -0.46691611058E+03  0.67170066292E+03  0.00000000000E+00 0. -1.
</event>
<event>
 5    1  0.4881333E-005  0.3724119E+03  0.7818608E-02  0.9827586E-01
          4   -1    0    0  502    0 -0.00000000000E+00  0.00000000000E+00  0.11178937889E+04  0.11178937889E+04  0.00000000000E+00 0.  1.
         21   -1    0    0  501  502  0.00000000000E+00 -0.00000000000E+00 -0.47951265882E+03  0.47951265882E+03  0.00000000000E+00 0. -1.
        -13    1    1    2    0    0  0.18776683127E+03  0.48347626611E+03  0.60314851229E+03  0.79548338880E+03  0.10566000000E+00 0.  1.
         13    1    1    2    0    0 -0.32348042886E+03 -0.14264145565E+03  0.19276301620E+03  0.40267078899E+03  0.10566000000E+00 0. -1.
          4    1    1    2  501    0  0.13571359759E+03 -0.34083481046E+03 -0.15753039844E+03  0.39925226991E+03  0.00000000000E+00 0.  1.
</event>
<event>
 5    1  0.4881333E-005  0.4921103E+03  0.7818608E-02  0.9612733E-01
         21   -1    0    0  501  502  0.00000000000E+00  0.00000000000E+00  0.19746855186E+04  0.19746855186E+04  0.00000000000E+00 0. -1.
         -4   -1    0    0    0  501 -0.00000000000E+00 -0.00000000000E+00 -0.23745402182E+03  0.23745402182E+03  0.00000000000E+00 0. -1.
        -13    1    1    2    0    0  0.30862630980E+03 -0.94945413630E+02  0.33030119741E+03  0.46191311180E+03  0.10566000000E+00 0.  1.
         13    1    1    2    0    0 -0.36252542396E+03  0.50560963597E+03  0.92511031301E+03  0.11148519585E+04  0.10566000000E+00 0. -1.
         -4    1    1    2    0  502  0.53899114157E+02 -0.41066422234E+03  0.48181998639E+03  0.63537447014E+03  0.00000000000E+00 0. -1.
</event>
<event>
 5    1  0.4881333E-005  0.7510566E+02  0.7818608E-02  0.1213935E+00
          4   -1    0    0  502    0 -0.00000000000E+00  0.00000000000E+00  0.26155634767E+03  0.26155634767E+03  0.00000000000E+00 0.  1.
         21   -1    0    0  501  502  0.00000000000E+00 -0.00000000000E+00 -0.65909950929E+02  0.65909950929E+02  0.00000000000E+00 0. -1.
        -13    1    1    2    0    0  0.67622796071E+02 -0.36426023964E+02  0.22533574108E+03  0.23806701818E+03  0.10566000000E+00 0.  1.
         13    1    1    2    0    0 -0.59535484006E+02  0.18941124920E+02 -0.31649291717E+02  0.70035197574E+02  0.10566000000E+00 0. -1.
          4    1    1    2  501    0 -0.80873120651E+01  0.17484899044E+02  0.19599473801E+01  0.19364082853E+02  0.00000000000E+00 0.  1.
</event>
<event>
 5    1  0.4881333E-005  0.5529358E+03  0.7818608E-02  0.9368929E-01
         21   -1    0    0  501  502  0.00000000000E+00  0.00000000000E+00  0.21701204905E+03  0.21701204905E+03  0.00000000000E+00 0.  1.
          4   -1    0    0  502    0 -0.00000000000E+00 -0.00000000000E+00 -0.37058288300E+04  0.37058288300E+04  0.00000000000E+00 0.  1.
        -13    1    1    2    0    0 -0.50750205503E+03 -0.17930754938E+03 -0.26732397839E+04  0.27268884257E+04  0.10566000000E+00 0.  1.
         13    1    1    2    0    0  0.59643984752E+03  0.12374239160E+03 -0.88193696627E+03  0.10718514332E+04  0.10566000000E+00 0. -1.
          4    1    1    2  501    0 -0.88937792484E+02  0.55565157783E+02  0.66359969180E+02  0.12410102015E+03  0.00000000000E+00 0.  1.
</event>
<event>
 5    1  0.4881333E-005  0.4463330E+03  0.7818608E-02  0.9659925E-01
         21   -1    0    0  501  502  0.00000000000E+00  0.00000000000E+00  0.68287831922E+03  0.68287831922E+03  0.00000000000E+00 0. -1.
         -4   -1    0    0    0  501 -0.00000000000E+00 -0.00000000000E+00 -0.13138119256E+04  0.13138119256E+04  0.00000000000E+00 0. -1.
        -13    1    1    2    0    0 -0.35520786250E+03  0.89791794642E+02 -0.82462484280E+03  0.90235322047E+03  0.10566000000E+00 0.  1.
         13    1    1    2    0    0  0.22368207097E+03 -0.51083371118E+03 -0.97036774658E+02  0.56603965952E+03  0.10566000000E+00 0. -1.
         -4    1    1    2    0  502  0.13152579153E+03  0.42104191654E+03  0.29072801104E+03  0.52829736486E+03  0.00000000000E+00 0. -1.
</event>
<event>
 5    1  0.4881333E-005  0.4383178E+03  0.7818608E-02  0.1017780E+00
         21   -1    0    0  501  502  0.00000000000E+00  0.00000000000E+00  0.68673238573E+03  0.68673238573E+03  0.00000000000E+00 0. -1.
         -4   -1    0    0    0  501 -0.00000000000E+00 -0.00000000000E+00 -0.49622599647E+03  0.49622599647E+03  0.00000000000E+00 0. -1.
        -13    1    1    2    0    0  0.35636224742E+02 -0.58863454796E+02 -0.10752046830E+03  0.12765386439E+03  0.10566000000E+00 0.  1.
         13    1    1    2    0    0  0.20530284378E+03  0.41595258793E+03 -0.93500603434E+02  0.47318937761E+03  0.10566000000E+00 0. -1.
         -4    1    1    2    0  502 -0.24093906852E+03 -0.35708913314E+03  0.39152746100E+03  0.58211514021E+03  0.00000000000E+00 0. -1.
</event>
<event>
 5    1  0.4881333E-005  0.6279751E+03  0.7818608E-02  0.9336819E-01
         21   -1    0    0  501  502  0.00000000000E+00  0.00000000000E+00  0.97333291359E+03  0.97333291359E+03  0.00000000000E+00 0. -1.
          4   -1    0    0  502    0 -0.00000000000E+00 -0.00000000000E+00 -0.13491097522E+04  0.13491097522E+04  0.00000000000E+00 0.  1.
        -13    1    1    2    0    0  0.48431552624E+03  0.19748265360E+03 -0.34952081356E+03  0.62906735546E+03  0.10566000000E+00 0.  1.
         13    1    1    2    0    0 -0.71622782362E+02 -0.83889606949E+03  0.25616661687E+03  0.88005555798E+03  0.10566000000E+00 0. -1.
          4    1    1    2  501    0 -0.41269274388E+03  0.64141341589E+03 -0.28242264196E+03  0.81331975239E+03  0.00000000000E+00 0.  1.
</event>
<event>
 5    1  0.4881333E-005  0.4520876E+03  0.7818608E-02  0.9681666E-01
         -4   -1    0    0    0  501 -0.00000000000E+00  0.00000000000E+00  0.80684291438E+03  0.80684291438E+03  0.00000000000E+00 0. -1.
         21   -1    0    0  501  502  0.00000000000E+00 -0.00000000000E+00 -0.59605656886E+03  0.59605656886E+03  0.00000000000E+00 0.  1.
        -13    1    1    2    0    0  0.97138983515E+02 -0.31193052854E+03 -0.23536324624E+02  0.32755244846E+03  0.10566000000E+00 0.  1.
         13    1    1    2    0    0 -0.84020117129E+02 -0.23004851360E+03  0.43340070280E+03  0.49781309650E+03  0.10566000000E+00 0. -1.
         -4    1    1    2    0  502 -0.13118866386E+02  0.54197904214E+03 -0.19907803266E+03  0.57753393828E+03  0.00000000000E+00 0. -1.
</event>
<event>
 5    1  0.4881333E-005  0.4592076E+03  0.7818608E-02  0.9931812E-01
         21   -1    0    0  501  502  0.00000000000E+00  0.00000000000E+00  0.27370485142E+04  0.27370485142E+04  0.00000000000E+00 0.  1.
          4   -1    0    0  502    0 -0.00000000000E+00 -0.00000000000E+00 -0.11410528218E+03  0.11410528218E+03  0.00000000000E+00 0.  1.
        -13    1    1    2    0    0  0.11889526407E+03  0.43946115282E+03  0.69928478278E+03  0.83442279885E+03  0.10566000000E+00 0.  1.
         13    1    1    2    0    0  0.12623640725E+03 -0.41446788577E+02  0.32431507678E+03  0.35047645711E+03  0.10566000000E+00 0. -1.
          4    1    1    2  501    0 -0.24513167132E+03 -0.39801436425E+03  0.15993433724E+04  0.16662545404E+04  0.00000000000E+00 0.  1.
</event>
<event>
 5    1  0.4881333E-005  0.2463308E+03  0.7818608E-02  0.1065439E+00
         21   -1    0    0  501  502  0.00000000000E+00  0.00000000000E+00  0.65475180909E+03  0.65475180909E+03  0.00000000000E+00 0.  1.
          4   -1    0    0  502    0 -0.00000000000E+00 -0.00000000000E+00 -0.35146520050E+03  0.35146520050E+03  0.00000000000E+00 0.  1.
        -13    1    1    2    0    0 -0.27135882680E+03  0.16918771514E+02 -0.23252524572E+03  0.35775670332E+03  0.10566000000E+00 0.  1.
         13    1    1    2    0    0  0.45892200170E+02  0.79472556647E+02  0.50570679650E+02  0.10478256582E+03  0.10566000000E+00 0. -1.
          4    1    1    2  501    0  0.22546662663E+03 -0.96391328161E+02  0.48524117466E+03  0.54367774044E+03  0.00000000000E+00 0.  1.
</event>
<event>
 5    1  0.4881333E-005  0.2461326E+03  0.7818608E-02  0.1032416E+00
         21   -1    0    0  501  502  0.00000000000E+00  0.00000000000E+00  0.94547126675E+03  0.94547126675E+03  0.00000000000E+00 0. -1.
         -4   -1    0    0    0  501 -0.00000000000E+00 -0.00000000000E+00 -0.91560161884E+03  0.91560161884E+03  0.00000000000E+00 0. -1.
        -13    1    1    2    0    0 -0.46522081969E+02  0.28520786022E+03  0.25617590434E+03  0.38617862806E+03  0.10566000000E+00 0.  1.
         13    1    1    2    0    0  0.12902827746E+02 -0.24354308961E+03 -0.83191336696E+03  0.86692536055E+03  0.10566000000E+00 0. -1.
         -4    1    1    2    0  502  0.33619254223E+02 -0.41664770614E+02  0.60560711053E+03  0.60796889698E+03  0.00000000000E+00 0. -1.
</event>
<event>
 5    1  0.4881333E-005  0.2038485E+03  0.7818608E-02  0.1057529E+00
         21   -1    0    0  501  502  0.00000000000E+00  0.00000000000E+00  0.14636474944E+03  0.14636474944E+03  0.00000000000E+00 0. -1.
          4   -1    0    0  502    0 -0.00000000000E+00 -0.00000000000E+00 -0.42877319575E+03  0.42877319575E+03  0.00000000000E+00 0.  1.
        -13    1    1    2    0    0 -0.12164412057E+03 -0.16847371274E+03 -0.23288280409E+03  0.31211391439E+03  0.10566000000E+00 0.  1.
         13    1    1    2    0    0  0.11127774714E+03  0.16332655931E+03 -0.92723578762E+02  0.21830248558E+03  0.10566000000E+00 0. -1.
          4    1    1    2  501    0  0.10366373426E+02  0.51471534252E+01  0.43197936536E+02  0.44721545225E+02  0.00000000000E+00 0.  1.
</event>
<event>
 5    1  0.4881333E-005  0.8106242E+02  0.7818608E-02  0.1200367E+00
         21   -1    0    0  501  502  0.00000000000E+00  0.00000000000E+00  0.45323214865E+02  0.45323214865E+02  0.00000000000E+00 0. -1.
          4   -1    0    0  502    0 -0.00000000000E+00 -0.00000000000E+00 -0.38304806746E+03  0.38304806746E+03  0.00000000000E+00 0.  1.
        -13    1    1    2    0    0  0.18003112651E+02 -0.55580356044E+02 -0.57587532928E+02  0.82034280370E+02  0.10566000000E+00 0.  1.
         13    1    1    2    0    0 -0.45132871181E+01  0.96624384660E+02 -0.28675392476E+03  0.30262925503E+03  0.10566000000E+00 0. -1.
          4    1    1    2  501    0 -0.13489825533E+02 -0.41044028616E+02  0.66166050944E+01  0.43707746921E+02  0.00000000000E+00 0.  1.
</event>
<event>
 5    1  0.4881333E-005  0.1789201E+03  0.7818608E-02  0.1075634E+00
         -4   -1    0    0    0  501 -0.00000000000E+00  0.00000000000E+00  0.11388730561E+04  0.11388730561E+04  0.00000000000E+00 0. -1.
         21   -1    0    0  501  502  0.00000000000E+00 -0.00000000000E+00 -0.49042105858E+02  0.49042105858E+02  0.00000000000E+00 0.  1.
        -13    1    1    2    0    0 -0.17232746060E+03 -0.65855572920E+02  0.22553037102E+03  0.29137204666E+03  0.10566000000E+00 0.  1.
         13    1    1    2    0    0  0.16145565628E+03  0.73687789389E+02  0.86510281839E+03  0.88311987680E+03  0.10566000000E+00 0. -1.
         -4    1    1    2    0  502  0.10871804314E+02 -0.78322164693E+01 -0.80223917088E+00  0.13423238490E+02  0.00000000000E+00 0. -1.
</event>
<event>
 5    1  0.4881333E-005  0.7235516E+02  0.7818608E-02  0.1220680E+00
         21   -1    0    0  501  502  0.00000000000E+00  0.00000000000E+00  0.89693536535E+02  0.89693536535E+02  0.00000000000E+00 0. -1.
          4   -1    0    0  502    0 -0.00000000000E+00 -0.00000000000E+00 -0.16523007842E+03  0.16523007842E+03  0.00000000000E+00 0.  1.
        -13    1    1    2    0    0  0.59427272903E+01 -0.67255159680E+02 -0.27010697066E+02  0.72719745814E+02  0.10566000000E+00 0.  1.
         13    1    1    2    0    0  0.13193100077E+02  0.74754118672E+02 -0.10071241534E+03  0.12611597011E+03  0.10566000000E+00 0. -1.
          4    1    1    2  501    0 -0.19135827367E+02 -0.74989589914E+01  0.52186570524E+02  0.56087899034E+02  0.00000000000E+00 0.  1.
</event>
<event>
 5    1  0.4881333E-005  0.4330719E+03  0.7818608E-02  0.9650843E-01
         21   -1    0    0  501  502  0.00000000000E+00  0.00000000000E+00  0.26845227578E+04  0.26845227578E+04  0.00000000000E+00 0.  1.
          4   -1    0    0  502    0 -0.00000000000E+00 -0.00000000000E+00 -0.80762769321E+03  0.80762769321E+03  0.00000000000E+00 0.  1.
        -13    1    1    2    0    0  0.28083523664E+02 -0.87601722986E+02 -0.56758622805E+02  0.10809393414E+03  0.10566000000E+00 0.  1.
         13    1    1    2    0    0  0.17419774084E+03 -0.40718917697E+03 -0.62731214189E+03  0.76789869988E+03  0.10566000000E+00 0. -1.
          4    1    1    2  501    0 -0.20228126450E+03  0.49479089995E+03  0.25609658293E+04  0.26161578170E+04  0.00000000000E+00 0.  1.
</event>
<event>
 5    1  0.4881333E-005  0.1124114E+03  0.7818608E-02  0.1145509E+00
         21   -1    0    0  501  502  0.00000000000E+00  0.00000000000E+00  0.39831555064E+03  0.39831555064E+03  0.00000000000E+00 0. -1.
          4   -1    0    0  502    0 -0.00000000000E+00 -0.00000000000E+00 -0.78012394858E+02  0.78012394858E+02  0.00000000000E+00 0.  1.
        -13    1    1    2    0    0 -0.10830748887E+03  0.42131731967E+02 -0.16388157700E+02  0.11736344346E+03  0.10566000000E+00 0.  1.
         13    1    1    2    0    0  0.83541444117E+02 -0.46339111371E+02  0.22424701875E+03  0.24374827735E+03  0.10566000000E+00 0. -1.
          4    1    1    2  501    0  0.24766044752E+02  0.42073794036E+01  0.11244429474E+03  0.11521622470E+03  0.00000000000E+00 0.  1.
</event>
<event>
 5    1  0.4881333E-005  0.6087631E+03  0.7818608E-02  0.9673969E-01
          4   -1    0    0  502    0 -0.00000000000E+00  0.00000000000E+00  0.32332468535E+04  0.32332468535E+04  0.00000000000E+00 0.  1.
         21   -1    0    0  501  502  0.00000000000E+00 -0.00000000000E+00 -0.16207494682E+03  0.16207494682E+03  0.00000000000E+00 0.  1.
        -13    1    1    2    0    0  0.45922817741E+03 -0.36821025408E+03  0.18641192849E+04  0.19548427122E+04  0.10566000000E+00 0.  1.
         13    1    1    2    0    0 -0.66576029596E+02 -0.12026158111E+03  0.10611135455E+03  0.17365150830E+03  0.10566000000E+00 0. -1.
          4    1    1    2  501    0 -0.39265214781E+03  0.48847183519E+03  0.11009412672E+04  0.12668275798E+04  0.00000000000E+00 0.  1.
</event>
<event>
 5    1  0.4881333E-005  0.4332496E+03  0.7818608E-02  0.9655810E-01
         21   -1    0    0  501  502  0.00000000000E+00  0.00000000000E+00  0.22705798943E+03  0.22705798943E+03  0.00000000000E+00 0.  1.
          4   -1    0    0  502    0 -0.00000000000E+00 -0.00000000000E+00 -0.29127852623E+04  0.29127852623E+04  0.00000000000E+00 0.  1.
        -13    1    1    2    0    0 -0.11029512790E+03  0.19956036137E+03 -0.12488168223E+04  0.12694616260E+04  0.10566000000E+00 0.  1.
         13    1    1    2    0    0  0.38739043813E+03  0.22366288112E+03 -0.12557709451E+04  0.13330630569E+04  0.10566000000E+00 0. -1.
          4    1    1    2  501    0 -0.27709531022E+03 -0.42322324250E+03 -0.18113950544E+03  0.53731856879E+03  0.00000000000E+00 0.  1.
</event>
<event>
 5    1  0.4881333E-005  0.5290168E+03  0.7818608E-02  0.9517568E-01
          4   -1    0    0  502    0 -0.00000000000E+00  0.00000000000E+00  0.22720435795E+04  0.22720435795E+04  0.00000000000E+00 0.  1.
         21   -1    0    0  501  502  0.00000000000E+00 -0.00000000000E+00 -0.24516163908E+03  0.24516163908E+03  0.00000000000E+00 0.  1.
        -13    1    1    2    0    0 -0.52148644128E+02  0.46528568470E+03  0.90153351648E+03  0.10158606902E+04  0.10566000000E+00 0.  1.
         13    1    1    2    0    0  0.35767694937E+03  0.75529421454E+02  0.50542151818E+03  0.62376952140E+03  0.10566000000E+00 0. -1.
          4    1    1    2  501    0 -0.30552830524E+03 -0.54081510615E+03  0.61992690575E+03  0.87757500695E+03  0.00000000000E+00 0.  1.
</event>
<event>
 5    1  0.4881333E-005  0.4403609E+03  0.7818608E-02  0.9777779E-01
          4   -1    0    0  502    0 -0.00000000000E+00  0.00000000000E+00  0.15977063706E+04  0.15977063706E+04  0.00000000000E+00 0.  1.
         21   -1    0    0  501  502  0.00000000000E+00 -0.00000000000E+00 -0.26179779563E+03  0.26179779563E+03  0.00000000000E+00 0. -1.
        -13    1    1    2    0    0  0.14167085630E+03 -0.32480798800E+03  0.96065643750E+03  0.10239295204E+04  0.10566000000E+00 0.  1.
         13    1    1    2    0    0  0.25034072139E+03  0.39539983477E+02  0.18921895825E+03  0.31628738894E+03  0.10566000000E+00 0. -1.
          4    1    1    2  501    0 -0.39201157769E+03  0.28526800453E+03  0.18603317926E+03  0.51928725696E+03  0.00000000000E+00 0.  1.
</event>
<event>
 5    1  0.4881333E-005  0.5040201E+03  0.7818608E-02  0.9610822E-01
         21   -1    0    0  501  502  0.00000000000E+00  0.00000000000E+00  0.39030115185E+03  0.39030115185E+03  0.00000000000E+00 0.  1.
          4   -1    0    0  502    0 -0.00000000000E+00 -0.00000000000E+00 -0.11772537272E+04  0.11772537272E+04  0.00000000000E+00 0.  1.
        -13    1    1    2    0    0 -0.45973105646E+03 -0.45815092057E+03 -0.22638996736E+03  0.68739169240E+03  0.10566000000E+00 0.  1.
         13    1    1    2    0    0  0.16664044491E+03  0.25257340501E+03 -0.15771187816E+03  0.34122633321E+03  0.10566000000E+00 0. -1.
          4    1    1    2  501    0  0.29309061155E+03  0.20557751556E+03 -0.40285072986E+03  0.53893685347E+03  0.00000000000E+00 0.  1.
</event>
<event>
 5    1  0.4881333E-005  0.1927870E+03  0.7818608E-02  0.1065196E+00
         21   -1    0    0  501  502  0.00000000000E+00  0.00000000000E+00  0.10490716079E+03  0.10490716079E+03  0.00000000000E+00 0. -1.
          4   -1    0    0  502    0 -0.00000000000E+00 -0.00000000000E+00 -0.43438524876E+03  0.43438524876E+03  0.00000000000E+00 0.  1.
        -13    1    1    2    0    0  0.67327297088E+02 -0.17457534123E+03 -0.18987721994E+03  0.26657622647E+03  0.10566000000E+00 0.  1.
         13    1    1    2    0    0 -0.59177652504E+02  0.19151712729E+03 -0.15079261897E+03  0.25083705807E+03  0.10566000000E+00 0. -1.
          4    1    1    2  501    0 -0.81496445834E+01 -0.16941786059E+02  0.11191750943E+02  0.21879125003E+02  0.00000000000E+00 0.  1.
</event>
<event>
 5    1  0.4881333E-005  0.4783313E+03  0.7818608E-02  0.1011912E+00
          4   -1    0    0  502    0 -0.00000000000E+00  0.00000000000E+00  0.29262209006E+03  0.29262209006E+03  0.00000000000E+00 0.  1.
         21   -1    0    0  501  502  0.00000000000E+00 -0.00000000000E+00 -0.12019996241E+04  0.12019996241E+04  0.00000000000E+00 0.  1.
        -13    1    1    2    0    0 -0.33256587899E+03 -0.31446732445E+03 -0.59140612821E+03  0.74783085097E+03  0.10566000000E+00 0.  1.
         13    1    1    2    0    0 -0.14719593473E+02 -0.62099998870E+02  0.76950922219E+02  0.99972655692E+02  0.10566000000E+00 0. -1.
          4    1    1    2  501    0  0.34728547246E+03  0.37656732332E+03 -0.39492232805E+03  0.64681820751E+03  0.00000000000E+00 0.  1.
</event>
<event>
 5    1  0.4881333E-005  0.4961149E+02  0.7818608E-02  0.1294976E+00
         21   -1    0    0  501  502  0.00000000000E+00  0.00000000000E+00  0.20486753174E+03  0.20486753174E+03  0.00000000000E+00 0. -1.
          4   -1    0    0  502    0 -0.00000000000E+00 -0.00000000000E+00 -0.15555207085E+03  0.15555207085E+03  0.00000000000E+00 0.  1.
        -13    1    1    2    0    0  0.31648420619E+02 -0.36097551368E+02 -0.13252244430E+03  0.14094986750E+03  0.10566000000E+00 0.  1.
         13    1    1    2    0    0  0.44166601832E+01  0.70165272593E+02  0.12951151410E+03  0.14736321052E+03  0.10566000000E+00 0. -1.
          4    1    1    2  501    0 -0.36065080802E+02 -0.34067721224E+02  0.52326391082E+02  0.72106524575E+02  0.00000000000E+00 0.  1.
</event>
<event>
 5    1  0.4881333E-005  0.4743559E+03  0.7818608E-02  0.9536022E-01
         -4   -1    0    0    0  501 -0.00000000000E+00  0.00000000000E+00  0.24861393808E+04  0.24861393808E+04  0.00000000000E+00 0. -1.
         21   -1    0    0  501  502  0.00000000000E+00 -0.00000000000E+00 -0.24664079706E+03  0.24664079706E+03  0.00000000000E+00 0. -1.
        -13    1    1    2    0    0  0.24126511245E+02 -0.43005435785E+03  0.12052114455E+04  0.12798685396E+04  0.10566000000E+00 0.  1.
         13    1    1    2    0    0 -0.18172898297E+03  0.66441556901E+03  0.50887464011E+03  0.85640345755E+03  0.10566000000E+00 0. -1.
         -4    1    1    2    0  502  0.15760247173E+03 -0.23436121116E+03  0.52541249810E+03  0.59650818062E+03  0.00000000000E+00 0. -1.
</event>
<event>
 5    1  0.4881333E-005  0.3758684E+03  0.7818608E-02  0.1021296E+00
         21   -1    0    0  501  502  0.00000000000E+00  0.00000000000E+00  0.20456456087E+03  0.20456456087E+03  0.00000000000E+00 0.  1.
          4   -1    0    0  502    0 -0.00000000000E+00 -0.00000000000E+00 -0.14864168247E+04  0.14864168247E+04  0.00000000000E+00 0.  1.
        -13    1    1    2    0    0 -0.24802624123E+03  0.34394413947E+03 -0.10863015317E+04  0.11661327610E+04  0.10566000000E+00 0.  1.
         13    1    1    2    0    0  0.97261007545E+02 -0.88756620848E+01 -0.11094564917E+03  0.14780875888E+03  0.10566000000E+00 0. -1.
          4    1    1    2  501    0  0.15076523369E+03 -0.33506847739E+03 -0.84605082939E+02  0.37703986564E+03  0.00000000000E+00 0.  1.
</event>
<event>
 5    1  0.4881333E-005  0.4387563E+03  0.7818608E-02  0.1014205E+00
         21   -1    0    0  501  502  0.00000000000E+00  0.00000000000E+00  0.39970296680E+03  0.39970296680E+03  0.00000000000E+00 0. -1.
         -4   -1    0    0    0  501 -0.00000000000E+00 -0.00000000000E+00 -0.84193952168E+03  0.84193952168E+03  0.00000000000E+00 0. -1.
        -13    1    1    2    0    0 -0.27349006764E+02 -0.71822625028E+02 -0.19655847302E+03  0.21104905145E+03  0.10566000000E+00 0.  1.
         13    1    1    2    0    0  0.20754953342E+03  0.40913308432E+03  0.14770506265E+03  0.48195797141E+03  0.10566000000E+00 0. -1.
         -4    1    1    2    0  502 -0.18020052666E+03 -0.33731045929E+03 -0.39338314451E+03  0.54863546562E+03  0.00000000000E+00 0. -1.
</event>
<event>
 5    1  0.4881333E-005  0.3299265E+03  0.7818608E-02  0.1001915E+00
         -4   -1    0    0    0  501 -0.00000000000E+00  0.00000000000E+00  0.32512678780E+04  0.32512678780E+04  0.00000000000E+00 0. -1.
         21   -1    0    0  501  502  0.00000000000E+00 -0.00000000000E+00 -0.16738792667E+03  0.16738792667E+03  0.00000000000E+00 0. -1.
        -13    1    1    2    0    0 -0.17769734827E+03 -0.20153741454E+03  0.15313404875E+04  0.15547338605E+04  0.10566000000E+00 0.  1.
         13    1    1    2    0    0  0.36625392541E+03 -0.77509980313E+02  0.14703463443E+04  0.15172567740E+04  0.10566000000E+00 0. -1.
         -4    1    1    2    0  502 -0.18855657713E+03  0.27904739485E+03  0.82193119574E+02  0.34666517024E+03  0.00000000000E+00 0. -1.
</event>
<event>
 5    1  0.4881333E-005  0.8729772E+02  0.7818608E-02  0.1187476E+00
          4   -1    0    0  502    0 -0.00000000000E+00  0.00000000000E+00  0.14698663603E+02  0.14698663603E+02  0.00000000000E+00 0.  1.
         21   -1    0    0  501  502  0.00000000000E+00 -0.00000000000E+00 -0.63940221383E+03  0.63940221383E+03  0.00000000000E+00 0. -1.
        -13    1    1    2    0    0 -0.83322720773E+02 -0.24182698930E+02 -0.24129797100E+03  0.25642191930E+03  0.10566000000E+00 0.  1.
         13    1    1    2    0    0  0.87720209522E+02  0.11534022865E+02 -0.28643426252E+03  0.29978736923E+03  0.10566000000E+00 0. -1.
          4    1    1    2  501    0 -0.43974887491E+01  0.12648676066E+02 -0.96971316710E+02  0.97891588903E+02  0.00000000000E+00 0.  1.
</event>
<event>
 5    1  0.4881333E-005  0.4001124E+02  0.7818608E-02  0.1365804E+00
         21   -1    0    0  501  502  0.00000000000E+00  0.00000000000E+00  0.41035983568E+03  0.41035983568E+03  0.00000000000E+00 0. -1.
         -4   -1    0    0    0  501 -0.00000000000E+00 -0.00000000000E+00 -0.74540688894E+01  0.74540688894E+01  0.00000000000E+00 0. -1.
        -13    1    1    2    0    0  0.22431803906E+02 -0.10256712439E+02  0.10855759200E+03  0.11132451627E+03  0.10566000000E+00 0.  1.
         13    1    1    2    0    0  0.15491453009E+02  0.33734062923E+02  0.90472978001E+02  0.97792346480E+02  0.10566000000E+00 0. -1.
         -4    1    1    2    0  502 -0.37923256915E+02 -0.23477350484E+02  0.20387519678E+03  0.20869704182E+03  0.00000000000E+00 0. -1.
</event>
<event>
 5    1  0.4881333E-005  0.4723415E+03  0.7818608E-02  0.9856251E-01
          4   -1    0    0  502    0 -0.00000000000E+00  0.00000000000E+00  0.15812350951E+04  0.15812350951E+04  0.00000000000E+00 0.  1.
         21   -1    0    0  501  502  0.00000000000E+00 -0.00000000000E+00 -0.30989864614E+03  0.30989864614E+03  0.00000000000E+00 0.  1.
        -13    1    1    2    0    0  0.45993598939E+02  0.47957672464E+03  0.46416243838E+02  0.48400798011E+03  0.10566000000E+00 0.  1.
         13    1    1    2    0    0  0.14749730900E+03 -0.54517689983E+02  0.63785635941E+03  0.65695386526E+03  0.10566000000E+00 0. -1.
          4    1    1    2  501    0 -0.19349090794E+03 -0.42505903465E+03  0.58706384572E+03  0.75017189587E+03  0.00000000000E+00 0.  1.
</event>
<event>
 5    1  0.4881333E-005  0.4859956E+03  0.7818608E-02  0.9784379E-01
          4   -1    0    0  502    0 -0.00000000000E+00  0.00000000000E+00  0.54757711393E+03  0.54757711393E+03  0.00000000000E+00 0.  1.
         21   -1    0    0  501  502  0.00000000000E+00 -0.00000000000E+00 -0.62931869928E+03  0.62931869928E+03  0.00000000000E+00 0.  1.
        -13    1    1    2    0    0 -0.46746135555E+03  0.24608639109E+02 -0.16656426307E+02  0.46840490150E+03  0.10566000000E+00 0.  1.
         13    1    1    2    0    0 -0.92221337753E+01  0.18409638456E+03 -0.22504573761E+01  0.18434099457E+03  0.10566000000E+00 0. -1.
          4    1    1    2  501    0  0.47668348933E+03 -0.20870502367E+03 -0.62834701660E+02  0.52414991713E+03  0.00000000000E+00 0.  1.
</event>
<event>
 5    1  0.4881333E-005  0.2491132E+03  0.7818608E-02  0.1030853E+00
         -4   -1    0    0    0  501 -0.00000000000E+00  0.00000000000E+00  0.15333003434E+03  0.15333003434E+03  0.00000000000E+00 0. -1.
         21   -1    0    0  501  502  0.00000000000E+00 -0.00000000000E+00 -0.52642694981E+03  0.52642694981E+03  0.00000000000E+00 0.  1.
        -13    1    1    2    0    0  0.22536597367E+03 -0.84757986003E+02 -0.79318912354E+02  0.25350589598E+03  0.10566000000E+00 0.  1.
         13    1    1    2    0    0 -0.24342973347E+03  0.98075996499E+02 -0.20038265836E+03  0.33019714893E+03  0.10566000000E+00 0. -1.
         -4    1    1    2    0  502  0.18063759801E+02 -0.13318010497E+02 -0.93395344746E+02  0.96053939232E+02  0.00000000000E+00 0. -1.
</event>
<event>
 5    1  0.4881333E-005  0.2181177E+03  0.7818608E-02  0.1048378E+00
         21   -1    0    0  501  502  0.00000000000E+00  0.00000000000E+00  0.11596527397E+03  0.11596527397E+03  0.00000000000E+00 0. -1.
          4   -1    0    0  502    0 -0.00000000000E+00 -0.00000000000E+00 -0.91211736554E+03  0.91211736554E+03  0.00000000000E+00 0.  1.
        -13    1    1    2    0    0 -0.18600858102E+03 -0.85360174676E+02 -0.55753070882E+03  0.59390744572E+03  0.10566000000E+00 0.  1.
         13    1    1    2    0    0  0.24354783463E+03  0.83755739314E+02 -0.26615841864E+03  0.37036588206E+03  0.10566000000E+00 0. -1.
          4    1    1    2  501    0 -0.57539253608E+02  0.16044353618E+01  0.27537035887E+02  0.63809311735E+02  0.00000000000E+00 0.  1.
</event>
<event>
 5    1  0.4881333E-005  0.4949977E+03  0.7818608E-02  0.9767351E-01
         21   -1    0    0  501  502  0.00000000000E+00  0.00000000000E+00  0.17883424332E+04  0.17883424332E+04  0.00000000000E+00 0.  1.
          4   -1    0    0  502    0 -0.00000000000E+00 -0.00000000000E+00 -0.25631764389E+03  0.25631764389E+03  0.00000000000E+00 0.  1.
        -13    1    1    2    0    0 -0.37563337685E+03  0.10140922054E+03  0.32370182197E+03  0.50612957286E+03  0.10566000000E+00 0.  1.
         13    1    1    2    0    0 -0.15676793746E+03  0.98126988107E+02 -0.18988536837E+02  0.18591844369E+03  0.10566000000E+00 0. -1.
          4    1    1    2  501    0  0.53240131431E+03 -0.19953620864E+03  0.12273115042E+04  0.13526120606E+04  0.00000000000E+00 0.  1.
</event>
<event>
 5    1  0.4881333E-005  0.5602574E+02  0.7818608E-02  0.1286204E+00
         21   -1    0    0  501  502  0.00000000000E+00  0.00000000000E+00  0.77442111702E+02  0.77442111702E+02  0.00000000000E+00 0. -1.
         -4   -1    0    0    0  501 -0.00000000000E+00 -0.00000000000E+00 -0.23016712302E+03  0.23016712302E+03  0.00000000000E+00 0. -1.
        -13    1    1    2    0    0 -0.38552082960E+02 -0.93975461928E+01  0.76065617821E+00  0.39688370297E+02  0.10566000000E+00 0.  1.
         13    1    1    2    0    0  0.91673700260E+02  0.12177524178E+02 -0.18447547110E+03  0.20635786880E+03  0.10566000000E+00 0. -1.
         -4    1    1    2    0  502 -0.53121617300E+02 -0.27799779849E+01  0.30989803607E+02  0.61562995621E+02  0.00000000000E+00 0. -1.
</event>
<event>
 5    1  0.4881333E-005  0.5050108E+03  0.7818608E-02  0.9614006E-01
          4   -1    0    0  502    0 -0.00000000000E+00  0.00000000000E+00  0.22047024118E+04  0.22047024118E+04  0.00000000000E+00 0.  1.
         21   -1    0    0  501  502  0.00000000000E+00 -0.00000000000E+00 -0.20762620639E+03  0.20762620639E+03  0.00000000000E+00 0.  1.
        -13    1    1    2    0    0 -0.24656073346E+03 -0.25549884727E+03  0.88525168565E+03  0.95380418030E+03  0.10566000000E+00 0.  1.
         13    1    1    2    0    0 -0.13430143398E+03 -0.26538869360E+03  0.38680066380E+03  0.48793728955E+03  0.10566000000E+00 0. -1.
          4    1    1    2  501    0  0.38086216744E+03  0.52088754087E+03  0.72502385597E+03  0.97058714835E+03  0.00000000000E+00 0.  1.
</event>
<event>
 5    1  0.4881333E-005  0.3307843E+03  0.7818608E-02  0.9953519E-01
         -4   -1    0    0    0  501 -0.00000000000E+00  0.00000000000E+00  0.32835645709E+04  0.32835645709E+04  0.00000000000E+00 0. -1.
         21   -1    0    0  501  502  0.00000000000E+00 -0.00000000000E+00 -0.38122212346E+02  0.38122212346E+02  0.00000000000E+00 0.  1.
        -13    1    1    2    0    0  0.30305816500E+03 -0.75610120359E+02  0.12668747804E+04  0.13048114278E+04  0.10566000000E+00 0.  1.
         13    1    1    2    0    0 -0.32974984243E+03  0.10979435795E+03  0.17829143291E+04  0.18164727567E+04  0.10566000000E+00 0. -1.
         -4    1    1    2    0  502  0.26691677431E+02 -0.34184237592E+02  0.19565324899E+03  0.20040259875E+03  0.00000000000E+00 0. -1.
</event>
<event>
 5    1  0.4881333E-005  0.4032779E+03  0.7818608E-02  0.9761112E-01
          4   -1    0    0  502    0 -0.00000000000E+00  0.00000000000E+00  0.21134112296E+04  0.21134112296E+04  0.00000000000E+00 0.  1.
         21   -1    0    0  501  502  0.00000000000E+00 -0.00000000000E+00 -0.24121740390E+03  0.24121740390E+03  0.00000000000E+00 0.  1.
        -13    1    1    2    0    0  0.54304245141E+03  0.78917804946E+02  0.10173680326E+04  0.11559242401E+04  0.10566000000E+00 0.  1.
         13    1    1    2    0    0 -0.20965960754E+03 -0.27954175331E+03  0.69532240905E+03  0.77818635723E+03  0.10566000000E+00 0. -1.
          4    1    1    2  501    0 -0.33338284387E+03  0.20062394837E+03  0.15950338413E+03  0.42051803622E+03  0.00000000000E+00 0.  1.
</event>
<event>
 5    1  0.4881333E-005  0.9875289E+02  0.7818608E-02  0.1185149E+00
         21   -1    0    0  501  502  0.00000000000E+00  0.00000000000E+00  0.22929455826E+03  0.22929455826E+03  0.00000000000E+00 0.  1.
         -4   -1    0    0    0  501 -0.00000000000E+00 -0.00000000000E+00 -0.28972388155E+03  0.28972388155E+03  0.00000000000E+00 0. -1.
        -13    1    1    2    0    0  0.43155725289E+02  0.12799805698E+03  0.13138326963E+03  0.18843432255E+03  0.10566000000E+00 0.  1.
         13    1    1    2    0    0 -0.79374845560E+02 -0.10459796899E+02 -0.19153200841E+03  0.20759165414E+03  0.10566000000E+00 0. -1.
         -4    1    1    2    0  502  0.36219120271E+02 -0.11753826008E+03 -0.28058451064E+00  0.12299246311E+03  0.00000000000E+00 0. -1.
</event>
<event>
 5    1  0.4881333E-005  0.3792884E+03  0.7818608E-02  0.9966428E-01
         21   -1    0    0  501  502  0.00000000000E+00  0.00000000000E+00  0.16440986358E+04  0.16440986358E+04  0.00000000000E+00 0. -1.
         -4   -1    0    0    0  501 -0.00000000000E+00 -0.00000000000E+00 -0.52360291955E+03  0.52360291955E+03  0.00000000000E+00 0. -1.
        -13    1    1    2    0    0 -0.84027800653E+02 -0.19273304627E+03 -0.32762557512E+03  0.38928810288E+03  0.10566000000E+00 0.  1.
         13    1    1    2    0    0 -0.63972329157E+02 -0.19487718092E+03 -0.60446030544E+02  0.21383009216E+03  0.10566000000E+00 0. -1.
         -4    1    1    2    0  502  0.14800012981E+03  0.38761022719E+03  0.15085673219E+04  0.15645833603E+04  0.00000000000E+00 0. -1.
</event>
<event>
 5    1  0.4881333E-005  0.4880345E+03  0.7818608E-02  0.9607945E-01
          4   -1    0    0  502    0 -0.00000000000E+00  0.00000000000E+00  0.22599621537E+04  0.22599621537E+04  0.00000000000E+00 0.  1.
         21   -1    0    0  501  502  0.00000000000E+00 -0.00000000000E+00 -0.25061218984E+03  0.25061218984E+03  0.00000000000E+00 0.  1.
        -13    1    1    2    0    0  0.23191376675E+03 -0.27136825614E+03  0.44016420968E+03  0.56671797951E+03  0.10566000000E+00 0.  1.
         13    1    1    2    0    0  0.11324025428E+03 -0.31712073239E+03  0.10006153066E+04  0.10557556143E+04  0.10566000000E+00 0. -1.
          4    1    1    2  501    0 -0.34515402103E+03  0.58848898853E+03  0.56857044757E+03  0.88810074975E+03  0.00000000000E+00 0.  1.
</event>
<event>
 5    1  0.4881333E-005  0.2975956E+03  0.7818608E-02  0.1008303E+00
         -4   -1    0    0    0  501 -0.00000000000E+00  0.00000000000E+00  0.58789750476E+03  0.58789750476E+03  0.00000000000E+00 0. -1.
         21   -1    0    0  501  502  0.00000000000E+00 -0.00000000000E+00 -0.11041084747E+04  0.11041084747E+04  0.00000000000E+00 0. -1.
        -13    1    1    2    0    0  0.31332911510E+03  0.12033194934E+02  0.25983604456E+03  0.40722808519E+03  0.10566000000E+00 0.  1.
         13    1    1    2    0    0 -0.23924214967E+03 -0.20796994400E+03  0.13894569645E+03  0.34611301841E+03  0.10566000000E+00 0. -1.
         -4    1    1    2    0  502 -0.74086965428E+02  0.19593674907E+03 -0.91499271091E+03  0.93866487582E+03  0.00000000000E+00 0. -1.
</event>
<event>
 5    1  0.4881333E-005  0.2844979E+02  0.7818608E-02  0.1417805E+00
         21   -1    0    0  501  502  0.00000000000E+00  0.00000000000E+00  0.10203017010E+03  0.10203017010E+03  0.00000000000E+00 0.  1.
         -4   -1    0    0    0  501 -0.00000000000E+00 -0.00000000000E+00 -0.88121312192E+02  0.88121312192E+02  0.00000000000E+00 0. -1.
        -13    1    1    2    0    0 -0.21288649451E+02  0.15174206115E+01  0.21182042094E+02  0.30069905754E+02  0.10566000000E+00 0.  1.
         13    1    1    2    0    0  0.28713701504E+02  0.54516555703E+01 -0.80763450141E+02  0.85889133453E+02  0.10566000000E+00 0. -1.
         -4    1    1    2    0  502 -0.74250520531E+01 -0.69690761818E+01  0.73490265955E+02  0.74192443085E+02  0.00000000000E+00 0. -1.
</event>
<event>
 5    1  0.4881333E-005  0.2993887E+03  0.7818608E-02  0.1007558E+00
          4   -1    0    0  502    0 -0.00000000000E+00  0.00000000000E+00  0.49268211061E+03  0.49268211061E+03  0.00000000000E+00 0.  1.
         21   -1    0    0  501  502  0.00000000000E+00 -0.00000000000E+00 -0.17340645378E+04  0.17340645378E+04  0.00000000000E+00 0.  1.
        -13    1    1    2    0    0  0.24727051104E+03 -0.16208937932E+03  0.37765903777E+03  0.47962697224E+03  0.10566000000E+00 0.  1.
         13    1    1    2    0    0 -0.26648489279E+03  0.19689822805E+03 -0.36697729667E+03  0.49442437008E+03  0.10566000000E+00 0. -1.
          4    1    1    2  501    0  0.19214381749E+02 -0.34808848721E+02 -0.12520641683E+04  0.12526953061E+04  0.00000000000E+00 0.  1.
</event>
<event>
 5    1  0.4881333E-005  0.6001707E+02  0.7818608E-02  0.1255646E+00
         21   -1    0    0  501  502  0.00000000000E+00  0.00000000000E+00  0.17937976677E+02  0.17937976677E+02  0.00000000000E+00 0. -1.
          4   -1    0    0  502    0 -0.00000000000E+00 -0.00000000000E+00 -0.26276917155E+03  0.26276917155E+03  0.00000000000E+00 0.  1.
        -13    1    1    2    0    0  0.50801418819E+02 -0.39350062583E+02 -0.16331630006E+03  0.17550338062E+03  0.10566000000E+00 0.  1.
         13    1    1    2    0    0 -0.46079019019E+02  0.27839306345E+02 -0.69451413657E+02  0.87873847045E+02  0.10566000000E+00 0. -1.
          4    1    1    2  501    0 -0.47223998007E+01  0.11510756237E+02 -0.12063481148E+02  0.17329920555E+02  0.00000000000E+00 0.  1.
</event>
<event>
 5    1  0.4881333E-005  0.1814402E+03  0.7818608E-02  0.1073663E+00
         -4   -1    0    0    0  501 -0.00000000000E+00  0.00000000000E+00  0.60984721186E+03  0.60984721186E+03  0.00000000000E+00 0. -1.
         21   -1    0    0  501  502  0.00000000000E+00 -0.00000000000E+00 -0.48753793770E+03  0.48753793770E+03  0.00000000000E+00 0. -1.
        -13    1    1    2    0    0 -0.12746685503E+02 -0.21240319664E+03 -0.17314874902E+03  0.27433209143E+03  0.10566000000E+00 0.  1.
         13    1    1    2    0    0 -0.14763205780E+02  0.17893561742E+03  0.54291484485E+03  0.57183253436E+03  0.10566000000E+00 0. -1.
         -4    1    1    2    0  502  0.27509891282E+02  0.33467579226E+02 -0.24745682167E+03  0.25122052378E+03  0.00000000000E+00 0. -1.
</event>
<event>
 5    1  0.4881333E-005  0.4821474E+03  0.7818608E-02  0.9830871E-01
         21   -1    0    0  501  502  0.00000000000E+00  0.00000000000E+00  0.18052874130E+03  0.18052874130E+03  0.00000000000E+00 0.  1.
          4   -1    0    0  502    0 -0.00000000000E+00 -0.00000000000E+00 -0.17966143155E+04  0.17966143155E+04  0.00000000000E+00 0.  1.
        -13    1    1    2    0    0  0.52855047245E+03  0.12429772142E+03 -0.66919214648E+03  0.86176195411E+03  0.10566000000E+00 0.  1.
         13    1    1    2    0    0 -0.14608743767E+03  0.67930925269E+02 -0.24325459541E+03  0.29176867447E+03  0.10566000000E+00 0. -1.
          4    1    1    2  501    0 -0.38246303478E+03 -0.19222864668E+03 -0.70363883231E+03  0.82361242822E+03  0.00000000000E+00 0.  1.
</event>
<event>
 5    1  0.4881333E-005  0.2059236E+03  0.7818608E-02  0.1056149E+00
          4   -1    0    0  502    0 -0.00000000000E+00  0.00000000000E+00  0.22140684276E+03  0.22140684276E+03  0.00000000000E+00 0.  1.
         21   -1    0    0  501  502  0.00000000000E+00 -0.00000000000E+00 -0.31237102314E+03  0.31237102314E+03  0.00000000000E+00 0. -1.
        -13    1    1    2    0    0  0.61990661508E+02  0.18532595104E+03  0.49753435722E+02  0.20165308272E+03  0.10566000000E+00 0.  1.
         13    1    1    2    0    0 -0.45816797535E+02 -0.22152154422E+03 -0.47943335301E+02  0.23123483313E+03  0.10566000000E+00 0. -1.
          4    1    1    2  501    0 -0.16173863974E+02  0.36195593185E+02 -0.92774280795E+02  0.10088995004E+03  0.00000000000E+00 0.  1.
</event>
<event>
 5    1  0.4881333E-005  0.1885769E+03  0.7818608E-02  0.1068262E+00
         21   -1    0    0  501  502  0.00000000000E+00  0.00000000000E+00  0.68833442557E+02  0.68833442557E+02  0.00000000000E+00 0.  1.
         -4   -1    0    0    0  501 -0.00000000000E+00 -0.00000000000E+00 -0.10006117377E+04  0.10006117377E+04  0.00000000000E+00 0. -1.
        -13    1    1    2    0    0  0.13759553385E+03  0.12321098232E+03 -0.14112234606E+03  0.23244140083E+03  0.10566000000E+00 0.  1.
         13    1    1    2    0    0 -0.17341752610E+03 -0.80824258084E+02 -0.73058104859E+03  0.75521843117E+03  0.10566000000E+00 0. -1.
         -4    1    1    2    0  502  0.35821992251E+02 -0.42386724236E+02 -0.60074900488E+02  0.81785348253E+02  0.00000000000E+00 0. -1.
</event>
<event>
 5    1  0.4881333E-005  0.1600859E+03  0.7818608E-02  0.1091570E+00
         21   -1    0    0  501  502  0.00000000000E+00  0.00000000000E+00  0.60595629542E+03  0.60595629542E+03  0.00000000000E+00 0. -1.
         -4   -1    0    0    0  501 -0.00000000000E+00 -0.00000000000E+00 -0.18267000075E+03  0.18267000075E+03  0.00000000000E+00 0. -1.
        -13    1    1    2    0    0 -0.12852973933E+03  0.75295361121E+02 -0.83382610468E+02  0.17071015258E+03  0.10566000000E+00 0.  1.
         13    1    1    2    0    0  0.20618425776E+03 -0.90212558058E+02  0.19955721396E+03  0.30078787640E+03  0.10566000000E+00 0. -1.
         -4    1    1    2    0  502 -0.77654518429E+02  0.14917196937E+02  0.30711169118E+03  0.31712826720E+03  0.00000000000E+00 0. -1.
</event>
<event>
 5    1  0.4881333E-005  0.4267188E+03  0.7818608E-02  0.9882005E-01
         21   -1    0    0  501  502  0.00000000000E+00  0.00000000000E+00  0.70994624991E+03  0.70994624991E+03  0.00000000000E+00 0. -1.
         -4   -1    0    0    0  501 -0.00000000000E+00 -0.00000000000E+00 -0.80522125179E+03  0.80522125179E+03  0.00000000000E+00 0. -1.
        -13    1    1    2    0    0  0.18371325369E+03  0.67031138288E+02 -0.39580393766E+03  0.44147989910E+03  0.10566000000E+00 0.  1.
         13    1    1    2    0    0 -0.56385690585E+03  0.74067667653E+01 -0.29672151857E+02  0.56468568092E+03  0.10566000000E+00 0. -1.
         -4    1    1    2    0  502  0.38014365216E+03 -0.74437905053E+02  0.33020108764E+03  0.50900192167E+03  0.00000000000E+00 0. -1.
</event>
<event>
 5    1  0.4881333E-005  0.1018595E+03  0.7818608E-02  0.1161515E+00
          4   -1    0    0  502    0 -0.00000000000E+00  0.00000000000E+00  0.78512662354E+02  0.78512662354E+02  0.00000000000E+00 0.  1.
         21   -1    0    0  501  502  0.00000000000E+00 -0.00000000000E+00 -0.32376849853E+03  0.32376849853E+03  0.00000000000E+00 0.  1.
        -13    1    1    2    0    0 -0.80487082547E+02 -0.77689676067E+02 -0.24992779203E+02  0.11462332398E+03  0.10566000000E+00 0.  1.
         13    1    1    2    0    0  0.68273731155E+02  0.62582849407E+02 -0.31395259372E+02  0.97793603476E+02  0.10566000000E+00 0. -1.
          4    1    1    2  501    0  0.12213351392E+02  0.15106826660E+02 -0.18886779760E+03  0.18986423343E+03  0.00000000000E+00 0.  1.
</event>
<event>
 5    1  0.4881333E-005  0.4365512E+03  0.7818608E-02  0.9874752E-01
         -4   -1    0    0    0  501 -0.00000000000E+00  0.00000000000E+00  0.25543522375E+04  0.25543522375E+04  0.00000000000E+00 0. -1.
         21   -1    0    0  501  502  0.00000000000E+00 -0.00000000000E+00 -0.14771270592E+03  0.14771270592E+03  0.00000000000E+00 0. -1.
        -13    1    1    2    0    0  0.18558729582E+03 -0.24118775787E+02  0.63391502796E+03  0.66096341318E+03  0.10566000000E+00 0.  1.
         13    1    1    2    0    0 -0.16285023088E+03 -0.41796774896E+03  0.13738742319E+04  0.14452500314E+04  0.10566000000E+00 0. -1.
         -4    1    1    2    0  502 -0.22737064944E+02  0.44208652475E+03  0.39885027172E+03  0.59585149890E+03  0.00000000000E+00 0. -1.
</event>
<event>
 5    1  0.4881333E-005  0.4972350E+03  0.7818608E-02  0.9572517E-01
         -4   -1    0    0    0  501 -0.00000000000E+00  0.00000000000E+00  0.32353299496E+04  0.32353299496E+04  0.00000000000E+00 0. -1.
         21   -1    0    0  501  502  0.00000000000E+00 -0.00000000000E+00 -0.19833935288E+03  0.19833935288E+03  0.00000000000E+00 0. -1.
        -13    1    1    2    0    0 -0.15574084986E+03  0.32594793760E+03  0.16121096687E+04  0.16520880319E+04  0.10566000000E+00 0.  1.
         13    1    1    2    0    0 -0.34908467309E+03 -0.42168308468E+03  0.84476800237E+03  0.10066328635E+04  0.10566000000E+00 0. -1.
         -4    1    1    2    0  502  0.50482552295E+03  0.95735147081E+02  0.58011292572E+03  0.77494840705E+03  0.00000000000E+00 0. -1.
</event>
<event>
 5    1  0.4881333E-005  0.4983276E+03  0.7818608E-02  0.9629338E-01
         21   -1    0    0  501  502  0.00000000000E+00  0.00000000000E+00  0.12495760771E+04  0.12495760771E+04  0.00000000000E+00 0.  1.
          4   -1    0    0  502    0 -0.00000000000E+00 -0.00000000000E+00 -0.41557512761E+03  0.41557512761E+03  0.00000000000E+00 0.  1.
        -13    1    1    2    0    0 -0.58903296762E+03  0.26000390348E+03  0.72833980966E+03  0.97213206729E+03  0.10566000000E+00 0.  1.
         13    1    1    2    0    0  0.28627732329E+03 -0.63364555270E+02 -0.54242075372E+02  0.29818113053E+03  0.10566000000E+00 0. -1.
          4    1    1    2  501    0  0.30275564433E+03 -0.19663934821E+03  0.15990321516E+03  0.39483800685E+03  0.00000000000E+00 0.  1.
</event>
<event>
 5    1  0.4881333E-005  0.4886491E+03  0.7818608E-02  0.9680786E-01
         21   -1    0    0  501  502  0.00000000000E+00  0.00000000000E+00  0.26220300300E+03  0.26220300300E+03  0.00000000000E+00 0. -1.
         -4   -1    0    0    0  501 -0.00000000000E+00 -0.00000000000E+00 -0.17228778923E+04  0.17228778923E+04  0.00000000000E+00 0. -1.
        -13    1    1    2    0    0 -0.23614304706E+03 -0.10764364157E+03 -0.55635038413E+03  0.61390264157E+03  0.10566000000E+00 0.  1.
         13    1    1    2    0    0 -0.84516988615E+02  0.49772484261E+03 -0.58941772899E+03  0.77607113767E+03  0.10566000000E+00 0. -1.
         -4    1    1    2    0  502  0.32066003567E+03 -0.39008120104E+03 -0.31490677616E+03  0.59510711603E+03  0.00000000000E+00 0. -1.
</event>
<event>
 5    1  0.4881333E-005  0.2954765E+03  0.7818608E-02  0.1009190E+00
         21   -1    0    0  501  502  0.00000000000E+00  0.00000000000E+00  0.41337118461E+03  0.41337118461E+03  0.00000000000E+00 0.  1.
          4   -1    0    0  502    0 -0.00000000000E+00 -0.00000000000E+00 -0.12831202204E+04  0.12831202204E+04  0.00000000000E+00 0.  1.
        -13    1    1    2    0    0 -0.23833440865E+03  0.17272010934E+03 -0.93370333331E+03  0.97899818810E+03  0.10566000000E+00 0.  1.
         13    1    1    2    0    0  0.27517064076E+03 -0.12753470315E+03 -0.25316170611E+03  0.39506308692E+03  0.10566000000E+00 0. -1.
          4    1    1    2  501    0 -0.36836232107E+02 -0.45185406191E+02  0.31711600366E+03  0.32243012996E+03  0.00000000000E+00 0.  1.
</event>
<event>
 5    1  0.4881333E-005  0.5521428E+03  0.7818608E-02  0.9370467E-01
          4   -1    0    0  502    0 -0.00000000000E+00  0.00000000000E+00  0.62993976899E+03  0.62993976899E+03  0.00000000000E+00 0.  1.
         21   -1    0    0  501  502  0.00000000000E+00 -0.00000000000E+00 -0.10924699797E+04  0.10924699797E+04  0.00000000000E+00 0.  1.
        -13    1    1    2    0    0  0.49643857628E+03  0.41307391476E+03  0.23640239799E+02  0.64625087325E+03  0.10566000000E+00 0.  1.
         13    1    1    2    0    0 -0.32824561147E+03 -0.36419216661E+03  0.67988789208E+02  0.49497838568E+03  0.10566000000E+00 0. -1.
          4    1    1    2  501    0 -0.16819296482E+03 -0.48881748148E+02 -0.55415923975E+03  0.58118048980E+03  0.00000000000E+00 0.  1.
</event>
<event>
 5    1  0.4881333E-005  0.1059920E+04  0.7818608E-02  0.8720241E-01
         21   -1    0    0  501  502  0.00000000000E+00  0.00000000000E+00  0.53342826506E+03  0.53342826506E+03  0.00000000000E+00 0. -1.
          4   -1    0    0  502    0 -0.00000000000E+00 -0.00000000000E+00 -0.28716023003E+04  0.28716023003E+04  0.00000000000E+00 0.  1.
        -13    1    1    2    0    0 -0.25596622255E+03 -0.10327745942E+04 -0.13958574400E+04  0.17551524359E+04  0.10566000000E+00 0.  1.
         13    1    1    2    0    0  0.26059201948E+03  0.10223403062E+04 -0.10811244193E+04  0.15106018415E+04  0.10566000000E+00 0. -1.
          4    1    1    2  501    0 -0.46257969328E+01  0.10434287917E+02  0.13880782404E+03  0.13927628792E+03  0.00000000000E+00 0.  1.
</event>
<event>
 5    1  0.4881333E-005  0.5006355E+03  0.7818608E-02  0.9830035E-01
         -4   -1    0    0    0  501 -0.00000000000E+00  0.00000000000E+00  0.21782122088E+04  0.21782122088E+04  0.00000000000E+00 0. -1.
         21   -1    0    0  501  502  0.00000000000E+00 -0.00000000000E+00 -0.18315549902E+03  0.18315549902E+03  0.00000000000E+00 0. -1.
        -13    1    1    2    0    0  0.13359527827E+03 -0.54594455245E+02  0.65150304963E+03  0.66729640173E+03  0.10566000000E+00 0.  1.
         13    1    1    2    0    0  0.87484062671E+01 -0.45995801743E+03  0.85247629687E+03  0.96868661614E+03  0.10566000000E+00 0. -1.
         -4    1    1    2    0  502 -0.14234368453E+03  0.51455247267E+03  0.49107736326E+03  0.72538468991E+03  0.00000000000E+00 0. -1.
</event>
<event>
 5    1  0.4881333E-005  0.4298282E+03  0.7818608E-02  0.9646655E-01
         21   -1    0    0  501  502  0.00000000000E+00  0.00000000000E+00  0.75709561108E+03  0.75709561108E+03  0.00000000000E+00 0.  1.
          4   -1    0    0  502    0 -0.00000000000E+00 -0.00000000000E+00 -0.19794505465E+04  0.19794505465E+04  0.00000000000E+00 0.  1.
        -13    1    1    2    0    0  0.60228931495E+03 -0.36751524404E+03  0.41123022725E+03  0.81665793603E+03  0.10566000000E+00 0.  1.
         13    1    1    2    0    0 -0.31421803179E+03  0.27543150488E+03 -0.15511212639E+04  0.16064160955E+04  0.10566000000E+00 0. -1.
          4    1    1    2  501    0 -0.28807128316E+03  0.92083739164E+02 -0.82463898751E+02  0.31347212603E+03  0.00000000000E+00 0.  1.
</event>
<event>
 5    1  0.4881333E-005  0.2469421E+03  0.7818608E-02  0.1031990E+00
          4   -1    0    0  502    0 -0.00000000000E+00  0.00000000000E+00  0.15941610597E+03  0.15941610597E+03  0.00000000000E+00 0.  1.
         21   -1    0    0  501  502  0.00000000000E+00 -0.00000000000E+00 -0.49949059699E+03  0.49949059699E+03  0.00000000000E+00 0. -1.
        -13    1    1    2    0    0 -0.15574016976E+03  0.21602307482E+03 -0.16373553444E+03  0.31261846672E+03  0.10566000000E+00 0.  1.
         13    1    1    2    0    0  0.16230286867E+03 -0.16204316876E+03 -0.18034845840E+03  0.29176323848E+03  0.10566000000E+00 0. -1.
          4    1    1    2  501    0 -0.65626989085E+01 -0.53979906067E+02  0.40095018191E+01  0.54524997761E+02  0.00000000000E+00 0.  1.
</event>
<event>
 5    1  0.4881333E-005  0.7622553E+02  0.7818608E-02  0.1211280E+00
         21   -1    0    0  501  502  0.00000000000E+00  0.00000000000E+00  0.82820137025E+02  0.82820137025E+02  0.00000000000E+00 0.  1.
         -4   -1    0    0    0  501 -0.00000000000E+00 -0.00000000000E+00 -0.13038305699E+03  0.13038305699E+03  0.00000000000E+00 0. -1.
        -13    1    1    2    0    0  0.50449893711E+02 -0.45449056303E+02  0.19192968921E+02  0.70563373745E+02  0.10566000000E+00 0.  1.
         13    1    1    2    0    0 -0.76753281375E+02  0.26490290183E+02 -0.73500097967E+02  0.10952203998E+03  0.10566000000E+00 0. -1.
         -4    1    1    2    0  502  0.26303387665E+02  0.18958766120E+02  0.67442090797E+01  0.33117780293E+02  0.00000000000E+00 0. -1.
</event>
<event>
 5    1  0.4881333E-005  0.3931988E+03  0.7818608E-02  0.9748896E-01
         21   -1    0    0  501  502  0.00000000000E+00  0.00000000000E+00  0.72695836341E+03  0.72695836341E+03  0.00000000000E+00 0.  1.
          4   -1    0    0  502    0 -0.00000000000E+00 -0.00000000000E+00 -0.20711677347E+04  0.20711677347E+04  0.00000000000E+00 0.  1.
        -13    1    1    2    0    0 -0.33012213767E+03  0.21647217690E+03 -0.17413986131E+04  0.17855839297E+04  0.10566000000E+00 0.  1.
         13    1    1    2    0    0  0.42157182061E+03 -0.43080864500E+02 -0.13552010259E+03  0.44490950787E+03  0.10566000000E+00 0. -1.
          4    1    1    2  501    0 -0.91449682940E+02 -0.17339131240E+03  0.53270934439E+03  0.56763266055E+03  0.00000000000E+00 0.  1.
</event>
<event>
 5    1  0.4881333E-005  0.4888765E+03  0.7818608E-02  0.9517191E-01
          4   -1    0    0  502    0 -0.00000000000E+00  0.00000000000E+00  0.83807453938E+03  0.83807453938E+03  0.00000000000E+00 0.  1.
         21   -1    0    0  501  502  0.00000000000E+00 -0.00000000000E+00 -0.98488361313E+03  0.98488361313E+03  0.00000000000E+00 0.  1.
        -13    1    1    2    0    0  0.16534042431E+03 -0.28727900715E+03 -0.62918317776E+02  0.33738021539E+03  0.10566000000E+00 0.  1.
         13    1    1    2    0    0  0.43069783271E+03 -0.17218156046E+03  0.38163498319E+03  0.60065995740E+03  0.10566000000E+00 0. -1.
          4    1    1    2  501    0 -0.59603825702E+03  0.45946056761E+03 -0.46552573916E+03  0.88491797972E+03  0.00000000000E+00 0.  1.
</event>
<event>
 5    1  0.4881333E-005  0.4005954E+03  0.7818608E-02  0.1001333E+00
         -4   -1    0    0    0  501 -0.00000000000E+00  0.00000000000E+00  0.12283764348E+04  0.12283764348E+04  0.00000000000E+00 0. -1.
         21   -1    0    0  501  502  0.00000000000E+00 -0.00000000000E+00 -0.28349902485E+03  0.28349902485E+03  0.00000000000E+00 0. -1.
        -13    1    1    2    0    0  0.85259940929E+02 -0.12702255151E+03  0.24899233818E+03  0.29223480586E+03  0.10566000000E+00 0.  1.
         13    1    1    2    0    0 -0.37902097350E+03 -0.14655111948E+03 -0.11238148114E+02  0.40652236853E+03  0.10566000000E+00 0. -1.
         -4    1    1    2    0  502  0.29376103257E+03  0.27357367099E+03  0.70712321984E+03  0.81311828522E+03  0.00000000000E+00 0. -1.
</event>
<event>
 5    1  0.4881333E-005  0.4533192E+03  0.7818608E-02  0.9907555E-01
          4   -1    0    0  502    0 -0.00000000000E+00  0.00000000000E+00  0.12876695258E+04  0.12876695258E+04  0.00000000000E+00 0.  1.
         21   -1    0    0  501  502  0.00000000000E+00 -0.00000000000E+00 -0.29270332201E+03  0.29270332201E+03  0.00000000000E+00 0.  1.
        -13    1    1    2    0    0 -0.48933825107E+03 -0.88941175433E+02  0.44612005413E+02  0.49935227929E+03  0.10566000000E+00 0.  1.
         13    1    1    2    0    0  0.14909304188E+03 -0.13883835728E+02  0.38640256307E+03  0.41440131267E+03  0.10566000000E+00 0. -1.
          4    1    1    2  501    0  0.34024520919E+03  0.10282501116E+03  0.56395163528E+03  0.66661925582E+03  0.00000000000E+00 0.  1.
</event>
<event>
 5    1  0.4881333E-005  0.3598393E+03  0.7818608E-02  0.1012771E+00
          4   -1    0    0  502    0 -0.00000000000E+00  0.00000000000E+00  0.23797170593E+04  0.23797170593E+04  0.00000000000E+00 0.  1.
         21   -1    0    0  501  502  0.00000000000E+00 -0.00000000000E+00 -0.49552740491E+03  0.49552740491E+03  0.00000000000E+00 0.  1.
        -13    1    1    2    0    0  0.11971483790E+03  0.14148568827E+03  0.61730630557E+03  0.64452845434E+03  0.10566000000E+00 0.  1.
         13    1    1    2    0    0 -0.62408100280E+03  0.11364817923E+03  0.14928209997E+04  0.16220072611E+04  0.10566000000E+00 0. -1.
          4    1    1    2  501    0  0.50436616490E+03 -0.25513386750E+03 -0.22593765096E+03  0.60870874871E+03  0.00000000000E+00 0.  1.
</event>
<event>
 5    1  0.4881333E-005  0.3416008E+03  0.7818608E-02  0.9935388E-01
         21   -1    0    0  501  502  0.00000000000E+00  0.00000000000E+00  0.96624740883E+03  0.96624740883E+03  0.00000000000E+00 0.  1.
          4   -1    0    0  502    0 -0.00000000000E+00 -0.00000000000E+00 -0.54235281315E+03  0.54235281315E+03  0.00000000000E+00 0.  1.
        -13    1    1    2    0    0  0.89374069071E+02  0.10133216119E+02 -0.29347331289E+03  0.30694788293E+03  0.10566000000E+00 0.  1.
         13    1    1    2    0    0  0.74237551600E+02 -0.34563847937E+03 -0.41500992105E+02  0.35594875474E+03  0.10566000000E+00 0. -1.
          4    1    1    2  501    0 -0.16361162067E+03  0.33550526325E+03  0.75886890069E+03  0.84570358431E+03  0.00000000000E+00 0.  1.
</event>
<event>
 5    1  0.4881333E-005  0.4744876E+03  0.7818608E-02  0.9558331E-01
          4   -1    0    0  502    0 -0.00000000000E+00  0.00000000000E+00  0.61815900786E+03  0.61815900786E+03  0.00000000000E+00 0.  1.
         21   -1    0    0  501  502  0.00000000000E+00 -0.00000000000E+00 -0.95220670403E+03  0.95220670403E+03  0.00000000000E+00 0.  1.
        -13    1    1    2    0    0 -0.17445582175E+03  0.10985553804E+03  0.26966277266E+03  0.33944232957E+03  0.10566000000E+00 0.  1.
         13    1    1    2    0    0 -0.18163149232E+03  0.39791573019E+03 -0.14969903530E+03  0.46231670927E+03  0.10566000000E+00 0. -1.
          4    1    1    2  501    0  0.35608731407E+03 -0.50777126823E+03 -0.45401143353E+03  0.76860667305E+03  0.00000000000E+00 0.  1.
</event>
<event>
 5    1  0.4881333E-005  0.1893347E+03  0.7818608E-02  0.1091377E+00
         -4   -1    0    0    0  501 -0.00000000000E+00  0.00000000000E+00  0.68101349817E+02  0.68101349817E+02  0.00000000000E+00 0. -1.
         21   -1    0    0  501  502  0.00000000000E+00 -0.00000000000E+00 -0.12570339467E+04  0.12570339467E+04  0.00000000000E+00 0. -1.
        -13    1    1    2    0    0 -0.97187497388E+02 -0.42136640930E+01 -0.28751825182E+03  0.30352911047E+03  0.10566000000E+00 0.  1.
         13    1    1    2    0    0  0.46399489477E+02  0.19012663672E+03 -0.15198106677E+03  0.24778883436E+03  0.10566000000E+00 0. -1.
         -4    1    1    2    0  502  0.50788007910E+02 -0.18591297263E+03 -0.74943327830E+03  0.77381735168E+03  0.00000000000E+00 0. -1.
</event>
<event>
 5    1  0.4881333E-005  0.4059936E+03  0.7818608E-02  0.1016376E+00
         21   -1    0    0  501  502  0.00000000000E+00  0.00000000000E+00  0.22839368071E+03  0.22839368071E+03  0.00000000000E+00 0. -1.
         -4   -1    0    0    0  501 -0.00000000000E+00 -0.00000000000E+00 -0.13513999290E+04  0.13513999290E+04  0.00000000000E+00 0. -1.
        -13    1    1    2    0    0  0.36167148671E+01 -0.90457197155E+02 -0.17461839890E+03  0.19669057309E+03  0.10566000000E+00 0.  1.
         13    1    1    2    0    0 -0.27607270338E+03 -0.22855488939E+03 -0.89010119808E+03  0.95954865901E+03  0.10566000000E+00 0. -1.
         -4    1    1    2    0  502  0.27245598852E+03  0.31901208654E+03 -0.58286651258E+02  0.42355437756E+03  0.00000000000E+00 0. -1.
</event>
<event>
 5    1  0.4881333E-005  0.5125908E+03  0.7818608E-02  0.9476018E-01
         -4   -1    0    0    0  501 -0.00000000000E+00  0.00000000000E+00  0.32272362424E+04  0.32272362424E+04  0.00000000000E+00 0. -1.
         21   -1    0    0  501  502  0.00000000000E+00 -0.00000000000E+00 -0.20152506330E+03  0.20152506330E+03  0.00000000000E+00 0. -1.
        -13    1    1    2    0    0  0.41008204822E+03  0.22421380818E+03  0.99225419691E+03  0.10968169950E+04  0.10566000000E+00 0.  1.
         13    1    1    2    0    0 -0.61866620515E+03  0.21487731548E+03  0.11998314060E+04  0.13669365560E+04  0.10566000000E+00 0. -1.
         -4    1    1    2    0  502  0.20858415694E+03 -0.43909112366E+03  0.83362557617E+03  0.96500775471E+03  0.00000000000E+00 0. -1.
</event>
<event>
 5    1  0.4881333E-005  0.1847517E+03  0.7818608E-02  0.1071124E+00
         -4   -1    0    0    0  501 -0.00000000000E+00  0.00000000000E+00  0.67207975838E+03  0.67207975838E+03  0.00000000000E+00 0. -1.
         21   -1    0    0  501  502  0.00000000000E+00 -0.00000000000E+00 -0.19331604010E+03  0.19331604010E+03  0.00000000000E+00 0.  1.
        -13    1    1    2    0    0 -0.12670580045E+02  0.13522514569E+03 -0.13438222474E+03  0.19106275701E+03  0.10566000000E+00 0.  1.
         13    1    1    2    0    0  0.67638264041E+02 -0.17760917891E+03  0.54448213534E+03  0.57669815507E+03  0.10566000000E+00 0. -1.
         -4    1    1    2    0  502 -0.54967683996E+02  0.42384033218E+02  0.68663807685E+02  0.97634886396E+02  0.00000000000E+00 0. -1.
</event>
<event>
 5    1  0.4881333E-005  0.2658014E+03  0.7818608E-02  0.1022515E+00
         -4   -1    0    0    0  501 -0.00000000000E+00  0.00000000000E+00  0.10348361006E+04  0.10348361006E+04  0.00000000000E+00 0. -1.
         21   -1    0    0  501  502  0.00000000000E+00 -0.00000000000E+00 -0.15214420520E+03  0.15214420520E+03  0.00000000000E+00 0.  1.
        -13    1    1    2    0    0 -0.21598980385E+03 -0.15865727853E+03  0.80454697524E+03  0.84800918270E+03  0.10566000000E+00 0.  1.
         13    1    1    2    0    0  0.21783810665E+03  0.13844254261E+03  0.12582926945E+03  0.28714594639E+03  0.10566000000E+00 0. -1.
         -4    1    1    2    0  502 -0.18483028025E+01  0.20214735919E+02 -0.47684349310E+02  0.51825176707E+02  0.00000000000E+00 0. -1.
</event>
<event>
 5    1  0.4881333E-005  0.4600873E+03  0.7818608E-02  0.9683982E-01
         21   -1    0    0  501  502  0.00000000000E+00  0.00000000000E+00  0.10605474955E+04  0.10605474955E+04  0.00000000000E+00 0. -1.
         -4   -1    0    0    0  501 -0.00000000000E+00 -0.00000000000E+00 -0.46482116464E+03  0.46482116464E+03  0.00000000000E+00 0. -1.
        -13    1    1    2    0    0 -0.16119003487E+03 -0.26182049551E+03 -0.46473067479E+02  0.31095330256E+03  0.10566000000E+00 0.  1.
         13    1    1    2    0    0  0.38698505625E+03  0.54391628471E+03  0.38156821613E+03  0.76889314814E+03  0.10566000000E+00 0. -1.
         -4    1    1    2    0  502 -0.22579502138E+03 -0.28209578920E+03  0.26063118223E+03  0.44552220945E+03  0.00000000000E+00 0. -1.
</event>
<event>
 5    1  0.4881333E-005  0.3007360E+03  0.7818608E-02  0.1007002E+00
         21   -1    0    0  501  502  0.00000000000E+00  0.00000000000E+00  0.14775840283E+03  0.14775840283E+03  0.00000000000E+00 0.  1.
         -4   -1    0    0    0  501 -0.00000000000E+00 -0.00000000000E+00 -0.17756151348E+04  0.17756151348E+04  0.00000000000E+00 0. -1.
        -13    1    1    2    0    0  0.18366410670E+03  0.25090213752E+03 -0.94698072361E+02  0.32504172467E+03  0.10566000000E+00 0.  1.
         13    1    1    2    0    0 -0.17882724848E+03 -0.24021062717E+03 -0.15495225191E+04  0.15781952917E+04  0.10566000000E+00 0. -1.
         -4    1    1    2    0  502 -0.48368582163E+01 -0.10691510351E+02  0.16363859519E+02  0.20136521282E+02  0.00000000000E+00 0. -1.
</event>
<event>
 5    1  0.4881333E-005  0.1548890E+03  0.7818608E-02  0.1096388E+00
          4   -1    0    0  502    0 -0.00000000000E+00  0.00000000000E+00  0.84671512860E+03  0.84671512860E+03  0.00000000000E+00 0.  1.
         21   -1    0    0  501  502  0.00000000000E+00 -0.00000000000E+00 -0.69545887472E+02  0.69545887472E+02  0.00000000000E+00 0. -1.
        -13    1    1    2    0    0 -0.66612796972E+02  0.12140032183E+03  0.44904020936E+03  0.46990682443E+03  0.10566000000E+00 0.  1.
         13    1    1    2    0    0  0.77141688772E+02 -0.18469654964E+03  0.32552062060E+03  0.38213523941E+03  0.10566000000E+00 0. -1.
          4    1    1    2  501    0 -0.10528891800E+02  0.63296227808E+02  0.26084111658E+01  0.64218952235E+02  0.00000000000E+00 0.  1.
</event>
<event>
 5    1  0.4881333E-005  0.4947686E+03  0.7818608E-02  0.9918265E-01
         21   -1    0    0  501  502  0.00000000000E+00  0.00000000000E+00  0.26960324177E+03  0.26960324177E+03  0.00000000000E+00 0. -1.
         -4   -1    0    0    0  501 -0.00000000000E+00 -0.00000000000E+00 -0.16029598928E+04  0.16029598928E+04  0.00000000000E+00 0. -1.
        -13    1    1    2    0    0 -0.88836570701E+02  0.66762261231E+02 -0.66266631645E+03  0.67191948471E+03  0.10566000000E+00 0.  1.
         13    1    1    2    0    0  0.43160126559E+03  0.27434061662E+03 -0.31963200327E+03  0.60308130054E+03  0.10566000000E+00 0. -1.
         -4    1    1    2    0  502 -0.34276469488E+03 -0.34110287786E+03 -0.35105833132E+03  0.59756234932E+03  0.00000000000E+00 0. -1.
</event>
<event>
 5    1  0.4881333E-005  0.2648160E+02  0.7818608E-02  0.1435607E+00
         21   -1    0    0  501  502  0.00000000000E+00  0.00000000000E+00  0.14925527235E+03  0.14925527235E+03  0.00000000000E+00 0. -1.
         -4   -1    0    0    0  501 -0.00000000000E+00 -0.00000000000E+00 -0.76338810098E+02  0.76338810098E+02  0.00000000000E+00 0. -1.
        -13    1    1    2    0    0  0.36741015723E+02  0.76481663288E+01  0.51920263210E+02  0.64063418425E+02  0.10566000000E+00 0.  1.
         13    1    1    2    0    0 -0.22711819745E+02 -0.12833142531E+02 -0.67194479967E+02  0.72080688159E+02  0.10566000000E+00 0. -1.
         -4    1    1    2    0  502 -0.14029195978E+02  0.51849762022E+01  0.88190679011E+02  0.89449975866E+02  0.00000000000E+00 0. -1.
</event>
<event>
 5    1  0.4881333E-005  0.4575022E+03  0.7818608E-02  0.9576323E-01
         21   -1    0    0  501  502  0.00000000000E+00  0.00000000000E+00  0.19758419653E+03  0.19758419653E+03  0.00000000000E+00 0.  1.
          4   -1    0    0  502    0 -0.00000000000E+00 -0.00000000000E+00 -0.25010761006E+04  0.25010761006E+04  0.00000000000E+00 0.  1.
        -13    1    1    2    0    0  0.70277337930E+02  0.47177975164E+03 -0.77995706578E+03  0.91424727175E+03  0.10566000000E+00 0.  1.
         13    1    1    2    0    0 -0.89433353233E+02 -0.43985067533E+03 -0.16199892667E+04  0.16810211708E+04  0.10566000000E+00 0. -1.
          4    1    1    2  501    0  0.19156015303E+02 -0.31929076314E+02  0.96454428402E+02  0.10339185459E+03  0.00000000000E+00 0.  1.
</event>
<event>
 5    1  0.4881333E-005  0.4908652E+03  0.7818608E-02  0.9967569E-01
         21   -1    0    0  501  502  0.00000000000E+00  0.00000000000E+00  0.19556100298E+03  0.19556100298E+03  0.00000000000E+00 0. -1.
         -4   -1    0    0    0  501 -0.00000000000E+00 -0.00000000000E+00 -0.16055693297E+04  0.16055693297E+04  0.00000000000E+00 0. -1.
        -13    1    1    2    0    0  0.94279720772E+02  0.21201299295E+02 -0.30010462693E+03  0.31527917646E+03  0.10566000000E+00 0.  1.
         13    1    1    2    0    0 -0.38749842282E+03 -0.36130729388E+03 -0.50020131696E+03  0.72862840800E+03  0.10566000000E+00 0. -1.
         -4    1    1    2    0  502  0.29321870205E+03  0.34010599458E+03 -0.60970238285E+03  0.75722274823E+03  0.00000000000E+00 0. -1.
</event>
<event>
 5    1  0.4881333E-005  0.1250780E+03  0.7818608E-02  0.1187138E+00
          4   -1    0    0  502    0 -0.00000000000E+00  0.00000000000E+00  0.14153384299E+03  0.14153384299E+03  0.00000000000E+00 0.  1.
         21   -1    0    0  501  502  0.00000000000E+00 -0.00000000000E+00 -0.41942786719E+03  0.41942786719E+03  0.00000000000E+00 0.  1.
        -13    1    1    2    0    0 -0.13138616619E+03 -0.77057904765E+02  0.79097168705E+02  0.17162930582E+03  0.10566000000E+00 0.  1.
         13    1    1    2    0    0  0.24266407616E+02  0.17493418539E+02 -0.44073945130E+02  0.53267269820E+02  0.10566000000E+00 0. -1.
          4    1    1    2  501    0  0.10711975858E+03  0.59564486226E+02 -0.31291724778E+03  0.33606513454E+03  0.00000000000E+00 0.  1.
</event>
<event>
 5    1  0.4881333E-005  0.4035304E+02  0.7818608E-02  0.1368868E+00
         -4   -1    0    0    0  501 -0.00000000000E+00  0.00000000000E+00  0.22246103130E+02  0.22246103130E+02  0.00000000000E+00 0. -1.
         21   -1    0    0  501  502  0.00000000000E+00 -0.00000000000E+00 -0.15196301674E+03  0.15196301674E+03  0.00000000000E+00 0.  1.
        -13    1    1    2    0    0  0.22346833559E+02 -0.44537905988E+01 -0.72694525082E+01  0.23918054365E+02  0.10566000000E+00 0.  1.
         13    1    1    2    0    0 -0.35977565730E+02 -0.27504847085E+02 -0.97542728408E+02  0.10754300014E+03  0.10566000000E+00 0. -1.
         -4    1    1    2    0  502  0.13630732171E+02  0.31958637683E+02 -0.24904732689E+02  0.42748065364E+02  0.00000000000E+00 0. -1.
</event>
<event>
 5    1  0.4881333E-005  0.7910334E+02  0.7818608E-02  0.1204683E+00
         -4   -1    0    0    0  501 -0.00000000000E+00  0.00000000000E+00  0.30254796607E+03  0.30254796607E+03  0.00000000000E+00 0. -1.
         21   -1    0    0  501  502  0.00000000000E+00 -0.00000000000E+00 -0.39894568744E+02  0.39894568744E+02  0.00000000000E+00 0. -1.
        -13    1    1    2    0    0 -0.42372087248E+02  0.44177731785E+02  0.57200706614E+02  0.83779459085E+02  0.10566000000E+00 0.  1.
         13    1    1    2    0    0  0.78428708032E+02 -0.51775456931E+02  0.20056669109E+03  0.22149214190E+03  0.10566000000E+00 0. -1.
         -4    1    1    2    0  502 -0.36056620783E+02  0.75977251460E+01  0.48859996243E+01  0.37170933833E+02  0.00000000000E+00 0. -1.
</event>
<event>
 5    1  0.4881333E-005  0.4142900E+03  0.7818608E-02  0.9703105E-01
         21   -1    0    0  501  502  0.00000000000E+00  0.00000000000E+00  0.39281036550E+03  0.39281036550E+03  0.00000000000E+00 0. -1.
         -4   -1    0    0    0  501 -0.00000000000E+00 -0.00000000000E+00 -0.13179405906E+04  0.13179405906E+04  0.00000000000E+00 0. -1.
        -13    1    1    2    0    0 -0.27810632321E+03 -0.27901558690E+03 -0.23114908559E+03  0.45675237895E+03  0.10566000000E+00 0.  1.
         13    1    1    2    0    0  0.32309461242E+03 -0.25837175709E+03 -0.54155866941E+02  0.41722771064E+03  0.10566000000E+00 0. -1.
         -4    1    1    2    0  502 -0.44988289215E+02  0.53738734399E+03 -0.63982527261E+03  0.83677086656E+03  0.00000000000E+00 0. -1.
</event>
<event>
 5    1  0.4881333E-005  0.4703097E+03  0.7818608E-02  0.9885412E-01
         21   -1    0    0  501  502  0.00000000000E+00  0.00000000000E+00  0.11503054245E+04  0.11503054245E+04  0.00000000000E+00 0.  1.
          4   -1    0    0  502    0 -0.00000000000E+00 -0.00000000000E+00 -0.47499909910E+03  0.47499909910E+03  0.00000000000E+00 0.  1.
        -13    1    1    2    0    0 -0.42676365578E+02 -0.43476490975E+03  0.59439517955E+03  0.73766350023E+03  0.10566000000E+00 0.  1.
         13    1    1    2    0    0  0.85223517362E+02 -0.11657693072E+03 -0.21612708528E+03  0.25993106171E+03  0.10566000000E+00 0. -1.
          4    1    1    2  501    0 -0.42547151784E+02  0.55134184048E+03  0.29703823108E+03  0.62770996161E+03  0.00000000000E+00 0.  1.
</event>
<event>
 5    1  0.4881333E-005  0.3513916E+03  0.7818608E-02  0.1018313E+00
         -4   -1    0    0    0  501 -0.00000000000E+00  0.00000000000E+00  0.13744175675E+04  0.13744175675E+04  0.00000000000E+00 0. -1.
         21   -1    0    0  501  502  0.00000000000E+00 -0.00000000000E+00 -0.42242992342E+03  0.42242992342E+03  0.00000000000E+00 0. -1.
        -13    1    1    2    0    0 -0.88679374302E+02  0.96852884482E+02  0.52057618914E+03  0.53688368621E+03  0.10566000000E+00 0.  1.
         13    1    1    2    0    0 -0.21034590610E+03 -0.28533881270E+03  0.72072523645E+03  0.80318647640E+03  0.10566000000E+00 0. -1.
         -4    1    1    2    0  502  0.29902528040E+03  0.18848592822E+03 -0.28931378153E+03  0.45677732829E+03  0.00000000000E+00 0. -1.
</event>
<event>
 5    1  0.4881333E-005  0.4653675E+03  0.7818608E-02  0.1007914E+00
         21   -1    0    0  501  502  0.00000000000E+00  0.00000000000E+00  0.13659747888E+03  0.13659747888E+03  0.00000000000E+00 0. -1.
         -4   -1    0    0    0  501 -0.00000000000E+00 -0.00000000000E+00 -0.22615573105E+04  0.22615573105E+04  0.00000000000E+00 0. -1.
        -13    1    1    2    0    0  0.24374099419E+02  0.74943763203E+02 -0.36415118931E+03  0.37258121827E+03  0.10566000000E+00 0.  1.
         13    1    1    2    0    0 -0.46090918192E+03 -0.18938205353E+03 -0.12403857669E+04  0.13367347150E+04  0.10566000000E+00 0. -1.
         -4    1    1    2    0  502  0.43653508250E+03  0.11443829033E+03 -0.52042287537E+03  0.68883885615E+03  0.00000000000E+00 0. -1.
</event>
<event>
 5    1  0.4881333E-005  0.5108814E+03  0.7818608E-02  0.9615873E-01
         21   -1    0    0  501  502  0.00000000000E+00  0.00000000000E+00  0.36199752959E+03  0.36199752959E+03  0.00000000000E+00 0.  1.
          4   -1    0    0  502    0 -0.00000000000E+00 -0.00000000000E+00 -0.12947287757E+04  0.12947287757E+04  0.00000000000E+00 0.  1.
        -13    1    1    2    0    0  0.42633236929E+03  0.19730273161E+03 -0.28005296227E+03  0.54691620002E+03  0.10566000000E+00 0.  1.
         13    1    1    2    0    0 -0.64942838330E+02  0.27791669923E+03 -0.31024772173E+03  0.42155536287E+03  0.10566000000E+00 0. -1.
          4    1    1    2  501    0 -0.36138953096E+03 -0.47521943084E+03 -0.34243056207E+03  0.68825474236E+03  0.00000000000E+00 0.  1.
</event>
<event>
 5    1  0.4881333E-005  0.5643971E+02  0.7818608E-02  0.1267582E+00
         -4   -1    0    0    0  501 -0.00000000000E+00  0.00000000000E+00  0.45148433004E+03  0.45148433004E+03  0.00000000000E+00 0. -1.
         21   -1    0    0  501  502  0.00000000000E+00 -0.00000000000E+00 -0.15099431016E+02  0.15099431016E+02  0.00000000000E+00 0.  1.
        -13    1    1    2    0    0 -0.12398274883E+02  0.65808190107E+02  0.10814912800E+03  0.12720330246E+03  0.10566000000E+00 0.  1.
         13    1    1    2    0    0  0.12667363787E+02 -0.52437196870E+02  0.31798943386E+03  0.32253280908E+03  0.10566000000E+00 0. -1.
         -4    1    1    2    0  502 -0.26908890457E+00 -0.13370993236E+02  0.10246337157E+02  0.16847649512E+02  0.00000000000E+00 0. -1.
</event>
<event>
 5    1  0.4881333E-005  0.1336824E+03  0.7818608E-02  0.1118421E+00
         21   -1    0    0  501  502  0.00000000000E+00  0.00000000000E+00  0.34321624846E+02  0.34321624846E+02  0.00000000000E+00 0.  1.
         -4   -1    0    0    0  501 -0.00000000000E+00 -0.00000000000E+00 -0.95583957924E+03  0.95583957924E+03  0.00000000000E+00 0. -1.
        -13    1    1    2    0    0  0.84899459215E+02  0.44472253085E+02 -0.13630888288E+03  0.16663079603E+03  0.10566000000E+00 0.  1.
         13    1    1    2    0    0 -0.16387787086E+03 -0.26970190303E+02 -0.56635160681E+03  0.59020123807E+03  0.10566000000E+00 0. -1.
         -4    1    1    2    0  502  0.78978411650E+02 -0.17502062782E+02 -0.21885746470E+03  0.23332916998E+03  0.00000000000E+00 0. -1.
</event>
<event>
 5    1  0.4881333E-005  0.4766548E+03  0.7818608E-02  0.9758520E-01
         21   -1    0    0  501  502  0.00000000000E+00  0.00000000000E+00  0.26889784493E+03  0.26889784493E+03  0.00000000000E+00 0. -1.
         -4   -1    0    0    0  501 -0.00000000000E+00 -0.00000000000E+00 -0.22959884056E+04  0.22959884056E+04  0.00000000000E+00 0. -1.
        -13    1    1    2    0    0 -0.81251498903E+02 -0.19745434886E+03 -0.12539511617E+04  0.12719998243E+04  0.10566000000E+00 0.  1.
         13    1    1    2    0    0 -0.36218334940E+03  0.34059261709E+03 -0.15898755476E+03  0.52197429356E+03  0.10566000000E+00 0. -1.
         -4    1    1    2    0  502  0.44343484830E+03 -0.14313826823E+03 -0.61415184420E+03  0.77091213264E+03  0.00000000000E+00 0. -1.
</event>
<event>
 5    1  0.4881333E-005  0.4040079E+03  0.7818608E-02  0.9748365E-01
         21   -1    0    0  501  502  0.00000000000E+00  0.00000000000E+00  0.69731238487E+03  0.69731238487E+03  0.00000000000E+00 0. -1.
         -4   -1    0    0    0  501 -0.00000000000E+00 -0.00000000000E+00 -0.21985692976E+04  0.21985692976E+04  0.00000000000E+00 0. -1.
        -13    1    1    2    0    0  0.33018721716E+03 -0.15115328920E+03 -0.23603172447E+03  0.43310726308E+03  0.10566000000E+00 0.  1.
         13    1    1    2    0    0 -0.70509634099E+03  0.32133098766E+02 -0.17213665435E+04  0.18604559050E+04  0.10566000000E+00 0. -1.
         -4    1    1    2    0  502  0.37490912383E+03  0.11902019043E+03  0.45614135524E+03  0.60231851442E+03  0.00000000000E+00 0. -1.
</event>
<event>
 5    1  0.4881333E-005  0.1551145E+03  0.7818608E-02  0.1096174E+00
         21   -1    0    0  501  502  0.00000000000E+00  0.00000000000E+00  0.23489049562E+03  0.23489049562E+03  0.00000000000E+00 0. -1.
          4   -1    0    0  502    0 -0.00000000000E+00 -0.00000000000E+00 -0.15242630626E+03  0.15242630626E+03  0.00000000000E+00 0.  1.
        -13    1    1    2    0    0  0.35269878991E+02 -0.15511422797E+03 -0.50015722159E+02  0.16675122701E+03  0.10566000000E+00 0.  1.
         13    1    1    2    0    0 -0.51978083832E+02  0.13559795644E+03  0.12973161242E+03  0.19472757744E+03  0.10566000000E+00 0. -1.
          4    1    1    2  501    0  0.16708204841E+02  0.19516271524E+02  0.27482991039E+01  0.25837997430E+02  0.00000000000E+00 0.  1.
</event>
<event>
 5    1  0.4881333E-005  0.4183926E+03  0.7818608E-02  0.9885653E-01
         -4   -1    0    0    0  501 -0.00000000000E+00  0.00000000000E+00  0.15098932014E+04  0.15098932014E+04  0.00000000000E+00 0. -1.
         21   -1    0    0  501  502  0.00000000000E+00 -0.00000000000E+00 -0.27359046752E+03  0.27359046752E+03  0.00000000000E+00 0. -1.
        -13    1    1    2    0    0  0.86463026065E+02  0.18581231716E+03  0.44945241792E+03  0.49397323735E+03  0.10566000000E+00 0.  1.
         13    1    1    2    0    0 -0.27874276341E+03  0.28647293749E+03  0.63844710346E+02  0.40477207200E+03  0.10566000000E+00 0. -1.
         -4    1    1    2    0  502  0.19227973735E+03 -0.47228525465E+03  0.72300560565E+03  0.88473835960E+03  0.00000000000E+00 0. -1.
</event>
<event>
 5    1  0.4881333E-005  0.4028126E+03  0.7818608E-02  0.9720958E-01
         -4   -1    0    0    0  501 -0.00000000000E+00  0.00000000000E+00  0.47180093681E+03  0.47180093681E+03  0.00000000000E+00 0. -1.
         21   -1    0    0  501  502  0.00000000000E+00 -0.00000000000E+00 -0.54499254211E+03  0.54499254211E+03  0.00000000000E+00 0. -1.
        -13    1    1    2    0    0 -0.19153633997E+03 -0.34824835967E+03  0.11330091482E+03  0.41327980595E+03  0.10566000000E+00 0.  1.
         13    1    1    2    0    0  0.14608500753E+03  0.38590745986E+03 -0.49984041867E+01  0.41266256459E+03  0.10566000000E+00 0. -1.
         -4    1    1    2    0  502  0.45451332440E+02 -0.37659100187E+02 -0.18149411595E+03  0.19085110838E+03  0.00000000000E+00 0. -1.
</event>
<event>
 5    1  0.4881333E-005  0.3809530E+02  0.7818608E-02  0.1349636E+00
         21   -1    0    0  501  502  0.00000000000E+00  0.00000000000E+00  0.44305400618E+02  0.44305400618E+02  0.00000000000E+00 0. -1.
          4   -1    0    0  502    0 -0.00000000000E+00 -0.00000000000E+00 -0.13356326321E+03  0.13356326321E+03  0.00000000000E+00 0.  1.
        -13    1    1    2    0    0  0.38151566633E+02  0.92845295409E+01 -0.11654622453E+03  0.12298283678E+03  0.10566000000E+00 0.  1.
         13    1    1    2    0    0 -0.30316975617E+02  0.55708670699E+01  0.17899559769E+02  0.35644901100E+02  0.10566000000E+00 0. -1.
          4    1    1    2  501    0 -0.78345910165E+01 -0.14855396611E+02  0.93888021772E+01  0.19240925944E+02  0.00000000000E+00 0.  1.
</event>
<event>
 5    1  0.4881333E-005  0.2345347E+03  0.7818608E-02  0.1038734E+00
         -4   -1    0    0    0  501 -0.00000000000E+00  0.00000000000E+00  0.89819061676E+03  0.89819061676E+03  0.00000000000E+00 0. -1.
         21   -1    0    0  501  502  0.00000000000E+00 -0.00000000000E+00 -0.30442971513E+03  0.30442971513E+03  0.00000000000E+00 0. -1.
        -13    1    1    2    0    0  0.10852563513E+03 -0.20200938625E+03  0.14509673292E+02  0.22977412256E+03  0.10566000000E+00 0.  1.
         13    1    1    2    0    0 -0.98491347835E+02  0.21387430523E+03  0.75784298068E+03  0.79357971154E+03  0.10566000000E+00 0. -1.
         -4    1    1    2    0  502 -0.10034287291E+02 -0.11864918974E+02 -0.17859175235E+03  0.17926649779E+03  0.00000000000E+00 0. -1.
</event>
<event>
 5    1  0.4881333E-005  0.4608290E+03  0.7818608E-02  0.1004269E+00
         21   -1    0    0  501  502  0.00000000000E+00  0.00000000000E+00  0.12370224791E+04  0.12370224791E+04  0.00000000000E+00 0. -1.
         -4   -1    0    0    0  501 -0.00000000000E+00 -0.00000000000E+00 -0.28329151770E+03  0.28329151770E+03  0.00000000000E+00 0. -1.
        -13    1    1    2    0    0  0.11335334001E+01 -0.91317636071E+02 -0.51225092908E+02  0.10471015645E+03  0.10566000000E+00 0.  1.
         13    1    1    2    0    0  0.45947276340E+03  0.39542784107E+02  0.23673437454E+03  0.51838405390E+03  0.10566000000E+00 0. -1.
         -4    1    1    2    0  502 -0.46060629680E+03  0.51774851964E+02  0.76822167979E+03  0.89721978648E+03  0.00000000000E+00 0. -1.
</event>
<event>
 5    1  0.4881333E-005  0.2693226E+03  0.7818608E-02  0.1020839E+00
         21   -1    0    0  501  502  0.00000000000E+00  0.00000000000E+00  0.53504739726E+03  0.53504739726E+03  0.00000000000E+00 0. -1.
          4   -1    0    0  502    0 -0.00000000000E+00 -0.00000000000E+00 -0.43809709114E+03  0.43809709114E+03  0.00000000000E+00 0.  1.
        -13    1    1    2    0    0 -0.25792745849E+03  0.46455939432E+02 -0.27849925954E+03  0.38242198797E+03  0.10566000000E+00 0.  1.
         13    1    1    2    0    0  0.29305811291E+03 -0.56946643868E+02  0.10298703157E+03  0.31580423940E+03  0.10566000000E+00 0. -1.
          4    1    1    2  501    0 -0.35130654411E+02  0.10490704436E+02  0.27246253409E+03  0.27491826102E+03  0.00000000000E+00 0.  1.
</event>
<event>
 5    1  0.4881333E-005  0.1841292E+03  0.7818608E-02  0.1071597E+00
         21   -1    0    0  501  502  0.00000000000E+00  0.00000000000E+00  0.17240016405E+03  0.17240016405E+03  0.00000000000E+00 0.  1.
          4   -1    0    0  502    0 -0.00000000000E+00 -0.00000000000E+00 -0.66058850741E+03  0.66058850741E+03  0.00000000000E+00 0.  1.
        -13    1    1    2    0    0  0.63810326662E+02 -0.21909851206E+03 -0.12088926389E+03  0.25824434372E+03  0.10566000000E+00 0.  1.
         13    1    1    2    0    0 -0.54763107472E+02  0.16483110171E+03 -0.44605289774E+03  0.47867681036E+03  0.10566000000E+00 0. -1.
          4    1    1    2  501    0 -0.90472191901E+01  0.54267410354E+02  0.78753818274E+02  0.96067517374E+02  0.00000000000E+00 0.  1.
</event>
<event>
 5    1  0.4881333E-005  0.4695571E+03  0.7818608E-02  0.9811715E-01
          4   -1    0    0  502    0 -0.00000000000E+00  0.00000000000E+00  0.10195472442E+04  0.10195472442E+04  0.00000000000E+00 0.  1.
         21   -1    0    0  501  502  0.00000000000E+00 -0.00000000000E+00 -0.33233494216E+03  0.33233494216E+03  0.00000000000E+00 0.  1.
        -13    1    1    2    0    0  0.54440816460E+03 -0.10145031758E+03  0.37948500771E+03  0.67132801138E+03  0.10566000000E+00 0.  1.
         13    1    1    2    0    0 -0.12665594144E+03  0.13642555626E+03  0.71876855609E+02  0.19954937594E+03  0.10566000000E+00 0. -1.
          4    1    1    2  501    0 -0.41775222316E+03 -0.34975238674E+02  0.23585043875E+03  0.48100479907E+03  0.00000000000E+00 0.  1.
</event>
<event>
 5    1  0.4881333E-005  0.4456150E+03  0.7818608E-02  0.9605870E-01
         -4   -1    0    0    0  501 -0.00000000000E+00  0.00000000000E+00  0.37481696519E+04  0.37481696519E+04  0.00000000000E+00 0. -1.
         21   -1    0    0  501  502  0.00000000000E+00 -0.00000000000E+00 -0.17471475528E+03  0.17471475528E+03  0.00000000000E+00 0. -1.
        -13    1    1    2    0    0 -0.27899511454E+03  0.29389278414E+03  0.16702253296E+04  0.17186808620E+04  0.10566000000E+00 0.  1.
         13    1    1    2    0    0  0.49562230773E+03 -0.19783388303E+03  0.18932519958E+04  0.19670238554E+04  0.10566000000E+00 0. -1.
         -4    1    1    2    0  502 -0.21662719319E+03 -0.96058901109E+02  0.99775712411E+01  0.23717968977E+03  0.00000000000E+00 0. -1.
</event>
<event>
 5    1  0.4881333E-005  0.4640697E+03  0.7818608E-02  0.9961776E-01
         21   -1    0    0  501  502  0.00000000000E+00  0.00000000000E+00  0.15894212198E+04  0.15894212198E+04  0.00000000000E+00 0. -1.
         -4   -1    0    0    0  501 -0.00000000000E+00 -0.00000000000E+00 -0.21927935418E+03  0.21927935418E+03  0.00000000000E+00 0. -1.
        -13    1    1    2    0    0  0.43288558580E+02  0.10823061210E+03  0.49156059137E+02  0.12650728838E+03  0.10566000000E+00 0.  1.
         13    1    1    2    0    0  0.29993631478E+03 -0.40316874359E+03  0.35436052697E+03  0.61488065751E+03  0.10566000000E+00 0. -1.
         -4    1    1    2    0  502 -0.34322487336E+03  0.29493813150E+03  0.96662527949E+03  0.10673126281E+04  0.00000000000E+00 0. -1.
</event>
<event>
 5    1  0.4881333E-005  0.3323648E+03  0.7818608E-02  0.9947760E-01
         21   -1    0    0  501  502  0.00000000000E+00  0.00000000000E+00  0.19744778485E+04  0.19744778485E+04  0.00000000000E+00 0.  1.
          4   -1    0    0  502    0 -0.00000000000E+00 -0.00000000000E+00 -0.22958923222E+03  0.22958923222E+03  0.00000000000E+00 0.  1.
        -13    1    1    2    0    0  0.43696926952E+03  0.14466235699E+03  0.28436043683E+03  0.54104547797E+03  0.10566000000E+00 0.  1.
         13    1    1    2    0    0 -0.27403980545E+03 -0.12988815774E+02  0.10876226437E+03  0.29511991736E+03  0.10566000000E+00 0. -1.
          4    1    1    2  501    0 -0.16292946407E+03 -0.13167354122E+03  0.13517659150E+04  0.13679016854E+04  0.00000000000E+00 0.  1.
</event>
<event>
 5    1  0.4881333E-005  0.4320857E+02  0.7818608E-02  0.1322215E+00
         21   -1    0    0  501  502  0.00000000000E+00  0.00000000000E+00  0.13666735597E+04  0.13666735597E+04  0.00000000000E+00 0.  1.
          4   -1    0    0  502    0 -0.00000000000E+00 -0.00000000000E+00 -0.18010942431E+02  0.18010942431E+02  0.00000000000E+00 0.  1.
        -13    1    1    2    0    0 -0.40452568509E+02 -0.66392159808E+01  0.15707936597E+02  0.43900340818E+02  0.10566000000E+00 0.  1.
         13    1    1    2    0    0  0.73043925146E+02  0.31551676458E+02  0.45739913991E+03  0.46426814196E+03  0.10566000000E+00 0. -1.
          4    1    1    2  501    0 -0.32591356637E+02 -0.24912460477E+02  0.87555554072E+03  0.87651601931E+03  0.00000000000E+00 0.  1.
</event>
<event>
 5    1  0.4881333E-005  0.5532017E+03  0.7818608E-02  0.9368414E-01
         -4   -1    0    0    0  501 -0.00000000000E+00  0.00000000000E+00  0.25782247351E+04  0.25782247351E+04  0.00000000000E+00 0. -1.
         21   -1    0    0  501  502  0.00000000000E+00 -0.00000000000E+00 -0.23271907002E+03  0.23271907002E+03  0.00000000000E+00 0. -1.
        -13    1    1    2    0    0  0.30803208994E+03  0.32197712730E+03  0.82479924623E+03  0.93746831770E+03  0.10566000000E+00 0.  1.
         13    1    1    2    0    0 -0.55867140730E+03 -0.47940822805E+03  0.13336471401E+04  0.15233386675E+04  0.10566000000E+00 0. -1.
         -4    1    1    2    0  502  0.25063931737E+03  0.15743110075E+03  0.18705927874E+03  0.35013681991E+03  0.00000000000E+00 0. -1.
</event>
<event>
 5    1  0.4881333E-005  0.5823775E+03  0.7818608E-02  0.9313675E-01
         21   -1    0    0  501  502  0.00000000000E+00  0.00000000000E+00  0.44073842331E+03  0.44073842331E+03  0.00000000000E+00 0.  1.
          4   -1    0    0  502    0 -0.00000000000E+00 -0.00000000000E+00 -0.15424841071E+04  0.15424841071E+04  0.00000000000E+00 0.  1.
        -13    1    1    2    0    0 -0.49729651146E+03  0.53059543568E+03 -0.36955062514E+03  0.81572238683E+03  0.10566000000E+00 0.  1.
         13    1    1    2    0    0  0.11968807066E+03 -0.51788205901E+03 -0.42513597444E+03  0.68063769307E+03  0.10566000000E+00 0. -1.
          4    1    1    2  501    0  0.37760844079E+03 -0.12713376673E+02 -0.30705908421E+03  0.48686245049E+03  0.00000000000E+00 0.  1.
</event>
<event>
 5    1  0.4881333E-005  0.4017763E+03  0.7818608E-02  0.1003905E+00
         21   -1    0    0  501  502  0.00000000000E+00  0.00000000000E+00  0.21399228113E+03  0.21399228113E+03  0.00000000000E+00 0. -1.
         -4   -1    0    0    0  501 -0.00000000000E+00 -0.00000000000E+00 -0.18162972067E+04  0.18162972067E+04  0.00000000000E+00 0. -1.
        -13    1    1    2    0    0 -0.86209774571E+02  0.10959735315E+03 -0.53023344495E+03  0.54826200156E+03  0.10566000000E+00 0.  1.
         13    1    1    2    0    0  0.15121798291E+03 -0.40002414493E+03 -0.65820849278E+02  0.43268763588E+03  0.10566000000E+00 0. -1.
         -4    1    1    2    0  502 -0.65008208343E+02  0.29042679178E+03 -0.10062506314E+04  0.10493398504E+04  0.00000000000E+00 0. -1.
</event>
<event>
 5    1  0.4881333E-005  0.5005878E+03  0.7818608E-02  0.9594833E-01
          4   -1    0    0  502    0 -0.00000000000E+00  0.00000000000E+00  0.16837253977E+04  0.16837253977E+04  0.00000000000E+00 0.  1.
         21   -1    0    0  501  502  0.00000000000E+00 -0.00000000000E+00 -0.42070582843E+03  0.42070582843E+03  0.00000000000E+00 0.  1.
        -13    1    1    2    0    0 -0.32302235816E+03 -0.34079842696E+03  0.23487267262E+03  0.52502589955E+03  0.10566000000E+00 0.  1.
         13    1    1    2    0    0 -0.23639832349E+03  0.22582166361E+03  0.94788489179E+03  0.10026790964E+04  0.10566000000E+00 0. -1.
          4    1    1    2  501    0  0.55942068165E+03  0.11497676335E+03  0.80262004867E+02  0.57672623019E+03  0.00000000000E+00 0.  1.
</event>
<event>
 5    1  0.4881333E-005  0.9451566E+02  0.7818608E-02  0.1173963E+00
         -4   -1    0    0    0  501 -0.00000000000E+00  0.00000000000E+00  0.55666731258E+03  0.55666731258E+03  0.00000000000E+00 0. -1.
         21   -1    0    0  501  502  0.00000000000E+00 -0.00000000000E+00 -0.84672527916E+02  0.84672527916E+02  0.00000000000E+00 0.  1.
        -13    1    1    2    0    0 -0.95431541051E+02  0.45827222121E+02 -0.32693150690E+02  0.11079786361E+03  0.10566000000E+00 0.  1.
         13    1    1    2    0    0  0.75781826638E+02 -0.55489422217E+02  0.49921173758E+03  0.50797079771E+03  0.10566000000E+00 0. -1.
         -4    1    1    2    0  502  0.19649714413E+02  0.96622000968E+01  0.54761977760E+01  0.22571179174E+02  0.00000000000E+00 0. -1.
</event>
<event>
 5    1  0.4881333E-005  0.4449538E+03  0.7818608E-02  0.9731795E-01
         -4   -1    0    0    0  501 -0.00000000000E+00  0.00000000000E+00  0.46071254006E+03  0.46071254006E+03  0.00000000000E+00 0. -1.
         21   -1    0    0  501  502  0.00000000000E+00 -0.00000000000E+00 -0.15922111172E+04  0.15922111172E+04  0.00000000000E+00 0. -1.
        -13    1    1    2    0    0 -0.18993667462E+03 -0.21628665488E+03  0.21002645797E+03  0.35632426476E+03  0.10566000000E+00 0.  1.
         13    1    1    2    0    0 -0.24080411136E+03  0.39060425904E+03 -0.27930279367E+03  0.53718560009E+03  0.10566000000E+00 0. -1.
         -4    1    1    2    0  502  0.43074078598E+03 -0.17431760416E+03 -0.10622222415E+04  0.11594137925E+04  0.00000000000E+00 0. -1.
</event>
<event>
 5    1  0.4881333E-005  0.9330900E+02  0.7818608E-02  0.1176127E+00
         -4   -1    0    0    0  501 -0.00000000000E+00  0.00000000000E+00  0.30101034513E+02  0.30101034513E+02  0.00000000000E+00 0. -1.
         21   -1    0    0  501  502  0.00000000000E+00 -0.00000000000E+00 -0.10953236676E+04  0.10953236676E+04  0.00000000000E+00 0. -1.
        -13    1    1    2    0    0 -0.49267411335E+02  0.72775191514E+02 -0.16959247942E+03  0.19101080221E+03  0.10566000000E+00 0.  1.
         13    1    1    2    0    0  0.42036572767E+02 -0.87882504064E+02 -0.10360828869E+03  0.14221496623E+03  0.10566000000E+00 0. -1.
         -4    1    1    2    0  502  0.72308385675E+01  0.15107312550E+02 -0.79202186493E+03  0.79219893364E+03  0.00000000000E+00 0. -1.
</event>
<event>
 5    1  0.4881333E-005  0.5565066E+03  0.7818608E-02  0.9362036E-01
         21   -1    0    0  501  502  0.00000000000E+00  0.00000000000E+00  0.57522967051E+03  0.57522967051E+03  0.00000000000E+00 0.  1.
         -4   -1    0    0    0  501 -0.00000000000E+00 -0.00000000000E+00 -0.11317920687E+04  0.11317920687E+04  0.00000000000E+00 0. -1.
        -13    1    1    2    0    0  0.45796955773E+03 -0.58925169062E+02  0.28664194983E+02  0.46263369808E+03  0.10566000000E+00 0.  1.
         13    1    1    2    0    0 -0.59042436707E+03 -0.15664974995E+03 -0.73080643089E+03  0.95247998824E+03  0.10566000000E+00 0. -1.
         -4    1    1    2    0  502  0.13245480934E+03  0.21557491901E+03  0.14557983769E+03  0.29190805293E+03  0.00000000000E+00 0. -1.
</event>
<event>
 5    1  0.4881333E-005  0.1658587E+03  0.7818608E-02  0.1086444E+00
         21   -1    0    0  501  502  0.00000000000E+00  0.00000000000E+00  0.31399669724E+03  0.31399669724E+03  0.00000000000E+00 0.  1.
         -4   -1    0    0    0  501 -0.00000000000E+00 -0.00000000000E+00 -0.13428975535E+03  0.13428975535E+03  0.00000000000E+00 0. -1.
        -13    1    1    2    0    0  0.16427221974E+03  0.48612824471E+02  0.88134326838E+01  0.17154083083E+03  0.10566000000E+00 0.  1.
         13    1    1    2    0    0 -0.14388150853E+03 -0.68806527573E+02  0.74236709010E+02  0.17591852336E+03  0.10566000000E+00 0. -1.
         -4    1    1    2    0  502 -0.20390711209E+02  0.20193703101E+02  0.96656800193E+02  0.10082709840E+03  0.00000000000E+00 0. -1.
</event>
<event>
 5    1  0.4881333E-005  0.3538348E+03  0.7818608E-02  0.9872758E-01
         21   -1    0    0  501  502  0.00000000000E+00  0.00000000000E+00  0.78498148117E+03  0.78498148117E+03  0.00000000000E+00 0. -1.
          4   -1    0    0  502    0 -0.00000000000E+00 -0.00000000000E+00 -0.21339711243E+03  0.21339711243E+03  0.00000000000E+00 0.  1.
        -13    1    1    2    0    0 -0.34199608884E+03  0.35846876603E+02  0.20287956763E+03  0.39925737748E+03  0.10566000000E+00 0.  1.
         13    1    1    2    0    0  0.35838837091E+03 -0.62923496246E+02  0.17666410250E+03  0.40448956360E+03  0.10566000000E+00 0. -1.
          4    1    1    2  501    0 -0.16392282074E+02  0.27076619643E+02  0.19204069861E+03  0.19463165253E+03  0.00000000000E+00 0.  1.
</event>
<event>
 5    1  0.4881333E-005  0.6782947E+02  0.7818608E-02  0.1252922E+00
         21   -1    0    0  501  502  0.00000000000E+00  0.00000000000E+00  0.25557421751E+03  0.25557421751E+03  0.00000000000E+00 0.  1.
          4   -1    0    0  502    0 -0.00000000000E+00 -0.00000000000E+00 -0.66535760467E+02  0.66535760467E+02  0.00000000000E+00 0.  1.
        -13    1    1    2    0    0 -0.84274745811E+02 -0.63022862230E+02  0.24170081500E+01  0.10526142236E+03  0.10566000000E+00 0.  1.
         13    1    1    2    0    0  0.28892543339E+02  0.33190736835E+02  0.51080285698E+02  0.67421145224E+02  0.10566000000E+00 0. -1.
          4    1    1    2  501    0  0.55382202472E+02  0.29832125395E+02  0.13554116320E+03  0.14942741039E+03  0.00000000000E+00 0.  1.
</event>
<event>
 5    1  0.4881333E-005  0.3272491E+03  0.7818608E-02  0.1014781E+00
         21   -1    0    0  501  502  0.00000000000E+00  0.00000000000E+00  0.16477899190E+03  0.16477899190E+03  0.00000000000E+00 0. -1.
         -4   -1    0    0    0  501 -0.00000000000E+00 -0.00000000000E+00 -0.22215321094E+04  0.22215321094E+04  0.00000000000E+00 0. -1.
        -13    1    1    2    0    0 -0.15751657559E+03 -0.90891679007E+02 -0.24190006640E+03  0.30263579132E+03  0.10566000000E+00 0.  1.
         13    1    1    2    0    0 -0.32278153184E+02  0.33412163880E+03 -0.11315461944E+03  0.35423597750E+03  0.10566000000E+00 0. -1.
         -4    1    1    2    0  502  0.18979472878E+03 -0.24322995980E+03 -0.17016984317E+04  0.17294393325E+04  0.00000000000E+00 0. -1.
</event>
<event>
 5    1  0.4881333E-005  0.4981527E+03  0.7818608E-02  0.1010179E+00
         -4   -1    0    0    0  501 -0.00000000000E+00  0.00000000000E+00  0.20930699577E+04  0.20930699577E+04  0.00000000000E+00 0. -1.
         21   -1    0    0  501  502  0.00000000000E+00 -0.00000000000E+00 -0.13964369387E+03  0.13964369387E+03  0.00000000000E+00 0. -1.
        -13    1    1    2    0    0 -0.64640405534E+01 -0.59379603904E+02  0.26198616513E+03  0.26870891884E+03  0.10566000000E+00 0.  1.
         13    1    1    2    0    0  0.26991411801E+03 -0.39141136354E+03  0.83986389141E+03  0.96510509991E+03  0.10566000000E+00 0. -1.
         -4    1    1    2    0  502 -0.26345007746E+03  0.45079096745E+03  0.85157620733E+03  0.99889963286E+03  0.00000000000E+00 0. -1.
</event>
<event>
 5    1  0.4881333E-005  0.2268367E+03  0.7818608E-02  0.1056355E+00
          4   -1    0    0  502    0 -0.00000000000E+00  0.00000000000E+00  0.67196216099E+03  0.67196216099E+03  0.00000000000E+00 0.  1.
         21   -1    0    0  501  502  0.00000000000E+00 -0.00000000000E+00 -0.24169388376E+03  0.24169388376E+03  0.00000000000E+00 0.  1.
        -13    1    1    2    0    0 -0.23901733176E+03  0.31580821711E+02  0.12554997302E+03  0.27182612102E+03  0.10566000000E+00 0.  1.
         13    1    1    2    0    0  0.71858444784E+02  0.13522025982E+03  0.36695303042E+03  0.39762129275E+03  0.10566000000E+00 0. -1.
          4    1    1    2  501    0  0.16715888698E+03 -0.16680108153E+03 -0.62234726217E+02  0.24420863097E+03  0.00000000000E+00 0.  1.
</event>
<event>
 5    1  0.4881333E-005  0.1409773E+03  0.7818608E-02  0.1167237E+00
          4   -1    0    0  502    0 -0.00000000000E+00  0.00000000000E+00  0.34480829802E+03  0.34480829802E+03  0.00000000000E+00 0.  1.
         21   -1    0    0  501  502  0.00000000000E+00 -0.00000000000E+00 -0.61540448688E+03  0.61540448688E+03  0.00000000000E+00 0.  1.
        -13    1    1    2    0    0 -0.14404829651E+03  0.91072685310E+02  0.29393234336E+03  0.33976518270E+03  0.10566000000E+00 0.  1.
         13    1    1    2    0    0  0.19099729709E+02 -0.27467048338E+02  0.50787311810E+01  0.33838485394E+02  0.10566000000E+00 0. -1.
          4    1    1    2  501    0  0.12494856681E+03 -0.63605636973E+02 -0.56960726340E+03  0.58660911680E+03  0.00000000000E+00 0.  1.
</event>
<event>
 5    1  0.4881333E-005  0.9320376E+02  0.7818608E-02  0.1176318E+00
          4   -1    0    0  502    0 -0.00000000000E+00  0.00000000000E+00  0.56444957043E+03  0.56444957043E+03  0.00000000000E+00 0.  1.
         21   -1    0    0  501  502  0.00000000000E+00 -0.00000000000E+00 -0.15359228404E+03  0.15359228404E+03  0.00000000000E+00 0.  1.
        -13    1    1    2    0    0 -0.77935333271E+02  0.54903995513E+02  0.52635119458E+03  0.53491490547E+03  0.10566000000E+00 0.  1.
         13    1    1    2    0    0  0.62144304700E+02 -0.38318617779E+02 -0.82591286827E+01  0.73474182172E+02  0.10566000000E+00 0. -1.
          4    1    1    2  501    0  0.15791028571E+02 -0.16585377733E+02 -0.10723477950E+03  0.10965276682E+03  0.00000000000E+00 0.  1.
</event>
<event>
 5    1  0.4881333E-005  0.2806961E+03  0.7818608E-02  0.1015608E+00
          4   -1    0    0  502    0 -0.00000000000E+00  0.00000000000E+00  0.30479649808E+04  0.30479649808E+04  0.00000000000E+00 0.  1.
         21   -1    0    0  501  502  0.00000000000E+00 -0.00000000000E+00 -0.40816302980E+02  0.40816302980E+02  0.00000000000E+00 0. -1.
        -13    1    1    2    0    0  0.57740711770E+02 -0.32315447470E+03  0.11822659569E+04  0.12269945429E+04  0.10566000000E+00 0.  1.
         13    1    1    2    0    0 -0.11554678141E+03  0.23191218097E+03  0.13667796670E+04  0.13911222044E+04  0.10566000000E+00 0. -1.
          4    1    1    2  501    0  0.57806069636E+02  0.91242293730E+02  0.45810305394E+03  0.47066453646E+03  0.00000000000E+00 0.  1.
</event>
<event>
 5    1  0.4881333E-005  0.4609813E+03  0.7818608E-02  0.9650984E-01
         21   -1    0    0  501  502  0.00000000000E+00  0.00000000000E+00  0.61007772116E+03  0.61007772116E+03  0.00000000000E+00 0.  1.
          4   -1    0    0  502    0 -0.00000000000E+00 -0.00000000000E+00 -0.88531687995E+03  0.88531687995E+03  0.00000000000E+00 0.  1.
        -13    1    1    2    0    0 -0.95938129847E+02  0.52469103036E+03  0.27730983088E+03  0.60117015525E+03  0.10566000000E+00 0.  1.
         13    1    1    2    0    0  0.27116935288E+03 -0.21031853556E+03 -0.26887685304E+03  0.43596040830E+03  0.10566000000E+00 0. -1.
          4    1    1    2  501    0 -0.17523122304E+03 -0.31437249481E+03 -0.28367213664E+03  0.45826403756E+03  0.00000000000E+00 0.  1.
</event>
<event>
 5    1  0.4881333E-005  0.2774422E+03  0.7818608E-02  0.1017077E+00
          4   -1    0    0  502    0 -0.00000000000E+00  0.00000000000E+00  0.14471070395E+04  0.14471070395E+04  0.00000000000E+00 0.  1.
         21   -1    0    0  501  502  0.00000000000E+00 -0.00000000000E+00 -0.29399315069E+03  0.29399315069E+03  0.00000000000E+00 0.  1.
        -13    1    1    2    0    0  0.12029572509E+03 -0.29759275409E+03  0.98947894650E+03  0.10402408882E+04  0.10566000000E+00 0.  1.
         13    1    1    2    0    0 -0.25910621132E+03  0.69459077381E+02  0.29880476077E+03  0.40155309536E+03  0.10566000000E+00 0. -1.
          4    1    1    2  501    0  0.13881048622E+03  0.22813367671E+03 -0.13516981842E+03  0.29930620666E+03  0.00000000000E+00 0.  1.
</event>
<event>
 5    1  0.4881333E-005  0.4604161E+03  0.7818608E-02  0.9849280E-01
         21   -1    0    0  501  502  0.00000000000E+00  0.00000000000E+00  0.12251454965E+03  0.12251454965E+03  0.00000000000E+00 0. -1.
         -4   -1    0    0    0  501 -0.00000000000E+00 -0.00000000000E+00 -0.29317388909E+04  0.29317388909E+04  0.00000000000E+00 0. -1.
        -13    1    1    2    0    0 -0.88344473617E+02 -0.14971111859E+03 -0.10168161476E+04  0.10315683469E+04  0.10566000000E+00 0.  1.
         13    1    1    2    0    0 -0.10203909024E+03  0.51270532979E+03 -0.90374625715E+03  0.10440479106E+04  0.10566000000E+00 0. -1.
         -4    1    1    2    0  502  0.19038356386E+03 -0.36299421120E+03 -0.88866193646E+03  0.97863718306E+03  0.00000000000E+00 0. -1.
</event>
<event>
 5    1  0.4881333E-005  0.4782326E+03  0.7818608E-02  0.9836791E-01
          4   -1    0    0  502    0 -0.00000000000E+00  0.00000000000E+00  0.60102169191E+03  0.60102169191E+03  0.00000000000E+00 0.  1.
         21   -1    0    0  501  502  0.00000000000E+00 -0.00000000000E+00 -0.62844691663E+03  0.62844691663E+03  0.00000000000E+00 0.  1.
        -13    1    1    2    0    0 -0.16494386667E+03 -0.46356798832E+03 -0.25771142947E+03  0.55544302227E+03  0.10566000000E+00 0.  1.
         13    1    1    2    0    0 -0.12779068412E+03  0.99269502113E+02  0.94358483359E+02  0.18731905280E+03  0.10566000000E+00 0. -1.
          4    1    1    2  501    0  0.29273455078E+03  0.36429848620E+03  0.13592772140E+03  0.48670653347E+03  0.00000000000E+00 0.  1.
</event>
<event>
 5    1  0.4881333E-005  0.5364152E+03  0.7818608E-02  0.9442305E-01
         21   -1    0    0  501  502  0.00000000000E+00  0.00000000000E+00  0.97712601471E+03  0.97712601471E+03  0.00000000000E+00 0.  1.
         -4   -1    0    0    0  501 -0.00000000000E+00 -0.00000000000E+00 -0.84114722166E+03  0.84114722166E+03  0.00000000000E+00 0. -1.
        -13    1    1    2    0    0 -0.46242481246E+03 -0.34734567525E+03 -0.20522753799E+03  0.61368076295E+03  0.10566000000E+00 0.  1.
         13    1    1    2    0    0  0.28539995055E+03 -0.33518661557E+03  0.55192309288E+02  0.44367713622E+03  0.10566000000E+00 0. -1.
         -4    1    1    2    0  502  0.17702486191E+03  0.68253229082E+03  0.28601402176E+03  0.76091533720E+03  0.00000000000E+00 0. -1.
</event>
<event>
 5    1  0.4881333E-005  0.4995583E+03  0.7818608E-02  0.9517405E-01
         21   -1    0    0  501  502  0.00000000000E+00  0.00000000000E+00  0.41402591346E+03  0.41402591346E+03  0.00000000000E+00 0.  1.
          4   -1    0    0  502    0 -0.00000000000E+00 -0.00000000000E+00 -0.14720935985E+04  0.14720935985E+04  0.00000000000E+00 0.  1.
        -13    1    1    2    0    0 -0.30175465993E+03  0.23234127964E+03 -0.57556480293E+03  0.69015447440E+03  0.10566000000E+00 0.  1.
         13    1    1    2    0    0 -0.31148701323E+03 -0.30275645923E+03 -0.36552055697E+03  0.56770672159E+03  0.10566000000E+00 0. -1.
          4    1    1    2  501    0  0.61324167315E+03  0.70415179594E+02 -0.11698232517E+03  0.62825831599E+03  0.00000000000E+00 0.  1.
</event>
<event>
 5    1  0.4881333E-005  0.2685393E+03  0.7818608E-02  0.1021209E+00
         21   -1    0    0  501  502  0.00000000000E+00  0.00000000000E+00  0.20846246228E+03  0.20846246228E+03  0.00000000000E+00 0. -1.
         -4   -1    0    0    0  501 -0.00000000000E+00 -0.00000000000E+00 -0.21912444466E+04  0.21912444466E+04  0.00000000000E+00 0. -1.
        -13    1    1    2    0    0  0.51290535297E+02 -0.20728534313E+03 -0.39641568693E+02  0.21718516897E+03  0.10566000000E+00 0.  1.
         13    1    1    2    0    0  0.37747295281E+01  0.34574325853E+03 -0.13967284101E+03  0.37290905470E+03  0.10566000000E+00 0. -1.
         -4    1    1    2    0  502 -0.55065264825E+02 -0.13845791540E+03 -0.18034675746E+04  0.18096126852E+04  0.00000000000E+00 0. -1.
</event>
<event>
 5    1  0.4881333E-005  0.3878930E+03  0.7818608E-02  0.9764677E-01
          4   -1    0    0  502    0 -0.00000000000E+00  0.00000000000E+00  0.89226030060E+03  0.89226030060E+03  0.00000000000E+00 0.  1.
         21   -1    0    0  501  502  0.00000000000E+00 -0.00000000000E+00 -0.93390338114E+03  0.93390338114E+03  0.00000000000E+00 0. -1.
        -13    1    1    2    0    0  0.47944761925E+03  0.15049756452E+03 -0.77039022678E+03  0.91979380799E+03  0.10566000000E+00 0.  1.
         13    1    1    2    0    0 -0.37897594369E+03 -0.28315954140E+02  0.49312015462E+03  0.62256891764E+03  0.10566000000E+00 0. -1.
          4    1    1    2  501    0 -0.10047167556E+03 -0.12218161038E+03  0.23562699162E+03  0.28380095610E+03  0.00000000000E+00 0.  1.
</event>
<event>
 5    1  0.4881333E-005  0.3675083E+03  0.7818608E-02  0.9869488E-01
          4   -1    0    0  502    0 -0.00000000000E+00  0.00000000000E+00  0.88731340349E+03  0.88731340349E+03  0.00000000000E+00 0.  1.
         21   -1    0    0  501  502  0.00000000000E+00 -0.00000000000E+00 -0.53357396249E+03  0.53357396249E+03  0.00000000000E+00 0.  1.
        -13    1    1    2    0    0  0.16984381756E+03  0.58425424280E+00  0.59125533008E+03  0.61516675807E+03  0.10566000000E+00 0.  1.
         13    1    1    2    0    0  0.12240303044E+03 -0.29489202643E+03  0.15879384723E+02  0.31968105220E+03  0.10566000000E+00 0. -1.
          4    1    1    2  501    0 -0.29224684801E+03  0.29430777219E+03 -0.25339527380E+03  0.48603955572E+03  0.00000000000E+00 0.  1.
</event>
<event>
 5    1  0.4881333E-005  0.4179154E+03  0.7818608E-02  0.9678684E-01
         -4   -1    0    0    0  501 -0.00000000000E+00  0.00000000000E+00  0.49873195871E+03  0.49873195871E+03  0.00000000000E+00 0. -1.
         21   -1    0    0  501  502  0.00000000000E+00 -0.00000000000E+00 -0.16511730660E+04  0.16511730660E+04  0.00000000000E+00 0. -1.
        -13    1    1    2    0    0 -0.35835056572E+03 -0.18956764983E+03  0.18154518620E+03  0.44419555109E+03  0.10566000000E+00 0.  1.
         13    1    1    2    0    0  0.21984637624E+03  0.51528184387E+03 -0.35137300871E+03  0.66129479824E+03  0.10566000000E+00 0. -1.
         -4    1    1    2    0  502  0.13850418947E+03 -0.32571419403E+03 -0.98261328480E+03  0.10444146754E+04  0.00000000000E+00 0. -1.
</event>
<event>
 5    1  0.4881333E-005  0.2184515E+03  0.7818608E-02  0.1048173E+00
         21   -1    0    0  501  502  0.00000000000E+00  0.00000000000E+00  0.33524446371E+03  0.33524446371E+03  0.00000000000E+00 0.  1.
          4   -1    0    0  502    0 -0.00000000000E+00 -0.00000000000E+00 -0.67082496383E+03  0.67082496383E+03  0.00000000000E+00 0.  1.
        -13    1    1    2    0    0  0.36841991796E+02  0.21886613810E+03 -0.45200230027E+03  0.50355318426E+03  0.10566000000E+00 0.  1.
         13    1    1    2    0    0 -0.38354126485E+02 -0.20715365966E+03 -0.13538983699E+03  0.25042782763E+03  0.10566000000E+00 0. -1.
          4    1    1    2  501    0  0.15121346883E+01 -0.11712478440E+02  0.25181163714E+03  0.25208841564E+03  0.00000000000E+00 0.  1.
</event>
<event>
 5    1  0.4881333E-005  0.4369948E+03  0.7818608E-02  0.9820001E-01
          4   -1    0    0  502    0 -0.00000000000E+00  0.00000000000E+00  0.30954914689E+04  0.30954914689E+04  0.00000000000E+00 0.  1.
         21   -1    0    0  501  502  0.00000000000E+00 -0.00000000000E+00 -0.14641188803E+03  0.14641188803E+03  0.00000000000E+00 0.  1.
        -13    1    1    2    0    0 -0.32683689138E+03  0.36890574291E+03  0.38730298921E+03  0.62683125108E+03  0.10566000000E+00 0.  1.
         13    1    1    2    0    0  0.20205300114E+03 -0.97909739189E+02  0.12251449440E+04  0.12455488258E+04  0.10566000000E+00 0. -1.
          4    1    1    2  501    0  0.12478389023E+03 -0.27099600372E+03  0.13366316476E+04  0.13695232801E+04  0.00000000000E+00 0.  1.
</event>
<event>
 5    1  0.4881333E-005  0.5937010E+03  0.7818608E-02  0.9293335E-01
         21   -1    0    0  501  502  0.00000000000E+00  0.00000000000E+00  0.15263126210E+04  0.15263126210E+04  0.00000000000E+00 0.  1.
          4   -1    0    0  502    0 -0.00000000000E+00 -0.00000000000E+00 -0.55067560788E+03  0.55067560788E+03  0.00000000000E+00 0.  1.
        -13    1    1    2    0    0  0.38237030194E+03 -0.45231257706E+03  0.61133470008E+03  0.85118966268E+03  0.10566000000E+00 0.  1.
         13    1    1    2    0    0 -0.66965434706E+03  0.57250330608E+02  0.28882266467E+03  0.73152791313E+03  0.10566000000E+00 0. -1.
          4    1    1    2  501    0  0.28728404513E+03  0.39506224645E+03  0.75479648363E+02  0.49427065306E+03  0.00000000000E+00 0.  1.
</event>
<event>
 5    1  0.4881333E-005  0.5163240E+02  0.7818608E-02  0.1285282E+00
          4   -1    0    0  502    0 -0.00000000000E+00  0.00000000000E+00  0.24010160051E+03  0.24010160051E+03  0.00000000000E+00 0.  1.
         21   -1    0    0  501  502  0.00000000000E+00 -0.00000000000E+00 -0.72811807411E+02  0.72811807411E+02  0.00000000000E+00 0.  1.
        -13    1    1    2    0    0  0.49943662160E+02 -0.79303133308E+01  0.17917136862E+03  0.18617102287E+03  0.10566000000E+00 0.  1.
         13    1    1    2    0    0 -0.51553996828E+02  0.30974042211E+02  0.38435775349E+02  0.71375947423E+02  0.10566000000E+00 0. -1.
          4    1    1    2  501    0  0.16103346682E+01 -0.23043728881E+02 -0.50317350862E+02  0.55366437634E+02  0.00000000000E+00 0.  1.
</event>
<event>
 5    1  0.4881333E-005  0.2016081E+03  0.7818608E-02  0.1059039E+00
          4   -1    0    0  502    0 -0.00000000000E+00  0.00000000000E+00  0.12578202744E+04  0.12578202744E+04  0.00000000000E+00 0.  1.
         21   -1    0    0  501  502  0.00000000000E+00 -0.00000000000E+00 -0.59651773008E+02  0.59651773008E+02  0.00000000000E+00 0. -1.
        -13    1    1    2    0    0 -0.90176339463E+02  0.18714997840E+03  0.92229268438E+03  0.94539975324E+03  0.10566000000E+00 0.  1.
         13    1    1    2    0    0  0.40894728023E+02 -0.17760423932E+03  0.14826315065E+03  0.23494173237E+03  0.10566000000E+00 0. -1.
          4    1    1    2  501    0  0.49281611440E+02 -0.95457390815E+01  0.12761266640E+03  0.13713056183E+03  0.00000000000E+00 0.  1.
</event>
<event>
 5    1  0.4881333E-005  0.4481591E+03  0.7818608E-02  0.9776608E-01
         21   -1    0    0  501  502  0.00000000000E+00  0.00000000000E+00  0.22450099862E+03  0.22450099862E+03  0.00000000000E+00 0.  1.
          4   -1    0    0  502    0 -0.00000000000E+00 -0.00000000000E+00 -0.18341671966E+04  0.18341671966E+04  0.00000000000E+00 0.  1.
        -13    1    1    2    0    0 -0.53427713995E+03  0.24885542835E+03 -0.90666938176E+03  0.10814020832E+04  0.10566000000E+00 0.  1.
         13    1    1    2    0    0  0.13639575250E+03 -0.19918661239E+03 -0.42690752532E+03  0.49043771694E+03  0.10566000000E+00 0. -1.
          4    1    1    2  501    0  0.39788138745E+03 -0.49668815960E+02 -0.27608929094E+03  0.48682839515E+03  0.00000000000E+00 0.  1.
</event>
<event>
 5    1  0.4881333E-005  0.8281986E+03  0.7818608E-02  0.8955299E-01
         21   -1    0    0  501  502  0.00000000000E+00  0.00000000000E+00  0.67355254921E+03  0.67355254921E+03  0.00000000000E+00 0.  1.
          4   -1    0    0  502    0 -0.00000000000E+00 -0.00000000000E+00 -0.13903835204E+04  0.13903835204E+04  0.00000000000E+00 0.  1.
        -13    1    1    2    0    0  0.60236629819E+03  0.70484802410E+03 -0.61171030486E+03  0.11107859391E+04  0.10566000000E+00 0.  1.
         13    1    1    2    0    0 -0.46677706592E+03 -0.54165932239E+03 -0.16269197456E+03  0.73331053487E+03  0.10566000000E+00 0. -1.
          4    1    1    2  501    0 -0.13558923228E+03 -0.16318870171E+03  0.57571308230E+02  0.21983959563E+03  0.00000000000E+00 0.  1.
</event>
<event>
 5    1  0.4881333E-005  0.3688429E+03  0.7818608E-02  0.9886832E-01
         -4   -1    0    0    0  501 -0.00000000000E+00  0.00000000000E+00  0.18044266017E+04  0.18044266017E+04  0.00000000000E+00 0. -1.
         21   -1    0    0  501  502  0.00000000000E+00 -0.00000000000E+00 -0.38187708428E+03  0.38187708428E+03  0.00000000000E+00 0. -1.
        -13    1    1    2    0    0 -0.31105007111E+02  0.40920251639E+03  0.90373623028E+03  0.99254894387E+03  0.10566000000E+00 0.  1.
         13    1    1    2    0    0  0.15675899388E+03  0.24199763523E+03 -0.81043934401E+02  0.29950687486E+03  0.10566000000E+00 0. -1.
         -4    1    1    2    0  502 -0.12565398677E+03 -0.65120015162E+03  0.59985722155E+03  0.89424786727E+03  0.00000000000E+00 0. -1.
</event>
<event>
 5    1  0.4881333E-005  0.3064831E+02  0.7818608E-02  0.1415888E+00
         -4   -1    0    0    0  501 -0.00000000000E+00  0.00000000000E+00  0.46602738820E+03  0.46602738820E+03  0.00000000000E+00 0. -1.
         21   -1    0    0  501  502  0.00000000000E+00 -0.00000000000E+00 -0.54787656872E+01  0.54787656872E+01  0.00000000000E+00 0. -1.
        -13    1    1    2    0    0 -0.22626372383E+02  0.62720871304E+01  0.10608949387E+03  0.10865672403E+03  0.10566000000E+00 0.  1.
         13    1    1    2    0    0  0.38539302035E+02 -0.27307055904E+02  0.27762105768E+03  0.28161039742E+03  0.10566000000E+00 0. -1.
         -4    1    1    2    0  502 -0.15912929652E+02  0.21034968774E+02  0.76838070962E+02  0.81239032433E+02  0.00000000000E+00 0. -1.
</event>
<event>
 5    1  0.4881333E-005  0.3305706E+02  0.7818608E-02  0.1381920E+00
         21   -1    0    0  501  502  0.00000000000E+00  0.00000000000E+00  0.93094984704E+01  0.93094984704E+01  0.00000000000E+00 0.  1.
         -4   -1    0    0    0  501 -0.00000000000E+00 -0.00000000000E+00 -0.29685959415E+03  0.29685959415E+03  0.00000000000E+00 0. -1.
        -13    1    1    2    0    0 -0.32355829174E+02  0.24396341002E+02 -0.13116492423E+03  0.13728193490E+03  0.10566000000E+00 0.  1.
         13    1    1    2    0    0  0.27750109697E+02 -0.11107854442E+02 -0.15083401666E+03  0.15376724217E+03  0.10566000000E+00 0. -1.
         -4    1    1    2    0  502  0.46057194763E+01 -0.13288486560E+02 -0.55511547875E+01  0.15119915556E+02  0.00000000000E+00 0. -1.
</event>
<event>
 5    1  0.4881333E-005  0.4988557E+03  0.7818608E-02  0.9769111E-01
         -4   -1    0    0    0  501 -0.00000000000E+00  0.00000000000E+00  0.18383105775E+04  0.18383105775E+04  0.00000000000E+00 0. -1.
         21   -1    0    0  501  502  0.00000000000E+00 -0.00000000000E+00 -0.21538022830E+03  0.21538022830E+03  0.00000000000E+00 0. -1.
        -13    1    1    2    0    0  0.34990785183E+02  0.17615730269E+03  0.51870675246E+03  0.54891935341E+03  0.10566000000E+00 0.  1.
         13    1    1    2    0    0  0.24521432518E+03 -0.50203798527E+03  0.42922390398E+03  0.70456041248E+03  0.10566000000E+00 0. -1.
         -4    1    1    2    0  502 -0.28020511036E+03  0.32588068258E+03  0.67499969273E+03  0.80021103987E+03  0.00000000000E+00 0. -1.
</event>
<event>
 5    1  0.4881333E-005  0.4927176E+03  0.7818608E-02  0.1020360E+00
         21   -1    0    0  501  502  0.00000000000E+00  0.00000000000E+00  0.97906084543E+03  0.97906084543E+03  0.00000000000E+00 0.  1.
          4   -1    0    0  502    0 -0.00000000000E+00 -0.00000000000E+00 -0.34196631508E+03  0.34196631508E+03  0.00000000000E+00 0.  1.
        -13    1    1    2    0    0 -0.49894948913E+03  0.10990068026E+03  0.32039273839E+03  0.60305909346E+03  0.10566000000E+00 0.  1.
         13    1    1    2    0    0  0.25893901160E+02 -0.36378224233E+02 -0.83040446488E+02  0.94284655340E+02  0.10566000000E+00 0. -1.
          4    1    1    2  501    0  0.47305558797E+03 -0.73522456029E+02  0.39974223844E+03  0.62368341171E+03  0.00000000000E+00 0.  1.
</event>
<event>
 5    1  0.4881333E-005  0.5343165E+02  0.7818608E-02  0.1293641E+00
          4   -1    0    0  502    0 -0.00000000000E+00  0.00000000000E+00  0.42852491570E+02  0.42852491570E+02  0.00000000000E+00 0.  1.
         21   -1    0    0  501  502  0.00000000000E+00 -0.00000000000E+00 -0.20225036583E+03  0.20225036583E+03  0.00000000000E+00 0. -1.
        -13    1    1    2    0    0  0.18752731516E+02  0.11846348536E+02  0.25680871387E+02  0.33934042379E+02  0.10566000000E+00 0.  1.
         13    1    1    2    0    0  0.38851924869E+02  0.71750439805E+01 -0.55875231919E+02  0.68432492489E+02  0.10566000000E+00 0. -1.
          4    1    1    2  501    0 -0.57604656385E+02 -0.19021392516E+02 -0.12920351373E+03  0.14273632253E+03  0.00000000000E+00 0.  1.
</event>
<event>
 5    1  0.4881333E-005  0.4748365E+03  0.7818608E-02  0.9651879E-01
         -4   -1    0    0    0  501 -0.00000000000E+00  0.00000000000E+00  0.16777418420E+04  0.16777418420E+04  0.00000000000E+00 0. -1.
         21   -1    0    0  501  502  0.00000000000E+00 -0.00000000000E+00 -0.43682110063E+03  0.43682110063E+03  0.00000000000E+00 0. -1.
        -13    1    1    2    0    0 -0.14723866244E+03  0.27621943783E+03  0.99010775690E+03  0.10384073300E+04  0.10566000000E+00 0.  1.
         13    1    1    2    0    0 -0.99037756235E+02 -0.54596099213E+03 -0.10671557888E+03  0.56503991719E+03  0.10566000000E+00 0. -1.
         -4    1    1    2    0  502  0.24627641867E+03  0.26974155430E+03  0.35752856337E+03  0.51111569545E+03  0.00000000000E+00 0. -1.
</event>
<event>
 5    1  0.4881333E-005  0.1236065E+03  0.7818608E-02  0.1130509E+00
         21   -1    0    0  501  502  0.00000000000E+00  0.00000000000E+00  0.53035644715E+02  0.53035644715E+02  0.00000000000E+00 0.  1.
         -4   -1    0    0    0  501 -0.00000000000E+00 -0.00000000000E+00 -0.66908814530E+03  0.66908814530E+03  0.00000000000E+00 0. -1.
        -13    1    1    2    0    0 -0.10667433886E+03  0.92089502430E+02 -0.29230319883E+03  0.32450125152E+03  0.10566000000E+00 0.  1.
         13    1    1    2    0    0  0.46144688112E+02 -0.10804848438E+03 -0.31271722882E+03  0.33405970062E+03  0.10566000000E+00 0. -1.
         -4    1    1    2    0  502  0.60529650745E+02  0.15958981952E+02 -0.11032072936E+02  0.63562837866E+02  0.00000000000E+00 0. -1.
</event>
<event>
 5    1  0.4881333E-005  0.2112318E+03  0.7818608E-02  0.1091987E+00
         21   -1    0    0  501  502  0.00000000000E+00  0.00000000000E+00  0.76932941627E+03  0.76932941627E+03  0.00000000000E+00 0.  1.
          4   -1    0    0  502    0 -0.00000000000E+00 -0.00000000000E+00 -0.38286427145E+03  0.38286427145E+03  0.00000000000E+00 0.  1.
        -13    1    1    2    0    0  0.17577276194E+03  0.94000619253E+02 -0.30925081997E+03  0.36792425998E+03  0.10566000000E+00 0.  1.
         13    1    1    2    0    0  0.33784596152E+02 -0.60035699478E+02  0.14044694738E+02  0.70306107582E+02  0.10566000000E+00 0. -1.
          4    1    1    2  501    0 -0.20955735809E+03 -0.33964919775E+02  0.68167127006E+03  0.71396332016E+03  0.00000000000E+00 0.  1.
</event>
<event>
 5    1  0.4881333E-005  0.4522020E+03  0.7818608E-02  0.1011695E+00
          4   -1    0    0  502    0 -0.00000000000E+00  0.00000000000E+00  0.10428464466E+04  0.10428464466E+04  0.00000000000E+00 0.  1.
         21   -1    0    0  501  502  0.00000000000E+00 -0.00000000000E+00 -0.29952742937E+03  0.29952742937E+03  0.00000000000E+00 0.  1.
        -13    1    1    2    0    0  0.82380331577E+02 -0.40037125510E+03  0.57336866054E+03  0.70415573064E+03  0.10566000000E+00 0.  1.
         13    1    1    2    0    0  0.59720463077E+02 -0.47105503119E+02  0.15013406651E+03  0.16830243975E+03  0.10566000000E+00 0. -1.
          4    1    1    2  501    0 -0.14210079465E+03  0.44747675821E+03  0.19816290161E+02  0.46991570557E+03  0.00000000000E+00 0.  1.
</event>
<event>
 5    1  0.4881333E-005  0.4521465E+03  0.7818608E-02  0.9817739E-01
         21   -1    0    0  501  502  0.00000000000E+00  0.00000000000E+00  0.34635192665E+03  0.34635192665E+03  0.00000000000E+00 0.  1.
          4   -1    0    0  502    0 -0.00000000000E+00 -0.00000000000E+00 -0.12999705094E+04  0.12999705094E+04  0.00000000000E+00 0.  1.
        -13    1    1    2    0    0  0.24278325858E+02 -0.41994683175E+03 -0.21452922989E+02  0.42119475029E+03  0.10566000000E+00 0.  1.
         13    1    1    2    0    0  0.17514209657E+03 -0.10512018315E+03 -0.41079531908E+03  0.45877860917E+03  0.10566000000E+00 0. -1.
          4    1    1    2  501    0 -0.19942042243E+03  0.52506701491E+03 -0.52137034069E+03  0.76634907658E+03  0.00000000000E+00 0.  1.
</event>
<event>
 5    1  0.4881333E-005  0.3017741E+02  0.7818608E-02  0.1428972E+00
         21   -1    0    0  501  502  0.00000000000E+00  0.00000000000E+00  0.12569520315E+02  0.12569520315E+02  0.00000000000E+00 0. -1.
         -4   -1    0    0    0  501 -0.00000000000E+00 -0.00000000000E+00 -0.19150101382E+03  0.19150101382E+03  0.00000000000E+00 0. -1.
        -13    1    1    2    0    0 -0.18046340376E+02 -0.83785675089E+01 -0.26616246017E+02  0.33231107573E+02  0.10566000000E+00 0.  1.
         13    1    1    2    0    0  0.36660934971E+02 -0.13656623948E+02 -0.12549589227E+03  0.13145249207E+03  0.10566000000E+00 0. -1.
         -4    1    1    2    0  502 -0.18614594595E+02  0.22035191457E+02 -0.26819355220E+02  0.39386934495E+02  0.00000000000E+00 0. -1.
</event>
<event>
 5    1  0.4881333E-005  0.1448597E+03  0.7818608E-02  0.1106295E+00
         21   -1    0    0  501  502  0.00000000000E+00  0.00000000000E+00  0.27076919911E+02  0.27076919911E+02  0.00000000000E+00 0. -1.
          4   -1    0    0  502    0 -0.00000000000E+00 -0.00000000000E+00 -0.12517279191E+04  0.12517279191E+04  0.00000000000E+00 0.  1.
        -13    1    1    2    0    0  0.10730030617E+03 -0.96456440431E+02 -0.52335169637E+03  0.54287586966E+03  0.10566000000E+00 0.  1.
         13    1    1    2    0    0 -0.12073565892E+03  0.81892901478E+02 -0.70109571686E+03  0.71611365161E+03  0.10566000000E+00 0. -1.
          4    1    1    2  501    0  0.13435352756E+02  0.14563538953E+02 -0.20358596945E+00  0.19815317756E+02  0.00000000000E+00 0.  1.
</event>
<event>
 5    1  0.4881333E-005  0.2896209E+03  0.7818608E-02  0.1011684E+00
         21   -1    0    0  501  502  0.00000000000E+00  0.00000000000E+00  0.69756886986E+03  0.69756886986E+03  0.00000000000E+00 0.  1.
         -4   -1    0    0    0  501 -0.00000000000E+00 -0.00000000000E+00 -0.89032120911E+03  0.89032120911E+03  0.00000000000E+00 0. -1.
        -13    1    1    2    0    0  0.20790998437E+03 -0.22582611981E+03  0.58142646045E+03  0.65748059900E+03  0.10566000000E+00 0.  1.
         13    1    1    2    0    0 -0.20390446171E+03  0.20472126769E+03 -0.82558917979E+03  0.87469156386E+03  0.10566000000E+00 0. -1.
         -4    1    1    2    0  502 -0.40055226622E+01  0.21104852121E+02  0.51410380089E+02  0.55717916111E+02  0.00000000000E+00 0. -1.
</event>
<event>
 5    1  0.4881333E-005  0.3020097E+03  0.7818608E-02  0.1006479E+00
         21   -1    0    0  501  502  0.00000000000E+00  0.00000000000E+00  0.11564090669E+03  0.11564090669E+03  0.00000000000E+00 0.  1.
         -4   -1    0    0    0  501 -0.00000000000E+00 -0.00000000000E+00 -0.10175725598E+04  0.10175725598E+04  0.00000000000E+00 0. -1.
        -13    1    1    2    0    0  0.15201679807E+03  0.26659770497E+03 -0.52526121185E+03  0.60834430632E+03  0.10566000000E+00 0.  1.
         13    1    1    2    0    0 -0.15199611698E+03 -0.25434474219E+03 -0.40043082526E+03  0.49813544788E+03  0.10566000000E+00 0. -1.
         -4    1    1    2    0  502 -0.20681094910E-01 -0.12252962785E+02  0.23760384007E+02  0.26733712291E+02  0.00000000000E+00 0. -1.
</event>
<event>
 5    1  0.4881333E-005  0.3251416E+03  0.7818608E-02  0.1011824E+00
         21   -1    0    0  501  502  0.00000000000E+00  0.00000000000E+00  0.70313381000E+03  0.70313381000E+03  0.00000000000E+00 0.  1.
         -4   -1    0    0    0  501 -0.00000000000E+00 -0.00000000000E+00 -0.13636128279E+04  0.13636128279E+04  0.00000000000E+00 0. -1.
        -13    1    1    2    0    0  0.54787036841E+03  0.21270429204E+02 -0.72588309403E+03  0.90968161964E+03  0.10566000000E+00 0.  1.
         13    1    1    2    0    0 -0.16385124883E+03  0.12437046550E+03 -0.45191724468E+03  0.49653242757E+03  0.10566000000E+00 0. -1.
         -4    1    1    2    0  502 -0.38401911959E+03 -0.14564089470E+03  0.51732132080E+03  0.66053259070E+03  0.00000000000E+00 0. -1.
</event>
<event>
 5    1  0.4881333E-005  0.3042088E+03  0.7818608E-02  0.1030287E+00
         21   -1    0    0  501  502  0.00000000000E+00  0.00000000000E+00  0.26616527555E+03  0.26616527555E+03  0.00000000000E+00 0.  1.
          4   -1    0    0  502    0 -0.00000000000E+00 -0.00000000000E+00 -0.10552187718E+04  0.10552187718E+04  0.00000000000E+00 0.  1.
        -13    1    1    2    0    0  0.11436848625E+03  0.26702471428E+03  0.64083771895E+02  0.29747115771E+03  0.10566000000E+00 0.  1.
         13    1    1    2    0    0  0.12515975819E+03  0.60941190312E+02 -0.11148993072E+03  0.17835024407E+03  0.10566000000E+00 0. -1.
          4    1    1    2  501    0 -0.23952824443E+03 -0.32796590460E+03 -0.74164733740E+03  0.84556264554E+03  0.00000000000E+00 0.  1.
</event>
<event>
 5    1  0.4881333E-005  0.4846230E+03  0.7818608E-02  0.9648074E-01
         21   -1    0    0  501  502  0.00000000000E+00  0.00000000000E+00  0.68923272002E+03  0.68923272002E+03  0.00000000000E+00 0.  1.
          4   -1    0    0  502    0 -0.00000000000E+00 -0.00000000000E+00 -0.70852397113E+03  0.70852397113E+03  0.00000000000E+00 0.  1.
        -13    1    1    2    0    0 -0.15090359152E+03 -0.46091373356E+03 -0.83769454589E+02  0.49216937776E+03  0.10566000000E+00 0.  1.
         13    1    1    2    0    0  0.29628277999E+03 -0.35472355741E+02 -0.16359140860E+03  0.34029977060E+03  0.10566000000E+00 0. -1.
          4    1    1    2  501    0 -0.14537918847E+03  0.49638608930E+03  0.22806961207E+03  0.56528754279E+03  0.00000000000E+00 0.  1.
</event>
<event>
 5    1  0.4881333E-005  0.6376534E+02  0.7818608E-02  0.1244101E+00
         -4   -1    0    0    0  501 -0.00000000000E+00  0.00000000000E+00  0.13346389246E+03  0.13346389246E+03  0.00000000000E+00 0. -1.
         21   -1    0    0  501  502  0.00000000000E+00 -0.00000000000E+00 -0.72161146008E+02  0.72161146008E+02  0.00000000000E+00 0. -1.
        -13    1    1    2    0    0 -0.47037514431E+02  0.26710701105E+02  0.44362340722E+02  0.69957256634E+02  0.10566000000E+00 0.  1.
         13    1    1    2    0    0  0.78458165511E+02 -0.28579629913E+02  0.43797718442E+02  0.94290669136E+02  0.10566000000E+00 0. -1.
         -4    1    1    2    0  502 -0.31420651080E+02  0.18689288080E+01 -0.26857312712E+02  0.41377112699E+02  0.00000000000E+00 0. -1.
</event>
<event>
 5    1  0.4881333E-005  0.1012157E+03  0.7818608E-02  0.1172682E+00
         21   -1    0    0  501  502  0.00000000000E+00  0.00000000000E+00  0.13641551783E+03  0.13641551783E+03  0.00000000000E+00 0.  1.
          4   -1    0    0  502    0 -0.00000000000E+00 -0.00000000000E+00 -0.19594160689E+03  0.19594160689E+03  0.00000000000E+00 0.  1.
        -13    1    1    2    0    0 -0.11798367095E+03 -0.77230293348E+02 -0.60702007034E+02  0.15352331954E+03  0.10566000000E+00 0.  1.
         13    1    1    2    0    0  0.35499444233E+02  0.70960214981E+02  0.38369073851E+02  0.88134894584E+02  0.10566000000E+00 0. -1.
          4    1    1    2  501    0  0.82484226712E+02  0.62700783673E+01 -0.37193155873E+02  0.90698910594E+02  0.00000000000E+00 0.  1.
</event>
<event>
 5    1  0.4881333E-005  0.4342105E+03  0.7818608E-02  0.9992882E-01
          4   -1    0    0  502    0 -0.00000000000E+00  0.00000000000E+00  0.12136238946E+04  0.12136238946E+04  0.00000000000E+00 0.  1.
         21   -1    0    0  501  502  0.00000000000E+00 -0.00000000000E+00 -0.23164532443E+03  0.23164532443E+03  0.00000000000E+00 0.  1.
        -13    1    1    2    0    0  0.31744127697E+03 -0.37341501161E+03  0.24494775648E+03  0.54791162589E+03  0.10566000000E+00 0.  1.
         13    1    1    2    0    0 -0.10082943275E+03  0.79582479900E+02  0.31002122364E+03  0.33557877747E+03  0.10566000000E+00 0. -1.
          4    1    1    2  501    0 -0.21661184421E+03  0.29383253171E+03  0.42700959009E+03  0.56177881571E+03  0.00000000000E+00 0.  1.
</event>
<event>
 5    1  0.4881333E-005  0.1474340E+03  0.7818608E-02  0.1103670E+00
         21   -1    0    0  501  502  0.00000000000E+00  0.00000000000E+00  0.15266632526E+03  0.15266632526E+03  0.00000000000E+00 0.  1.
          4   -1    0    0  502    0 -0.00000000000E+00 -0.00000000000E+00 -0.46369114869E+03  0.46369114869E+03  0.00000000000E+00 0.  1.
        -13    1    1    2    0    0  0.13807916983E+03  0.26027711612E+02 -0.11711230249E+03  0.18291692505E+03  0.10566000000E+00 0.  1.
         13    1    1    2    0    0 -0.14954986987E+03 -0.22990907575E+02 -0.29506322533E+03  0.33159623567E+03  0.10566000000E+00 0. -1.
          4    1    1    2  501    0  0.11470700045E+02 -0.30368040374E+01  0.10115070439E+03  0.10184431322E+03  0.00000000000E+00 0.  1.
</event>
<event>
 5    1  0.4881333E-005  0.7290810E+03  0.7818608E-02  0.9081827E-01
          4   -1    0    0  502    0 -0.00000000000E+00  0.00000000000E+00  0.91295113787E+03  0.91295113787E+03  0.00000000000E+00 0.  1.
         21   -1    0    0  501  502  0.00000000000E+00 -0.00000000000E+00 -0.20379576321E+04  0.20379576321E+04  0.00000000000E+00 0. -1.
        -13    1    1    2    0    0 -0.54663552524E+03 -0.15185883792E+03 -0.14240894683E+03  0.58493745256E+03  0.10566000000E+00 0.  1.
         13    1    1    2    0    0  0.82633151113E+03  0.18679230607E+03  0.41279230821E+03  0.94239727970E+03  0.10566000000E+00 0. -1.
          4    1    1    2  501    0 -0.27969598589E+03 -0.34933468155E+02 -0.13953898556E+04  0.14235740377E+04  0.00000000000E+00 0.  1.
</event>
<event>
 5    1  0.4881333E-005  0.5495036E+03  0.7818608E-02  0.9475194E-01
         -4   -1    0    0    0  501 -0.00000000000E+00  0.00000000000E+00  0.69030420506E+03  0.69030420506E+03  0.00000000000E+00 0. -1.
         21   -1    0    0  501  502  0.00000000000E+00 -0.00000000000E+00 -0.96731738367E+03  0.96731738367E+03  0.00000000000E+00 0. -1.
        -13    1    1    2    0    0  0.18519502132E+03  0.33240828920E+03  0.15625249561E+03  0.41134817393E+03  0.10566000000E+00 0.  1.
         13    1    1    2    0    0 -0.57436125752E+03 -0.46421121226E+03 -0.38423624347E+03  0.83247847161E+03  0.10566000000E+00 0. -1.
         -4    1    1    2    0  502  0.38916623620E+03  0.13180292306E+03 -0.49029430748E+02  0.41379494319E+03  0.00000000000E+00 0. -1.
</event>
<event>
 5    1  0.4881333E-005  0.4588557E+03  0.7818608E-02  0.9652673E-01
         21   -1    0    0  501  502  0.00000000000E+00  0.00000000000E+00  0.21563703310E+03  0.21563703310E+03  0.00000000000E+00 0.  1.
          4   -1    0    0  502    0 -0.00000000000E+00 -0.00000000000E+00 -0.24957362082E+04  0.24957362082E+04  0.00000000000E+00 0.  1.
        -13    1    1    2    0    0 -0.47276251521E+03  0.31048964555E+03 -0.91576247808E+03  0.10763499167E+04  0.10566000000E+00 0.  1.
         13    1    1    2    0    0  0.32800097961E+03  0.10982912597E+03 -0.10067155965E+04  0.10644826832E+04  0.10566000000E+00 0. -1.
          4    1    1    2  501    0  0.14476153560E+03 -0.42031877151E+03 -0.35762110052E+03  0.57054064133E+03  0.00000000000E+00 0.  1.
</event>
<event>
 5    1  0.4881333E-005  0.4978151E+03  0.7818608E-02  0.9774943E-01
         21   -1    0    0  501  502  0.00000000000E+00  0.00000000000E+00  0.41352195032E+03  0.41352195032E+03  0.00000000000E+00 0.  1.
          4   -1    0    0  502    0 -0.00000000000E+00 -0.00000000000E+00 -0.86305484078E+03  0.86305484078E+03  0.00000000000E+00 0.  1.
        -13    1    1    2    0    0  0.57554562821E+03 -0.79786566858E+02 -0.11333426848E+03  0.59199943748E+03  0.10566000000E+00 0.  1.
         13    1    1    2    0    0 -0.15710205196E+03  0.81849651181E+02 -0.11577489498E+03  0.21162291370E+03  0.10566000000E+00 0. -1.
          4    1    1    2  501    0 -0.41844357624E+03 -0.20630843225E+01 -0.22042372700E+03  0.47295443992E+03  0.00000000000E+00 0.  1.
</event>
<event>
 5    1  0.4881333E-005  0.4150559E+02  0.7818608E-02  0.1341465E+00
         21   -1    0    0  501  502  0.00000000000E+00  0.00000000000E+00  0.53484243640E+03  0.53484243640E+03  0.00000000000E+00 0.  1.
         -4   -1    0    0    0  501 -0.00000000000E+00 -0.00000000000E+00 -0.10967110950E+03  0.10967110950E+03  0.00000000000E+00 0. -1.
        -13    1    1    2    0    0 -0.23920511063E+02 -0.64431796674E+02  0.27861710899E+03  0.28696890399E+03  0.10566000000E+00 0.  1.
         13    1    1    2    0    0  0.24941580523E+02  0.22938770158E+02 -0.10100106905E+03  0.10653401677E+03  0.10566000000E+00 0. -1.
         -4    1    1    2    0  502 -0.10210694602E+01  0.41493026516E+02  0.24755528696E+03  0.25101062514E+03  0.00000000000E+00 0. -1.
</event>
<event>
 5    1  0.4881333E-005  0.4415418E+03  0.7818608E-02  0.9928698E-01
         21   -1    0    0  501  502  0.00000000000E+00  0.00000000000E+00  0.12668023655E+03  0.12668023655E+03  0.00000000000E+00 0. -1.
         -4   -1    0    0    0  501 -0.00000000000E+00 -0.00000000000E+00 -0.26955943292E+04  0.26955943292E+04  0.00000000000E+00 0. -1.
        -13    1    1    2    0    0  0.11695892089E+03 -0.95532602279E+02 -0.38731241909E+03  0.41571238666E+03  0.10566000000E+00 0.  1.
         13    1    1    2    0    0  0.17669374893E+03  0.41484905544E+03 -0.51536540689E+03  0.68477874785E+03  0.10566000000E+00 0. -1.
         -4    1    1    2    0  502 -0.29365266982E+03 -0.31931645317E+03 -0.16662362666E+04  0.17217834312E+04  0.00000000000E+00 0. -1.
</event>
<event>
 5    1  0.4881333E-005  0.1233261E+03  0.7818608E-02  0.1212453E+00
         -4   -1    0    0    0  501 -0.00000000000E+00  0.00000000000E+00  0.65616652445E+03  0.65616652445E+03  0.00000000000E+00 0. -1.
         21   -1    0    0  501  502  0.00000000000E+00 -0.00000000000E+00 -0.44889379577E+03  0.44889379577E+03  0.00000000000E+00 0. -1.
        -13    1    1    2    0    0 -0.26871078668E+01 -0.17325664154E+02  0.92970887579E+02  0.94609705043E+02  0.10566000000E+00 0.  1.
         13    1    1    2    0    0  0.48246128420E+02 -0.11324919794E+03 -0.43081929557E+03  0.44806065029E+03  0.10566000000E+00 0. -1.
         -4    1    1    2    0  502 -0.45559020553E+02  0.13057486210E+03  0.54512113667E+03  0.56238996489E+03  0.00000000000E+00 0. -1.
</event>
<event>
 5    1  0.4881333E-005  0.4864312E+03  0.7818608E-02  0.1037303E+00
          4   -1    0    0  502    0 -0.00000000000E+00  0.00000000000E+00  0.21488851188E+04  0.21488851188E+04  0.00000000000E+00 0.  1.
         21   -1    0    0  501  502  0.00000000000E+00 -0.00000000000E+00 -0.12123372322E+03  0.12123372322E+03  0.00000000000E+00 0.  1.
        -13    1    1    2    0    0  0.26745966834E+02  0.47881479499E+03  0.11564135248E+04  0.12519070277E+04  0.10566000000E+00 0.  1.
         13    1    1    2    0    0 -0.24354606599E+02  0.12679381854E+02  0.99772468247E+02  0.10348173834E+03  0.10566000000E+00 0. -1.
          4    1    1    2  501    0 -0.23913602352E+01 -0.49149417684E+03  0.77146540250E+03  0.91473007589E+03  0.00000000000E+00 0.  1.
</event>
<event>
 5    1  0.4881333E-005  0.2715439E+02  0.7818608E-02  0.1429326E+00
         -4   -1    0    0    0  501 -0.00000000000E+00  0.00000000000E+00  0.27118048131E+03  0.27118048131E+03  0.00000000000E+00 0. -1.
         21   -1    0    0  501  502  0.00000000000E+00 -0.00000000000E+00 -0.56891676725E+01  0.56891676725E+01  0.00000000000E+00 0.  1.
        -13    1    1    2    0    0  0.20575468667E+02  0.28256615148E+01  0.30840092200E+02  0.37181402943E+02  0.10566000000E+00 0.  1.
         13    1    1    2    0    0 -0.28359404514E+02  0.11755367694E+02  0.17975656161E+03  0.18235919801E+03  0.10566000000E+00 0. -1.
         -4    1    1    2    0  502  0.77839358474E+01 -0.14581029208E+02  0.54894659825E+02  0.57329048024E+02  0.00000000000E+00 0. -1.
</event>
<event>
 5    1  0.4881333E-005  0.5231233E+03  0.7818608E-02  0.9428681E-01
         21   -1    0    0  501  502  0.00000000000E+00  0.00000000000E+00  0.25351107072E+03  0.25351107072E+03  0.00000000000E+00 0.  1.
          4   -1    0    0  502    0 -0.00000000000E+00 -0.00000000000E+00 -0.24502084206E+04  0.24502084206E+04  0.00000000000E+00 0.  1.
        -13    1    1    2    0    0  0.60100379670E+03 -0.19131711587E+03 -0.13334887385E+04  0.14751271231E+04  0.10566000000E+00 0.  1.
         13    1    1    2    0    0 -0.37094748281E+03  0.25609053517E+03 -0.88028468339E+03  0.98898206869E+03  0.10566000000E+00 0. -1.
          4    1    1    2  501    0 -0.23005631389E+03 -0.64773419299E+02  0.17076071993E+02  0.23961029953E+03  0.00000000000E+00 0.  1.
</event>
<event>
 5    1  0.4881333E-005  0.1992722E+03  0.7818608E-02  0.1098975E+00
         -4   -1    0    0    0  501 -0.00000000000E+00  0.00000000000E+00  0.11336149069E+03  0.11336149069E+03  0.00000000000E+00 0. -1.
         21   -1    0    0  501  502  0.00000000000E+00 -0.00000000000E+00 -0.10687609284E+04  0.10687609284E+04  0.00000000000E+00 0. -1.
        -13    1    1    2    0    0  0.58951988091E+02 -0.33467094889E+02  0.56728216531E+02  0.88393919785E+02  0.10566000000E+00 0.  1.
         13    1    1    2    0    0  0.55131339561E+02  0.19635463018E+03 -0.64121567884E+03  0.67286860779E+03  0.10566000000E+00 0. -1.
         -4    1    1    2    0  502 -0.11408332765E+03 -0.16288753529E+03 -0.37091197544E+03  0.42085989156E+03  0.00000000000E+00 0. -1.
</event>
<event>
 5    1  0.4881333E-005  0.2618001E+03  0.7818608E-02  0.1025374E+00
         -4   -1    0    0    0  501 -0.00000000000E+00  0.00000000000E+00  0.22033010099E+04  0.22033010099E+04  0.00000000000E+00 0. -1.
         21   -1    0    0  501  502  0.00000000000E+00 -0.00000000000E+00 -0.23699852984E+03  0.23699852984E+03  0.00000000000E+00 0. -1.
        -13    1    1    2    0    0  0.25211017458E+03 -0.33916768676E+02  0.98327749896E+03  0.10156498109E+04  0.10566000000E+00 0.  1.
         13    1    1    2    0    0  0.38845987031E+02  0.25791377288E+03 -0.10132706925E+03  0.27981370781E+03  0.10566000000E+00 0. -1.
         -4    1    1    2    0  502 -0.29095616161E+03 -0.22399700420E+03  0.10843520504E+04  0.11448360210E+04  0.00000000000E+00 0. -1.
</event>
<event>
 5    1  0.4881333E-005  0.1848304E+03  0.7818608E-02  0.1109160E+00
         21   -1    0    0  501  502  0.00000000000E+00  0.00000000000E+00  0.11801388326E+03  0.11801388326E+03  0.00000000000E+00 0.  1.
          4   -1    0    0  502    0 -0.00000000000E+00 -0.00000000000E+00 -0.59197059762E+03  0.59197059762E+03  0.00000000000E+00 0.  1.
        -13    1    1    2    0    0 -0.44029651556E+02  0.19783107375E+03 -0.72567897157E+02  0.21527158386E+03  0.10566000000E+00 0.  1.
         13    1    1    2    0    0  0.57364953740E+02 -0.29704085651E+02 -0.27886743443E+03  0.28625186073E+03  0.10566000000E+00 0. -1.
          4    1    1    2  501    0 -0.13335302183E+02 -0.16812698810E+03 -0.12252138277E+03  0.20846103628E+03  0.00000000000E+00 0.  1.
</event>
<event>
 5    1  0.4881333E-005  0.5250159E+02  0.7818608E-02  0.1299065E+00
          4   -1    0    0  502    0 -0.00000000000E+00  0.00000000000E+00  0.71693542275E+02  0.71693542275E+02  0.00000000000E+00 0.  1.
         21   -1    0    0  501  502  0.00000000000E+00 -0.00000000000E+00 -0.10179164178E+03  0.10179164178E+03  0.00000000000E+00 0.  1.
        -13    1    1    2    0    0  0.64349391407E+02 -0.46000584198E+02 -0.24820798225E+02  0.82903444498E+02  0.10566000000E+00 0.  1.
         13    1    1    2    0    0 -0.30446959553E+02  0.21830682145E+02  0.19392171859E+02  0.42186058389E+02  0.10566000000E+00 0. -1.
          4    1    1    2  501    0 -0.33902431854E+02  0.24169902053E+02 -0.24669473139E+02  0.48395681170E+02  0.00000000000E+00 0.  1.
</event>
<event>
 5    1  0.4881333E-005  0.1528883E+03  0.7818608E-02  0.1098298E+00
         -4   -1    0    0    0  501 -0.00000000000E+00  0.00000000000E+00  0.12608078551E+04  0.12608078551E+04  0.00000000000E+00 0. -1.
         21   -1    0    0  501  502  0.00000000000E+00 -0.00000000000E+00 -0.40327465026E+02  0.40327465026E+02  0.00000000000E+00 0.  1.
        -13    1    1    2    0    0 -0.15128559791E+03 -0.20250489549E+02  0.28129010534E+03  0.32003366852E+03  0.10566000000E+00 0.  1.
         13    1    1    2    0    0  0.11232577470E+03  0.12150230483E+03  0.68549210525E+03  0.70518035088E+03  0.10566000000E+00 0. -1.
         -4    1    1    2    0  502  0.38959823202E+02 -0.10125181528E+03  0.25369817950E+03  0.27592130074E+03  0.00000000000E+00 0. -1.
</event>
<event>
 5    1  0.4881333E-005  0.5004146E+03  0.7818608E-02  0.9724509E-01
         21   -1    0    0  501  502  0.00000000000E+00  0.00000000000E+00  0.74465893876E+03  0.74465893876E+03  0.00000000000E+00 0.  1.
          4   -1    0    0  502    0 -0.00000000000E+00 -0.00000000000E+00 -0.59896347729E+03  0.59896347729E+03  0.00000000000E+00 0.  1.
        -13    1    1    2    0    0  0.58162582940E+03 -0.15655280204E+03  0.28983290343E+03  0.66843137892E+03  0.10566000000E+00 0.  1.
         13    1    1    2    0    0 -0.20726717762E+03  0.10389863239E+02 -0.17591693465E+03  0.27205589726E+03  0.10566000000E+00 0. -1.
          4    1    1    2  501    0 -0.37435865178E+03  0.14616293880E+03  0.31779492682E+02  0.40313513987E+03  0.00000000000E+00 0.  1.
</event>
<event>
 5    1  0.4881333E-005  0.3737502E+03  0.7818608E-02  0.9808076E-01
         21   -1    0    0  501  502  0.00000000000E+00  0.00000000000E+00  0.52333582154E+03  0.52333582154E+03  0.00000000000E+00 0.  1.
         -4   -1    0    0    0  501 -0.00000000000E+00 -0.00000000000E+00 -0.49329675051E+03  0.49329675051E+03  0.00000000000E+00 0. -1.
        -13    1    1    2    0    0 -0.25902608372E+03 -0.25931133361E+03  0.34047817268E+03  0.50026220827E+03  0.10566000000E+00 0.  1.
         13    1    1    2    0    0  0.27648874433E+03  0.25376758352E+03 -0.32217557066E+03  0.49461209213E+03  0.10566000000E+00 0. -1.
         -4    1    1    2    0  502 -0.17462660604E+02  0.55437500861E+01  0.11736469001E+02  0.21758271646E+02  0.00000000000E+00 0. -1.
</event>
<event>
 5    1  0.4881333E-005  0.4902494E+03  0.7818608E-02  0.9499603E-01
          4   -1    0    0  502    0 -0.00000000000E+00  0.00000000000E+00  0.90468672276E+03  0.90468672276E+03  0.00000000000E+00 0.  1.
         21   -1    0    0  501  502  0.00000000000E+00 -0.00000000000E+00 -0.66153743542E+03  0.66153743542E+03  0.00000000000E+00 0.  1.
        -13    1    1    2    0    0 -0.45218319364E+03 -0.22945951569E+03  0.46692838388E+03  0.68930648973E+03  0.10566000000E+00 0.  1.
         13    1    1    2    0    0  0.41259646476E+03  0.21470904892E+03  0.15920419972E+03  0.49161143883E+03  0.10566000000E+00 0. -1.
          4    1    1    2  501    0  0.39586728881E+02  0.14750466769E+02 -0.38298329625E+03  0.38530622961E+03  0.00000000000E+00 0.  1.
</event>
<event>
 5    1  0.4881333E-005  0.8728637E+02  0.7818608E-02  0.1187498E+00
         -4   -1    0    0    0  501 -0.00000000000E+00  0.00000000000E+00  0.90168230745E+02  0.90168230745E+02  0.00000000000E+00 0. -1.
         21   -1    0    0  501  502  0.00000000000E+00 -0.00000000000E+00 -0.25449055309E+03  0.25449055309E+03  0.00000000000E+00 0.  1.
        -13    1    1    2    0    0  0.32316552212E+02 -0.10636891941E+03 -0.77501970892E+02  0.13551853460E+03  0.10566000000E+00 0.  1.
         13    1    1    2    0    0 -0.70336666828E+02  0.47931349138E+02  0.14307521376E+02  0.86309775012E+02  0.10566000000E+00 0. -1.
         -4    1    1    2    0  502  0.38020114616E+02  0.58437570275E+02 -0.10112787283E+03  0.12283047422E+03  0.00000000000E+00 0. -1.
</event>
<event>
 5    1  0.4881333E-005  0.3876492E+03  0.7818608E-02  0.9765408E-01
         21   -1    0    0  501  502  0.00000000000E+00  0.00000000000E+00  0.11151309207E+03  0.11151309207E+03  0.00000000000E+00 0.  1.
          4   -1    0    0  502    0 -0.00000000000E+00 -0.00000000000E+00 -0.39737637324E+04  0.39737637324E+04  0.00000000000E+00 0.  1.
        -13    1    1    2    0    0 -0.48696330944E+02 -0.57687253621E+03 -0.16727035556E+04  0.17700537991E+04  0.10566000000E+00 0.  1.
         13    1    1    2    0    0 -0.21195285760E+02  0.33161562020E+03 -0.19023032119E+04  0.19311073717E+04  0.10566000000E+00 0. -1.
          4    1    1    2  501    0  0.69891616704E+02  0.24525691601E+03 -0.28724387286E+03  0.38411565372E+03  0.00000000000E+00 0.  1.
</event>
<event>
 5    1  0.4881333E-005  0.3760828E+03  0.7818608E-02  0.9902045E-01
         -4   -1    0    0    0  501 -0.00000000000E+00  0.00000000000E+00  0.14799355162E+04  0.14799355162E+04  0.00000000000E+00 0. -1.
         21   -1    0    0  501  502  0.00000000000E+00 -0.00000000000E+00 -0.57179306987E+03  0.57179306987E+03  0.00000000000E+00 0. -1.
        -13    1    1    2    0    0 -0.23646191197E+03  0.12423404662E+03  0.10252630005E+04  0.10594869351E+04  0.10566000000E+00 0.  1.
         13    1    1    2    0    0 -0.13271624119E+03  0.30650913575E+03 -0.24061686932E+03  0.41165269335E+03  0.10566000000E+00 0. -1.
         -4    1    1    2    0  502  0.36917815316E+03 -0.43074318237E+03  0.12349631513E+03  0.58058895768E+03  0.00000000000E+00 0. -1.
</event>
<event>
 5    1  0.4881333E-005  0.4560545E+03  0.7818608E-02  0.9600137E-01
         21   -1    0    0  501  502  0.00000000000E+00  0.00000000000E+00  0.50141155483E+03  0.50141155483E+03  0.00000000000E+00 0.  1.
          4   -1    0    0  502    0 -0.00000000000E+00 -0.00000000000E+00 -0.14430967311E+04  0.14430967311E+04  0.00000000000E+00 0.  1.
        -13    1    1    2    0    0 -0.31012816318E+03  0.96721799623E+02 -0.50562623876E+02  0.32877222239E+03  0.10566000000E+00 0.  1.
         13    1    1    2    0    0 -0.33949389837E+03  0.32910833322E+03 -0.64732995067E+03  0.80162614617E+03  0.10566000000E+00 0. -1.
          4    1    1    2  501    0  0.64962206155E+03 -0.42583013284E+03 -0.24379260170E+03  0.81410991736E+03  0.00000000000E+00 0.  1.
</event>
<event>
 5    1  0.4881333E-005  0.1572851E+03  0.7818608E-02  0.1094141E+00
         21   -1    0    0  501  502  0.00000000000E+00  0.00000000000E+00  0.51944847716E+03  0.51944847716E+03  0.00000000000E+00 0.  1.
         -4   -1    0    0    0  501 -0.00000000000E+00 -0.00000000000E+00 -0.10856060413E+03  0.10856060413E+03  0.00000000000E+00 0. -1.
        -13    1    1    2    0    0  0.14435114177E+03 -0.32686582308E+02  0.22632214118E+03  0.27042076020E+03  0.10566000000E+00 0.  1.
         13    1    1    2    0    0 -0.15272064748E+03  0.48347746295E+02 -0.11609556774E+02  0.16061100121E+03  0.10566000000E+00 0. -1.
         -4    1    1    2    0  502  0.83695057037E+01 -0.15661163986E+02  0.19617528862E+03  0.19697731988E+03  0.00000000000E+00 0. -1.
</event>
<event>
 5    1  0.4881333E-005  0.6220903E+03  0.7818608E-02  0.9244375E-01
          4   -1    0    0  502    0 -0.00000000000E+00  0.00000000000E+00  0.30874368153E+04  0.30874368153E+04  0.00000000000E+00 0.  1.
         21   -1    0    0  501  502  0.00000000000E+00 -0.00000000000E+00 -0.15382050412E+03  0.15382050412E+03  0.00000000000E+00 0. -1.
        -13    1    1    2    0    0 -0.40728445289E+03 -0.50806187471E+03  0.13745007461E+04  0.15209404348E+04  0.10566000000E+00 0.  1.
         13    1    1    2    0    0  0.36977172845E+03  0.47245908936E+03  0.15569596151E+04  0.16685538578E+04  0.10566000000E+00 0. -1.
          4    1    1    2  501    0  0.37512724441E+02  0.35602785350E+02  0.21559500049E+01  0.51763026767E+02  0.00000000000E+00 0.  1.
</event>
<event>
 5    1  0.4881333E-005  0.8238830E+03  0.7818608E-02  0.8960414E-01
         21   -1    0    0  501  502  0.00000000000E+00  0.00000000000E+00  0.10566331418E+04  0.10566331418E+04  0.00000000000E+00 0.  1.
         -4   -1    0    0    0  501 -0.00000000000E+00 -0.00000000000E+00 -0.12427080726E+04  0.12427080726E+04  0.00000000000E+00 0. -1.
        -13    1    1    2    0    0  0.50967386758E+03 -0.77878719056E+03 -0.88187275788E+02  0.93490852293E+03  0.10566000000E+00 0.  1.
         13    1    1    2    0    0 -0.73440203854E+02  0.79356569110E+03 -0.33868043509E+03  0.86593557376E+03  0.10566000000E+00 0. -1.
         -4    1    1    2    0  502 -0.43623366372E+03 -0.14778500546E+02  0.24079278002E+03  0.49849711770E+03  0.00000000000E+00 0. -1.
</event>
<event>
 5    1  0.4881333E-005  0.4222596E+03  0.7818608E-02  0.9666874E-01
         21   -1    0    0  501  502  0.00000000000E+00  0.00000000000E+00  0.67355859360E+03  0.67355859360E+03  0.00000000000E+00 0.  1.
          4   -1    0    0  502    0 -0.00000000000E+00 -0.00000000000E+00 -0.95999752345E+03  0.95999752345E+03  0.00000000000E+00 0.  1.
        -13    1    1    2    0    0  0.40683384345E+03 -0.27246602019E+03 -0.30918960040E+03  0.57909388573E+03  0.10566000000E+00 0.  1.
         13    1    1    2    0    0 -0.63149530680E+02  0.43455034130E+03 -0.31951385776E+03  0.54305706774E+03  0.10566000000E+00 0. -1.
          4    1    1    2  501    0 -0.34368431277E+03 -0.16208432112E+03  0.34226452831E+03  0.51140516358E+03  0.00000000000E+00 0.  1.
</event>
<event>
 5    1  0.4881333E-005  0.2537837E+03  0.7818608E-02  0.1041133E+00
         -4   -1    0    0    0  501 -0.00000000000E+00  0.00000000000E+00  0.43161520660E+03  0.43161520660E+03  0.00000000000E+00 0. -1.
         21   -1    0    0  501  502  0.00000000000E+00 -0.00000000000E+00 -0.11275384491E+04  0.11275384491E+04  0.00000000000E+00 0. -1.
        -13    1    1    2    0    0  0.17135707134E+03 -0.16334234152E+02  0.16008298598E+03  0.23506728115E+03  0.10566000000E+00 0.  1.
         13    1    1    2    0    0 -0.40366092011E+03 -0.53609533951E+02  0.27251534007E+02  0.40811613276E+03  0.10566000000E+00 0. -1.
         -4    1    1    2    0  502  0.23230384877E+03  0.69943768102E+02 -0.88325776248E+03  0.91597024178E+03  0.00000000000E+00 0. -1.
</event>
<event>
 5    1  0.4881333E-005  0.1107142E+03  0.7818608E-02  0.1147951E+00
         21   -1    0    0  501  502  0.00000000000E+00  0.00000000000E+00  0.61489824036E+03  0.61489824036E+03  0.00000000000E+00 0. -1.
          4   -1    0    0  502    0 -0.00000000000E+00 -0.00000000000E+00 -0.30300946099E+02  0.30300946099E+02  0.00000000000E+00 0.  1.
        -13    1    1    2    0    0 -0.12412322455E+03  0.29151437451E+02  0.23679177040E+03  0.26893630263E+03  0.10566000000E+00 0.  1.
         13    1    1    2    0    0  0.97950073612E+02 -0.98679452460E+01  0.17834278429E+03  0.20370997309E+03  0.10566000000E+00 0. -1.
          4    1    1    2  501    0  0.26173150942E+02 -0.19283492205E+02  0.16946273957E+03  0.17255291074E+03  0.00000000000E+00 0.  1.
</event>
<event>
 5    1  0.4881333E-005  0.4796438E+03  0.7818608E-02  0.9618254E-01
          4   -1    0    0  502    0 -0.00000000000E+00  0.00000000000E+00  0.19771685520E+04  0.19771685520E+04  0.00000000000E+00 0.  1.
         21   -1    0    0  501  502  0.00000000000E+00 -0.00000000000E+00 -0.53505586815E+03  0.53505586815E+03  0.00000000000E+00 0.  1.
        -13    1    1    2    0    0 -0.33640613510E+03  0.30163379656E+02  0.28093558949E+03  0.43932190227E+03  0.10566000000E+00 0.  1.
         13    1    1    2    0    0 -0.17622303287E+03 -0.29307772238E+03  0.14059492502E+04  0.14469424363E+04  0.10566000000E+00 0. -1.
          4    1    1    2  501    0  0.51262916796E+03  0.26291434273E+03 -0.24477215584E+03  0.62596008158E+03  0.00000000000E+00 0.  1.
</event>
<event>
 5    1  0.4881333E-005  0.5424175E+03  0.7818608E-02  0.9609107E-01
         -4   -1    0    0    0  501 -0.00000000000E+00  0.00000000000E+00  0.14172330957E+04  0.14172330957E+04  0.00000000000E+00 0. -1.
         21   -1    0    0  501  502  0.00000000000E+00 -0.00000000000E+00 -0.34224080205E+03  0.34224080205E+03  0.00000000000E+00 0. -1.
        -13    1    1    2    0    0 -0.40771965152E+02 -0.24082846524E+03  0.35992802378E+03  0.43498148958E+03  0.10566000000E+00 0.  1.
         13    1    1    2    0    0  0.54579299511E+03 -0.17236774539E+02  0.31443945326E+03  0.63012640068E+03  0.10566000000E+00 0. -1.
         -4    1    1    2    0  502 -0.50502102996E+03  0.25806523978E+03  0.40062481665E+03  0.69436600752E+03  0.00000000000E+00 0. -1.
</event>
<event>
 5    1  0.4881333E-005  0.1672254E+03  0.7818608E-02  0.1085264E+00
          4   -1    0    0  502    0 -0.00000000000E+00  0.00000000000E+00  0.26685694200E+03  0.26685694200E+03  0.00000000000E+00 0.  1.
         21   -1    0    0  501  502  0.00000000000E+00 -0.00000000000E+00 -0.21990878457E+03  0.21990878457E+03  0.00000000000E+00 0. -1.
        -13    1    1    2    0    0 -0.16418350772E+03  0.44044898709E+02  0.63374383615E+02  0.18141802825E+03  0.10566000000E+00 0.  1.
         13    1    1    2    0    0  0.16307260882E+03 -0.27325087593E+02  0.96325131463E+02  0.19135798462E+03  0.10566000000E+00 0. -1.
          4    1    1    2  501    0  0.11108988974E+01 -0.16719811117E+02 -0.11275135764E+03  0.11398971371E+03  0.00000000000E+00 0.  1.
</event>
<event>
 5    1  0.4881333E-005  0.3882754E+03  0.7818608E-02  0.9944736E-01
          4   -1    0    0  502    0 -0.00000000000E+00  0.00000000000E+00  0.24946092923E+04  0.24946092923E+04  0.00000000000E+00 0.  1.
         21   -1    0    0  501  502  0.00000000000E+00 -0.00000000000E+00 -0.20930659371E+03  0.20930659371E+03  0.00000000000E+00 0.  1.
        -13    1    1    2    0    0  0.40082427066E+03 -0.12251743815E+03  0.62375375452E+02  0.42374676073E+03  0.10566000000E+00 0.  1.
         13    1    1    2    0    0 -0.19672354538E+03 -0.75091432496E+02  0.12087640710E+04  0.12269675901E+04  0.10566000000E+00 0. -1.
          4    1    1    2  501    0 -0.20410072528E+03  0.19760887065E+03  0.10141632521E+04  0.10532015352E+04  0.00000000000E+00 0.  1.
</event>
<event>
 5    1  0.4881333E-005  0.3059235E+02  0.7818608E-02  0.1400214E+00
          4   -1    0    0  502    0 -0.00000000000E+00  0.00000000000E+00  0.81309235260E+02  0.81309235260E+02  0.00000000000E+00 0.  1.
         21   -1    0    0  501  502  0.00000000000E+00 -0.00000000000E+00 -0.16738932469E+02  0.16738932469E+02  0.00000000000E+00 0.  1.
        -13    1    1    2    0    0  0.23130854142E+02  0.25769118444E+02  0.38898107153E+02  0.52078381146E+02  0.10566000000E+00 0.  1.
         13    1    1    2    0    0 -0.22172211861E+02 -0.15568381844E+02  0.22578312055E+02  0.35267163642E+02  0.10566000000E+00 0. -1.
          4    1    1    2  501    0 -0.95864228088E+00 -0.10200736599E+02  0.30938835841E+01  0.10702622941E+02  0.00000000000E+00 0.  1.
</event>
<event>
 5    1  0.4881333E-005  0.2772058E+03  0.7818608E-02  0.1017184E+00
          4   -1    0    0  502    0 -0.00000000000E+00  0.00000000000E+00  0.14236718395E+04  0.14236718395E+04  0.00000000000E+00 0.  1.
         21   -1    0    0  501  502  0.00000000000E+00 -0.00000000000E+00 -0.10751928287E+03  0.10751928287E+03  0.00000000000E+00 0. -1.
        -13    1    1    2    0    0  0.18074431264E+03  0.21092957855E+03  0.10890883765E+04  0.11239543125E+04  0.10566000000E+00 0.  1.
         13    1    1    2    0    0 -0.13784251016E+03 -0.24262216112E+03  0.21571964043E+03  0.35270532333E+03  0.10566000000E+00 0. -1.
          4    1    1    2  501    0 -0.42901802480E+02  0.31692582565E+02  0.11344539758E+02  0.54531486574E+02  0.00000000000E+00 0.  1.
</event>
<event>
 5    1  0.4881333E-005  0.2361020E+03  0.7818608E-02  0.1037858E+00
         21   -1    0    0  501  502  0.00000000000E+00  0.00000000000E+00  0.15398075243E+03  0.15398075243E+03  0.00000000000E+00 0.  1.
         -4   -1    0    0    0  501 -0.00000000000E+00 -0.00000000000E+00 -0.58381461313E+03  0.58381461313E+03  0.00000000000E+00 0. -1.
        -13    1    1    2    0    0 -0.12346831537E+03  0.19292254879E+03 -0.31836400870E+03  0.39219789383E+03  0.10566000000E+00 0.  1.
         13    1    1    2    0    0  0.11397245275E+03 -0.22276969396E+03 -0.15321202040E+03  0.29341095906E+03  0.10566000000E+00 0. -1.
         -4    1    1    2    0  502  0.94958626198E+01  0.29847145178E+02  0.41742168397E+02  0.52186512670E+02  0.00000000000E+00 0. -1.
</event>
<event>
 5    1  0.4881333E-005  0.1219769E+03  0.7818608E-02  0.1132582E+00
         21   -1    0    0  501  502  0.00000000000E+00  0.00000000000E+00  0.26733332376E+03  0.26733332376E+03  0.00000000000E+00 0. -1.
         -4   -1    0    0    0  501 -0.00000000000E+00 -0.00000000000E+00 -0.40105854252E+03  0.40105854252E+03  0.00000000000E+00 0. -1.
        -13    1    1    2    0    0  0.12411021987E+03  0.24714571165E+02  0.12337389776E+03  0.17673507438E+03  0.10566000000E+00 0.  1.
         13    1    1    2    0    0 -0.12175182178E+03  0.62908783820E+01 -0.36213974165E+03  0.38211030463E+03  0.10566000000E+00 0. -1.
         -4    1    1    2    0  502 -0.23583980887E+01 -0.31005449547E+02  0.10504062514E+03  0.10954648727E+03  0.00000000000E+00 0. -1.
</event>
<event>
 5    1  0.4881333E-005  0.2541966E+03  0.7818608E-02  0.1028241E+00
         -4   -1    0    0    0  501 -0.00000000000E+00  0.00000000000E+00  0.81582162854E+03  0.81582162854E+03  0.00000000000E+00 0. -1.
         21   -1    0    0  501  502  0.00000000000E+00 -0.00000000000E+00 -0.30082548331E+03  0.30082548331E+03  0.00000000000E+00 0. -1.
        -13    1    1    2    0    0 -0.15472019486E+03 -0.16601043871E+03  0.75393678859E+01  0.22705650771E+03  0.10566000000E+00 0.  1.
         13    1    1    2    0    0  0.18438857021E+03  0.18367852716E+03  0.67243105404E+03  0.72104124693E+03  0.10566000000E+00 0. -1.
         -4    1    1    2    0  502 -0.29668375343E+02 -0.17668088445E+02 -0.16497427670E+03  0.16854935722E+03  0.00000000000E+00 0. -1.
</event>
<event>
 5    1  0.4881333E-005  0.3307361E+03  0.7818608E-02  0.1023149E+00
          4   -1    0    0  502    0 -0.00000000000E+00  0.00000000000E+00  0.23340251125E+04  0.23340251125E+04  0.00000000000E+00 0.  1.
         21   -1    0    0  501  502  0.00000000000E+00 -0.00000000000E+00 -0.15841505934E+03  0.15841505934E+03  0.00000000000E+00 0.  1.
        -13    1    1    2    0    0 -0.36990457282E+03  0.15936464892E+03  0.14773104802E+04  0.15312324286E+04  0.10566000000E+00 0.  1.
         13    1    1    2    0    0  0.48738770098E+02 -0.12616935338E+03  0.61231816895E+03  0.62707872283E+03  0.10566000000E+00 0. -1.
          4    1    1    2  501    0  0.32116580273E+03 -0.33195295540E+02  0.85981404104E+02  0.33412902050E+03  0.00000000000E+00 0.  1.
</event>
<event>
 5    1  0.4881333E-005  0.2589362E+03  0.7818608E-02  0.1025863E+00
          4   -1    0    0  502    0 -0.00000000000E+00  0.00000000000E+00  0.14040363328E+04  0.14040363328E+04  0.00000000000E+00 0.  1.
         21   -1    0    0  501  502  0.00000000000E+00 -0.00000000000E+00 -0.45382615535E+03  0.45382615535E+03  0.00000000000E+00 0. -1.
        -13    1    1    2    0    0 -0.25060995050E+03 -0.34748313142E+02  0.11661275814E+04  0.11932587061E+04  0.10566000000E+00 0.  1.
         13    1    1    2    0    0  0.32363712610E+03  0.22584244533E+03 -0.43449349279E+02  0.39703105246E+03  0.10566000000E+00 0. -1.
          4    1    1    2  501    0 -0.73027175608E+02 -0.19109413218E+03 -0.17246805464E+03  0.26757272956E+03  0.00000000000E+00 0.  1.
</event>
<event>
 5    1  0.4881333E-005  0.4571085E+03  0.7818608E-02  0.9975124E-01
          4   -1    0    0  502    0 -0.00000000000E+00  0.00000000000E+00  0.13348533025E+04  0.13348533025E+04  0.00000000000E+00 0.  1.
         21   -1    0    0  501  502  0.00000000000E+00 -0.00000000000E+00 -0.32792022043E+03  0.32792022043E+03  0.00000000000E+00 0.  1.
        -13    1    1    2    0    0  0.40997451133E+03  0.99216618642E+02  0.47385347069E+02  0.42446250675E+03  0.10566000000E+00 0.  1.
         13    1    1    2    0    0  0.11312358983E+03  0.28747740580E+02  0.54865856595E+03  0.56093637101E+03  0.10566000000E+00 0. -1.
          4    1    1    2  501    0 -0.52309810116E+03 -0.12796435922E+03  0.41088916902E+03  0.67737464515E+03  0.00000000000E+00 0.  1.
</event>
<event>
 5    1  0.4881333E-005  0.3025644E+03  0.7818608E-02  0.1006253E+00
         -4   -1    0    0    0  501 -0.00000000000E+00  0.00000000000E+00  0.18532273756E+04  0.18532273756E+04  0.00000000000E+00 0. -1.
         21   -1    0    0  501  502  0.00000000000E+00 -0.00000000000E+00 -0.30741991441E+03  0.30741991441E+03  0.00000000000E+00 0. -1.
        -13    1    1    2    0    0 -0.24923553862E+03  0.14284905618E+03  0.10220191415E+04  0.10616248600E+04  0.10566000000E+00 0.  1.
         13    1    1    2    0    0  0.25157028486E+03 -0.21793095353E+03  0.77146646510E+03  0.84020356264E+03  0.10566000000E+00 0. -1.
         -4    1    1    2    0  502 -0.23347462446E+01  0.75081897355E+02 -0.24767814546E+03  0.25881886734E+03  0.00000000000E+00 0. -1.
</event>
<event>
 5    1  0.4881333E-005  0.4052293E+03  0.7818608E-02  0.1017252E+00
         21   -1    0    0  501  502  0.00000000000E+00  0.00000000000E+00  0.76877565090E+03  0.76877565090E+03  0.00000000000E+00 0.  1.
          4   -1    0    0  502    0 -0.00000000000E+00 -0.00000000000E+00 -0.45153986611E+03  0.45153986611E+03  0.00000000000E+00 0.  1.
        -13    1    1    2    0    0 -0.28006564155E+03  0.30088289203E+03  0.53973570918E+03  0.67844080451E+03  0.10566000000E+00 0.  1.
         13    1    1    2    0    0  0.81415008693E+02  0.34815222323E+02 -0.98771265552E+02  0.13265096083E+03  0.10566000000E+00 0. -1.
          4    1    1    2  501    0  0.19865063286E+03 -0.33569811436E+03 -0.12372865883E+03  0.40922375167E+03  0.00000000000E+00 0.  1.
</event>
<event>
 5    1  0.4881333E-005  0.1802400E+03  0.7818608E-02  0.1074597E+00
         21   -1    0    0  501  502  0.00000000000E+00  0.00000000000E+00  0.77517301985E+02  0.77517301985E+02  0.00000000000E+00 0.  1.
         -4   -1    0    0    0  501 -0.00000000000E+00 -0.00000000000E+00 -0.88077311843E+03  0.88077311843E+03  0.00000000000E+00 0. -1.
        -13    1    1    2    0    0  0.20857049275E+03 -0.13854788724E+02 -0.17775707842E+03  0.27439241190E+03  0.10566000000E+00 0.  1.
         13    1    1    2    0    0 -0.16981907029E+03 -0.39601132421E+02 -0.57476019595E+03  0.60062971983E+03  0.10566000000E+00 0. -1.
         -4    1    1    2    0  502 -0.38751422467E+02  0.53455921144E+02 -0.50738542071E+02  0.83268288682E+02  0.00000000000E+00 0. -1.
</event>
<event>
 5    1  0.4881333E-005  0.7680025E+03  0.7818608E-02  0.9029767E-01
         21   -1    0    0  501  502  0.00000000000E+00  0.00000000000E+00  0.55732985728E+03  0.55732985728E+03  0.00000000000E+00 0. -1.
          4   -1    0    0  502    0 -0.00000000000E+00 -0.00000000000E+00 -0.20602549076E+04  0.20602549076E+04  0.00000000000E+00 0.  1.
        -13    1    1    2    0    0  0.36473317387E+03  0.70805522914E+03 -0.49697262782E+03  0.93880471857E+03  0.10566000000E+00 0.  1.
         13    1    1    2    0    0 -0.68783285799E+03 -0.40639957876E+03 -0.93707751785E+03  0.12314174531E+04  0.10566000000E+00 0. -1.
          4    1    1    2  501    0  0.32309968412E+03 -0.30165565038E+03 -0.68874904606E+02  0.44736259317E+03  0.00000000000E+00 0.  1.
</event>
<event>
 5    1  0.4881333E-005  0.3282315E+02  0.7818608E-02  0.1383577E+00
         21   -1    0    0  501  502  0.00000000000E+00  0.00000000000E+00  0.38812409063E+02  0.38812409063E+02  0.00000000000E+00 0. -1.
          4   -1    0    0  502    0 -0.00000000000E+00 -0.00000000000E+00 -0.11542623520E+03  0.11542623520E+03  0.00000000000E+00 0.  1.
        -13    1    1    2    0    0 -0.78967794739E+00  0.33817576278E+02 -0.82175539345E+02  0.88865530366E+02  0.10566000000E+00 0.  1.
         13    1    1    2    0    0 -0.25953871709E+02 -0.25230446314E+02  0.83485154138E+01  0.37146840398E+02  0.10566000000E+00 0. -1.
          4    1    1    2  501    0  0.26743549657E+02 -0.85871299643E+01 -0.27868022084E+01  0.28226273502E+02  0.00000000000E+00 0.  1.
</event>
<event>
 5    1  0.4881333E-005  0.3596783E+03  0.7818608E-02  0.9853321E-01
         21   -1    0    0  501  502  0.00000000000E+00  0.00000000000E+00  0.19172980402E+03  0.19172980402E+03  0.00000000000E+00 0.  1.
          4   -1    0    0  502    0 -0.00000000000E+00 -0.00000000000E+00 -0.24571561151E+04  0.24571561151E+04  0.00000000000E+00 0.  1.
        -13    1    1    2    0    0 -0.21588115468E+03 -0.32993904747E+03 -0.17819856024E+04  0.18250855175E+04  0.10566000000E+00 0.  1.
         13    1    1    2    0    0  0.66064772943E+02  0.30343699364E+03 -0.56974642834E+03  0.64888332318E+03  0.10566000000E+00 0. -1.
          4    1    1    2  501    0  0.14981638173E+03  0.26502053836E+02  0.86305719622E+02  0.17491707845E+03  0.00000000000E+00 0.  1.
</event>
<event>
 5    1  0.4881333E-005  0.5614503E+02  0.7818608E-02  0.1268609E+00
         21   -1    0    0  501  502  0.00000000000E+00  0.00000000000E+00  0.16015629851E+03  0.16015629851E+03  0.00000000000E+00 0. -1.
          4   -1    0    0  502    0 -0.00000000000E+00 -0.00000000000E+00 -0.47547084567E+02  0.47547084567E+02  0.00000000000E+00 0.  1.
        -13    1    1    2    0    0  0.25400388373E+02  0.54068482192E+02 -0.91853352596E+01  0.60439738947E+02  0.10566000000E+00 0.  1.
         13    1    1    2    0    0 -0.42236562758E+02 -0.26674004016E+02  0.83028861033E+02  0.96898052882E+02  0.10566000000E+00 0. -1.
          4    1    1    2  501    0  0.16836174385E+02 -0.27394478176E+02  0.38765688167E+02  0.50365591245E+02  0.00000000000E+00 0.  1.
</event>
<event>
 5    1  0.4881333E-005  0.4408683E+03  0.7818608E-02  0.9795943E-01
         21   -1    0    0  501  502  0.00000000000E+00  0.00000000000E+00  0.11936675015E+03  0.11936675015E+03  0.00000000000E+00 0. -1.
         -4   -1    0    0    0  501 -0.00000000000E+00 -0.00000000000E+00 -0.34574086312E+04  0.34574086312E+04  0.00000000000E+00 0. -1.
        -13    1    1    2    0    0 -0.22336174612E+03  0.80263566892E+02 -0.93219265322E+03  0.96193339877E+03  0.10566000000E+00 0.  1.
         13    1    1    2    0    0  0.42791832158E+03 -0.41175526164E+03 -0.17919890552E+04  0.18878244809E+04  0.10566000000E+00 0. -1.
         -4    1    1    2    0  502 -0.20455657546E+03  0.33149169475E+03 -0.61386017257E+03  0.72701750166E+03  0.00000000000E+00 0. -1.
</event>
<event>
 5    1  0.4881333E-005  0.3304628E+03  0.7818608E-02  0.9954695E-01
         -4   -1    0    0    0  501 -0.00000000000E+00  0.00000000000E+00  0.20729378790E+04  0.20729378790E+04  0.00000000000E+00 0. -1.
         21   -1    0    0  501  502  0.00000000000E+00 -0.00000000000E+00 -0.12570797636E+03  0.12570797636E+03  0.00000000000E+00 0. -1.
        -13    1    1    2    0    0  0.27479624812E+03  0.15538284150E+03  0.81314677886E+03  0.87227547285E+03  0.10566000000E+00 0.  1.
         13    1    1    2    0    0 -0.32444177775E+03 -0.11673102546E+03  0.11919918078E+04  0.12408598150E+04  0.10566000000E+00 0. -1.
         -4    1    1    2    0  502  0.49645529627E+02 -0.38651816032E+02 -0.57908683931E+02  0.85510567587E+02  0.00000000000E+00 0. -1.
</event>
<event>
 5    1  0.4881333E-005  0.4973703E+03  0.7818608E-02  0.9728347E-01
         21   -1    0    0  501  502  0.00000000000E+00  0.00000000000E+00  0.15328680684E+03  0.15328680684E+03  0.00000000000E+00 0.  1.
          4   -1    0    0  502    0 -0.00000000000E+00 -0.00000000000E+00 -0.26016364263E+04  0.26016364263E+04  0.00000000000E+00 0.  1.
        -13    1    1    2    0    0  0.38624501737E+03 -0.36501491179E+03 -0.88143387594E+03  0.10292457375E+04  0.10566000000E+00 0.  1.
         13    1    1    2    0    0  0.68687393085E+02  0.19693538679E+03 -0.72135011873E+03  0.75089780229E+03  0.10566000000E+00 0. -1.
          4    1    1    2  501    0 -0.45493241046E+03  0.16807952500E+03 -0.84556562481E+03  0.97477969340E+03  0.00000000000E+00 0.  1.
</event>
<event>
 5    1  0.4881333E-005  0.2506985E+03  0.7818608E-02  0.1035736E+00
         21   -1    0    0  501  502  0.00000000000E+00  0.00000000000E+00  0.72321300081E+03  0.72321300081E+03  0.00000000000E+00 0.  1.
          4   -1    0    0  502    0 -0.00000000000E+00 -0.00000000000E+00 -0.20266634135E+04  0.20266634135E+04  0.00000000000E+00 0.  1.
        -13    1    1    2    0    0  0.21296425381E+03  0.34813405737E+03 -0.17720387860E+04  0.18184258482E+04  0.10566000000E+00 0.  1.
         13    1    1    2    0    0 -0.54673484447E+01 -0.21031980011E+03 -0.15409892154E+03  0.26078880153E+03  0.10566000000E+00 0. -1.
          4    1    1    2  501    0 -0.20749690537E+03 -0.13781425725E+03  0.62268729485E+03  0.67066176453E+03  0.00000000000E+00 0.  1.
</event>
<event>
 5    1  0.4881333E-005  0.2209489E+03  0.7818608E-02  0.1046652E+00
         21   -1    0    0  501  502  0.00000000000E+00  0.00000000000E+00  0.15352435797E+03  0.15352435797E+03  0.00000000000E+00 0.  1.
          4   -1    0    0  502    0 -0.00000000000E+00 -0.00000000000E+00 -0.13832047813E+04  0.13832047813E+04  0.00000000000E+00 0.  1.
        -13    1    1    2    0    0 -0.21318160550E+03 -0.18850597768E+02 -0.20434973281E+03  0.29590634739E+03  0.10566000000E+00 0.  1.
         13    1    1    2    0    0  0.20950442329E+03  0.80008465685E+02 -0.11121645600E+04  0.11345499009E+04  0.10566000000E+00 0. -1.
          4    1    1    2  501    0  0.36771822080E+01 -0.61157867917E+02  0.86833869461E+02  0.10627289101E+03  0.00000000000E+00 0.  1.
</event>
<event>
 5    1  0.4881333E-005  0.6271133E+03  0.7818608E-02  0.9235998E-01
         21   -1    0    0  501  502  0.00000000000E+00  0.00000000000E+00  0.47638270801E+03  0.47638270801E+03  0.00000000000E+00 0.  1.
         -4   -1    0    0    0  501 -0.00000000000E+00 -0.00000000000E+00 -0.17437007190E+04  0.17437007190E+04  0.00000000000E+00 0. -1.
        -13    1    1    2    0    0  0.46725726557E+03  0.34495413622E+03 -0.73790132995E+03  0.93905329573E+03  0.10566000000E+00 0.  1.
         13    1    1    2    0    0 -0.75284600092E+03 -0.14208091613E+03 -0.52845982176E+03  0.93071686468E+03  0.10566000000E+00 0. -1.
         -4    1    1    2    0  502  0.28558873535E+03 -0.20287322009E+03 -0.95685930798E+00  0.35031326662E+03  0.00000000000E+00 0. -1.
</event>
<event>
 5    1  0.4881333E-005  0.4618822E+03  0.7818608E-02  0.1003192E+00
         21   -1    0    0  501  502  0.00000000000E+00  0.00000000000E+00  0.18946101512E+03  0.18946101512E+03  0.00000000000E+00 0. -1.
         -4   -1    0    0    0  501 -0.00000000000E+00 -0.00000000000E+00 -0.22270306487E+04  0.22270306487E+04  0.00000000000E+00 0. -1.
        -13    1    1    2    0    0 -0.20818605239E+02  0.91597113454E+02 -0.13755886537E+03  0.16657100025E+03  0.10566000000E+00 0.  1.
         13    1    1    2    0    0 -0.49726286395E+02  0.38194840809E+03 -0.16789741024E+04  0.17225885573E+04  0.10566000000E+00 0. -1.
         -4    1    1    2    0  502  0.70544891634E+02 -0.47354552155E+03 -0.22103666586E+03  0.52733210633E+03  0.00000000000E+00 0. -1.
</event>
<event>
 5    1  0.4881333E-005  0.1675033E+03  0.7818608E-02  0.1085543E+00
         21   -1    0    0  501  502  0.00000000000E+00  0.00000000000E+00  0.23688786601E+03  0.23688786601E+03  0.00000000000E+00 0.  1.
          4   -1    0    0  502    0 -0.00000000000E+00 -0.00000000000E+00 -0.17651274365E+04  0.17651274365E+04  0.00000000000E+00 0.  1.
        -13    1    1    2    0    0 -0.16342597794E+03 -0.22891798497E+03 -0.11074985872E+04  0.11426568278E+04  0.10566000000E+00 0.  1.
         13    1    1    2    0    0  0.15221859069E+03  0.63949839956E+02 -0.59597883633E+03  0.61842612000E+03  0.10566000000E+00 0. -1.
          4    1    1    2  501    0  0.11207387251E+02  0.16496814502E+03  0.17523785310E+03  0.24093235474E+03  0.00000000000E+00 0.  1.
</event>
<event>
 5    1  0.4881333E-005  0.4575773E+03  0.7818608E-02  0.9725868E-01
         21   -1    0    0  501  502  0.00000000000E+00  0.00000000000E+00  0.23114511717E+03  0.23114511717E+03  0.00000000000E+00 0.  1.
          4   -1    0    0  502    0 -0.00000000000E+00 -0.00000000000E+00 -0.22578937565E+04  0.22578937565E+04  0.00000000000E+00 0.  1.
        -13    1    1    2    0    0  0.38578387888E+03  0.51097892935E+03 -0.81108967923E+03  0.10333417375E+04  0.10566000000E+00 0.  1.
         13    1    1    2    0    0 -0.98666556173E+02 -0.25150178123E+03 -0.94650556148E+03  0.98430738306E+03  0.10566000000E+00 0. -1.
          4    1    1    2  501    0 -0.28711732271E+03 -0.25947714812E+03 -0.26915339865E+03  0.47138975318E+03  0.00000000000E+00 0.  1.
</event>
<event>
 5    1  0.4881333E-005  0.3408627E+03  0.7818608E-02  0.1006257E+00
         21   -1    0    0  501  502  0.00000000000E+00  0.00000000000E+00  0.28686626864E+03  0.28686626864E+03  0.00000000000E+00 0. -1.
         -4   -1    0    0    0  501 -0.00000000000E+00 -0.00000000000E+00 -0.13620196490E+04  0.13620196490E+04  0.00000000000E+00 0. -1.
        -13    1    1    2    0    0 -0.18232034226E+03  0.10735403593E+03 -0.82399016460E+03  0.85072051742E+03  0.10566000000E+00 0.  1.
         13    1    1    2    0    0  0.18979704760E+03 -0.34985303352E+03  0.61149225886E+02  0.40269008347E+03  0.10566000000E+00 0. -1.
         -4    1    1    2    0  502 -0.74767053449E+01  0.24249899759E+03 -0.31231244166E+03  0.39547531676E+03  0.00000000000E+00 0. -1.
</event>
<event>
 5    1  0.4881333E-005  0.2941150E+03  0.7818608E-02  0.1009765E+00
         21   -1    0    0  501  502  0.00000000000E+00  0.00000000000E+00  0.19343312280E+03  0.19343312280E+03  0.00000000000E+00 0.  1.
          4   -1    0    0  502    0 -0.00000000000E+00 -0.00000000000E+00 -0.23020154420E+04  0.23020154420E+04  0.00000000000E+00 0.  1.
        -13    1    1    2    0    0  0.27030941336E+03 -0.26838759743E+03 -0.14244016853E+04  0.14744555788E+04  0.10566000000E+00 0.  1.
         13    1    1    2    0    0 -0.78286618813E+02  0.23008559686E+03 -0.76982342744E+03  0.80727708822E+03  0.10566000000E+00 0. -1.
          4    1    1    2  501    0 -0.19202279455E+03  0.38302000572E+02  0.85642793597E+02  0.21371589779E+03  0.00000000000E+00 0.  1.
</event>
<event>
 5    1  0.4881333E-005  0.1327116E+03  0.7818608E-02  0.1120515E+00
         -4   -1    0    0    0  501 -0.00000000000E+00  0.00000000000E+00  0.70741068839E+03  0.70741068839E+03  0.00000000000E+00 0. -1.
         21   -1    0    0  501  502  0.00000000000E+00 -0.00000000000E+00 -0.50038586958E+03  0.50038586958E+03  0.00000000000E+00 0. -1.
        -13    1    1    2    0    0  0.79813087499E+02  0.10179618741E+03  0.14023489824E+03  0.19078372718E+03  0.10566000000E+00 0.  1.
         13    1    1    2    0    0 -0.17714619317E+02 -0.21801825627E+03  0.50984032537E+03  0.55478188177E+03  0.10566000000E+00 0. -1.
         -4    1    1    2    0  502 -0.62098468182E+02  0.11622206886E+03 -0.44305040480E+03  0.46223094902E+03  0.00000000000E+00 0. -1.
</event>
<event>
 5    1  0.4881333E-005  0.3716479E+03  0.7818608E-02  0.1011948E+00
         21   -1    0    0  501  502  0.00000000000E+00  0.00000000000E+00  0.55062578549E+03  0.55062578549E+03  0.00000000000E+00 0. -1.
          4   -1    0    0  502    0 -0.00000000000E+00 -0.00000000000E+00 -0.70172498988E+03  0.70172498988E+03  0.00000000000E+00 0.  1.
        -13    1    1    2    0    0 -0.17172623241E+01 -0.46455353087E+03 -0.35892396981E+03  0.58705992821E+03  0.10566000000E+00 0.  1.
         13    1    1    2    0    0  0.73512354148E+02  0.11431281475E+03 -0.11918907715E+03  0.18076928141E+03  0.10566000000E+00 0. -1.
          4    1    1    2  501    0 -0.71795091824E+02  0.35024071612E+03  0.32701384257E+03  0.48452156574E+03  0.00000000000E+00 0.  1.
</event>
<event>
 5    1  0.4881333E-005  0.1440379E+03  0.7818608E-02  0.1126865E+00
         -4   -1    0    0    0  501 -0.00000000000E+00  0.00000000000E+00  0.75869147686E+02  0.75869147686E+02  0.00000000000E+00 0. -1.
         21   -1    0    0  501  502  0.00000000000E+00 -0.00000000000E+00 -0.21887212173E+04  0.21887212173E+04  0.00000000000E+00 0. -1.
        -13    1    1    2    0    0 -0.85403942919E+02 -0.81970782508E+01  0.54003920892E+01  0.85966278020E+02  0.10566000000E+00 0.  1.
         13    1    1    2    0    0  0.19602968277E+03  0.89546341571E+02 -0.39549371953E+03  0.45040146221E+03  0.10566000000E+00 0. -1.
         -4    1    1    2    0  502 -0.11062573985E+03 -0.81349263320E+02 -0.17227587422E+04  0.17282226248E+04  0.00000000000E+00 0. -1.
</event>
<event>
 5    1  0.4881333E-005  0.7797946E+03  0.7818608E-02  0.9014627E-01
         21   -1    0    0  501  502  0.00000000000E+00  0.00000000000E+00  0.11215520909E+04  0.11215520909E+04  0.00000000000E+00 0.  1.
         -4   -1    0    0    0  501 -0.00000000000E+00 -0.00000000000E+00 -0.20763263152E+04  0.20763263152E+04  0.00000000000E+00 0. -1.
        -13    1    1    2    0    0  0.63568077230E+02 -0.65375014443E+03 -0.82041308996E+03  0.10509556609E+04  0.10566000000E+00 0.  1.
         13    1    1    2    0    0 -0.12995514302E+03  0.10418314926E+04 -0.83618672525E+03  0.13422032070E+04  0.10566000000E+00 0. -1.
         -4    1    1    2    0  502  0.66387065793E+02 -0.38808134819E+03  0.70182559086E+03  0.80471953829E+03  0.00000000000E+00 0. -1.
</event>
<event>
 5    1  0.4881333E-005  0.7729267E+02  0.7818608E-02  0.1228836E+00
          4   -1    0    0  502    0 -0.00000000000E+00  0.00000000000E+00  0.41026409761E+02  0.41026409761E+02  0.00000000000E+00 0.  1.
         21   -1    0    0  501  502  0.00000000000E+00 -0.00000000000E+00 -0.33172688522E+03  0.33172688522E+03  0.00000000000E+00 0.  1.
        -13    1    1    2    0    0 -0.45983120902E+02 -0.72679150699E+02 -0.54737003435E+02  0.10194536313E+03  0.10566000000E+00 0.  1.
         13    1    1    2    0    0 -0.25809560131E+02  0.42434691810E+02 -0.13095559854E+03  0.14005790380E+03  0.10566000000E+00 0. -1.
          4    1    1    2  501    0  0.71792681033E+02  0.30244458889E+02 -0.10500787349E+03  0.13075002806E+03  0.00000000000E+00 0.  1.
</event>
<event>
 5    1  0.4881333E-005  0.1132259E+03  0.7818608E-02  0.1144354E+00
         21   -1    0    0  501  502  0.00000000000E+00  0.00000000000E+00  0.11989696945E+03  0.11989696945E+03  0.00000000000E+00 0.  1.
          4   -1    0    0  502    0 -0.00000000000E+00 -0.00000000000E+00 -0.26478152728E+03  0.26478152728E+03  0.00000000000E+00 0.  1.
        -13    1    1    2    0    0  0.35064346992E+02  0.12186004529E+03 -0.10190241263E+03  0.16267603367E+03  0.10566000000E+00 0.  1.
         13    1    1    2    0    0 -0.10176092630E+03 -0.56897528977E+02 -0.53553953884E+02  0.12829907274E+03  0.10566000000E+00 0. -1.
          4    1    1    2  501    0  0.66696579310E+02 -0.64962516310E+02  0.10571808695E+02  0.93703390313E+02  0.00000000000E+00 0.  1.
</event>
<event>
 5    1  0.4881333E-005  0.5479730E+03  0.7818608E-02  0.9436190E-01
         21   -1    0    0  501  502  0.00000000000E+00  0.00000000000E+00  0.84786473827E+03  0.84786473827E+03  0.00000000000E+00 0. -1.
         -4   -1    0    0    0  501 -0.00000000000E+00 -0.00000000000E+00 -0.14498471105E+04  0.14498471105E+04  0.00000000000E+00 0. -1.
        -13    1    1    2    0    0  0.52074790539E+03  0.31700010991E+03 -0.90616509648E+03  0.10921550457E+04  0.10566000000E+00 0.  1.
         13    1    1    2    0    0  0.21454029467E+02  0.29008920585E+03 -0.85405647888E+02  0.30316028531E+03  0.10566000000E+00 0. -1.
         -4    1    1    2    0  502 -0.54220193486E+03 -0.60708931576E+03  0.38958837216E+03  0.90239651772E+03  0.00000000000E+00 0. -1.
</event>
<event>
 5    1  0.4881333E-005  0.3522347E+03  0.7818608E-02  0.9982018E-01
         21   -1    0    0  501  502  0.00000000000E+00  0.00000000000E+00  0.33521900287E+03  0.33521900287E+03  0.00000000000E+00 0. -1.
         -4   -1    0    0    0  501 -0.00000000000E+00 -0.00000000000E+00 -0.19143831486E+04  0.19143831486E+04  0.00000000000E+00 0. -1.
        -13    1    1    2    0    0 -0.18397003762E+03  0.34922934794E+03 -0.85919217417E+03  0.94552488890E+03  0.10566000000E+00 0.  1.
         13    1    1    2    0    0  0.24595031907E+03 -0.24906336284E+01 -0.88251329421E+03  0.91614818033E+03  0.10566000000E+00 0. -1.
         -4    1    1    2    0  502 -0.61980281452E+02 -0.34673871432E+03  0.16254132263E+03  0.38792908225E+03  0.00000000000E+00 0. -1.
</event>
<event>
 5    1  0.4881333E-005  0.4114606E+03  0.7818608E-02  0.9696518E-01
         -4   -1    0    0    0  501 -0.00000000000E+00  0.00000000000E+00  0.92188932811E+03  0.92188932811E+03  0.00000000000E+00 0. -1.
         21   -1    0    0  501  502  0.00000000000E+00 -0.00000000000E+00 -0.73639582368E+03  0.73639582368E+03  0.00000000000E+00 0. -1.
        -13    1    1    2    0    0  0.12878767655E+03  0.35010744219E+03  0.43326913937E+03  0.57173739164E+03  0.10566000000E+00 0.  1.
         13    1    1    2    0    0  0.87366573455E+02 -0.60956601247E+03  0.73834992612E+02  0.62020581989E+03  0.10566000000E+00 0. -1.
         -4    1    1    2    0  502 -0.21615425001E+03  0.25945857029E+03 -0.32161062755E+03  0.46634194026E+03  0.00000000000E+00 0. -1.
</event>
<event>
 5    1  0.4881333E-005  0.1589259E+03  0.7818608E-02  0.1092628E+00
          4   -1    0    0  502    0 -0.00000000000E+00  0.00000000000E+00  0.30521680176E+03  0.30521680176E+03  0.00000000000E+00 0.  1.
         21   -1    0    0  501  502  0.00000000000E+00 -0.00000000000E+00 -0.33027448801E+03  0.33027448801E+03  0.00000000000E+00 0. -1.
        -13    1    1    2    0    0  0.15793645040E+03  0.16933568460E+02  0.23850980317E+03  0.28656169576E+03  0.10566000000E+00 0.  1.
         13    1    1    2    0    0 -0.15623500988E+03 -0.37013077939E+02 -0.11136984172E+03  0.19540368231E+03  0.10566000000E+00 0. -1.
          4    1    1    2  501    0 -0.17014405189E+01  0.20079509478E+02 -0.15219764770E+03  0.15352591171E+03  0.00000000000E+00 0.  1.
</event>
<event>
 5    1  0.4881333E-005  0.6533664E+03  0.7818608E-02  0.9345968E-01
         21   -1    0    0  501  502  0.00000000000E+00  0.00000000000E+00  0.37032841192E+03  0.37032841192E+03  0.00000000000E+00 0.  1.
         -4   -1    0    0    0  501 -0.00000000000E+00 -0.00000000000E+00 -0.32826988219E+04  0.32826988219E+04  0.00000000000E+00 0. -1.
        -13    1    1    2    0    0 -0.74131709128E+02 -0.87075198832E+03 -0.10188724655E+04  0.13423135430E+04  0.10566000000E+00 0.  1.
         13    1    1    2    0    0 -0.36480900407E+03  0.64855825747E+02 -0.81062787627E+03  0.89129650091E+03  0.10566000000E+00 0. -1.
         -4    1    1    2    0  502  0.43894071319E+03  0.80589616258E+03 -0.10828700682E+04  0.14194171900E+04  0.00000000000E+00 0. -1.
</event>
<event>
 5    1  0.4881333E-005  0.3561813E+03  0.7818608E-02  0.1009510E+00
         21   -1    0    0  501  502  0.00000000000E+00  0.00000000000E+00  0.36717622408E+03  0.36717622408E+03  0.00000000000E+00 0.  1.
          4   -1    0    0  502    0 -0.00000000000E+00 -0.00000000000E+00 -0.84484669835E+03  0.84484669835E+03  0.00000000000E+00 0.  1.
        -13    1    1    2    0    0  0.30762665828E+03 -0.36704238400E+03 -0.52701666628E+03  0.71211013912E+03  0.10566000000E+00 0.  1.
         13    1    1    2    0    0 -0.14680046159E+03  0.79534456258E+02  0.10931939295E+01  0.16696500080E+03  0.10566000000E+00 0. -1.
          4    1    1    2  501    0 -0.16082619668E+03  0.28750792774E+03  0.48252998080E+02  0.33294778251E+03  0.00000000000E+00 0.  1.
</event>
<event>
 5    1  0.4881333E-005  0.2215405E+03  0.7818608E-02  0.1057532E+00
         -4   -1    0    0    0  501 -0.00000000000E+00  0.00000000000E+00  0.72324549945E+03  0.72324549945E+03  0.00000000000E+00 0. -1.
         21   -1    0    0  501  502  0.00000000000E+00 -0.00000000000E+00 -0.48929381730E+03  0.48929381730E+03  0.00000000000E+00 0. -1.
        -13    1    1    2    0    0  0.15195845682E+03 -0.46095202252E+02  0.45596898482E+02  0.16521267683E+03  0.10566000000E+00 0.  1.
         13    1    1    2    0    0  0.38493056514E+02  0.16884319102E+03  0.57426935280E+03  0.59981250344E+03  0.10566000000E+00 0. -1.
         -4    1    1    2    0  502 -0.19045151333E+03 -0.12274798876E+03 -0.38591456914E+03  0.44751413648E+03  0.00000000000E+00 0. -1.
</event>
<event>
 5    1  0.4881333E-005  0.9764756E+02  0.7818608E-02  0.1168507E+00
         -4   -1    0    0    0  501 -0.00000000000E+00  0.00000000000E+00  0.11074490344E+03  0.11074490344E+03  0.00000000000E+00 0. -1.
         21   -1    0    0  501  502  0.00000000000E+00 -0.00000000000E+00 -0.32813537414E+03  0.32813537414E+03  0.00000000000E+00 0. -1.
        -13    1    1    2    0    0  0.49617886064E+02  0.69536760882E+02  0.43471845307E+01  0.85534816939E+02  0.10566000000E+00 0.  1.
         13    1    1    2    0    0 -0.61715124564E+02 -0.93794523567E+02  0.16576775566E+02  0.11349436067E+03  0.10566000000E+00 0. -1.
         -4    1    1    2    0  502  0.12097238500E+02  0.24257762685E+02 -0.23831443080E+03  0.23985109998E+03  0.00000000000E+00 0. -1.
</event>
<event>
 5    1  0.4881333E-005  0.4596813E+03  0.7818608E-02  0.9860469E-01
         -4   -1    0    0    0  501 -0.00000000000E+00  0.00000000000E+00  0.21834295591E+04  0.21834295591E+04  0.00000000000E+00 0. -1.
         21   -1    0    0  501  502  0.00000000000E+00 -0.00000000000E+00 -0.21115266055E+03  0.21115266055E+03  0.00000000000E+00 0. -1.
        -13    1    1    2    0    0  0.12244661782E+03  0.11530721395E+03  0.87025037772E+03  0.88635470264E+03  0.10566000000E+00 0.  1.
         13    1    1    2    0    0 -0.32386517266E+03 -0.39085049477E+03  0.20316004970E+03  0.54674196499E+03  0.10566000000E+00 0. -1.
         -4    1    1    2    0  502  0.20141855484E+03  0.27554328082E+03  0.89886647116E+03  0.96148555205E+03  0.00000000000E+00 0. -1.
</event>
<event>
 5    1  0.4881333E-005  0.4799689E+03  0.7818608E-02  0.9828077E-01
         -4   -1    0    0    0  501 -0.00000000000E+00  0.00000000000E+00  0.12934020837E+03  0.12934020837E+03  0.00000000000E+00 0. -1.
         21   -1    0    0  501  502  0.00000000000E+00 -0.00000000000E+00 -0.28597698649E+04  0.28597698649E+04  0.00000000000E+00 0.  1.
        -13    1    1    2    0    0  0.15073432932E+03 -0.66790512296E+02 -0.15923803885E+03  0.22921294629E+03  0.10566000000E+00 0.  1.
         13    1    1    2    0    0 -0.36274095063E+02  0.50482774788E+03 -0.17552348203E+04  0.18267501609E+04  0.10566000000E+00 0. -1.
         -4    1    1    2    0  502 -0.11446023426E+03 -0.43803723559E+03 -0.81595679737E+03  0.93314696600E+03  0.00000000000E+00 0. -1.
</event>
<event>
 5    1  0.4881333E-005  0.3570140E+03  0.7818608E-02  0.9939558E-01
         -4   -1    0    0    0  501 -0.00000000000E+00  0.00000000000E+00  0.38071674237E+03  0.38071674237E+03  0.00000000000E+00 0. -1.
         21   -1    0    0  501  502  0.00000000000E+00 -0.00000000000E+00 -0.16430743157E+04  0.16430743157E+04  0.00000000000E+00 0.  1.
        -13    1    1    2    0    0 -0.26636088752E+03  0.30689985438E+03  0.28915854547E+00  0.40636896756E+03  0.10566000000E+00 0.  1.
         13    1    1    2    0    0 -0.26057921154E+03 -0.14483298887E+03 -0.92286601211E+03  0.96982462725E+03  0.10566000000E+00 0. -1.
         -4    1    1    2    0  502  0.52694009906E+03 -0.16206686551E+03 -0.33978071976E+03  0.64759746325E+03  0.00000000000E+00 0. -1.
</event>
<event>
 5    1  0.4881333E-005  0.3292765E+03  0.7818608E-02  0.9959045E-01
         -4   -1    0    0    0  501 -0.00000000000E+00  0.00000000000E+00  0.33052225591E+03  0.33052225591E+03  0.00000000000E+00 0. -1.
         21   -1    0    0  501  502  0.00000000000E+00 -0.00000000000E+00 -0.46102132595E+03  0.46102132595E+03  0.00000000000E+00 0. -1.
        -13    1    1    2    0    0  0.11304677001E+03  0.30860112433E+03  0.82534886131E+01  0.32875881340E+03  0.10566000000E+00 0.  1.
         13    1    1    2    0    0 -0.12511538755E+03 -0.30541534259E+03 -0.66728161786E+01  0.33011653901E+03  0.10566000000E+00 0. -1.
         -4    1    1    2    0  502  0.12068617536E+02 -0.31857817482E+01 -0.13207974247E+03  0.13266822945E+03  0.00000000000E+00 0. -1.
</event>
<event>
 5    1  0.4881333E-005  0.4571081E+03  0.7818608E-02  0.9577288E-01
         21   -1    0    0  501  502  0.00000000000E+00  0.00000000000E+00  0.29673314007E+03  0.29673314007E+03  0.00000000000E+00 0.  1.
          4   -1    0    0  502    0 -0.00000000000E+00 -0.00000000000E+00 -0.14598701419E+04  0.14598701419E+04  0.00000000000E+00 0.  1.
        -13    1    1    2    0    0 -0.64120724299E+02 -0.56778100924E+03 -0.26772409676E+03  0.63100154111E+03  0.10566000000E+00 0.  1.
         13    1    1    2    0    0  0.21901863006E+03  0.36286753392E+03 -0.52272958599E+03  0.67296971605E+03  0.10566000000E+00 0. -1.
          4    1    1    2  501    0 -0.15489790576E+03  0.20491347531E+03 -0.37268331913E+03  0.45263202486E+03  0.00000000000E+00 0.  1.
</event>
<event>
 5    1  0.8088646E-005  0.3477047E+03  0.7818608E-02  0.1035932E+00
         -4   -1    0    0    0  501 -0.00000000000E+00  0.00000000000E+00  0.16404017409E+04  0.16404017409E+04  0.00000000000E+00 0. -1.
         21   -1    0    0  501  502  0.00000000000E+00 -0.00000000000E+00 -0.21313322559E+03  0.21313322559E+03  0.00000000000E+00 0. -1.
        -13    1    1    2    0    0  0.66673471036E+02 -0.41224988106E+02  0.44536990437E+03  0.45221589342E+03  0.10566000000E+00 0.  1.
         13    1    1    2    0    0  0.24812309251E+03  0.20170688817E+03  0.99763184835E+03  0.10476259131E+04  0.10566000000E+00 0. -1.
         -4    1    1    2    0  502 -0.31479656355E+03 -0.16048190007E+03 -0.15733237386E+02  0.35369316000E+03  0.00000000000E+00 0. -1.
</event>
<event>
 5    1  0.4881333E-005  0.3753109E+03  0.7818608E-02  0.9803188E-01
         -4   -1    0    0    0  501 -0.00000000000E+00  0.00000000000E+00  0.23938138729E+04  0.23938138729E+04  0.00000000000E+00 0. -1.
         21   -1    0    0  501  502  0.00000000000E+00 -0.00000000000E+00 -0.76895168691E+02  0.76895168691E+02  0.00000000000E+00 0.  1.
        -13    1    1    2    0    0 -0.73953492382E+02 -0.36814420490E+03  0.10762078484E+04  0.11398344699E+04  0.10566000000E+00 0.  1.
         13    1    1    2    0    0  0.14883936966E+02  0.37710558664E+03  0.12015824012E+04  0.12594564039E+04  0.10566000000E+00 0. -1.
         -4    1    1    2    0  502  0.59069555415E+02 -0.89613817417E+01  0.39128454527E+02  0.71418167810E+02  0.00000000000E+00 0. -1.
</event>
<event>
 5    1  0.4881333E-005  0.4977282E+02  0.7818608E-02  0.1303322E+00
          4   -1    0    0  502    0 -0.00000000000E+00  0.00000000000E+00  0.20249745308E+03  0.20249745308E+03  0.00000000000E+00 0.  1.
         21   -1    0    0  501  502  0.00000000000E+00 -0.00000000000E+00 -0.59816926422E+02  0.59816926422E+02  0.00000000000E+00 0. -1.
        -13    1    1    2    0    0  0.32333526737E-01 -0.47810799718E+02  0.14317410338E+03  0.15094604552E+03  0.10566000000E+00 0.  1.
         13    1    1    2    0    0 -0.39111871974E+02  0.10476943432E+02 -0.29436249210E+02  0.50060051984E+02  0.10566000000E+00 0. -1.
          4    1    1    2  501    0  0.39079538448E+02  0.37333856286E+02  0.28942672481E+02  0.61308281992E+02  0.00000000000E+00 0.  1.
</event>
<event>
 5    1  0.4881333E-005  0.1537538E+03  0.7818608E-02  0.1097468E+00
          4   -1    0    0  502    0 -0.00000000000E+00  0.00000000000E+00  0.26073430574E+03  0.26073430574E+03  0.00000000000E+00 0.  1.
         21   -1    0    0  501  502  0.00000000000E+00 -0.00000000000E+00 -0.11804010130E+03  0.11804010130E+03  0.00000000000E+00 0.  1.
        -13    1    1    2    0    0 -0.11849407341E+03 -0.10197589791E+03  0.94686056312E+02  0.18277141355E+03  0.10566000000E+00 0.  1.
         13    1    1    2    0    0  0.10868697704E+03  0.10500079939E+03  0.73847022146E+02  0.16820053714E+03  0.10566000000E+00 0. -1.
          4    1    1    2  501    0  0.98070963668E+01 -0.30249014809E+01 -0.25838874023E+02  0.27802456346E+02  0.00000000000E+00 0.  1.
</event>
<event>
 5    1  0.4881333E-005  0.1779042E+03  0.7818608E-02  0.1076439E+00
          4   -1    0    0  502    0 -0.00000000000E+00  0.00000000000E+00  0.50934982273E+03  0.50934982273E+03  0.00000000000E+00 0.  1.
         21   -1    0    0  501  502  0.00000000000E+00 -0.00000000000E+00 -0.46127495156E+03  0.46127495156E+03  0.00000000000E+00 0.  1.
        -13    1    1    2    0    0  0.17896523750E+02 -0.17936792465E+03  0.44210281174E+03  0.47743904874E+03  0.10566000000E+00 0.  1.
         13    1    1    2    0    0 -0.40957530539E+02  0.15650906193E+03 -0.85555792897E+02  0.18300931844E+03  0.10566000000E+00 0. -1.
          4    1    1    2  501    0  0.23061006788E+02  0.22858862716E+02 -0.30847214767E+03  0.31017640711E+03  0.00000000000E+00 0.  1.
</event>
<event>
 5    1  0.4881333E-005  0.3889699E+03  0.7818608E-02  0.9763212E-01
         21   -1    0    0  501  502  0.00000000000E+00  0.00000000000E+00  0.90987607983E+03  0.90987607983E+03  0.00000000000E+00 0.  1.
          4   -1    0    0  502    0 -0.00000000000E+00 -0.00000000000E+00 -0.59837639815E+03  0.59837639815E+03  0.00000000000E+00 0.  1.
        -13    1    1    2    0    0  0.65454130086E+01 -0.44728183439E+03 -0.25829831520E+03  0.51654807385E+03  0.10566000000E+00 0.  1.
         13    1    1    2    0    0  0.32597849779E+03  0.20788096574E+03  0.18112296916E+03  0.42694498247E+03  0.10566000000E+00 0. -1.
          4    1    1    2  501    0 -0.33252391080E+03  0.23940086865E+03  0.38867502772E+03  0.56475942165E+03  0.00000000000E+00 0.  1.
</event>
<event>
 5    1  0.4881333E-005  0.8233847E+02  0.7818608E-02  0.1197628E+00
         21   -1    0    0  501  502  0.00000000000E+00  0.00000000000E+00  0.40953252931E+03  0.40953252931E+03  0.00000000000E+00 0.  1.
         -4   -1    0    0    0  501 -0.00000000000E+00 -0.00000000000E+00 -0.21191718299E+03  0.21191718299E+03  0.00000000000E+00 0. -1.
        -13    1    1    2    0    0  0.11008236332E+03 -0.28739330200E+02  0.32877964696E+03  0.34790823968E+03  0.10566000000E+00 0.  1.
         13    1    1    2    0    0 -0.80221349773E+02  0.14746420963E+02 -0.18962381676E+03  0.20642220069E+03  0.10566000000E+00 0. -1.
         -4    1    1    2    0  502 -0.29861013552E+02  0.13992909237E+02  0.58459516125E+02  0.67119271933E+02  0.00000000000E+00 0. -1.
</event>
<event>
 5    1  0.4881333E-005  0.2798167E+03  0.7818608E-02  0.1016003E+00
         21   -1    0    0  501  502  0.00000000000E+00  0.00000000000E+00  0.34530627887E+03  0.34530627887E+03  0.00000000000E+00 0.  1.
         -4   -1    0    0    0  501 -0.00000000000E+00 -0.00000000000E+00 -0.16958639003E+04  0.16958639003E+04  0.00000000000E+00 0. -1.
        -13    1    1    2    0    0  0.10931267958E+03  0.32114416440E+03 -0.23651626742E+02  0.34006212206E+03  0.10566000000E+00 0.  1.
         13    1    1    2    0    0 -0.26409580002E+03 -0.10524830227E+03 -0.13975938131E+04  0.14262160686E+04  0.10566000000E+00 0. -1.
         -4    1    1    2    0  502  0.15478312044E+03 -0.21589586214E+03  0.70687818448E+02  0.27489198850E+03  0.00000000000E+00 0. -1.
</event>
<event>
 5    1  0.4881333E-005  0.3788014E+03  0.7818608E-02  0.1007532E+00
         21   -1    0    0  501  502  0.00000000000E+00  0.00000000000E+00  0.11850371540E+04  0.11850371540E+04  0.00000000000E+00 0.  1.
          4   -1    0    0  502    0 -0.00000000000E+00 -0.00000000000E+00 -0.30525542730E+03  0.30525542730E+03  0.00000000000E+00 0.  1.
        -13    1    1    2    0    0  0.43480867643E+03  0.12912149748E+03  0.77833053988E+02  0.46020532555E+03  0.10566000000E+00 0.  1.
         13    1    1    2    0    0 -0.68358351597E+02 -0.13119718517E+03 -0.48276867520E+00  0.14793853406E+03  0.10566000000E+00 0. -1.
          4    1    1    2  501    0 -0.36645032483E+03  0.20756876881E+01  0.80243144138E+03  0.88214872168E+03  0.00000000000E+00 0.  1.
</event>
<event>
 5    1  0.4881333E-005  0.1657611E+03  0.7818608E-02  0.1172426E+00
         -4   -1    0    0    0  501 -0.00000000000E+00  0.00000000000E+00  0.44068993036E+03  0.44068993036E+03  0.00000000000E+00 0. -1.
         21   -1    0    0  501  502  0.00000000000E+00 -0.00000000000E+00 -0.31929071550E+03  0.31929071550E+03  0.00000000000E+00 0. -1.
        -13    1    1    2    0    0 -0.57352932069E+01  0.17245584704E+02  0.36159815455E+02  0.40470324902E+02  0.10566000000E+00 0.  1.
         13    1    1    2    0    0 -0.67890508809E+01 -0.18157211574E+03  0.35763233226E+03  0.40114264379E+03  0.10566000000E+00 0. -1.
         -4    1    1    2    0  502  0.12524344088E+02  0.16432653104E+03 -0.27239293285E+03  0.31836767717E+03  0.00000000000E+00 0. -1.
</event>
<event>
 5    1  0.4881333E-005  0.1657335E+03  0.7818608E-02  0.1108299E+00
         21   -1    0    0  501  502  0.00000000000E+00  0.00000000000E+00  0.99565470114E+03  0.99565470114E+03  0.00000000000E+00 0. -1.
         -4   -1    0    0    0  501 -0.00000000000E+00 -0.00000000000E+00 -0.50118827260E+02  0.50118827260E+02  0.00000000000E+00 0. -1.
        -13    1    1    2    0    0  0.91189574101E+02  0.94978702116E+01  0.16459887400E+03  0.18841058476E+03  0.10566000000E+00 0.  1.
         13    1    1    2    0    0 -0.79338209835E+02  0.15827457409E+03  0.30603392850E+03  0.35355645787E+03  0.10566000000E+00 0. -1.
         -4    1    1    2    0  502 -0.11851364266E+02 -0.16777244430E+03  0.47490307139E+03  0.50380648578E+03  0.00000000000E+00 0. -1.
</event>
<event>
 5    1  0.4881333E-005  0.4467534E+03  0.7818608E-02  0.9956904E-01
         21   -1    0    0  501  502  0.00000000000E+00  0.00000000000E+00  0.26699560916E+03  0.26699560916E+03  0.00000000000E+00 0. -1.
         -4   -1    0    0    0  501 -0.00000000000E+00 -0.00000000000E+00 -0.14252288231E+04  0.14252288231E+04  0.00000000000E+00 0. -1.
        -13    1    1    2    0    0 -0.13253241128E+03  0.80037092673E+01 -0.42171079250E+03  0.44211865272E+03  0.10566000000E+00 0.  1.
         13    1    1    2    0    0 -0.38973833179E+03 -0.13648870847E+03 -0.11599237507E+03  0.42892817236E+03  0.10566000000E+00 0. -1.
         -4    1    1    2    0  502  0.52227074307E+03  0.12848499921E+03 -0.62053004637E+03  0.82117760718E+03  0.00000000000E+00 0. -1.
</event>
<event>
 5    1  0.4881333E-005  0.4670634E+03  0.7818608E-02  0.9802450E-01
         21   -1    0    0  501  502  0.00000000000E+00  0.00000000000E+00  0.11203184355E+03  0.11203184355E+03  0.00000000000E+00 0. -1.
         -4   -1    0    0    0  501 -0.00000000000E+00 -0.00000000000E+00 -0.35121706717E+04  0.35121706717E+04  0.00000000000E+00 0. -1.
        -13    1    1    2    0    0 -0.19012927690E+03 -0.44301779406E+02 -0.10138905730E+04  0.10325143557E+04  0.10566000000E+00 0.  1.
         13    1    1    2    0    0  0.45672242913E+03  0.36054674458E+03 -0.16132863566E+04  0.17150166797E+04  0.10566000000E+00 0. -1.
         -4    1    1    2    0  502 -0.26659315223E+03 -0.31624496517E+03 -0.77296189855E+03  0.87667147976E+03  0.00000000000E+00 0. -1.
</event>
<event>
 5    1  0.4881333E-005  0.5041206E+02  0.7818608E-02  0.1327918E+00
         21   -1    0    0  501  502  0.00000000000E+00  0.00000000000E+00  0.77562813316E+03  0.77562813316E+03  0.00000000000E+00 0. -1.
         -4   -1    0    0    0  501 -0.00000000000E+00 -0.00000000000E+00 -0.25447812918E+02  0.25447812918E+02  0.00000000000E+00 0. -1.
        -13    1    1    2    0    0  0.24257479669E+02 -0.31269884203E+01  0.11039501494E+03  0.11307198532E+03  0.10566000000E+00 0.  1.
         13    1    1    2    0    0 -0.44353706229E+02 -0.42782667821E+02  0.17996572055E+02  0.64198876096E+02  0.10566000000E+00 0. -1.
         -4    1    1    2    0  502  0.20096226560E+02  0.45909656242E+02  0.62178873325E+03  0.62380508466E+03  0.00000000000E+00 0. -1.
</event>
<event>
 5    1  0.4881333E-005  0.8250933E+03  0.7818608E-02  0.8958976E-01
          4   -1    0    0  502    0 -0.00000000000E+00  0.00000000000E+00  0.22730890713E+04  0.22730890713E+04  0.00000000000E+00 0.  1.
         21   -1    0    0  501  502  0.00000000000E+00 -0.00000000000E+00 -0.63062712749E+03  0.63062712749E+03  0.00000000000E+00 0.  1.
        -13    1    1    2    0    0 -0.23074842630E+03  0.85020198996E+03 -0.10284391621E+03  0.88694145367E+03  0.10566000000E+00 0.  1.
         13    1    1    2    0    0  0.40562306490E+02 -0.81552346470E+03  0.14406667617E+04  0.16559723885E+04  0.10566000000E+00 0. -1.
          4    1    1    2  501    0  0.19018611981E+03 -0.34678525264E+02  0.30463909837E+03  0.36080235662E+03  0.00000000000E+00 0.  1.
</event>
<event>
 5    1  0.4881333E-005  0.5004547E+03  0.7818608E-02  0.9701103E-01
         21   -1    0    0  501  502  0.00000000000E+00  0.00000000000E+00  0.13299884473E+03  0.13299884473E+03  0.00000000000E+00 0.  1.
          4   -1    0    0  502    0 -0.00000000000E+00 -0.00000000000E+00 -0.31478901272E+04  0.31478901272E+04  0.00000000000E+00 0.  1.
        -13    1    1    2    0    0 -0.31821956782E+03  0.45665129825E+03 -0.10961311433E+04  0.12293484437E+04  0.10566000000E+00 0.  1.
         13    1    1    2    0    0  0.22501127250E+03  0.42542719955E+01 -0.92730059452E+03  0.95421935389E+03  0.10566000000E+00 0. -1.
          4    1    1    2  501    0  0.93208295326E+02 -0.46090557024E+03 -0.99145954466E+03  0.10973211744E+04  0.00000000000E+00 0.  1.
</event>
<event>
 5    1  0.4881333E-005  0.1573713E+03  0.7818608E-02  0.1094061E+00
         21   -1    0    0  501  502  0.00000000000E+00  0.00000000000E+00  0.24110996551E+03  0.24110996551E+03  0.00000000000E+00 0. -1.
          4   -1    0    0  502    0 -0.00000000000E+00 -0.00000000000E+00 -0.17602681734E+03  0.17602681734E+03  0.00000000000E+00 0.  1.
        -13    1    1    2    0    0  0.42522079105E+02  0.15250480217E+03 -0.83316082851E+02  0.17890618414E+03  0.10566000000E+00 0.  1.
         13    1    1    2    0    0 -0.32513217144E+02 -0.15144828650E+03  0.90366404810E+02  0.17933151161E+03  0.10566000000E+00 0. -1.
          4    1    1    2  501    0 -0.10008861962E+02 -0.10565156706E+01  0.58032826212E+02  0.58899087101E+02  0.00000000000E+00 0.  1.
</event>
<event>
 5    1  0.4881333E-005  0.1030435E+03  0.7818608E-02  0.1197127E+00
         21   -1    0    0  501  502  0.00000000000E+00  0.00000000000E+00  0.11477367612E+04  0.11477367612E+04  0.00000000000E+00 0. -1.
         -4   -1    0    0    0  501 -0.00000000000E+00 -0.00000000000E+00 -0.28972776480E+03  0.28972776480E+03  0.00000000000E+00 0. -1.
        -13    1    1    2    0    0 -0.27112163462E+02 -0.32720051885E+02 -0.68886733739E+02  0.80938646222E+02  0.10566000000E+00 0.  1.
         13    1    1    2    0    0  0.10452515333E+03  0.10003022311E+03 -0.18782994527E+03  0.23708996756E+03  0.10566000000E+00 0. -1.
         -4    1    1    2    0  502 -0.77412989871E+02 -0.67310171223E+02  0.11147256754E+04  0.11194359123E+04  0.00000000000E+00 0. -1.
</event>
<event>
 5    1  0.4881333E-005  0.3505802E+03  0.7818608E-02  0.1000375E+00
         -4   -1    0    0    0  501 -0.00000000000E+00  0.00000000000E+00  0.87147851743E+03  0.87147851743E+03  0.00000000000E+00 0. -1.
         21   -1    0    0  501  502  0.00000000000E+00 -0.00000000000E+00 -0.50032692533E+03  0.50032692533E+03  0.00000000000E+00 0. -1.
        -13    1    1    2    0    0 -0.81732129469E+02 -0.22087434581E+03  0.21717416707E+03  0.32035955992E+03  0.10566000000E+00 0.  1.
         13    1    1    2    0    0 -0.25681303965E+03  0.64206759142E+02  0.48511285642E+03  0.55263906836E+03  0.10566000000E+00 0. -1.
         -4    1    1    2    0  502  0.33854516912E+03  0.15666758667E+03 -0.33113543138E+03  0.49880681447E+03  0.00000000000E+00 0. -1.
</event>
<event>
 5    1  0.4881333E-005  0.1518940E+03  0.7818608E-02  0.1108958E+00
         21   -1    0    0  501  502  0.00000000000E+00  0.00000000000E+00  0.16883622119E+03  0.16883622119E+03  0.00000000000E+00 0.  1.
          4   -1    0    0  502    0 -0.00000000000E+00 -0.00000000000E+00 -0.66316859462E+03  0.66316859462E+03  0.00000000000E+00 0.  1.
        -13    1    1    2    0    0  0.17954576662E+03  0.18553435449E+03 -0.40568592658E+03  0.48087499539E+03  0.10566000000E+00 0.  1.
         13    1    1    2    0    0 -0.79870861161E+02 -0.85525715303E+02 -0.15573768687E+03  0.19480308190E+03  0.10566000000E+00 0. -1.
          4    1    1    2  501    0 -0.99674905460E+02 -0.10000863919E+03  0.67091240016E+02  0.15632673853E+03  0.00000000000E+00 0.  1.
</event>
<event>
 5    1  0.4881333E-005  0.3312711E+03  0.7818608E-02  0.9968256E-01
         -4   -1    0    0    0  501 -0.00000000000E+00  0.00000000000E+00  0.53918023302E+03  0.53918023302E+03  0.00000000000E+00 0. -1.
         21   -1    0    0  501  502  0.00000000000E+00 -0.00000000000E+00 -0.85152033612E+03  0.85152033612E+03  0.00000000000E+00 0.  1.
        -13    1    1    2    0    0 -0.31281772087E+03 -0.23201520617E+02 -0.12435773794E+03  0.33742865201E+03  0.10566000000E+00 0.  1.
         13    1    1    2    0    0 -0.14895370096E+02 -0.14470163468E+03  0.36272252505E+03  0.39080439669E+03  0.10566000000E+00 0. -1.
         -4    1    1    2    0  502  0.32771309096E+03  0.16790315529E+03 -0.55070489021E+03  0.66246752045E+03  0.00000000000E+00 0. -1.
</event>
<event>
 5    1  0.4881333E-005  0.4153125E+03  0.7818608E-02  0.9726576E-01
         21   -1    0    0  501  502  0.00000000000E+00  0.00000000000E+00  0.33070480654E+03  0.33070480654E+03  0.00000000000E+00 0. -1.
         -4   -1    0    0    0  501 -0.00000000000E+00 -0.00000000000E+00 -0.18182336347E+04  0.18182336347E+04  0.00000000000E+00 0. -1.
        -13    1    1    2    0    0  0.77700342520E+02 -0.35196232582E+03 -0.82225557742E+03  0.89778564691E+03  0.10566000000E+00 0.  1.
         13    1    1    2    0    0  0.35464920414E+03 -0.10580884119E+03 -0.54792091072E+02  0.37413066338E+03  0.10566000000E+00 0. -1.
         -4    1    1    2    0  502 -0.43234954666E+03  0.45777116700E+03 -0.61048115963E+03  0.87702213091E+03  0.00000000000E+00 0. -1.
</event>
<event>
 5    1  0.4881333E-005  0.3968658E+03  0.7818608E-02  0.9853026E-01
         21   -1    0    0  501  502  0.00000000000E+00  0.00000000000E+00  0.36644032225E+03  0.36644032225E+03  0.00000000000E+00 0.  1.
          4   -1    0    0  502    0 -0.00000000000E+00 -0.00000000000E+00 -0.14646593539E+04  0.14646593539E+04  0.00000000000E+00 0.  1.
        -13    1    1    2    0    0 -0.12980056292E+03  0.34066806970E+03  0.51942188292E+02  0.36824030460E+03  0.10566000000E+00 0.  1.
         13    1    1    2    0    0 -0.26437294568E+03  0.44032135060E+02 -0.70643908556E+03  0.75557135738E+03  0.10566000000E+00 0. -1.
          4    1    1    2  501    0  0.39417350860E+03 -0.38470020476E+03 -0.44372213437E+03  0.70728801415E+03  0.00000000000E+00 0.  1.
</event>
<event>
 5    1  0.4881333E-005  0.4964012E+03  0.7818608E-02  0.9873768E-01
         -4   -1    0    0    0  501 -0.00000000000E+00  0.00000000000E+00  0.24340767220E+04  0.24340767220E+04  0.00000000000E+00 0. -1.
         21   -1    0    0  501  502  0.00000000000E+00 -0.00000000000E+00 -0.14601631733E+03  0.14601631733E+03  0.00000000000E+00 0. -1.
        -13    1    1    2    0    0  0.11825015914E+03  0.48239056439E+02  0.63048203633E+03  0.64328665150E+03  0.10566000000E+00 0.  1.
         13    1    1    2    0    0 -0.53451088027E+03  0.11138623987E+03  0.77493802797E+03  0.94796504889E+03  0.10566000000E+00 0. -1.
         -4    1    1    2    0  502  0.41626072112E+03 -0.15962529631E+03  0.88264034040E+03  0.98884133898E+03  0.00000000000E+00 0. -1.
</event>
<event>
 5    1  0.4881333E-005  0.7586801E+02  0.7818608E-02  0.1212122E+00
         21   -1    0    0  501  502  0.00000000000E+00  0.00000000000E+00  0.87435972544E+02  0.87435972544E+02  0.00000000000E+00 0.  1.
         -4   -1    0    0    0  501 -0.00000000000E+00 -0.00000000000E+00 -0.13888357888E+03  0.13888357888E+03  0.00000000000E+00 0. -1.
        -13    1    1    2    0    0  0.91582660591E+02 -0.53570125904E+01 -0.44129488692E+02  0.10180129784E+03  0.10566000000E+00 0.  1.
         13    1    1    2    0    0 -0.66171063181E+02 -0.21268655103E+01 -0.43837040952E+02  0.79402962683E+02  0.10566000000E+00 0. -1.
         -4    1    1    2    0  502 -0.25411597411E+02  0.74838781007E+01  0.36518923305E+02  0.45115290908E+02  0.00000000000E+00 0. -1.
</event>
<event>
 5    1  0.4881333E-005  0.4781282E+03  0.7818608E-02  0.9798848E-01
          4   -1    0    0  502    0 -0.00000000000E+00  0.00000000000E+00  0.12170023186E+04  0.12170023186E+04  0.00000000000E+00 0.  1.
         21   -1    0    0  501  502  0.00000000000E+00 -0.00000000000E+00 -0.30447761042E+03  0.30447761042E+03  0.00000000000E+00 0.  1.
        -13    1    1    2    0    0 -0.41588797307E+03 -0.16074496149E+02  0.56471422958E+03  0.70151505174E+03  0.10566000000E+00 0.  1.
         13    1    1    2    0    0 -0.81267321762E+02  0.16533904669E+03  0.21699707746E+03  0.28465614474E+03  0.10566000000E+00 0. -1.
          4    1    1    2  501    0  0.49715529483E+03 -0.14926455054E+03  0.13081340115E+03  0.53530873255E+03  0.00000000000E+00 0.  1.
</event>
<event>
 5    1  0.4881333E-005  0.1003581E+03  0.7818608E-02  0.1163964E+00
         21   -1    0    0  501  502  0.00000000000E+00  0.00000000000E+00  0.16390668546E+03  0.16390668546E+03  0.00000000000E+00 0.  1.
          4   -1    0    0  502    0 -0.00000000000E+00 -0.00000000000E+00 -0.10137819131E+03  0.10137819131E+03  0.00000000000E+00 0.  1.
        -13    1    1    2    0    0 -0.42006439434E+02  0.10659775667E+03 -0.25860006257E+02  0.11745796596E+03  0.10566000000E+00 0.  1.
         13    1    1    2    0    0  0.31196593863E+02 -0.73278421696E+02  0.43051276016E+02  0.90533850495E+02  0.10566000000E+00 0. -1.
          4    1    1    2  501    0  0.10809845571E+02 -0.33319334974E+02  0.45337224393E+02  0.57293060313E+02  0.00000000000E+00 0.  1.
</event>
<event>
 5    1  0.4881333E-005  0.8635851E+03  0.7818608E-02  0.8914549E-01
         21   -1    0    0  501  502  0.00000000000E+00  0.00000000000E+00  0.98308512824E+03  0.98308512824E+03  0.00000000000E+00 0. -1.
          4   -1    0    0  502    0 -0.00000000000E+00 -0.00000000000E+00 -0.13785269120E+04  0.13785269120E+04  0.00000000000E+00 0.  1.
        -13    1    1    2    0    0 -0.83551882865E+03  0.16061731056E+03 -0.15874659065E+03  0.86549992761E+03  0.10566000000E+00 0.  1.
         13    1    1    2    0    0  0.88349826553E+03  0.35263947340E+03 -0.23808295876E+03  0.98061577073E+03  0.10566000000E+00 0. -1.
          4    1    1    2  501    0 -0.47979436874E+02 -0.51325678397E+03  0.13877656177E+01  0.51549634193E+03  0.00000000000E+00 0.  1.
</event>
<event>
 5    1  0.4881333E-005  0.4532817E+02  0.7818608E-02  0.1312075E+00
         -4   -1    0    0    0  501 -0.00000000000E+00  0.00000000000E+00  0.97987096022E+02  0.97987096022E+02  0.00000000000E+00 0. -1.
         21   -1    0    0  501  502  0.00000000000E+00 -0.00000000000E+00 -0.72010171969E+02  0.72010171969E+02  0.00000000000E+00 0. -1.
        -13    1    1    2    0    0  0.34565517812E+02 -0.21665396155E+02  0.19331282383E+02  0.45142818419E+02  0.10566000000E+00 0.  1.
         13    1    1    2    0    0 -0.16663283796E+02  0.53529736921E+02  0.44988786829E+02  0.71882542151E+02  0.10566000000E+00 0. -1.
         -4    1    1    2    0  502 -0.17902234016E+02 -0.31864340767E+02 -0.38343145158E+02  0.52971907422E+02  0.00000000000E+00 0. -1.
</event>
<event>
 5    1  0.4881333E-005  0.4996920E+03  0.7818608E-02  0.9519831E-01
         -4   -1    0    0    0  501 -0.00000000000E+00  0.00000000000E+00  0.19493647894E+04  0.19493647894E+04  0.00000000000E+00 0. -1.
         21   -1    0    0  501  502  0.00000000000E+00 -0.00000000000E+00 -0.61195794027E+03  0.61195794027E+03  0.00000000000E+00 0. -1.
        -13    1    1    2    0    0 -0.26988496065E+03 -0.33506087778E+03  0.14067052624E+04  0.14710280046E+04  0.10566000000E+00 0.  1.
         13    1    1    2    0    0  0.14823153760E+03 -0.33062915827E+03  0.12982317733E+03  0.38489257927E+03  0.10566000000E+00 0. -1.
         -4    1    1    2    0  502  0.12165342305E+03  0.66569003606E+03 -0.19912159064E+03  0.70540214580E+03  0.00000000000E+00 0. -1.
</event>
<event>
 5    1  0.4881333E-005  0.4456532E+03  0.7818608E-02  0.9605773E-01
          4   -1    0    0  502    0 -0.00000000000E+00  0.00000000000E+00  0.21333188005E+04  0.21333188005E+04  0.00000000000E+00 0.  1.
         21   -1    0    0  501  502  0.00000000000E+00 -0.00000000000E+00 -0.28073974539E+03  0.28073974539E+03  0.00000000000E+00 0.  1.
        -13    1    1    2    0    0 -0.27526581705E+03 -0.37238672868E+03  0.11714034211E+04  0.12596146759E+04  0.10566000000E+00 0.  1.
         13    1    1    2    0    0  0.17302102829E+03  0.39507854858E+03  0.85149587877E+03  0.95449912442E+03  0.10566000000E+00 0. -1.
          4    1    1    2  501    0  0.10224478876E+03 -0.22691819896E+02 -0.17032024472E+03  0.19994474557E+03  0.00000000000E+00 0.  1.
</event>
<event>
 5    1  0.4881333E-005  0.2713962E+03  0.7818608E-02  0.1019865E+00
         21   -1    0    0  501  502  0.00000000000E+00  0.00000000000E+00  0.72231337540E+03  0.72231337540E+03  0.00000000000E+00 0.  1.
         -4   -1    0    0    0  501 -0.00000000000E+00 -0.00000000000E+00 -0.19646054407E+03  0.19646054407E+03  0.00000000000E+00 0. -1.
        -13    1    1    2    0    0 -0.18703474773E+03  0.20869700833E+03  0.48241586523E+03  0.55790816120E+03  0.10566000000E+00 0.  1.
         13    1    1    2    0    0  0.17981084488E+03 -0.20067311884E+03 -0.43782251122E+02  0.27298083676E+03  0.10566000000E+00 0. -1.
         -4    1    1    2    0  502  0.72239028517E+01 -0.80238894815E+01  0.87219217224E+02  0.87884921505E+02  0.00000000000E+00 0. -1.
</event>
<event>
 5    1  0.4881333E-005  0.7887547E+02  0.7818608E-02  0.1217170E+00
         21   -1    0    0  501  502  0.00000000000E+00  0.00000000000E+00  0.66122647103E+03  0.66122647103E+03  0.00000000000E+00 0.  1.
          4   -1    0    0  502    0 -0.00000000000E+00 -0.00000000000E+00 -0.22792698428E+02  0.22792698428E+02  0.00000000000E+00 0.  1.
        -13    1    1    2    0    0  0.93663972644E+02  0.22148442731E+02  0.31649830221E+03  0.33080912888E+03  0.10566000000E+00 0.  1.
         13    1    1    2    0    0 -0.48294837739E+02  0.36192926102E+02  0.79832146577E+02  0.10007748020E+03  0.10566000000E+00 0. -1.
          4    1    1    2  501    0 -0.45369134905E+02 -0.58341368833E+02  0.24210332382E+03  0.25313256038E+03  0.00000000000E+00 0.  1.
</event>
<event>
 5    1  0.4881333E-005  0.3411087E+02  0.7818608E-02  0.1374648E+00
         21   -1    0    0  501  502  0.00000000000E+00  0.00000000000E+00  0.86190561454E+01  0.86190561454E+01  0.00000000000E+00 0. -1.
          4   -1    0    0  502    0 -0.00000000000E+00 -0.00000000000E+00 -0.19817177677E+03  0.19817177677E+03  0.00000000000E+00 0.  1.
        -13    1    1    2    0    0 -0.27424525308E+02  0.27366784715E+02 -0.10288573315E+03  0.10993875906E+03  0.10566000000E+00 0.  1.
         13    1    1    2    0    0  0.26225252741E+02 -0.15498373848E+02 -0.70141834535E+02  0.76471246814E+02  0.10566000000E+00 0. -1.
          4    1    1    2  501    0  0.11992725662E+01 -0.11868410867E+02 -0.16525152940E+02  0.20380827041E+02  0.00000000000E+00 0.  1.
</event>
<event>
 5    1  0.4881333E-005  0.3705289E+03  0.7818608E-02  0.1020197E+00
          4   -1    0    0  502    0 -0.00000000000E+00  0.00000000000E+00  0.12153657987E+04  0.12153657987E+04  0.00000000000E+00 0.  1.
         21   -1    0    0  501  502  0.00000000000E+00 -0.00000000000E+00 -0.30870035830E+03  0.30870035830E+03  0.00000000000E+00 0.  1.
        -13    1    1    2    0    0  0.74872730832E+02 -0.34534341853E+03 -0.88321606708E+02  0.36423717536E+03  0.10566000000E+00 0.  1.
         13    1    1    2    0    0  0.40803147302E+02 -0.97330248810E+02  0.37325788778E+03  0.38789113952E+03  0.10566000000E+00 0. -1.
          4    1    1    2  501    0 -0.11567587813E+03  0.44267366734E+03  0.62172915935E+03  0.77193784214E+03  0.00000000000E+00 0.  1.
</event>
<event>
 5    1  0.4881333E-005  0.5000394E+02  0.7818608E-02  0.1305501E+00
         21   -1    0    0  501  502  0.00000000000E+00  0.00000000000E+00  0.27562636787E+03  0.27562636787E+03  0.00000000000E+00 0. -1.
          4   -1    0    0  502    0 -0.00000000000E+00 -0.00000000000E+00 -0.17434533511E+03  0.17434533511E+03  0.00000000000E+00 0.  1.
        -13    1    1    2    0    0  0.13076556194E+02  0.36055367864E+02 -0.15412664644E+03  0.15882701338E+03  0.10566000000E+00 0.  1.
         13    1    1    2    0    0  0.35756287375E+02 -0.46813985906E+02  0.22508371294E+03  0.23266445873E+03  0.10566000000E+00 0. -1.
          4    1    1    2  501    0 -0.48832843569E+02  0.10758618042E+02  0.30323966260E+02  0.58480230873E+02  0.00000000000E+00 0.  1.
</event>
<event>
 5    1  0.4881333E-005  0.4531376E+03  0.7818608E-02  0.9884372E-01
         21   -1    0    0  501  502  0.00000000000E+00  0.00000000000E+00  0.96769660538E+02  0.96769660538E+02  0.00000000000E+00 0.  1.
          4   -1    0    0  502    0 -0.00000000000E+00 -0.00000000000E+00 -0.36085481119E+04  0.36085481119E+04  0.00000000000E+00 0.  1.
        -13    1    1    2    0    0 -0.15554274430E+03 -0.52987403236E+03 -0.20812344563E+04  0.21532526346E+04  0.10566000000E+00 0.  1.
         13    1    1    2    0    0 -0.31574987800E+02  0.15891186872E+03 -0.62531848019E+03  0.64596685264E+03  0.10566000000E+00 0. -1.
          4    1    1    2  501    0  0.18711773210E+03  0.37096216364E+03 -0.80522551491E+03  0.90609828516E+03  0.00000000000E+00 0.  1.
</event>
<event>
 5    1  0.4881333E-005  0.3595855E+03  0.7818608E-02  0.1031750E+00
         -4   -1    0    0    0  501 -0.00000000000E+00  0.00000000000E+00  0.11260437151E+04  0.11260437151E+04  0.00000000000E+00 0. -1.
         21   -1    0    0  501  502  0.00000000000E+00 -0.00000000000E+00 -0.27837299597E+03  0.27837299597E+03  0.00000000000E+00 0. -1.
        -13    1    1    2    0    0  0.78825770917E+02  0.16677883907E+02  0.11373191660E+03  0.13937938868E+03  0.10566000000E+00 0.  1.
         13    1    1    2    0    0 -0.19385354654E+03  0.30739784740E+03 -0.88120694391E+02  0.37394906343E+03  0.10566000000E+00 0. -1.
         -4    1    1    2    0  502  0.11502777563E+03 -0.32407573131E+03  0.82205949688E+03  0.89108825892E+03  0.00000000000E+00 0. -1.
</event>
<event>
 5    1  0.4881333E-005  0.9509704E+02  0.7818608E-02  0.1172933E+00
         21   -1    0    0  501  502  0.00000000000E+00  0.00000000000E+00  0.78061155137E+02  0.78061155137E+02  0.00000000000E+00 0. -1.
         -4   -1    0    0    0  501 -0.00000000000E+00 -0.00000000000E+00 -0.28531875808E+03  0.28531875808E+03  0.00000000000E+00 0. -1.
        -13    1    1    2    0    0  0.87903962731E+02  0.45937146601E+02 -0.15742197246E+03  0.18606186250E+03  0.10566000000E+00 0.  1.
         13    1    1    2    0    0 -0.95480561959E+02  0.51441225166E-01 -0.77625200472E+02  0.12305374139E+03  0.10566000000E+00 0. -1.
         -4    1    1    2    0  502  0.75765992288E+01 -0.45988587826E+02  0.27789569987E+02  0.54264309322E+02  0.00000000000E+00 0. -1.
</event>
<event>
 5    1  0.4881333E-005  0.4933788E+03  0.7818608E-02  0.9759682E-01
         -4   -1    0    0    0  501 -0.00000000000E+00  0.00000000000E+00  0.13215576550E+04  0.13215576550E+04  0.00000000000E+00 0. -1.
         21   -1    0    0  501  502  0.00000000000E+00 -0.00000000000E+00 -0.29275458530E+03  0.29275458530E+03  0.00000000000E+00 0. -1.
        -13    1    1    2    0    0  0.18912816876E+03 -0.31685884340E+02  0.31531990073E+03  0.36905299138E+03  0.10566000000E+00 0.  1.
         13    1    1    2    0    0  0.29674159987E+03  0.29611261469E+03  0.49961320869E+03  0.65218987046E+03  0.10566000000E+00 0. -1.
         -4    1    1    2    0  502 -0.48586976863E+03 -0.26442673035E+03  0.21386996030E+03  0.59306937849E+03  0.00000000000E+00 0. -1.
</event>
<event>
 5    1  0.4881333E-005  0.4263148E+03  0.7818608E-02  0.1008335E+00
         21   -1    0    0  501  502  0.00000000000E+00  0.00000000000E+00  0.15213384073E+04  0.15213384073E+04  0.00000000000E+00 0. -1.
         -4   -1    0    0    0  501 -0.00000000000E+00 -0.00000000000E+00 -0.31756688558E+03  0.31756688558E+03  0.00000000000E+00 0. -1.
        -13    1    1    2    0    0 -0.91296695871E+02 -0.43491591339E+02 -0.13700462890E+03  0.17028471657E+03  0.10566000000E+00 0.  1.
         13    1    1    2    0    0  0.74589599739E+02 -0.39353799736E+03  0.20168549346E+03  0.44845603262E+03  0.10566000000E+00 0. -1.
         -4    1    1    2    0  502  0.16707096132E+02  0.43702958870E+03  0.11390906572E+04  0.12201645437E+04  0.00000000000E+00 0. -1.
</event>
<event>
 5    1  0.4881333E-005  0.9661121E+02  0.7818608E-02  0.1172518E+00
          4   -1    0    0  502    0 -0.00000000000E+00  0.00000000000E+00  0.19813195376E+03  0.19813195376E+03  0.00000000000E+00 0.  1.
         21   -1    0    0  501  502  0.00000000000E+00 -0.00000000000E+00 -0.26862502912E+03  0.26862502912E+03  0.00000000000E+00 0.  1.
        -13    1    1    2    0    0  0.57598863228E+02 -0.10218972363E+03  0.93335829298E+02  0.14990649371E+03  0.10566000000E+00 0.  1.
         13    1    1    2    0    0  0.38703653105E+02  0.83017229557E+02  0.32617584937E+02  0.97230402540E+02  0.10566000000E+00 0. -1.
          4    1    1    2  501    0 -0.96302516333E+02  0.19172494077E+02 -0.19644648959E+03  0.21962008663E+03  0.00000000000E+00 0.  1.
</event>
<event>
 5    1  0.4881333E-005  0.4914523E+03  0.7818608E-02  0.9978825E-01
         21   -1    0    0  501  502  0.00000000000E+00  0.00000000000E+00  0.86166550437E+03  0.86166550437E+03  0.00000000000E+00 0. -1.
         -4   -1    0    0    0  501 -0.00000000000E+00 -0.00000000000E+00 -0.35788539493E+03  0.35788539493E+03  0.00000000000E+00 0. -1.
        -13    1    1    2    0    0 -0.88333186959E+02  0.28386107260E+02  0.16387895737E+02  0.94218349032E+02  0.10566000000E+00 0.  1.
         13    1    1    2    0    0 -0.39389634583E+03 -0.21898357396E+03  0.62567265507E+02  0.45499759428E+03  0.10566000000E+00 0. -1.
         -4    1    1    2    0  502  0.48222953279E+03  0.19059746670E+03  0.42482494820E+03  0.67033495599E+03  0.00000000000E+00 0. -1.
</event>
<event>
 5    1  0.4881333E-005  0.3511470E+03  0.7818608E-02  0.1032313E+00
         21   -1    0    0  501  502  0.00000000000E+00  0.00000000000E+00  0.46356051699E+03  0.46356051699E+03  0.00000000000E+00 0. -1.
         -4   -1    0    0    0  501 -0.00000000000E+00 -0.00000000000E+00 -0.88234733892E+03  0.88234733892E+03  0.00000000000E+00 0. -1.
        -13    1    1    2    0    0  0.82945364365E+02  0.18723768373E+02 -0.29169125761E+03  0.30383270710E+03  0.10566000000E+00 0.  1.
         13    1    1    2    0    0 -0.31095245670E+03 -0.18527009980E+03  0.33978260197E+03  0.49645610881E+03  0.10566000000E+00 0. -1.
         -4    1    1    2    0  502  0.22800709233E+03  0.16654633142E+03 -0.46687816629E+03  0.54561904001E+03  0.00000000000E+00 0. -1.
</event>
<event>
 5    1  0.4881333E-005  0.4631915E+03  0.7818608E-02  0.9831769E-01
          4   -1    0    0  502    0 -0.00000000000E+00  0.00000000000E+00  0.63034610091E+03  0.63034610091E+03  0.00000000000E+00 0.  1.
         21   -1    0    0  501  502  0.00000000000E+00 -0.00000000000E+00 -0.62273404242E+03  0.62273404242E+03  0.00000000000E+00 0.  1.
        -13    1    1    2    0    0  0.25889114934E+03  0.31004075483E+03  0.10921513952E+03  0.41842305712E+03  0.10566000000E+00 0.  1.
         13    1    1    2    0    0  0.17415785529E+03 -0.49868468850E+02  0.18075530477E+03  0.25591075419E+03  0.10566000000E+00 0. -1.
          4    1    1    2  501    0 -0.43304900463E+03 -0.26017228598E+03 -0.28235838579E+03  0.57874633202E+03  0.00000000000E+00 0.  1.
</event>
<event>
 5    1  0.4881333E-005  0.4443423E+03  0.7818608E-02  0.9609091E-01
         -4   -1    0    0    0  501 -0.00000000000E+00  0.00000000000E+00  0.21091303263E+04  0.21091303263E+04  0.00000000000E+00 0. -1.
         21   -1    0    0  501  502  0.00000000000E+00 -0.00000000000E+00 -0.37191649679E+03  0.37191649679E+03  0.00000000000E+00 0.  1.
        -13    1    1    2    0    0 -0.35812904963E+03  0.33753540571E+03  0.12966666396E+03  0.50892044683E+03  0.10566000000E+00 0.  1.
         13    1    1    2    0    0  0.83337324133E+02 -0.44191544070E+03  0.16166549928E+04  0.16780368718E+04  0.10566000000E+00 0. -1.
         -4    1    1    2    0  502  0.27479172550E+03  0.10438003499E+03 -0.91078272352E+01  0.29408950445E+03  0.00000000000E+00 0. -1.
</event>
<event>
 5    1  0.4881333E-005  0.4517163E+03  0.7818608E-02  0.9590584E-01
         21   -1    0    0  501  502  0.00000000000E+00  0.00000000000E+00  0.69799071665E+03  0.69799071665E+03  0.00000000000E+00 0. -1.
          4   -1    0    0  502    0 -0.00000000000E+00 -0.00000000000E+00 -0.48885885402E+03  0.48885885402E+03  0.00000000000E+00 0.  1.
        -13    1    1    2    0    0 -0.22077154914E+03 -0.44753802305E+03  0.36597931632E+03  0.61884669356E+03  0.10566000000E+00 0.  1.
         13    1    1    2    0    0  0.18503825401E+03  0.39753444151E+03 -0.21051982463E+03  0.48640661525E+03  0.10566000000E+00 0. -1.
          4    1    1    2  501    0  0.35733295125E+02  0.50003581543E+02  0.53672370942E+02  0.81596261864E+02  0.00000000000E+00 0.  1.
</event>
<event>
 5    1  0.4881333E-005  0.5647080E+03  0.7818608E-02  0.9346409E-01
         21   -1    0    0  501  502  0.00000000000E+00  0.00000000000E+00  0.31730976662E+03  0.31730976662E+03  0.00000000000E+00 0.  1.
         -4   -1    0    0    0  501 -0.00000000000E+00 -0.00000000000E+00 -0.24477129858E+04  0.24477129858E+04  0.00000000000E+00 0. -1.
        -13    1    1    2    0    0 -0.25876453345E+02  0.54258498312E+03 -0.99661526690E+03  0.11350374690E+04  0.10566000000E+00 0.  1.
         13    1    1    2    0    0 -0.38720241503E+03 -0.59960639820E+03 -0.50055929666E+03  0.87178733852E+03  0.10566000000E+00 0. -1.
         -4    1    1    2    0  502  0.41307886838E+03  0.57021415081E+02 -0.63322865565E+03  0.75819794487E+03  0.00000000000E+00 0. -1.
</event>
<event>
 5    1  0.4881333E-005  0.3971582E+03  0.7818608E-02  0.9737289E-01
         -4   -1    0    0    0  501 -0.00000000000E+00  0.00000000000E+00  0.22282533677E+04  0.22282533677E+04  0.00000000000E+00 0. -1.
         21   -1    0    0  501  502  0.00000000000E+00 -0.00000000000E+00 -0.33202510296E+03  0.33202510296E+03  0.00000000000E+00 0. -1.
        -13    1    1    2    0    0 -0.25320029596E+03 -0.27448654886E+03  0.12959373055E+04  0.13486685161E+04  0.10566000000E+00 0.  1.
         13    1    1    2    0    0  0.48409366907E+03  0.16356622250E+03  0.75552015652E+03  0.91209172107E+03  0.10566000000E+00 0. -1.
         -4    1    1    2    0  502 -0.23089337311E+03  0.11092032636E+03 -0.15522919723E+03  0.29951823354E+03  0.00000000000E+00 0. -1.
</event>
<event>
 5    1  0.4881333E-005  0.4613288E+03  0.7818608E-02  0.9784137E-01
         21   -1    0    0  501  502  0.00000000000E+00  0.00000000000E+00  0.74104468357E+03  0.74104468357E+03  0.00000000000E+00 0. -1.
         -4   -1    0    0    0  501 -0.00000000000E+00 -0.00000000000E+00 -0.53435024667E+03  0.53435024667E+03  0.00000000000E+00 0. -1.
        -13    1    1    2    0    0  0.16363601127E+03 -0.14050707868E+03 -0.55277089570E+02  0.22265343281E+03  0.10566000000E+00 0.  1.
         13    1    1    2    0    0 -0.53661793884E+03  0.27886956148E+03  0.63254825503E+02  0.60805281737E+03  0.10566000000E+00 0. -1.
         -4    1    1    2    0  502  0.37298192756E+03 -0.13836248280E+03  0.19871670098E+03  0.44468868007E+03  0.00000000000E+00 0. -1.
</event>
<event>
 5    1  0.4881333E-005  0.4540026E+03  0.7818608E-02  0.9804036E-01
         -4   -1    0    0    0  501 -0.00000000000E+00  0.00000000000E+00  0.15275356678E+04  0.15275356678E+04  0.00000000000E+00 0. -1.
         21   -1    0    0  501  502  0.00000000000E+00 -0.00000000000E+00 -0.34283967027E+03  0.34283967027E+03  0.00000000000E+00 0. -1.
        -13    1    1    2    0    0 -0.13886211415E+03 -0.15941491052E+03  0.72490502699E+03  0.75510470119E+03  0.10566000000E+00 0.  1.
         13    1    1    2    0    0 -0.39118721132E+03 -0.91102557357E+02  0.61087390513E+02  0.40627428013E+03  0.10566000000E+00 0. -1.
         -4    1    1    2    0  502  0.53004932547E+03  0.25051746787E+03  0.39870357999E+03  0.70899635671E+03  0.00000000000E+00 0. -1.
</event>
<event>
 5    1  0.4881333E-005  0.8279233E+02  0.7818608E-02  0.1196666E+00
          4   -1    0    0  502    0 -0.00000000000E+00  0.00000000000E+00  0.40170529862E+03  0.40170529862E+03  0.00000000000E+00 0.  1.
         21   -1    0    0  501  502  0.00000000000E+00 -0.00000000000E+00 -0.25970829532E+02  0.25970829532E+02  0.00000000000E+00 0.  1.
        -13    1    1    2    0    0 -0.44941188835E+02 -0.76238069515E+02  0.25587195502E+03  0.27074420073E+03  0.10566000000E+00 0.  1.
         13    1    1    2    0    0  0.37094598249E+02  0.64850498874E+02  0.12188064500E+03  0.14295628427E+03  0.10566000000E+00 0. -1.
          4    1    1    2  501    0  0.78465905857E+01  0.11387570641E+02 -0.20181309370E+01  0.13975643148E+02  0.00000000000E+00 0.  1.
</event>
<event>
 5    1  0.4881333E-005  0.1660598E+03  0.7818608E-02  0.1134188E+00
         21   -1    0    0  501  502  0.00000000000E+00  0.00000000000E+00  0.32866085853E+03  0.32866085853E+03  0.00000000000E+00 0. -1.
         -4   -1    0    0    0  501 -0.00000000000E+00 -0.00000000000E+00 -0.36535305445E+03  0.36535305445E+03  0.00000000000E+00 0. -1.
        -13    1    1    2    0    0  0.46248163433E+02 -0.37382570744E+01 -0.15030611801E+03  0.15730482339E+03  0.10566000000E+00 0.  1.
         13    1    1    2    0    0 -0.58039871573E+02 -0.15702684100E+03  0.26638381076E+03  0.31462104394E+03  0.10566000000E+00 0. -1.
         -4    1    1    2    0  502  0.11791708140E+02  0.16076509807E+03 -0.15276988867E+03  0.22208804566E+03  0.00000000000E+00 0. -1.
</event>
<event>
 5    1  0.4881333E-005  0.3154186E+03  0.7818608E-02  0.1049821E+00
          4   -1    0    0  502    0 -0.00000000000E+00  0.00000000000E+00  0.47822713991E+03  0.47822713991E+03  0.00000000000E+00 0.  1.
         21   -1    0    0  501  502  0.00000000000E+00 -0.00000000000E+00 -0.93823166000E+03  0.93823166000E+03  0.00000000000E+00 0.  1.
        -13    1    1    2    0    0 -0.13265630175E+03  0.28828423914E+03 -0.82181119295E+03  0.88095354302E+03  0.10566000000E+00 0.  1.
         13    1    1    2    0    0 -0.50743838703E+02 -0.46892047242E+02  0.15158662053E+03  0.16659026367E+03  0.10566000000E+00 0. -1.
          4    1    1    2  501    0  0.18340014046E+03 -0.24139219190E+03  0.21022005232E+03  0.36891499323E+03  0.00000000000E+00 0.  1.
</event>
<event>
 5    1  0.4881333E-005  0.4247808E+03  0.7818608E-02  0.9915453E-01
         21   -1    0    0  501  502  0.00000000000E+00  0.00000000000E+00  0.45291264970E+03  0.45291264970E+03  0.00000000000E+00 0. -1.
         -4   -1    0    0    0  501 -0.00000000000E+00 -0.00000000000E+00 -0.77671217128E+03  0.77671217128E+03  0.00000000000E+00 0. -1.
        -13    1    1    2    0    0  0.16946396737E+02 -0.17644455848E+03 -0.29204043657E+02  0.17964617978E+03  0.10566000000E+00 0.  1.
         13    1    1    2    0    0 -0.43762126345E+03  0.13646805624E+03 -0.40667535666E+03  0.61279748488E+03  0.10566000000E+00 0. -1.
         -4    1    1    2    0  502  0.42067486672E+03  0.39976502244E+02  0.11207987873E+03  0.43718115631E+03  0.00000000000E+00 0. -1.
</event>
<event>
 5    1  0.4881333E-005  0.7159829E+03  0.7818608E-02  0.9100110E-01
         21   -1    0    0  501  502  0.00000000000E+00  0.00000000000E+00  0.54736251276E+03  0.54736251276E+03  0.00000000000E+00 0. -1.
         -4   -1    0    0    0  501 -0.00000000000E+00 -0.00000000000E+00 -0.17116679897E+04  0.17116679897E+04  0.00000000000E+00 0. -1.
        -13    1    1    2    0    0 -0.26738737988E+03 -0.64819229681E+03 -0.57215586248E+03  0.90499260036E+03  0.10566000000E+00 0.  1.
         13    1    1    2    0    0  0.55330882324E+03  0.52600934239E+03 -0.68899339352E+03  0.10283717176E+04  0.10566000000E+00 0. -1.
         -4    1    1    2    0  502 -0.28592144336E+03  0.12218295442E+03  0.96843779100E+02  0.32566618442E+03  0.00000000000E+00 0. -1.
</event>
<event>
 5    1  0.4881333E-005  0.3986518E+03  0.7818608E-02  0.1010507E+00
         21   -1    0    0  501  502  0.00000000000E+00  0.00000000000E+00  0.20833251568E+03  0.20833251568E+03  0.00000000000E+00 0.  1.
          4   -1    0    0  502    0 -0.00000000000E+00 -0.00000000000E+00 -0.14215630850E+04  0.14215630850E+04  0.00000000000E+00 0.  1.
        -13    1    1    2    0    0 -0.37900166269E+03  0.10410998962E+03 -0.13275943977E+03  0.41485687926E+03  0.10566000000E+00 0.  1.
         13    1    1    2    0    0  0.13521710238E+02  0.11453136776E+03 -0.36090833450E+03  0.37888666897E+03  0.10566000000E+00 0. -1.
          4    1    1    2  501    0  0.36547995245E+03 -0.21864135738E+03 -0.71956279508E+03  0.83615205248E+03  0.00000000000E+00 0.  1.
</event>
<event>
 5    1  0.4881333E-005  0.1669627E+03  0.7818608E-02  0.1110539E+00
         -4   -1    0    0    0  501 -0.00000000000E+00  0.00000000000E+00  0.35842000480E+03  0.35842000480E+03  0.00000000000E+00 0. -1.
         21   -1    0    0  501  502  0.00000000000E+00 -0.00000000000E+00 -0.14752500689E+03  0.14752500689E+03  0.00000000000E+00 0. -1.
        -13    1    1    2    0    0 -0.53075366115E+02  0.65727345372E+02  0.31239280474E+02  0.90072094605E+02  0.10566000000E+00 0.  1.
         13    1    1    2    0    0  0.20398107422E+03 -0.56188094045E+02  0.15589812429E+03  0.26281099078E+03  0.10566000000E+00 0. -1.
         -4    1    1    2    0  502 -0.15090570810E+03 -0.95392513269E+01  0.23757593143E+02  0.15306192631E+03  0.00000000000E+00 0. -1.
</event>
<event>
 5    1  0.4881333E-005  0.3366547E+03  0.7818608E-02  0.1016774E+00
         21   -1    0    0  501  502  0.00000000000E+00  0.00000000000E+00  0.18768674566E+03  0.18768674566E+03  0.00000000000E+00 0.  1.
          4   -1    0    0  502    0 -0.00000000000E+00 -0.00000000000E+00 -0.21555515201E+04  0.21555515201E+04  0.00000000000E+00 0.  1.
        -13    1    1    2    0    0 -0.23890043501E+03 -0.25805469532E+03 -0.19123937084E+02  0.35218089068E+03  0.10566000000E+00 0.  1.
         13    1    1    2    0    0  0.11259476094E+02  0.15637899731E+03 -0.65395544027E+03  0.67248709699E+03  0.10566000000E+00 0. -1.
          4    1    1    2  501    0  0.22764095892E+03  0.10167569801E+03 -0.12947853971E+04  0.13185702781E+04  0.00000000000E+00 0.  1.
</event>
<event>
 5    1  0.4881333E-005  0.4151973E+03  0.7818608E-02  0.9841428E-01
         21   -1    0    0  501  502  0.00000000000E+00  0.00000000000E+00  0.20743363504E+03  0.20743363504E+03  0.00000000000E+00 0.  1.
         -4   -1    0    0    0  501 -0.00000000000E+00 -0.00000000000E+00 -0.28146217644E+04  0.28146217644E+04  0.00000000000E+00 0. -1.
        -13    1    1    2    0    0 -0.14991603306E+03  0.19177866768E+03 -0.24489592376E+02  0.24465000643E+03  0.10566000000E+00 0.  1.
         13    1    1    2    0    0  0.45956418003E+03 -0.38147548084E+03 -0.20303816418E+04  0.21164055378E+04  0.10566000000E+00 0. -1.
         -4    1    1    2    0  502 -0.30964814697E+03  0.18969681316E+03 -0.55231689518E+03  0.66099985518E+03  0.00000000000E+00 0. -1.
</event>
<event>
 5    1  0.4881333E-005  0.4485509E+03  0.7818608E-02  0.9598482E-01
         -4   -1    0    0    0  501 -0.00000000000E+00  0.00000000000E+00  0.13328468181E+04  0.13328468181E+04  0.00000000000E+00 0. -1.
         21   -1    0    0  501  502  0.00000000000E+00 -0.00000000000E+00 -0.49803506522E+03  0.49803506522E+03  0.00000000000E+00 0. -1.
        -13    1    1    2    0    0 -0.40851376145E+03  0.84174783880E+02  0.57345556390E+03  0.70909814727E+03  0.10566000000E+00 0.  1.
         13    1    1    2    0    0  0.51032490875E+03  0.11539616481E+03  0.54820528628E+03  0.75781055311E+03  0.10566000000E+00 0. -1.
         -4    1    1    2    0  502 -0.10181114730E+03 -0.19957094869E+03 -0.28684909730E+03  0.36397318293E+03  0.00000000000E+00 0. -1.
</event>
<event>
 5    1  0.4881333E-005  0.4752924E+03  0.7818608E-02  0.9871071E-01
         21   -1    0    0  501  502  0.00000000000E+00  0.00000000000E+00  0.18960571013E+03  0.18960571013E+03  0.00000000000E+00 0.  1.
          4   -1    0    0  502    0 -0.00000000000E+00 -0.00000000000E+00 -0.19769971497E+04  0.19769971497E+04  0.00000000000E+00 0.  1.
        -13    1    1    2    0    0 -0.91610782626E+02 -0.41477075317E+03 -0.40101818200E+03  0.58416000089E+03  0.10566000000E+00 0.  1.
         13    1    1    2    0    0 -0.58006064367E+02 -0.13487535921E+03 -0.55880729528E+03  0.57777302676E+03  0.10566000000E+00 0. -1.
          4    1    1    2  501    0  0.14961684699E+03  0.54964611238E+03 -0.82756596229E+03  0.10046698322E+04  0.00000000000E+00 0.  1.
</event>
<event>
 5    1  0.4881333E-005  0.3716065E+03  0.7818608E-02  0.1018844E+00
         -4   -1    0    0    0  501 -0.00000000000E+00  0.00000000000E+00  0.28203699453E+03  0.28203699453E+03  0.00000000000E+00 0. -1.
         21   -1    0    0  501  502  0.00000000000E+00 -0.00000000000E+00 -0.18272787860E+04  0.18272787860E+04  0.00000000000E+00 0. -1.
        -13    1    1    2    0    0  0.10570610366E+03  0.27338356269E+02  0.11927981320E+03  0.16170606382E+03  0.10566000000E+00 0.  1.
         13    1    1    2    0    0  0.20769951463E+03 -0.30024032926E+03 -0.14183880524E+04  0.14646187293E+04  0.10566000000E+00 0. -1.
         -4    1    1    2    0  502 -0.31340561830E+03  0.27290197299E+03 -0.24613355230E+03  0.48299098750E+03  0.00000000000E+00 0. -1.
</event>
<event>
 5    1  0.4881333E-005  0.4758646E+03  0.7818608E-02  0.1016916E+00
         21   -1    0    0  501  502  0.00000000000E+00  0.00000000000E+00  0.37378263396E+03  0.37378263396E+03  0.00000000000E+00 0. -1.
         -4   -1    0    0    0  501 -0.00000000000E+00 -0.00000000000E+00 -0.96353259648E+03  0.96353259648E+03  0.00000000000E+00 0. -1.
        -13    1    1    2    0    0  0.52328661806E+02 -0.17777585148E+02  0.10109731029E+03  0.11521722394E+03  0.10566000000E+00 0.  1.
         13    1    1    2    0    0  0.24516741755E+03 -0.37309459611E+03 -0.55534971314E+03  0.71254470409E+03  0.10566000000E+00 0. -1.
         -4    1    1    2    0  502 -0.29749607936E+03  0.39087218125E+03 -0.13549755967E+03  0.50955330240E+03  0.00000000000E+00 0. -1.
</event>
<event>
 5    1  0.4881333E-005  0.3824017E+03  0.7818608E-02  0.9901584E-01
         -4   -1    0    0    0  501 -0.00000000000E+00  0.00000000000E+00  0.21322616058E+04  0.21322616058E+04  0.00000000000E+00 0. -1.
         21   -1    0    0  501  502  0.00000000000E+00 -0.00000000000E+00 -0.19380026413E+03  0.19380026413E+03  0.00000000000E+00 0.  1.
        -13    1    1    2    0    0  0.92848442791E+02  0.23693640772E+03  0.40113215337E+03  0.47504390351E+03  0.10566000000E+00 0.  1.
         13    1    1    2    0    0  0.66826120713E+02  0.33095610472E+03  0.20771141471E+03  0.39641104503E+03  0.10566000000E+00 0. -1.
         -4    1    1    2    0  502 -0.15967456350E+03 -0.56789251244E+03  0.13296177736E+04  0.14546069214E+04  0.00000000000E+00 0. -1.
</event>
<event>
 5    1  0.4881333E-005  0.1035017E+03  0.7818608E-02  0.1158888E+00
         -4   -1    0    0    0  501 -0.00000000000E+00  0.00000000000E+00  0.85854349084E+02  0.85854349084E+02  0.00000000000E+00 0. -1.
         21   -1    0    0  501  502  0.00000000000E+00 -0.00000000000E+00 -0.24300706832E+03  0.24300706832E+03  0.00000000000E+00 0. -1.
        -13    1    1    2    0    0  0.23958669480E+02  0.85870841774E+02 -0.56970842612E+02  0.10579937326E+03  0.10566000000E+00 0.  1.
         13    1    1    2    0    0 -0.21536698559E+02 -0.11094246483E+03  0.67389717252E+01  0.11321433121E+03  0.10566000000E+00 0. -1.
         -4    1    1    2    0  502 -0.24219709206E+01  0.25071623053E+02 -0.10692084835E+03  0.10984771294E+03  0.00000000000E+00 0. -1.
</event>
<event>
 5    1  0.4881333E-005  0.1410982E+02  0.7818608E-02  0.1613560E+00
         21   -1    0    0  501  502  0.00000000000E+00  0.00000000000E+00  0.40082469248E+02  0.40082469248E+02  0.00000000000E+00 0.  1.
         -4   -1    0    0    0  501 -0.00000000000E+00 -0.00000000000E+00 -0.38564927523E+02  0.38564927523E+02  0.00000000000E+00 0. -1.
        -13    1    1    2    0    0  0.19958635772E+02  0.11918757636E+02 -0.10078888971E+02  0.25337701009E+02  0.10566000000E+00 0.  1.
         13    1    1    2    0    0 -0.11101969572E+02 -0.45014254334E+01 -0.17952457563E+02  0.21582827802E+02  0.10566000000E+00 0. -1.
         -4    1    1    2    0  502 -0.88566662004E+01 -0.74173322031E+01  0.29548888260E+02  0.31726867960E+02  0.00000000000E+00 0. -1.
</event>
<event>
 5    1  0.4881333E-005  0.5189273E+03  0.7818608E-02  0.9781418E-01
          4   -1    0    0  502    0 -0.00000000000E+00  0.00000000000E+00  0.22732475201E+04  0.22732475201E+04  0.00000000000E+00 0.  1.
         21   -1    0    0  501  502  0.00000000000E+00 -0.00000000000E+00 -0.51062949086E+03  0.51062949086E+03  0.00000000000E+00 0.  1.
        -13    1    1    2    0    0  0.11449410620E+03  0.43661914232E+02  0.53504840254E+03  0.54890078095E+03  0.10566000000E+00 0.  1.
         13    1    1    2    0    0 -0.81372822803E+02 -0.56153113240E+03  0.15317549498E+04  0.16334662489E+04  0.10566000000E+00 0. -1.
          4    1    1    2  501    0 -0.33121283399E+02  0.51786921817E+03 -0.30418532311E+03  0.60150998108E+03  0.00000000000E+00 0.  1.
</event>
<event>
 5    1  0.4881333E-005  0.4137774E+03  0.7818608E-02  0.1011814E+00
         -4   -1    0    0    0  501 -0.00000000000E+00  0.00000000000E+00  0.14612228236E+04  0.14612228236E+04  0.00000000000E+00 0. -1.
         21   -1    0    0  501  502  0.00000000000E+00 -0.00000000000E+00 -0.18872206095E+03  0.18872206095E+03  0.00000000000E+00 0. -1.
        -13    1    1    2    0    0  0.59441674203E+02 -0.79047060840E+02  0.23344290647E+03  0.25352978564E+03  0.10566000000E+00 0.  1.
         13    1    1    2    0    0  0.31097148699E+03  0.27141372267E+03  0.83580982144E+03  0.93217312950E+03  0.10566000000E+00 0. -1.
         -4    1    1    2    0  502 -0.37041316120E+03 -0.19236666183E+03  0.20324803479E+03  0.46424196947E+03  0.00000000000E+00 0. -1.
</event>
<event>
 5    1  0.4881333E-005  0.5517748E+03  0.7818608E-02  0.9429281E-01
         21   -1    0    0  501  502  0.00000000000E+00  0.00000000000E+00  0.23846845636E+03  0.23846845636E+03  0.00000000000E+00 0.  1.
          4   -1    0    0  502    0 -0.00000000000E+00 -0.00000000000E+00 -0.36892613868E+04  0.36892613868E+04  0.00000000000E+00 0.  1.
        -13    1    1    2    0    0 -0.13767365808E+03 -0.23742413287E+03 -0.72849368045E+03  0.77847755820E+03  0.10566000000E+00 0.  1.
         13    1    1    2    0    0  0.65855382072E+02 -0.61101218835E+03 -0.17606294954E+04  0.18648026858E+04  0.10566000000E+00 0. -1.
          4    1    1    2  501    0  0.71818276004E+02  0.84843632123E+03 -0.96166975460E+03  0.12844495992E+04  0.00000000000E+00 0.  1.
</event>
<event>
 5    1  0.4881333E-005  0.5168758E+03  0.7818608E-02  0.9451916E-01
         21   -1    0    0  501  502  0.00000000000E+00  0.00000000000E+00  0.30316390197E+03  0.30316390197E+03  0.00000000000E+00 0. -1.
          4   -1    0    0  502    0 -0.00000000000E+00 -0.00000000000E+00 -0.28124047695E+04  0.28124047695E+04  0.00000000000E+00 0.  1.
        -13    1    1    2    0    0  0.15533876983E+03 -0.23822981231E+03 -0.14160338334E+04  0.14443113949E+04  0.10566000000E+00 0.  1.
         13    1    1    2    0    0  0.52165599088E+03  0.72255179280E+02 -0.26751909583E+03  0.59068795616E+03  0.10566000000E+00 0. -1.
          4    1    1    2  501    0 -0.67699476071E+03  0.16597463303E+03 -0.82568793837E+03  0.10805693205E+04  0.00000000000E+00 0.  1.
</event>
<event>
 5    1  0.4881333E-005  0.4717959E+03  0.7818608E-02  0.9581398E-01
         21   -1    0    0  501  502  0.00000000000E+00  0.00000000000E+00  0.84209487166E+03  0.84209487166E+03  0.00000000000E+00 0.  1.
         -4   -1    0    0    0  501 -0.00000000000E+00 -0.00000000000E+00 -0.80021153531E+03  0.80021153531E+03  0.00000000000E+00 0. -1.
        -13    1    1    2    0    0  0.36697351830E+03 -0.34882207064E+03 -0.92082361719E+02  0.51461206030E+03  0.10566000000E+00 0.  1.
         13    1    1    2    0    0  0.13735848726E+03  0.92992533768E+02 -0.34745527563E+03  0.38501966844E+03  0.10566000000E+00 0. -1.
         -4    1    1    2    0  502 -0.50433200556E+03  0.25582953687E+03  0.48142097370E+03  0.74267467824E+03  0.00000000000E+00 0. -1.
</event>
<event>
 5    1  0.4881333E-005  0.2508024E+03  0.7818608E-02  0.1029978E+00
         21   -1    0    0  501  502  0.00000000000E+00  0.00000000000E+00  0.40894412716E+03  0.40894412716E+03  0.00000000000E+00 0. -1.
         -4   -1    0    0    0  501 -0.00000000000E+00 -0.00000000000E+00 -0.45648173240E+03  0.45648173240E+03  0.00000000000E+00 0. -1.
        -13    1    1    2    0    0 -0.12514633686E+03  0.19589260350E+03 -0.23036668859E+03  0.32726799433E+03  0.10566000000E+00 0.  1.
         13    1    1    2    0    0  0.19812934872E+03 -0.23096985928E+03 -0.34478912507E+02  0.30625336128E+03  0.10566000000E+00 0. -1.
         -4    1    1    2    0  502 -0.72983011861E+02  0.35077255781E+02  0.21730799585E+03  0.23190450396E+03  0.00000000000E+00 0. -1.
</event>
<event>
 5    1  0.4881333E-005  0.4846798E+03  0.7818608E-02  0.9512198E-01
         21   -1    0    0  501  502  0.00000000000E+00  0.00000000000E+00  0.56362682926E+03  0.56362682926E+03  0.00000000000E+00 0.  1.
         -4   -1    0    0    0  501 -0.00000000000E+00 -0.00000000000E+00 -0.11771421107E+04  0.11771421107E+04  0.00000000000E+00 0. -1.
        -13    1    1    2    0    0 -0.39291890949E+03 -0.29681623235E+03 -0.87803267100E+02  0.50019453226E+03  0.10566000000E+00 0.  1.
         13    1    1    2    0    0  0.15235732826E+03  0.48473417659E+03 -0.71814540095E+03  0.87972314139E+03  0.10566000000E+00 0. -1.
         -4    1    1    2    0  502  0.24056158123E+03 -0.18791794424E+03  0.19243338660E+03  0.36085126633E+03  0.00000000000E+00 0. -1.
</event>
<event>
 5    1  0.4881333E-005  0.2013243E+03  0.7818608E-02  0.1059232E+00
         21   -1    0    0  501  502  0.00000000000E+00  0.00000000000E+00  0.13963292424E+03  0.13963292424E+03  0.00000000000E+00 0. -1.
          4   -1    0    0  502    0 -0.00000000000E+00 -0.00000000000E+00 -0.70410026673E+03  0.70410026673E+03  0.00000000000E+00 0.  1.
        -13    1    1    2    0    0  0.74227172147E+00 -0.19420580857E+03 -0.46755553049E+03  0.50628512945E+03  0.10566000000E+00 0.  1.
         13    1    1    2    0    0 -0.21572451512E+02  0.22265648902E+03 -0.15312731034E+03  0.27108903906E+03  0.10566000000E+00 0. -1.
          4    1    1    2  501    0  0.20830179791E+02 -0.28450680447E+02  0.56215498340E+02  0.66359022459E+02  0.00000000000E+00 0.  1.
</event>
<event>
 5    1  0.4881333E-005  0.3754905E+03  0.7818608E-02  0.1013896E+00
         21   -1    0    0  501  502  0.00000000000E+00  0.00000000000E+00  0.58404271655E+03  0.58404271655E+03  0.00000000000E+00 0.  1.
          4   -1    0    0  502    0 -0.00000000000E+00 -0.00000000000E+00 -0.53621497437E+03  0.53621497437E+03  0.00000000000E+00 0.  1.
        -13    1    1    2    0    0  0.14804016731E+03 -0.44059480788E+03 -0.26233426900E+03  0.53372179618E+03  0.10566000000E+00 0.  1.
         13    1    1    2    0    0  0.15491830243E+02  0.12285539852E+03  0.18364670086E+02  0.12518273851E+03  0.10566000000E+00 0. -1.
          4    1    1    2  501    0 -0.16353199755E+03  0.31773940936E+03  0.29179734110E+03  0.46135315622E+03  0.00000000000E+00 0.  1.
</event>
<event>
 5    1  0.4881333E-005  0.4442947E+03  0.7818608E-02  0.9789214E-01
          4   -1    0    0  502    0 -0.00000000000E+00  0.00000000000E+00  0.16592402547E+04  0.16592402547E+04  0.00000000000E+00 0.  1.
         21   -1    0    0  501  502  0.00000000000E+00 -0.00000000000E+00 -0.24714091489E+03  0.24714091489E+03  0.00000000000E+00 0.  1.
        -13    1    1    2    0    0  0.22953602111E+02 -0.49355846267E+03  0.19018686029E+03  0.52943165462E+03  0.10566000000E+00 0.  1.
         13    1    1    2    0    0 -0.14108310890E+03  0.19079691264E+03  0.21977817603E+03  0.32343525366E+03  0.10566000000E+00 0. -1.
          4    1    1    2  501    0  0.11812950679E+03  0.30276155003E+03  0.10021343035E+04  0.10535142613E+04  0.00000000000E+00 0.  1.
</event>
<event>
 5    1  0.4881333E-005  0.1017899E+04  0.7818608E-02  0.8757953E-01
         21   -1    0    0  501  502  0.00000000000E+00  0.00000000000E+00  0.98107489526E+03  0.98107489526E+03  0.00000000000E+00 0.  1.
         -4   -1    0    0    0  501 -0.00000000000E+00 -0.00000000000E+00 -0.13471625740E+04  0.13471625740E+04  0.00000000000E+00 0. -1.
        -13    1    1    2    0    0 -0.53978573544E+03 -0.70611682381E+03  0.92954619993E+02  0.89364992116E+03  0.10566000000E+00 0.  1.
         13    1    1    2    0    0  0.70704314399E+03  0.87261183137E+03 -0.38440033811E+03  0.11870657298E+04  0.10566000000E+00 0. -1.
         -4    1    1    2    0  502 -0.16725740855E+03 -0.16649500756E+03 -0.74641960622E+02  0.24752181831E+03  0.00000000000E+00 0. -1.
</event>
<event>
 5    1  0.4881333E-005  0.7034570E+02  0.7818608E-02  0.1238801E+00
         21   -1    0    0  501  502  0.00000000000E+00  0.00000000000E+00  0.15358142761E+04  0.15358142761E+04  0.00000000000E+00 0.  1.
          4   -1    0    0  502    0 -0.00000000000E+00 -0.00000000000E+00 -0.60203946298E+02  0.60203946298E+02  0.00000000000E+00 0.  1.
        -13    1    1    2    0    0  0.10274293982E+03 -0.37820649684E+02 -0.35089910114E+01  0.10953920489E+03  0.10566000000E+00 0.  1.
         13    1    1    2    0    0 -0.33039708318E+02  0.41646826855E+02  0.26088668521E+03  0.26624791867E+03  0.10566000000E+00 0. -1.
          4    1    1    2  501    0 -0.69703231506E+02 -0.38261771705E+01  0.12182326356E+04  0.12202310988E+04  0.00000000000E+00 0.  1.
</event>
<event>
 5    1  0.4881333E-005  0.3861006E+03  0.7818608E-02  0.9930042E-01
         21   -1    0    0  501  502  0.00000000000E+00  0.00000000000E+00  0.65785504146E+03  0.65785504146E+03  0.00000000000E+00 0. -1.
         -4   -1    0    0    0  501 -0.00000000000E+00 -0.00000000000E+00 -0.58820511140E+03  0.58820511140E+03  0.00000000000E+00 0. -1.
        -13    1    1    2    0    0 -0.36608154144E+02  0.22185174404E+03  0.13336296834E+02  0.22524702275E+03  0.10566000000E+00 0.  1.
         13    1    1    2    0    0 -0.20164238666E+03 -0.36607912307E+03  0.39995924563E+03  0.57848162095E+03  0.10566000000E+00 0. -1.
         -4    1    1    2    0  502  0.23825054081E+03  0.14422737904E+03 -0.34364561241E+03  0.44233150915E+03  0.00000000000E+00 0. -1.
</event>
<event>
 5    1  0.4881333E-005  0.3519046E+03  0.7818608E-02  0.9879267E-01
         21   -1    0    0  501  502  0.00000000000E+00  0.00000000000E+00  0.22322358384E+03  0.22322358384E+03  0.00000000000E+00 0. -1.
          4   -1    0    0  502    0 -0.00000000000E+00 -0.00000000000E+00 -0.33807008215E+04  0.33807008215E+04  0.00000000000E+00 0.  1.
        -13    1    1    2    0    0 -0.30757864771E+03  0.14611695209E+03 -0.13986415035E+04  0.14394974313E+04  0.10566000000E+00 0.  1.
         13    1    1    2    0    0  0.40219630707E+03  0.12216705619E+03 -0.18246437744E+04  0.18724346647E+04  0.10566000000E+00 0. -1.
          4    1    1    2  501    0 -0.94617659361E+02 -0.26828400828E+03  0.65808040207E+02  0.29199230935E+03  0.00000000000E+00 0.  1.
</event>
<event>
 5    1  0.4881333E-005  0.4749099E+03  0.7818608E-02  0.9751982E-01
         -4   -1    0    0    0  501 -0.00000000000E+00  0.00000000000E+00  0.31436623560E+03  0.31436623560E+03  0.00000000000E+00 0. -1.
         21   -1    0    0  501  502  0.00000000000E+00 -0.00000000000E+00 -0.12787659516E+04  0.12787659516E+04  0.00000000000E+00 0. -1.
        -13    1    1    2    0    0 -0.20486479191E+03 -0.82352527788E+02 -0.59821837775E+02  0.22875791841E+03  0.10566000000E+00 0.  1.
         13    1    1    2    0    0  0.53927420868E+03 -0.19326862632E+03 -0.39705616357E+03  0.69701007329E+03  0.10566000000E+00 0. -1.
         -4    1    1    2    0  502 -0.33440941677E+03  0.27562115411E+03 -0.50752171470E+03  0.66736419555E+03  0.00000000000E+00 0. -1.
</event>
<event>
 5    1  0.4881333E-005  0.5768572E+03  0.7818608E-02  0.9323768E-01
         -4   -1    0    0    0  501 -0.00000000000E+00  0.00000000000E+00  0.32817064336E+04  0.32817064336E+04  0.00000000000E+00 0. -1.
         21   -1    0    0  501  502  0.00000000000E+00 -0.00000000000E+00 -0.13500630179E+03  0.13500630179E+03  0.00000000000E+00 0.  1.
        -13    1    1    2    0    0 -0.44822282827E+03  0.33318134692E+03  0.17054549432E+04  0.17945723970E+04  0.10566000000E+00 0.  1.
         13    1    1    2    0    0  0.51372402017E+03 -0.31624828030E+03  0.14319682112E+04  0.15538527320E+04  0.10566000000E+00 0. -1.
         -4    1    1    2    0  502 -0.65501191903E+02 -0.16933066625E+02  0.92769775346E+01  0.68287606476E+02  0.00000000000E+00 0. -1.
</event>
<event>
 5    1  0.4881333E-005  0.4621209E+03  0.7818608E-02  0.1024008E+00
         -4   -1    0    0    0  501 -0.00000000000E+00  0.00000000000E+00  0.10113436804E+04  0.10113436804E+04  0.00000000000E+00 0. -1.
         21   -1    0    0  501  502  0.00000000000E+00 -0.00000000000E+00 -0.36133592831E+03  0.36133592831E+03  0.00000000000E+00 0. -1.
        -13    1    1    2    0    0 -0.39308701431E+02  0.28010111158E+02  0.71100569697E+02  0.85936270052E+02  0.10566000000E+00 0.  1.
         13    1    1    2    0    0  0.27100654303E+03  0.37278548046E+03  0.67167457186E+03  0.81459210802E+03  0.10566000000E+00 0. -1.
         -4    1    1    2    0  502 -0.23169784159E+03 -0.40079559162E+03 -0.92767389459E+02  0.47215123065E+03  0.00000000000E+00 0. -1.
</event>
<event>
 5    1  0.5005952E-005  0.3474579E+03  0.7818608E-02  0.1025930E+00
         21   -1    0    0  501  502  0.00000000000E+00  0.00000000000E+00  0.23699599485E+03  0.23699599485E+03  0.00000000000E+00 0. -1.
         -4   -1    0    0    0  501 -0.00000000000E+00 -0.00000000000E+00 -0.14719071656E+04  0.14719071656E+04  0.00000000000E+00 0. -1.
        -13    1    1    2    0    0 -0.59969858089E+02 -0.88547720531E+02 -0.34598469402E+03  0.36213602742E+03  0.10566000000E+00 0.  1.
         13    1    1    2    0    0  0.30325336239E+03 -0.16335977639E+03 -0.93228856335E+03  0.99388681189E+03  0.10566000000E+00 0. -1.
         -4    1    1    2    0  502 -0.24328350430E+03  0.25190749692E+03  0.43362086641E+02  0.35288032111E+03  0.00000000000E+00 0. -1.
</event>
<event>
 5    1  0.4881333E-005  0.5528415E+03  0.7818608E-02  0.9426600E-01
         -4   -1    0    0    0  501 -0.00000000000E+00  0.00000000000E+00  0.76136591637E+03  0.76136591637E+03  0.00000000000E+00 0. -1.
         21   -1    0    0  501  502  0.00000000000E+00 -0.00000000000E+00 -0.12604085094E+04  0.12604085094E+04  0.00000000000E+00 0.  1.
        -13    1    1    2    0    0 -0.34917479639E+02  0.61408164927E+03  0.21380353982E+03  0.65117391468E+03  0.10566000000E+00 0.  1.
         13    1    1    2    0    0  0.28599684431E+03  0.91308003933E+02  0.46957047079E+02  0.30386892235E+03  0.10566000000E+00 0. -1.
         -4    1    1    2    0  502 -0.25107936467E+03 -0.70538965320E+03 -0.75980317995E+03  0.10667315888E+04  0.00000000000E+00 0. -1.
</event>
<event>
 5    1  0.4881333E-005  0.4838912E+03  0.7818608E-02  0.9943633E-01
          4   -1    0    0  502    0 -0.00000000000E+00  0.00000000000E+00  0.29456279545E+03  0.29456279545E+03  0.00000000000E+00 0.  1.
         21   -1    0    0  501  502  0.00000000000E+00 -0.00000000000E+00 -0.10860611891E+04  0.10860611891E+04  0.00000000000E+00 0.  1.
        -13    1    1    2    0    0 -0.44869691743E+03 -0.17926624445E+03 -0.54662847272E+03  0.72956700067E+03  0.10566000000E+00 0.  1.
         13    1    1    2    0    0  0.42826909154E+02 -0.10043363283E+03 -0.29155107531E+02  0.11300924834E+03  0.10566000000E+00 0. -1.
          4    1    1    2  501    0  0.40587000828E+03  0.27969987728E+03 -0.21571481337E+03  0.53804773551E+03  0.00000000000E+00 0.  1.
</event>
<event>
 5    1  0.4881333E-005  0.6963359E+03  0.7818608E-02  0.9128310E-01
         21   -1    0    0  501  502  0.00000000000E+00  0.00000000000E+00  0.23964867289E+03  0.23964867289E+03  0.00000000000E+00 0.  1.
         -4   -1    0    0    0  501 -0.00000000000E+00 -0.00000000000E+00 -0.32514262012E+04  0.32514262012E+04  0.00000000000E+00 0. -1.
        -13    1    1    2    0    0 -0.47197304782E+03  0.27558943565E+03 -0.59401206613E+03  0.80719170015E+03  0.10566000000E+00 0.  1.
         13    1    1    2    0    0  0.73042035073E+03 -0.42924545966E+03 -0.15640759265E+04  0.17787914628E+04  0.10566000000E+00 0. -1.
         -4    1    1    2    0  502 -0.25844730290E+03  0.15365602401E+03 -0.85368953574E+03  0.90509171111E+03  0.00000000000E+00 0. -1.
</event>
<event>
 5    1  0.4881333E-005  0.5795088E+02  0.7818608E-02  0.1262422E+00
         21   -1    0    0  501  502  0.00000000000E+00  0.00000000000E+00  0.16452056832E+03  0.16452056832E+03  0.00000000000E+00 0.  1.
          4   -1    0    0  502    0 -0.00000000000E+00 -0.00000000000E+00 -0.53972123005E+02  0.53972123005E+02  0.00000000000E+00 0.  1.
        -13    1    1    2    0    0 -0.51609304456E+02  0.30819005246E+02 -0.15454731261E+02  0.62066023500E+02  0.10566000000E+00 0.  1.
         13    1    1    2    0    0  0.25546744586E+02 -0.52113920555E+02  0.68335995733E+02  0.89656658155E+02  0.10566000000E+00 0. -1.
          4    1    1    2  501    0  0.26062559869E+02  0.21294915309E+02  0.57667180839E+02  0.66770009666E+02  0.00000000000E+00 0.  1.
</event>
<event>
 5    1  0.4881333E-005  0.9856093E+02  0.7818608E-02  0.1229002E+00
         21   -1    0    0  501  502  0.00000000000E+00  0.00000000000E+00  0.50383211443E+03  0.50383211443E+03  0.00000000000E+00 0.  1.
          4   -1    0    0  502    0 -0.00000000000E+00 -0.00000000000E+00 -0.12043974909E+03  0.12043974909E+03  0.00000000000E+00 0.  1.
        -13    1    1    2    0    0  0.27969374958E+02  0.10714612021E+03 -0.85419568197E+02  0.13985381942E+03  0.10566000000E+00 0.  1.
         13    1    1    2    0    0 -0.21958832811E+02 -0.93514186662E+01  0.10069892839E+03  0.10348876612E+03  0.10566000000E+00 0. -1.
          4    1    1    2  501    0 -0.60105421469E+01 -0.97794701541E+02  0.36811300515E+03  0.38092927798E+03  0.00000000000E+00 0.  1.
</event>
<event>
 5    1  0.4881333E-005  0.1048449E+03  0.7818608E-02  0.1156779E+00
         21   -1    0    0  501  502  0.00000000000E+00  0.00000000000E+00  0.33670191939E+02  0.33670191939E+02  0.00000000000E+00 0. -1.
          4   -1    0    0  502    0 -0.00000000000E+00 -0.00000000000E+00 -0.63956511336E+03  0.63956511336E+03  0.00000000000E+00 0.  1.
        -13    1    1    2    0    0  0.62051669335E+02 -0.88887813816E+02 -0.51399818298E+03  0.52530524115E+03  0.10566000000E+00 0.  1.
         13    1    1    2    0    0 -0.52310693410E+02  0.71569084403E+02 -0.50529650672E+02  0.10203822445E+03  0.10566000000E+00 0. -1.
          4    1    1    2  501    0 -0.97409759245E+01  0.17318729412E+02 -0.41367087773E+02  0.45891839702E+02  0.00000000000E+00 0.  1.
</event>
<event>
 5    1  0.4881333E-005  0.4497810E+03  0.7818608E-02  0.9595405E-01
         -4   -1    0    0    0  501 -0.00000000000E+00  0.00000000000E+00  0.23655845934E+04  0.23655845934E+04  0.00000000000E+00 0. -1.
         21   -1    0    0  501  502  0.00000000000E+00 -0.00000000000E+00 -0.36464131544E+03  0.36464131544E+03  0.00000000000E+00 0. -1.
        -13    1    1    2    0    0  0.51159355294E+02  0.42376094353E+03  0.16264559456E+04  0.16815319120E+04  0.10566000000E+00 0.  1.
         13    1    1    2    0    0  0.96553316645E+02 -0.67444602308E+03  0.20286359866E+03  0.71088229112E+03  0.10566000000E+00 0. -1.
         -4    1    1    2    0  502 -0.14771267194E+03  0.25068507955E+03  0.17162373368E+03  0.33781170572E+03  0.00000000000E+00 0. -1.
</event>
<event>
 5    1  0.4881333E-005  0.1083985E+03  0.7818608E-02  0.1151361E+00
         21   -1    0    0  501  502  0.00000000000E+00  0.00000000000E+00  0.40079766148E+03  0.40079766148E+03  0.00000000000E+00 0. -1.
         -4   -1    0    0    0  501 -0.00000000000E+00 -0.00000000000E+00 -0.77101873167E+03  0.77101873167E+03  0.00000000000E+00 0. -1.
        -13    1    1    2    0    0  0.38783788287E+02 -0.74796810324E+02 -0.10545200330E+03  0.13497733599E+03  0.10566000000E+00 0.  1.
         13    1    1    2    0    0  0.99057543236E+01  0.12132750160E+03 -0.64210390139E+03  0.65354106065E+03  0.10566000000E+00 0. -1.
         -4    1    1    2    0  502 -0.48689542611E+02 -0.46530691274E+02  0.37733483450E+03  0.38329799650E+03  0.00000000000E+00 0. -1.
</event>
<event>
 5    1  0.4881333E-005  0.5012338E+03  0.7818608E-02  0.9931038E-01
         21   -1    0    0  501  502  0.00000000000E+00  0.00000000000E+00  0.26511895771E+03  0.26511895771E+03  0.00000000000E+00 0.  1.
          4   -1    0    0  502    0 -0.00000000000E+00 -0.00000000000E+00 -0.11919179122E+04  0.11919179122E+04  0.00000000000E+00 0.  1.
        -13    1    1    2    0    0 -0.44274280527E+03 -0.20706222370E+03 -0.35377115750E+03  0.60336556012E+03  0.10566000000E+00 0.  1.
         13    1    1    2    0    0 -0.64449932205E+02  0.79615889220E+02 -0.49770959731E+02  0.11388434122E+03  0.10566000000E+00 0. -1.
          4    1    1    2  501    0  0.50719273748E+03  0.12744633448E+03 -0.52325683724E+03  0.73978696855E+03  0.00000000000E+00 0.  1.
</event>
<event>
 5    1  0.4881333E-005  0.4730575E+03  0.7818608E-02  0.9539064E-01
         -4   -1    0    0    0  501 -0.00000000000E+00  0.00000000000E+00  0.21762014716E+04  0.21762014716E+04  0.00000000000E+00 0. -1.
         21   -1    0    0  501  502  0.00000000000E+00 -0.00000000000E+00 -0.12730472631E+03  0.12730472631E+03  0.00000000000E+00 0.  1.
        -13    1    1    2    0    0  0.41380187074E+03 -0.18863197143E+03  0.64768233050E+03  0.79139523708E+03  0.10566000000E+00 0.  1.
         13    1    1    2    0    0 -0.43878102963E+03  0.20275824153E+03  0.14024270745E+04  0.14833884882E+04  0.10566000000E+00 0. -1.
         -4    1    1    2    0  502  0.24979158884E+02 -0.14126270100E+02 -0.12126597885E+01  0.28722472548E+02  0.00000000000E+00 0. -1.
</event>
<event>
 5    1  0.4881333E-005  0.1483339E+03  0.7818608E-02  0.1102766E+00
          4   -1    0    0  502    0 -0.00000000000E+00  0.00000000000E+00  0.47942166930E+02  0.47942166930E+02  0.00000000000E+00 0.  1.
         21   -1    0    0  501  502  0.00000000000E+00 -0.00000000000E+00 -0.59388858271E+03  0.59388858271E+03  0.00000000000E+00 0. -1.
        -13    1    1    2    0    0 -0.10092938555E+03 -0.11470678345E+03 -0.37915340409E+03  0.40878075057E+03  0.10566000000E+00 0.  1.
         13    1    1    2    0    0  0.89600812006E+02  0.11595090392E+03 -0.13487638646E+03  0.19915965561E+03  0.10566000000E+00 0. -1.
          4    1    1    2  501    0  0.11328573542E+02 -0.12441204694E+01 -0.31916625226E+02  0.33890343463E+02  0.00000000000E+00 0.  1.
</event>
<event>
 5    1  0.4881333E-005  0.7140813E+02  0.7818608E-02  0.1230960E+00
         21   -1    0    0  501  502  0.00000000000E+00  0.00000000000E+00  0.17379102243E+02  0.17379102243E+02  0.00000000000E+00 0. -1.
         -4   -1    0    0    0  501 -0.00000000000E+00 -0.00000000000E+00 -0.84144317771E+03  0.84144317771E+03  0.00000000000E+00 0. -1.
        -13    1    1    2    0    0  0.75817045478E+02 -0.28009613078E+02 -0.42094194480E+03  0.42863142076E+03  0.10566000000E+00 0.  1.
         13    1    1    2    0    0 -0.94632624147E+01  0.68635409108E+02 -0.23378131114E+03  0.24383208427E+03  0.10566000000E+00 0. -1.
         -4    1    1    2    0  502 -0.66353783063E+02 -0.40625796030E+02 -0.16934081953E+03  0.18635877492E+03  0.00000000000E+00 0. -1.
</event>
<event>
 5    1  0.4881333E-005  0.4093938E+03  0.7818608E-02  0.9702301E-01
         21   -1    0    0  501  502  0.00000000000E+00  0.00000000000E+00  0.13140273416E+03  0.13140273416E+03  0.00000000000E+00 0.  1.
          4   -1    0    0  502    0 -0.00000000000E+00 -0.00000000000E+00 -0.30736288653E+04  0.30736288653E+04  0.00000000000E+00 0.  1.
        -13    1    1    2    0    0  0.43530436176E+03  0.20967883691E+03 -0.16613249494E+04  0.17301605997E+04  0.10566000000E+00 0.  1.
         13    1    1    2    0    0 -0.31528042700E+03 -0.16898895120E+03 -0.12985457094E+04  0.13469149876E+04  0.10566000000E+00 0. -1.
          4    1    1    2  501    0 -0.12002393476E+03 -0.40689885710E+02  0.17644527590E+02  0.12795601224E+03  0.00000000000E+00 0.  1.
</event>
<event>
 5    1  0.4881333E-005  0.6761012E+02  0.7818608E-02  0.1254409E+00
         21   -1    0    0  501  502  0.00000000000E+00  0.00000000000E+00  0.11764756703E+02  0.11764756703E+02  0.00000000000E+00 0.  1.
         -4   -1    0    0    0  501 -0.00000000000E+00 -0.00000000000E+00 -0.89076373081E+03  0.89076373081E+03  0.00000000000E+00 0. -1.
        -13    1    1    2    0    0 -0.24970224747E+02 -0.35101668604E+02 -0.10484698518E+03  0.11335140374E+03  0.10566000000E+00 0.  1.
         13    1    1    2    0    0  0.70647221636E+02  0.66116621461E+02 -0.54031008045E+03  0.54890566745E+03  0.10566000000E+00 0. -1.
         -4    1    1    2    0  502 -0.45676996889E+02 -0.31014952858E+02 -0.23384190847E+03  0.24027141632E+03  0.00000000000E+00 0. -1.
</event>
<event>
 5    1  0.4881333E-005  0.1433515E+03  0.7818608E-02  0.1107860E+00
          4   -1    0    0  502    0 -0.00000000000E+00  0.00000000000E+00  0.34899405699E+03  0.34899405699E+03  0.00000000000E+00 0.  1.
         21   -1    0    0  501  502  0.00000000000E+00 -0.00000000000E+00 -0.22579675417E+03  0.22579675417E+03  0.00000000000E+00 0.  1.
        -13    1    1    2    0    0 -0.10643197495E+03 -0.92761687348E+02  0.26951933477E+03  0.30425840812E+03  0.10566000000E+00 0.  1.
         13    1    1    2    0    0  0.12772866974E+03  0.90509294369E+02 -0.39319836686E+02  0.16140819732E+03  0.10566000000E+00 0. -1.
          4    1    1    2  501    0 -0.21296694781E+02  0.22523929795E+01 -0.10700219527E+03  0.10912420573E+03  0.00000000000E+00 0.  1.
</event>
<event>
 5    1  0.4881333E-005  0.3579872E+03  0.7818608E-02  0.1001001E+00
          4   -1    0    0  502    0 -0.00000000000E+00  0.00000000000E+00  0.14015748921E+04  0.14015748921E+04  0.00000000000E+00 0.  1.
         21   -1    0    0  501  502  0.00000000000E+00 -0.00000000000E+00 -0.33179884573E+03  0.33179884573E+03  0.00000000000E+00 0.  1.
        -13    1    1    2    0    0 -0.36733684653E+03 -0.22381084290E+03  0.71424172360E+03  0.83376789523E+03  0.10566000000E+00 0.  1.
         13    1    1    2    0    0  0.13204342438E+02  0.21630002047E+03  0.47799418601E+03  0.52482235712E+03  0.10566000000E+00 0. -1.
          4    1    1    2  501    0  0.35413250409E+03  0.75108224274E+01 -0.12245986322E+03  0.37478348551E+03  0.00000000000E+00 0.  1.
</event>
<event>
 5    1  0.4881333E-005  0.3125031E+03  0.7818608E-02  0.1032180E+00
         -4   -1    0    0    0  501 -0.00000000000E+00  0.00000000000E+00  0.23281040595E+04  0.23281040595E+04  0.00000000000E+00 0. -1.
         21   -1    0    0  501  502  0.00000000000E+00 -0.00000000000E+00 -0.15757862068E+03  0.15757862068E+03  0.00000000000E+00 0. -1.
        -13    1    1    2    0    0  0.77013614735E+02 -0.93503433088E+02  0.63843610724E+03  0.64982664076E+03  0.10566000000E+00 0.  1.
         13    1    1    2    0    0 -0.33523623795E+03 -0.79713635740E+02  0.14812328938E+04  0.15207854865E+04  0.10566000000E+00 0. -1.
         -4    1    1    2    0  502  0.25822262322E+03  0.17321706883E+03  0.50856437774E+02  0.31507055295E+03  0.00000000000E+00 0. -1.
</event>
<event>
 5    1  0.4881333E-005  0.4599515E+03  0.7818608E-02  0.9570354E-01
         21   -1    0    0  501  502  0.00000000000E+00  0.00000000000E+00  0.13005057690E+04  0.13005057690E+04  0.00000000000E+00 0.  1.
         -4   -1    0    0    0  501 -0.00000000000E+00 -0.00000000000E+00 -0.33418526787E+03  0.33418526787E+03  0.00000000000E+00 0. -1.
        -13    1    1    2    0    0  0.31449393179E+03  0.32973096852E+03  0.10186774586E+04  0.11159447659E+04  0.10566000000E+00 0.  1.
         13    1    1    2    0    0 -0.31112354431E+03 -0.33979289817E+03 -0.98730747734E+02  0.47117390121E+03  0.10566000000E+00 0. -1.
         -4    1    1    2    0  502 -0.33703874836E+01  0.10061929656E+02  0.46373790316E+02  0.47572369800E+02  0.00000000000E+00 0. -1.
</event>
<event>
 5    1  0.4881333E-005  0.3195413E+03  0.7818608E-02  0.1036604E+00
         -4   -1    0    0    0  501 -0.00000000000E+00  0.00000000000E+00  0.27032018752E+03  0.27032018752E+03  0.00000000000E+00 0. -1.
         21   -1    0    0  501  502  0.00000000000E+00 -0.00000000000E+00 -0.69587587552E+03  0.69587587552E+03  0.00000000000E+00 0. -1.
        -13    1    1    2    0    0  0.43193966936E+02 -0.89021125049E+02  0.61422641252E+02  0.11646128759E+03  0.10566000000E+00 0.  1.
         13    1    1    2    0    0 -0.32309954141E+03  0.10694467631E+03 -0.45388365528E+03  0.56731019834E+03  0.10566000000E+00 0. -1.
         -4    1    1    2    0  502  0.27990557447E+03 -0.17923551260E+02 -0.33094673971E+02  0.28242457711E+03  0.00000000000E+00 0. -1.
</event>
<event>
 5    1  0.4881333E-005  0.2890878E+03  0.7818608E-02  0.1011914E+00
         -4   -1    0    0    0  501 -0.00000000000E+00  0.00000000000E+00  0.30469720887E+04  0.30469720887E+04  0.00000000000E+00 0. -1.
         21   -1    0    0  501  502  0.00000000000E+00 -0.00000000000E+00 -0.14737722997E+03  0.14737722997E+03  0.00000000000E+00 0. -1.
        -13    1    1    2    0    0  0.25199439009E+03 -0.37887184922E+02  0.10768480279E+04  0.11065885856E+04  0.10566000000E+00 0.  1.
         13    1    1    2    0    0 -0.32211930003E+03 -0.14009087419E+03  0.18599953496E+04  0.18928732150E+04  0.10566000000E+00 0. -1.
         -4    1    1    2    0  502  0.70124909935E+02  0.17797805911E+03 -0.37248518807E+02  0.19488751800E+03  0.00000000000E+00 0. -1.
</event>
<event>
 5    1  0.4881333E-005  0.3343663E+03  0.7818608E-02  0.9940516E-01
         21   -1    0    0  501  502  0.00000000000E+00  0.00000000000E+00  0.42603247528E+03  0.42603247528E+03  0.00000000000E+00 0.  1.
          4   -1    0    0  502    0 -0.00000000000E+00 -0.00000000000E+00 -0.16951851693E+04  0.16951851693E+04  0.00000000000E+00 0.  1.
        -13    1    1    2    0    0  0.31388290325E+03 -0.16157168698E+03  0.31221185121E+03  0.47127925711E+03  0.10566000000E+00 0.  1.
         13    1    1    2    0    0 -0.33302181252E+03  0.33165746086E+02 -0.10097421205E+04  0.10637587393E+04  0.10566000000E+00 0. -1.
          4    1    1    2  501    0  0.19138909269E+02  0.12840594090E+03 -0.57162242470E+03  0.58617964817E+03  0.00000000000E+00 0.  1.
</event>
<event>
 5    1  0.4881333E-005  0.4959429E+03  0.7818608E-02  0.9541150E-01
         21   -1    0    0  501  502  0.00000000000E+00  0.00000000000E+00  0.79899942487E+03  0.79899942487E+03  0.00000000000E+00 0. -1.
         -4   -1    0    0    0  501 -0.00000000000E+00 -0.00000000000E+00 -0.75364238215E+03  0.75364238215E+03  0.00000000000E+00 0. -1.
        -13    1    1    2    0    0 -0.13963025883E+03  0.38279972082E+03 -0.18597451315E+03  0.44790486283E+03  0.10566000000E+00 0.  1.
         13    1    1    2    0    0  0.52161205545E+03  0.16671855795E+02  0.16881585124E+03  0.54850331810E+03  0.10566000000E+00 0. -1.
         -4    1    1    2    0  502 -0.38198179663E+03 -0.39947157662E+03  0.62515704631E+02  0.55623362610E+03  0.00000000000E+00 0. -1.
</event>
<event>
 5    1  0.4881333E-005  0.2886576E+03  0.7818608E-02  0.1012100E+00
         21   -1    0    0  501  502  0.00000000000E+00  0.00000000000E+00  0.12580993327E+03  0.12580993327E+03  0.00000000000E+00 0.  1.
         -4   -1    0    0    0  501 -0.00000000000E+00 -0.00000000000E+00 -0.88797122215E+03  0.88797122215E+03  0.00000000000E+00 0. -1.
        -13    1    1    2    0    0 -0.97011434038E+02  0.28111717359E+03 -0.36299442588E+03  0.46925797596E+03  0.10566000000E+00 0.  1.
         13    1    1    2    0    0  0.53497559816E+02 -0.27766269293E+03 -0.41138420462E+03  0.49919488672E+03  0.10566000000E+00 0. -1.
         -4    1    1    2    0  502  0.43513874222E+02 -0.34544806634E+01  0.12217341614E+02  0.45328292739E+02  0.00000000000E+00 0. -1.
</event>
<event>
 5    1  0.4881333E-005  0.4300198E+03  0.7818608E-02  0.1014805E+00
         21   -1    0    0  501  502  0.00000000000E+00  0.00000000000E+00  0.13765689232E+04  0.13765689232E+04  0.00000000000E+00 0. -1.
         -4   -1    0    0    0  501 -0.00000000000E+00 -0.00000000000E+00 -0.21238635147E+03  0.21238635147E+03  0.00000000000E+00 0. -1.
        -13    1    1    2    0    0 -0.33085025729E+02  0.72935918235E+02  0.45147136346E+02  0.91937708153E+02  0.10566000000E+00 0.  1.
         13    1    1    2    0    0  0.86974867053E+02 -0.48009157442E+03  0.27921822746E+03  0.56215245000E+03  0.10566000000E+00 0. -1.
         -4    1    1    2    0  502 -0.53889841324E+02  0.40715565619E+03  0.83981720793E+03  0.93486511653E+03  0.00000000000E+00 0. -1.
</event>
<event>
 5    1  0.4881333E-005  0.5020852E+03  0.7818608E-02  0.9828310E-01
         21   -1    0    0  501  502  0.00000000000E+00  0.00000000000E+00  0.48757354664E+03  0.48757354664E+03  0.00000000000E+00 0.  1.
          4   -1    0    0  502    0 -0.00000000000E+00 -0.00000000000E+00 -0.91037915893E+03  0.91037915893E+03  0.00000000000E+00 0.  1.
        -13    1    1    2    0    0  0.48630101478E+03 -0.24429938084E+01 -0.93225291617E+01  0.48639651100E+03  0.10566000000E+00 0.  1.
         13    1    1    2    0    0  0.26578355760E+02  0.14143810835E+03 -0.34746689701E+03  0.37609095067E+03  0.10566000000E+00 0. -1.
          4    1    1    2  501    0 -0.51287937054E+03 -0.13899511454E+03 -0.66016186110E+02  0.53546524390E+03  0.00000000000E+00 0.  1.
</event>
<event>
 5    1  0.4881333E-005  0.2910069E+03  0.7818608E-02  0.1011088E+00
         21   -1    0    0  501  502  0.00000000000E+00  0.00000000000E+00  0.11051311587E+03  0.11051311587E+03  0.00000000000E+00 0.  1.
         -4   -1    0    0    0  501 -0.00000000000E+00 -0.00000000000E+00 -0.14479871587E+04  0.14479871587E+04  0.00000000000E+00 0. -1.
        -13    1    1    2    0    0  0.18139837588E+03 -0.23432542708E+03 -0.88827863222E+03  0.93640414147E+03  0.10566000000E+00 0.  1.
         13    1    1    2    0    0 -0.68121630960E+02  0.28996166390E+03 -0.36157013951E+03  0.46845629474E+03  0.10566000000E+00 0. -1.
         -4    1    1    2    0  502 -0.11327674492E+03 -0.55636236826E+02 -0.87625271084E+02  0.15363983833E+03  0.00000000000E+00 0. -1.
</event>
<event>
 5    1  0.4881333E-005  0.4291829E+03  0.7818608E-02  0.9819728E-01
         -4   -1    0    0    0  501 -0.00000000000E+00  0.00000000000E+00  0.11389110003E+04  0.11389110003E+04  0.00000000000E+00 0. -1.
         21   -1    0    0  501  502  0.00000000000E+00 -0.00000000000E+00 -0.62071222649E+03  0.62071222649E+03  0.00000000000E+00 0. -1.
        -13    1    1    2    0    0 -0.19294788404E+03  0.13801913188E+03  0.67473894970E+03  0.71522781554E+03  0.10566000000E+00 0.  1.
         13    1    1    2    0    0  0.34652990445E+03 -0.48469687473E+03  0.74355342738E+02  0.60045213232E+03  0.10566000000E+00 0. -1.
         -4    1    1    2    0  502 -0.15358202041E+03  0.34667774284E+03 -0.23089551864E+03  0.44394327892E+03  0.00000000000E+00 0. -1.
</event>
<event>
 5    1  0.4881333E-005  0.4027445E+03  0.7818608E-02  0.1001957E+00
         -4   -1    0    0    0  501 -0.00000000000E+00  0.00000000000E+00  0.76690790912E+03  0.76690790912E+03  0.00000000000E+00 0. -1.
         21   -1    0    0  501  502  0.00000000000E+00 -0.00000000000E+00 -0.43231468485E+03  0.43231468485E+03  0.00000000000E+00 0. -1.
        -13    1    1    2    0    0  0.10257818554E+03 -0.10600147724E+03  0.22805442050E+03  0.27160159646E+03  0.10566000000E+00 0.  1.
         13    1    1    2    0    0 -0.45188136597E+03  0.21992827495E+03  0.21189193293E+03  0.54540206952E+03  0.10566000000E+00 0. -1.
         -4    1    1    2    0  502  0.34930318042E+03 -0.11392679771E+03 -0.10535312915E+03  0.38221892799E+03  0.00000000000E+00 0. -1.
</event>
<event>
 5    1  0.4881333E-005  0.7695455E+02  0.7818608E-02  0.1209579E+00
         21   -1    0    0  501  502  0.00000000000E+00  0.00000000000E+00  0.52178256228E+02  0.52178256228E+02  0.00000000000E+00 0.  1.
         -4   -1    0    0    0  501 -0.00000000000E+00 -0.00000000000E+00 -0.28555306968E+03  0.28555306968E+03  0.00000000000E+00 0. -1.
        -13    1    1    2    0    0 -0.20060048972E+02 -0.83874321178E+02 -0.22967110008E+02  0.89245765300E+02  0.10566000000E+00 0.  1.
         13    1    1    2    0    0 -0.81053967417E+01  0.75449257839E+02 -0.20499985129E+03  0.21859377429E+03  0.10566000000E+00 0. -1.
         -4    1    1    2    0  502  0.28165445714E+02  0.84250633387E+01 -0.54078521562E+01  0.29891786321E+02  0.00000000000E+00 0. -1.
</event>
<event>
 5    1  0.4881333E-005  0.5298248E+02  0.7818608E-02  0.1310508E+00
         21   -1    0    0  501  502  0.00000000000E+00  0.00000000000E+00  0.10587398318E+03  0.10587398318E+03  0.00000000000E+00 0.  1.
          4   -1    0    0  502    0 -0.00000000000E+00 -0.00000000000E+00 -0.67655182091E+02  0.67655182091E+02  0.00000000000E+00 0.  1.
        -13    1    1    2    0    0  0.21375832433E+02  0.68844419936E+02 -0.19114336794E+02  0.74577807715E+02  0.10566000000E+00 0.  1.
         13    1    1    2    0    0 -0.21698802851E+02 -0.19606291939E+02  0.10718614390E+02  0.31147144127E+02  0.10566000000E+00 0. -1.
          4    1    1    2  501    0  0.32297041783E+00 -0.49238127997E+02  0.46614523498E+02  0.67804213434E+02  0.00000000000E+00 0.  1.
</event>
<event>
 5    1  0.4881333E-005  0.1401155E+03  0.7818608E-02  0.1111291E+00
         21   -1    0    0  501  502  0.00000000000E+00  0.00000000000E+00  0.11359379881E+03  0.11359379881E+03  0.00000000000E+00 0.  1.
         -4   -1    0    0    0  501 -0.00000000000E+00 -0.00000000000E+00 -0.34467650495E+03  0.34467650495E+03  0.00000000000E+00 0. -1.
        -13    1    1    2    0    0 -0.87006940719E+02  0.11994860682E+03 -0.26254193075E+02  0.15048976653E+03  0.10566000000E+00 0.  1.
         13    1    1    2    0    0  0.84821512452E+02 -0.10850543548E+03 -0.23669688777E+03  0.27384949579E+03  0.10566000000E+00 0. -1.
         -4    1    1    2    0  502  0.21854282674E+01 -0.11443171342E+02  0.31868374700E+02  0.33931041438E+02  0.00000000000E+00 0. -1.
</event>
<event>
 5    1  0.4881333E-005  0.2075534E+03  0.7818608E-02  0.1055078E+00
         21   -1    0    0  501  502  0.00000000000E+00  0.00000000000E+00  0.21924780840E+03  0.21924780840E+03  0.00000000000E+00 0. -1.
          4   -1    0    0  502    0 -0.00000000000E+00 -0.00000000000E+00 -0.25732028320E+03  0.25732028320E+03  0.00000000000E+00 0.  1.
        -13    1    1    2    0    0  0.88625219440E+02 -0.19530433357E+03 -0.97668823470E+02  0.23566379118E+03  0.10566000000E+00 0.  1.
         13    1    1    2    0    0 -0.10819358061E+03  0.16410076901E+03  0.48856538978E+02  0.20253860333E+03  0.10566000000E+00 0. -1.
          4    1    1    2  501    0  0.19568361171E+02  0.31203564565E+02  0.10739809701E+02  0.38365697086E+02  0.00000000000E+00 0.  1.
</event>
<event>
 5    1  0.4881333E-005  0.1612822E+03  0.7818608E-02  0.1090488E+00
         21   -1    0    0  501  502  0.00000000000E+00  0.00000000000E+00  0.54554296440E+02  0.54554296440E+02  0.00000000000E+00 0.  1.
          4   -1    0    0  502    0 -0.00000000000E+00 -0.00000000000E+00 -0.10322263510E+04  0.10322263510E+04  0.00000000000E+00 0.  1.
        -13    1    1    2    0    0  0.16082408633E+03  0.58624616671E+02 -0.62553035018E+03  0.64852869064E+03  0.10566000000E+00 0.  1.
         13    1    1    2    0    0 -0.89873723226E+02 -0.12844032540E+03 -0.17411235162E+03  0.23428471027E+03  0.10566000000E+00 0. -1.
          4    1    1    2  501    0 -0.70950363107E+02  0.69815708733E+02 -0.17802935276E+03  0.20396724653E+03  0.00000000000E+00 0.  1.
</event>
<event>
 5    1  0.4881333E-005  0.7310930E+02  0.7818608E-02  0.1218798E+00
         21   -1    0    0  501  502  0.00000000000E+00  0.00000000000E+00  0.70288453110E+02  0.70288453110E+02  0.00000000000E+00 0. -1.
         -4   -1    0    0    0  501 -0.00000000000E+00 -0.00000000000E+00 -0.32207096384E+03  0.32207096384E+03  0.00000000000E+00 0. -1.
        -13    1    1    2    0    0  0.40867181513E+02  0.55907897763E+02 -0.12559597159E+03  0.14342307625E+03  0.10566000000E+00 0.  1.
         13    1    1    2    0    0 -0.55492415749E+02 -0.53475403301E+02 -0.17857285285E+03  0.19449242120E+03  0.10566000000E+00 0. -1.
         -4    1    1    2    0  502  0.14625234236E+02 -0.24324944623E+01  0.52386313715E+02  0.54443919499E+02  0.00000000000E+00 0. -1.
</event>
<event>
 5    1  0.4881333E-005  0.5893530E+03  0.7818608E-02  0.9301088E-01
         -4   -1    0    0    0  501 -0.00000000000E+00  0.00000000000E+00  0.25616364287E+04  0.25616364287E+04  0.00000000000E+00 0. -1.
         21   -1    0    0  501  502  0.00000000000E+00 -0.00000000000E+00 -0.73268096940E+03  0.73268096940E+03  0.00000000000E+00 0. -1.
        -13    1    1    2    0    0 -0.56594055705E+03 -0.14444860245E+03  0.10139511047E+04  0.11701499762E+04  0.10566000000E+00 0.  1.
         13    1    1    2    0    0  0.57393144342E+03  0.15075330565E+03  0.14096386713E+04  0.15294459964E+04  0.10566000000E+00 0. -1.
         -4    1    1    2    0  502 -0.79908863667E+01 -0.63047031945E+01 -0.59463431666E+03  0.59472142562E+03  0.00000000000E+00 0. -1.
</event>
<event>
 5    1  0.4881333E-005  0.4568049E+03  0.7818608E-02  0.9605779E-01
         21   -1    0    0  501  502  0.00000000000E+00  0.00000000000E+00  0.30668490896E+03  0.30668490896E+03  0.00000000000E+00 0.  1.
         -4   -1    0    0    0  501 -0.00000000000E+00 -0.00000000000E+00 -0.18765227053E+04  0.18765227053E+04  0.00000000000E+00 0. -1.
        -13    1    1    2    0    0  0.20817108290E+03  0.35762078627E+03 -0.59001625171E+03  0.72065734921E+03  0.10566000000E+00 0.  1.
         13    1    1    2    0    0 -0.36445980081E+03  0.14892811619E+03 -0.81877348442E+03  0.90851558058E+03  0.10566000000E+00 0. -1.
         -4    1    1    2    0  502  0.15628871791E+03 -0.50654890246E+03 -0.16104806025E+03  0.55403468451E+03  0.00000000000E+00 0. -1.
</event>
<event>
 5    1  0.4881333E-005  0.4036722E+03  0.7818608E-02  0.9823074E-01
          4   -1    0    0  502    0 -0.00000000000E+00  0.00000000000E+00  0.72984212081E+03  0.72984212081E+03  0.00000000000E+00 0.  1.
         21   -1    0    0  501  502  0.00000000000E+00 -0.00000000000E+00 -0.61604578140E+03  0.61604578140E+03  0.00000000000E+00 0.  1.
        -13    1    1    2    0    0  0.17108404516E+03  0.62007077251E+02  0.40047715209E+03  0.43988247141E+03  0.10566000000E+00 0.  1.
         13    1    1    2    0    0  0.28073876601E+03  0.25387864218E+02  0.10588697153E+03  0.30111602464E+03  0.10566000000E+00 0. -1.
          4    1    1    2  501    0 -0.45182281117E+03 -0.87394941469E+02 -0.39256778421E+03  0.60488940617E+03  0.00000000000E+00 0.  1.
</event>
<event>
 5    1  0.4881333E-005  0.4773266E+03  0.7818608E-02  0.9529102E-01
         -4   -1    0    0    0  501 -0.00000000000E+00  0.00000000000E+00  0.49805829799E+03  0.49805829799E+03  0.00000000000E+00 0. -1.
         21   -1    0    0  501  502  0.00000000000E+00 -0.00000000000E+00 -0.98057129747E+03  0.98057129747E+03  0.00000000000E+00 0. -1.
        -13    1    1    2    0    0 -0.27651823202E+03 -0.27803036615E+03 -0.15256854869E+03  0.42076167881E+03  0.10566000000E+00 0.  1.
         13    1    1    2    0    0  0.20669561039E+03  0.53037228554E+03  0.76550360347E+02  0.57434989811E+03  0.10566000000E+00 0. -1.
         -4    1    1    2    0  502  0.69822621627E+02 -0.25234191939E+03 -0.40649481114E+03  0.48351801854E+03  0.00000000000E+00 0. -1.
</event>
<event>
 5    1  0.4881333E-005  0.2853146E+03  0.7818608E-02  0.1013558E+00
         -4   -1    0    0    0  501 -0.00000000000E+00  0.00000000000E+00  0.15718338387E+04  0.15718338387E+04  0.00000000000E+00 0. -1.
         21   -1    0    0  501  502  0.00000000000E+00 -0.00000000000E+00 -0.18237786684E+03  0.18237786684E+03  0.00000000000E+00 0.  1.
        -13    1    1    2    0    0 -0.87214051685E+02 -0.24104732783E+03  0.49257785229E+02  0.26102958767E+03  0.10566000000E+00 0.  1.
         13    1    1    2    0    0  0.10138278287E+03  0.27103148367E+03  0.13974081835E+04  0.14270550712E+04  0.10566000000E+00 0. -1.
         -4    1    1    2    0  502 -0.14168731184E+02 -0.29984155835E+02 -0.57209996925E+02  0.66127046605E+02  0.00000000000E+00 0. -1.
</event>
<event>
 5    1  0.4881333E-005  0.4637460E+03  0.7818608E-02  0.9561182E-01
         21   -1    0    0  501  502  0.00000000000E+00  0.00000000000E+00  0.22080714189E+03  0.22080714189E+03  0.00000000000E+00 0.  1.
          4   -1    0    0  502    0 -0.00000000000E+00 -0.00000000000E+00 -0.31357839459E+04  0.31357839459E+04  0.00000000000E+00 0.  1.
        -13    1    1    2    0    0  0.47554721544E+03  0.31199056348E+03 -0.47140573141E+03  0.73871959537E+03  0.10566000000E+00 0.  1.
         13    1    1    2    0    0 -0.45977959201E+03  0.11179072182E+03 -0.16693610355E+04  0.17351255622E+04  0.10566000000E+00 0. -1.
          4    1    1    2  501    0 -0.15767623427E+02 -0.42378128530E+03 -0.77421003711E+03  0.88274593020E+03  0.00000000000E+00 0.  1.
</event>
<event>
 5    1  0.4881333E-005  0.4734851E+03  0.7818608E-02  0.9547523E-01
         21   -1    0    0  501  502  0.00000000000E+00  0.00000000000E+00  0.55762823875E+03  0.55762823875E+03  0.00000000000E+00 0.  1.
          4   -1    0    0  502    0 -0.00000000000E+00 -0.00000000000E+00 -0.11956486438E+04  0.11956486438E+04  0.00000000000E+00 0.  1.
        -13    1    1    2    0    0  0.11288144552E+03  0.22354493328E+03 -0.41806664013E+03  0.48733385342E+03  0.10566000000E+00 0.  1.
         13    1    1    2    0    0  0.47633370530E+03 -0.71166536120E+02 -0.40559982218E+03  0.62965840070E+03  0.10566000000E+00 0. -1.
          4    1    1    2  501    0 -0.58921515082E+03 -0.15237839716E+03  0.18564605721E+03  0.63628462847E+03  0.00000000000E+00 0.  1.
</event>
<event>
 5    1  0.4881333E-005  0.6497539E+03  0.7818608E-02  0.9199238E-01
         21   -1    0    0  501  502  0.00000000000E+00  0.00000000000E+00  0.40555903548E+03  0.40555903548E+03  0.00000000000E+00 0. -1.
         -4   -1    0    0    0  501 -0.00000000000E+00 -0.00000000000E+00 -0.18295841223E+04  0.18295841223E+04  0.00000000000E+00 0. -1.
        -13    1    1    2    0    0 -0.40625384397E+03 -0.40181469649E+03 -0.63971444310E+03  0.85774810751E+03  0.10566000000E+00 0.  1.
         13    1    1    2    0    0  0.61888763519E+03  0.43666570097E+03 -0.86278026380E+03  0.11480804128E+04  0.10566000000E+00 0. -1.
         -4    1    1    2    0  502 -0.21263379122E+03 -0.34851004482E+02  0.78469620104E+02  0.22931463748E+03  0.00000000000E+00 0. -1.
</event>
<event>
 5    1  0.4881333E-005  0.2474311E+03  0.7818608E-02  0.1031733E+00
          4   -1    0    0  502    0 -0.00000000000E+00  0.00000000000E+00  0.26429404201E+03  0.26429404201E+03  0.00000000000E+00 0.  1.
         21   -1    0    0  501  502  0.00000000000E+00 -0.00000000000E+00 -0.85555465830E+03  0.85555465830E+03  0.00000000000E+00 0. -1.
        -13    1    1    2    0    0  0.49839704112E+02  0.24351767609E+03  0.16593860930E+03  0.29886533405E+03  0.10566000000E+00 0.  1.
         13    1    1    2    0    0 -0.53675053255E+02 -0.23369221088E+03 -0.42004356317E+03  0.48366276153E+03  0.10566000000E+00 0. -1.
          4    1    1    2  501    0  0.38353491421E+01 -0.98254652032E+01 -0.33715566243E+03  0.33732060473E+03  0.00000000000E+00 0.  1.
</event>
<event>
 5    1  0.4881333E-005  0.3100865E+03  0.7818608E-02  0.1003227E+00
         21   -1    0    0  501  502  0.00000000000E+00  0.00000000000E+00  0.10330966091E+03  0.10330966091E+03  0.00000000000E+00 0. -1.
         -4   -1    0    0    0  501 -0.00000000000E+00 -0.00000000000E+00 -0.20484392645E+04  0.20484392645E+04  0.00000000000E+00 0. -1.
        -13    1    1    2    0    0  0.19250288445E+03 -0.23237438145E+03 -0.12124514014E+04  0.12494373236E+04  0.10566000000E+00 0.  1.
         13    1    1    2    0    0 -0.28064751902E+03  0.18503425320E+03 -0.72833169153E+03  0.80216442756E+03  0.10566000000E+00 0. -1.
         -4    1    1    2    0  502  0.88144634568E+02  0.47340128254E+02 -0.43465106120E+01  0.10014717420E+03  0.00000000000E+00 0. -1.
</event>
<event>
 5    1  0.4881333E-005  0.1135831E+03  0.7818608E-02  0.1182377E+00
         21   -1    0    0  501  502  0.00000000000E+00  0.00000000000E+00  0.85397845085E+03  0.85397845085E+03  0.00000000000E+00 0. -1.
         -4   -1    0    0    0  501 -0.00000000000E+00 -0.00000000000E+00 -0.39821717116E+02  0.39821717116E+02  0.00000000000E+00 0. -1.
        -13    1    1    2    0    0 -0.94928305163E+01 -0.43623263931E+02  0.23687335436E+03  0.24104377228E+03  0.10566000000E+00 0.  1.
         13    1    1    2    0    0 -0.74753276314E+02  0.11409003722E+03  0.11747888754E+03  0.18001635785E+03  0.10566000000E+00 0. -1.
         -4    1    1    2    0  502  0.84246106830E+02 -0.70466773294E+02  0.45980449184E+03  0.47274003783E+03  0.00000000000E+00 0. -1.
</event>
<event>
 5    1  0.4881333E-005  0.8968968E+02  0.7818608E-02  0.1182842E+00
         21   -1    0    0  501  502  0.00000000000E+00  0.00000000000E+00  0.24768056589E+02  0.24768056589E+02  0.00000000000E+00 0.  1.
          4   -1    0    0  502    0 -0.00000000000E+00 -0.00000000000E+00 -0.82928106173E+03  0.82928106173E+03  0.00000000000E+00 0.  1.
        -13    1    1    2    0    0  0.65486345272E+02 -0.57232792726E+02 -0.50145587234E+03  0.50894209597E+03  0.10566000000E+00 0.  1.
         13    1    1    2    0    0 -0.86760852527E+02  0.43714046729E+02 -0.30473338241E+03  0.31984497640E+03  0.10566000000E+00 0. -1.
          4    1    1    2  501    0  0.21274507255E+02  0.13518745997E+02  0.16762496151E+01  0.25262045940E+02  0.00000000000E+00 0.  1.
</event>
<event>
 5    1  0.4881333E-005  0.4706263E+03  0.7818608E-02  0.1053260E+00
         21   -1    0    0  501  502  0.00000000000E+00  0.00000000000E+00  0.12083587477E+04  0.12083587477E+04  0.00000000000E+00 0. -1.
         -4   -1    0    0    0  501 -0.00000000000E+00 -0.00000000000E+00 -0.27043820016E+03  0.27043820016E+03  0.00000000000E+00 0. -1.
        -13    1    1    2    0    0 -0.12603998557E+02  0.13927110101E+02 -0.53539101583E+02  0.56738626506E+02  0.10566000000E+00 0.  1.
         13    1    1    2    0    0 -0.16259543094E+03 -0.44448874719E+03  0.77775543941E+03  0.91044552568E+03  0.10566000000E+00 0. -1.
         -4    1    1    2    0  502  0.17519942950E+03  0.43056163709E+03  0.21370420969E+03  0.51161279564E+03  0.00000000000E+00 0. -1.
</event>
<event>
 5    1  0.4881333E-005  0.4889592E+03  0.7818608E-02  0.9820567E-01
         -4   -1    0    0    0  501 -0.00000000000E+00  0.00000000000E+00  0.20647017711E+04  0.20647017711E+04  0.00000000000E+00 0. -1.
         21   -1    0    0  501  502  0.00000000000E+00 -0.00000000000E+00 -0.16936963289E+03  0.16936963289E+03  0.00000000000E+00 0.  1.
        -13    1    1    2    0    0  0.14191797920E+03 -0.73823349329E+02  0.18851372607E+03  0.24724084575E+03  0.10566000000E+00 0.  1.
         13    1    1    2    0    0  0.13736481780E+03  0.47970035081E+03  0.10788817174E+04  0.11886830070E+04  0.10566000000E+00 0. -1.
         -4    1    1    2    0  502 -0.27928279699E+03 -0.40587700148E+03  0.62793669476E+03  0.79814755130E+03  0.00000000000E+00 0. -1.
</event>
<event>
 5    1  0.4881333E-005  0.1564838E+03  0.7818608E-02  0.1094888E+00
         21   -1    0    0  501  502  0.00000000000E+00  0.00000000000E+00  0.19115483685E+03  0.19115483685E+03  0.00000000000E+00 0.  1.
          4   -1    0    0  502    0 -0.00000000000E+00 -0.00000000000E+00 -0.19258683266E+03  0.19258683266E+03  0.00000000000E+00 0.  1.
        -13    1    1    2    0    0 -0.43547919793E+02  0.15545905457E+03 -0.24903525476E+02  0.16335279524E+03  0.10566000000E+00 0.  1.
         13    1    1    2    0    0  0.26375570251E+02 -0.15025604226E+03 -0.37280324132E+02  0.15704261420E+03  0.10566000000E+00 0. -1.
          4    1    1    2  501    0  0.17172349542E+02 -0.52030123100E+01  0.60751853800E+02  0.63346260079E+02  0.00000000000E+00 0.  1.
</event>
<event>
 5    1  0.4881333E-005  0.4174743E+03  0.7818608E-02  0.9711776E-01
         21   -1    0    0  501  502  0.00000000000E+00  0.00000000000E+00  0.22021589745E+03  0.22021589745E+03  0.00000000000E+00 0. -1.
          4   -1    0    0  502    0 -0.00000000000E+00 -0.00000000000E+00 -0.24123090459E+04  0.24123090459E+04  0.00000000000E+00 0.  1.
        -13    1    1    2    0    0  0.32159219682E+03  0.12515574029E+03 -0.27939229685E+03  0.44401077361E+03  0.10566000000E+00 0.  1.
         13    1    1    2    0    0  0.20287623907E+03  0.31367403945E+03 -0.79144678067E+03  0.87517894696E+03  0.10566000000E+00 0. -1.
          4    1    1    2  501    0 -0.52446843589E+03 -0.43882977974E+03 -0.11212540710E+04  0.13133352228E+04  0.00000000000E+00 0.  1.
</event>
<event>
 5    1  0.4881333E-005  0.5064189E+03  0.7818608E-02  0.9480594E-01
          4   -1    0    0  502    0 -0.00000000000E+00  0.00000000000E+00  0.19384733088E+04  0.19384733088E+04  0.00000000000E+00 0.  1.
         21   -1    0    0  501  502  0.00000000000E+00 -0.00000000000E+00 -0.42043492190E+03  0.42043492190E+03  0.00000000000E+00 0.  1.
        -13    1    1    2    0    0  0.57994481096E+03 -0.22541057396E+03  0.16228523367E+03  0.64302598613E+03  0.10566000000E+00 0.  1.
         13    1    1    2    0    0 -0.41929181503E+03 -0.22668398163E+03  0.10329194517E+04  0.11375912528E+04  0.10566000000E+00 0. -1.
          4    1    1    2  501    0 -0.16065299592E+03  0.45209455559E+03  0.32283370158E+03  0.57829099177E+03  0.00000000000E+00 0.  1.
</event>
<event>
 5    1  0.4881333E-005  0.4449709E+03  0.7818608E-02  0.9675261E-01
         21   -1    0    0  501  502  0.00000000000E+00  0.00000000000E+00  0.20080002833E+03  0.20080002833E+03  0.00000000000E+00 0.  1.
          4   -1    0    0  502    0 -0.00000000000E+00 -0.00000000000E+00 -0.25831053596E+04  0.25831053596E+04  0.00000000000E+00 0.  1.
        -13    1    1    2    0    0  0.21948723224E+03  0.11556616982E+03 -0.12590133112E+04  0.12832165498E+04  0.10566000000E+00 0.  1.
         13    1    1    2    0    0  0.30652304324E+03 -0.16977151678E+03 -0.81848389296E+03  0.89033400371E+03  0.10566000000E+00 0. -1.
          4    1    1    2  501    0 -0.52601027548E+03  0.54205346959E+02 -0.30480812709E+03  0.61035483442E+03  0.00000000000E+00 0.  1.
</event>
<event>
 5    1  0.4881333E-005  0.9021091E+03  0.7818608E-02  0.8872440E-01
         -4   -1    0    0    0  501 -0.00000000000E+00  0.00000000000E+00  0.20719325826E+04  0.20719325826E+04  0.00000000000E+00 0. -1.
         21   -1    0    0  501  502  0.00000000000E+00 -0.00000000000E+00 -0.74178063202E+03  0.74178063202E+03  0.00000000000E+00 0. -1.
        -13    1    1    2    0    0  0.71126894484E+03 -0.60312179721E+03  0.10800233680E+04  0.14269232288E+04  0.10566000000E+00 0.  1.
         13    1    1    2    0    0 -0.88130017355E+03  0.21899529237E+03  0.31614266153E+03  0.96155869690E+03  0.10566000000E+00 0. -1.
         -4    1    1    2    0  502  0.17003122871E+03  0.38412650484E+03 -0.66014079008E+02  0.42523128893E+03  0.00000000000E+00 0. -1.
</event>
<event>
 5    1  0.4881333E-005  0.5023940E+03  0.7818608E-02  0.9624499E-01
         21   -1    0    0  501  502  0.00000000000E+00  0.00000000000E+00  0.68603074714E+03  0.68603074714E+03  0.00000000000E+00 0.  1.
          4   -1    0    0  502    0 -0.00000000000E+00 -0.00000000000E+00 -0.70787393053E+03  0.70787393053E+03  0.00000000000E+00 0.  1.
        -13    1    1    2    0    0 -0.10744806178E+03  0.49816817937E+03  0.26435241303E+02  0.51030917497E+03  0.10566000000E+00 0.  1.
         13    1    1    2    0    0 -0.26937268857E+03 -0.11030759470E+03  0.12350190197E+03  0.31619952839E+03  0.10566000000E+00 0. -1.
          4    1    1    2  501    0  0.37682075035E+03 -0.38786058467E+03 -0.17178032667E+03  0.56739597431E+03  0.00000000000E+00 0.  1.
</event>
<event>
 5    1  0.4881333E-005  0.4680805E+03  0.7818608E-02  0.9566723E-01
          4   -1    0    0  502    0 -0.00000000000E+00  0.00000000000E+00  0.44343249211E+03  0.44343249211E+03  0.00000000000E+00 0.  1.
         21   -1    0    0  501  502  0.00000000000E+00 -0.00000000000E+00 -0.17075021373E+04  0.17075021373E+04  0.00000000000E+00 0.  1.
        -13    1    1    2    0    0  0.25262652425E+03 -0.21883893278E+03 -0.62570643468E+02  0.34003784472E+03  0.10566000000E+00 0.  1.
         13    1    1    2    0    0 -0.26397432780E+03 -0.35465689998E+03  0.39370166777E+02  0.44386257292E+03  0.10566000000E+00 0. -1.
          4    1    1    2  501    0  0.11347803553E+02  0.57349583275E+03 -0.12408691685E+04  0.13670342118E+04  0.00000000000E+00 0.  1.
</event>
<event>
 5    1  0.4881333E-005  0.4639587E+03  0.7818608E-02  0.9966376E-01
          4   -1    0    0  502    0 -0.00000000000E+00  0.00000000000E+00  0.37708820138E+04  0.37708820138E+04  0.00000000000E+00 0.  1.
         21   -1    0    0  501  502  0.00000000000E+00 -0.00000000000E+00 -0.82445521626E+02  0.82445521626E+02  0.00000000000E+00 0.  1.
        -13    1    1    2    0    0  0.44845428217E+03  0.83273526869E+00  0.10255808519E+04  0.11193426783E+04  0.10566000000E+00 0.  1.
         13    1    1    2    0    0  0.43903269676E+02  0.10617271011E+03  0.44158643875E+03  0.45628799624E+03  0.10566000000E+00 0. -1.
          4    1    1    2  501    0 -0.49235755184E+03 -0.10700544538E+03  0.22212692016E+04  0.22776968609E+04  0.00000000000E+00 0.  1.
</event>
<event>
 5    1  0.4881333E-005  0.5614463E+03  0.7818608E-02  0.9693708E-01
         21   -1    0    0  501  502  0.00000000000E+00  0.00000000000E+00  0.50645276072E+03  0.50645276072E+03  0.00000000000E+00 0. -1.
         -4   -1    0    0    0  501 -0.00000000000E+00 -0.00000000000E+00 -0.91117553754E+03  0.91117553754E+03  0.00000000000E+00 0. -1.
        -13    1    1    2    0    0 -0.13868506524E+03 -0.86683624104E+02  0.61576409773E+02  0.17475486663E+03  0.10566000000E+00 0.  1.
         13    1    1    2    0    0 -0.44623485308E+03 -0.21270702434E+03 -0.17944328492E+03  0.52589896936E+03  0.10566000000E+00 0. -1.
         -4    1    1    2    0  502  0.58491991832E+03  0.29939064844E+03 -0.28685590167E+03  0.71697446227E+03  0.00000000000E+00 0. -1.
</event>
<event>
 5    1  0.4881333E-005  0.5285787E+02  0.7818608E-02  0.1280571E+00
         21   -1    0    0  501  502  0.00000000000E+00  0.00000000000E+00  0.71558423718E+03  0.71558423718E+03  0.00000000000E+00 0. -1.
         -4   -1    0    0    0  501 -0.00000000000E+00 -0.00000000000E+00 -0.49094909351E+02  0.49094909351E+02  0.00000000000E+00 0. -1.
        -13    1    1    2    0    0  0.91584107988E+01  0.37532764953E+02  0.48348460716E+02  0.61888365232E+02  0.10566000000E+00 0.  1.
         13    1    1    2    0    0  0.16686207948E+02 -0.57652815289E+02 -0.20414560291E+02  0.63395915344E+02  0.10566000000E+00 0. -1.
         -4    1    1    2    0  502 -0.25844618747E+02  0.20120050335E+02  0.63855542741E+03  0.63939486596E+03  0.00000000000E+00 0. -1.
</event>
<event>
 5    1  0.4881333E-005  0.5120086E+03  0.7818608E-02  0.9452033E-01
         21   -1    0    0  501  502  0.00000000000E+00  0.00000000000E+00  0.97237711756E+03  0.97237711756E+03  0.00000000000E+00 0. -1.
         -4   -1    0    0    0  501 -0.00000000000E+00 -0.00000000000E+00 -0.68140531603E+03  0.68140531603E+03  0.00000000000E+00 0. -1.
        -13    1    1    2    0    0 -0.28915401946E+03 -0.33936605556E+03 -0.15268690964E+03  0.47126709006E+03  0.10566000000E+00 0.  1.
         13    1    1    2    0    0  0.50257799276E+03  0.57964684470E+03  0.37478977140E+03  0.85383984874E+03  0.10566000000E+00 0. -1.
         -4    1    1    2    0  502 -0.21342397330E+03 -0.24028078915E+03  0.68868939771E+02  0.32867549479E+03  0.00000000000E+00 0. -1.
</event>
<event>
 5    1  0.4881333E-005  0.7125530E+02  0.7818608E-02  0.1264222E+00
         21   -1    0    0  501  502  0.00000000000E+00  0.00000000000E+00  0.18203407434E+03  0.18203407434E+03  0.00000000000E+00 0.  1.
         -4   -1    0    0    0  501 -0.00000000000E+00 -0.00000000000E+00 -0.75439218849E+02  0.75439218849E+02  0.00000000000E+00 0. -1.
        -13    1    1    2    0    0  0.15051023312E+02  0.25999970298E+02  0.61538621374E+02  0.68480251481E+02  0.10566000000E+00 0.  1.
         13    1    1    2    0    0  0.18243540779E+02  0.43420039151E+02 -0.48651343463E+02  0.67713299763E+02  0.10566000000E+00 0. -1.
         -4    1    1    2    0  502 -0.33294564090E+02 -0.69420009449E+02  0.93707577577E+02  0.12127974194E+03  0.00000000000E+00 0. -1.
</event>
<event>
 5    1  0.4881333E-005  0.5178400E+03  0.7818608E-02  0.9530040E-01
          4   -1    0    0  502    0 -0.00000000000E+00  0.00000000000E+00  0.20391796097E+04  0.20391796097E+04  0.00000000000E+00 0.  1.
         21   -1    0    0  501  502  0.00000000000E+00 -0.00000000000E+00 -0.29715528780E+03  0.29715528780E+03  0.00000000000E+00 0.  1.
        -13    1    1    2    0    0  0.38891615422E+03 -0.28483396959E+03  0.44539316357E+03  0.65632404083E+03  0.10566000000E+00 0.  1.
         13    1    1    2    0    0  0.23051889232E+03  0.29269005839E+03  0.81230241588E+03  0.89366753102E+03  0.10566000000E+00 0. -1.
          4    1    1    2  501    0 -0.61943504654E+03 -0.78560888031E+01  0.48432874241E+03  0.78634332561E+03  0.00000000000E+00 0.  1.
</event>
<event>
 5    1  0.4881333E-005  0.2190205E+03  0.7818608E-02  0.1053832E+00
          4   -1    0    0  502    0 -0.00000000000E+00  0.00000000000E+00  0.12283624208E+04  0.12283624208E+04  0.00000000000E+00 0.  1.
         21   -1    0    0  501  502  0.00000000000E+00 -0.00000000000E+00 -0.93706925590E+02  0.93706925590E+02  0.00000000000E+00 0.  1.
        -13    1    1    2    0    0 -0.11726276264E+03  0.16605864813E+03  0.30581904548E+03  0.36722109125E+03  0.10566000000E+00 0.  1.
         13    1    1    2    0    0 -0.14894154648E+03 -0.10673805927E+03  0.46756344635E+03  0.50218740037E+03  0.10566000000E+00 0. -1.
          4    1    1    2  501    0  0.26620430912E+03 -0.59320588858E+02  0.36127300334E+03  0.45266085473E+03  0.00000000000E+00 0.  1.
</event>
<event>
 5    1  0.4881333E-005  0.9917612E+03  0.7818608E-02  0.8782371E-01
         21   -1    0    0  501  502  0.00000000000E+00  0.00000000000E+00  0.41557911205E+03  0.41557911205E+03  0.00000000000E+00 0. -1.
          4   -1    0    0  502    0 -0.00000000000E+00 -0.00000000000E+00 -0.31146467907E+04  0.31146467907E+04  0.00000000000E+00 0.  1.
        -13    1    1    2    0    0 -0.58679981574E+02  0.10660790823E+04 -0.15418864934E+04  0.18754684534E+04  0.10566000000E+00 0.  1.
         13    1    1    2    0    0 -0.15239242025E+03 -0.90337440116E+03 -0.88307240293E+03  0.12724486781E+04  0.10566000000E+00 0. -1.
          4    1    1    2  501    0  0.21107240182E+03 -0.16270468110E+03 -0.27410878230E+03  0.38230877128E+03  0.00000000000E+00 0.  1.
</event>
<event>
 5    1  0.4881333E-005  0.4601179E+03  0.7818608E-02  0.9828411E-01
         -4   -1    0    0    0  501 -0.00000000000E+00  0.00000000000E+00  0.46780592026E+04  0.46780592026E+04  0.00000000000E+00 0. -1.
         21   -1    0    0  501  502  0.00000000000E+00 -0.00000000000E+00 -0.87967336540E+02  0.87967336540E+02  0.00000000000E+00 0. -1.
        -13    1    1    2    0    0  0.12402095824E+03 -0.13986275106E+03  0.20164785331E+03  0.27496300683E+03  0.10566000000E+00 0.  1.
         13    1    1    2    0    0  0.29351311447E+03  0.36041921895E+03  0.26061645333E+04  0.26472902273E+04  0.10566000000E+00 0. -1.
         -4    1    1    2    0  502 -0.41753407271E+03 -0.22055646789E+03  0.17822794795E+04  0.18437733050E+04  0.00000000000E+00 0. -1.
</event>
<event>
 5    1  0.4881333E-005  0.1277103E+03  0.7818608E-02  0.1125440E+00
         -4   -1    0    0    0  501 -0.00000000000E+00  0.00000000000E+00  0.21918591499E+03  0.21918591499E+03  0.00000000000E+00 0. -1.
         21   -1    0    0  501  502  0.00000000000E+00 -0.00000000000E+00 -0.10764111724E+04  0.10764111724E+04  0.00000000000E+00 0.  1.
        -13    1    1    2    0    0 -0.88341391448E+02  0.31641727163E+02 -0.47886428532E+03  0.48797173613E+03  0.10566000000E+00 0.  1.
         13    1    1    2    0    0  0.10909535051E+03 -0.69153376126E+02  0.19432496363E+03  0.23333706861E+03  0.10566000000E+00 0. -1.
         -4    1    1    2    0  502 -0.20753959059E+02  0.37511648963E+02 -0.57268593575E+03  0.57428828268E+03  0.00000000000E+00 0. -1.
</event>
<event>
 5    1  0.4881333E-005  0.2602299E+03  0.7818608E-02  0.1025224E+00
         21   -1    0    0  501  502  0.00000000000E+00  0.00000000000E+00  0.74568553589E+03  0.74568553589E+03  0.00000000000E+00 0. -1.
          4   -1    0    0  502    0 -0.00000000000E+00 -0.00000000000E+00 -0.11169019601E+03  0.11169019601E+03  0.00000000000E+00 0.  1.
        -13    1    1    2    0    0 -0.26303996454E+03 -0.95475806813E+02  0.29462282155E+03  0.40633517048E+03  0.10566000000E+00 0.  1.
         13    1    1    2    0    0  0.23597457950E+03  0.64016281958E+02  0.23673909293E+03  0.34033438823E+03  0.10566000000E+00 0. -1.
          4    1    1    2  501    0  0.27065385037E+02  0.31459524856E+02  0.10263342540E+03  0.11070617318E+03  0.00000000000E+00 0.  1.
</event>
<event>
 5    1  0.4881333E-005  0.1010689E+03  0.7818608E-02  0.1162799E+00
         21   -1    0    0  501  502  0.00000000000E+00  0.00000000000E+00  0.16603794988E+03  0.16603794988E+03  0.00000000000E+00 0. -1.
          4   -1    0    0  502    0 -0.00000000000E+00 -0.00000000000E+00 -0.10126340509E+03  0.10126340509E+03  0.00000000000E+00 0.  1.
        -13    1    1    2    0    0 -0.43598079997E+02 -0.98348132551E+02 -0.39966354275E+02  0.11476266115E+03  0.10566000000E+00 0.  1.
         13    1    1    2    0    0  0.24296325973E+02  0.79992054598E+02  0.86223240507E+02  0.12009787101E+03  0.10566000000E+00 0. -1.
          4    1    1    2  501    0  0.19301754024E+02  0.18356077952E+02  0.18517658562E+02  0.32440822813E+02  0.00000000000E+00 0.  1.
</event>
<event>
 5    1  0.4881333E-005  0.5422909E+03  0.7818608E-02  0.9389803E-01
         21   -1    0    0  501  502  0.00000000000E+00  0.00000000000E+00  0.41799015277E+03  0.41799015277E+03  0.00000000000E+00 0.  1.
          4   -1    0    0  502    0 -0.00000000000E+00 -0.00000000000E+00 -0.14159671730E+04  0.14159671730E+04  0.00000000000E+00 0.  1.
        -13    1    1    2    0    0 -0.59064198499E+03  0.41896491721E+03 -0.60210180746E+03  0.94176225981E+03  0.10566000000E+00 0.  1.
         13    1    1    2    0    0  0.41875239040E+03 -0.94776761790E+02 -0.25354452651E+03  0.49861913033E+03  0.10566000000E+00 0. -1.
          4    1    1    2  501    0  0.17188959459E+03 -0.32418815542E+03 -0.14233068622E+03  0.39357593560E+03  0.00000000000E+00 0.  1.
</event>
<event>
 5    1  0.4881333E-005  0.8152482E+02  0.7818608E-02  0.1199368E+00
         -4   -1    0    0    0  501 -0.00000000000E+00  0.00000000000E+00  0.11068302556E+03  0.11068302556E+03  0.00000000000E+00 0. -1.
         21   -1    0    0  501  502  0.00000000000E+00 -0.00000000000E+00 -0.45367069944E+03  0.45367069944E+03  0.00000000000E+00 0. -1.
        -13    1    1    2    0    0 -0.27702296328E+02 -0.59117805580E+02  0.32886852258E+00  0.65287452677E+02  0.10566000000E+00 0.  1.
         13    1    1    2    0    0  0.67549547113E+02  0.73075378316E+02  0.44462967772E+02  0.10899504071E+03  0.10566000000E+00 0. -1.
         -4    1    1    2    0  502 -0.39847250785E+02 -0.13957572735E+02 -0.38777951017E+03  0.39007123162E+03  0.00000000000E+00 0. -1.
</event>
<event>
 5    1  0.4881333E-005  0.4957571E+03  0.7818608E-02  0.9840507E-01
         -4   -1    0    0    0  501 -0.00000000000E+00  0.00000000000E+00  0.17786093674E+04  0.17786093674E+04  0.00000000000E+00 0. -1.
         21   -1    0    0  501  502  0.00000000000E+00 -0.00000000000E+00 -0.18869240359E+03  0.18869240359E+03  0.00000000000E+00 0. -1.
        -13    1    1    2    0    0 -0.63527502457E+02 -0.12860470501E+03  0.30526944388E+03  0.33728972450E+03  0.10566000000E+00 0.  1.
         13    1    1    2    0    0  0.37117239510E+03 -0.29892753424E+03  0.60640866616E+03  0.77127044489E+03  0.10566000000E+00 0. -1.
         -4    1    1    2    0  502 -0.30764489264E+03  0.42753223925E+03  0.67823885376E+03  0.85874160160E+03  0.00000000000E+00 0. -1.
</event>
<event>
 5    1  0.4881333E-005  0.9226440E+02  0.7818608E-02  0.1178030E+00
          4   -1    0    0  502    0 -0.00000000000E+00  0.00000000000E+00  0.56085149034E+02  0.56085149034E+02  0.00000000000E+00 0.  1.
         21   -1    0    0  501  502  0.00000000000E+00 -0.00000000000E+00 -0.49552910802E+03  0.49552910802E+03  0.00000000000E+00 0. -1.
        -13    1    1    2    0    0  0.49129151081E+02 -0.74442564212E+02 -0.30718876020E+02  0.94334666801E+02  0.10566000000E+00 0.  1.
         13    1    1    2    0    0 -0.46893071020E+02  0.85197892665E+02 -0.73567207562E+02  0.12194173288E+03  0.10566000000E+00 0. -1.
          4    1    1    2  501    0 -0.22360800607E+01 -0.10755328453E+02 -0.33515787540E+03  0.33533785737E+03  0.00000000000E+00 0.  1.
</event>
<event>
 5    1  0.4881333E-005  0.3456688E+03  0.7818608E-02  0.1027899E+00
         -4   -1    0    0    0  501 -0.00000000000E+00  0.00000000000E+00  0.15831805548E+03  0.15831805548E+03  0.00000000000E+00 0. -1.
         21   -1    0    0  501  502  0.00000000000E+00 -0.00000000000E+00 -0.24044078636E+04  0.24044078636E+04  0.00000000000E+00 0. -1.
        -13    1    1    2    0    0 -0.93181066522E+02 -0.41895143385E+02 -0.11192905791E+01  0.10217229650E+03  0.10566000000E+00 0.  1.
         13    1    1    2    0    0 -0.28768453456E+02  0.34893687267E+03 -0.20441841208E+04  0.20739511316E+04  0.10566000000E+00 0. -1.
         -4    1    1    2    0  502  0.12194951998E+03 -0.30704172929E+03 -0.20078639666E+03  0.38660249098E+03  0.00000000000E+00 0. -1.
</event>
<event>
 5    1  0.4881333E-005  0.4648357E+03  0.7818608E-02  0.9594893E-01
         21   -1    0    0  501  502  0.00000000000E+00  0.00000000000E+00  0.11841953417E+03  0.11841953417E+03  0.00000000000E+00 0. -1.
         -4   -1    0    0    0  501 -0.00000000000E+00 -0.00000000000E+00 -0.46346145523E+04  0.46346145523E+04  0.00000000000E+00 0. -1.
        -13    1    1    2    0    0  0.28710838592E+03 -0.29019851079E+03 -0.13345138047E+04  0.13955549101E+04  0.10566000000E+00 0.  1.
         13    1    1    2    0    0  0.44575916039E+02  0.59479172368E+03 -0.21623621668E+04  0.22431171076E+04  0.10566000000E+00 0. -1.
         -4    1    1    2    0  502 -0.33168430196E+03 -0.30459321289E+03 -0.10193190465E+04  0.11143620687E+04  0.00000000000E+00 0. -1.
</event>
<event>
 5    1  0.4881333E-005  0.3439174E+03  0.7818608E-02  0.1010304E+00
          4   -1    0    0  502    0 -0.00000000000E+00  0.00000000000E+00  0.34918736604E+04  0.34918736604E+04  0.00000000000E+00 0.  1.
         21   -1    0    0  501  502  0.00000000000E+00 -0.00000000000E+00 -0.84159965567E+02  0.84159965567E+02  0.00000000000E+00 0.  1.
        -13    1    1    2    0    0 -0.36455541463E+03 -0.11724292553E+03  0.22865506834E+04  0.23183961251E+04  0.10566000000E+00 0.  1.
         13    1    1    2    0    0  0.12599203407E+03 -0.12966016458E+03  0.64987611792E+03  0.67455520955E+03  0.10566000000E+00 0. -1.
          4    1    1    2  501    0  0.23856338056E+03  0.24690309011E+03  0.47128689348E+03  0.58308229129E+03  0.00000000000E+00 0.  1.
</event>
<event>
 5    1  0.4881333E-005  0.3854900E+02  0.7818608E-02  0.1347010E+00
         21   -1    0    0  501  502  0.00000000000E+00  0.00000000000E+00  0.16914218669E+03  0.16914218669E+03  0.00000000000E+00 0.  1.
          4   -1    0    0  502    0 -0.00000000000E+00 -0.00000000000E+00 -0.19001669143E+02  0.19001669143E+02  0.00000000000E+00 0.  1.
        -13    1    1    2    0    0  0.52627581801E+01 -0.40295947974E+02  0.26561511932E+02  0.48548791199E+02  0.10566000000E+00 0.  1.
         13    1    1    2    0    0 -0.22261829301E+02  0.31181658562E+02  0.47067509665E+02  0.60689756175E+02  0.10566000000E+00 0. -1.
          4    1    1    2  501    0  0.16999071121E+02  0.91142894115E+01  0.76511495946E+02  0.78905308455E+02  0.00000000000E+00 0.  1.
</event>
<event>
 5    1  0.4881333E-005  0.4708186E+03  0.7818608E-02  0.9566788E-01
         -4   -1    0    0    0  501 -0.00000000000E+00  0.00000000000E+00  0.21625830443E+04  0.21625830443E+04  0.00000000000E+00 0. -1.
         21   -1    0    0  501  502  0.00000000000E+00 -0.00000000000E+00 -0.32264953726E+03  0.32264953726E+03  0.00000000000E+00 0. -1.
        -13    1    1    2    0    0 -0.41270741125E+03  0.26449570380E+03  0.91606446490E+03  0.10389704036E+04  0.10566000000E+00 0.  1.
         13    1    1    2    0    0 -0.12041800423E+03 -0.45989525569E+03  0.17525570349E+03  0.50667417017E+03  0.10566000000E+00 0. -1.
         -4    1    1    2    0  502  0.53312541548E+03  0.19539955189E+03  0.74861333868E+03  0.93958800777E+03  0.00000000000E+00 0. -1.
</event>
<event>
 5    1  0.4881333E-005  0.4248746E+03  0.7818608E-02  0.1039937E+00
          4   -1    0    0  502    0 -0.00000000000E+00  0.00000000000E+00  0.36991600072E+03  0.36991600072E+03  0.00000000000E+00 0.  1.
         21   -1    0    0  501  502  0.00000000000E+00 -0.00000000000E+00 -0.14217305799E+04  0.14217305799E+04  0.00000000000E+00 0.  1.
        -13    1    1    2    0    0  0.42781363488E+03 -0.73767231201E+02 -0.10736984966E+04  0.11581427302E+04  0.10566000000E+00 0.  1.
         13    1    1    2    0    0 -0.36085133566E+02  0.12027085486E+02  0.19653651807E+03  0.20018342026E+03  0.10566000000E+00 0. -1.
          4    1    1    2  501    0 -0.39172850132E+03  0.61740145714E+02 -0.17465260063E+03  0.43332043022E+03  0.00000000000E+00 0.  1.
</event>
<event>
 5    1  0.4881333E-005  0.1302537E+03  0.7818608E-02  0.1124502E+00
          4   -1    0    0  502    0 -0.00000000000E+00  0.00000000000E+00  0.12257113246E+04  0.12257113246E+04  0.00000000000E+00 0.  1.
         21   -1    0    0  501  502  0.00000000000E+00 -0.00000000000E+00 -0.29869199171E+03  0.29869199171E+03  0.00000000000E+00 0.  1.
        -13    1    1    2    0    0 -0.23477822108E+03  0.81834389938E+02  0.66358586183E+03  0.70863522891E+03  0.10566000000E+00 0.  1.
         13    1    1    2    0    0  0.10962877175E+03 -0.56504944047E+02  0.51719251649E+03  0.53169482466E+03  0.10566000000E+00 0. -1.
          4    1    1    2  501    0  0.12514944932E+03 -0.25329445891E+02 -0.25375904540E+03  0.28407326276E+03  0.00000000000E+00 0.  1.
</event>
<event>
 5    1  0.4881333E-005  0.3172986E+03  0.7818608E-02  0.1000410E+00
         21   -1    0    0  501  502  0.00000000000E+00  0.00000000000E+00  0.49976293555E+03  0.49976293555E+03  0.00000000000E+00 0.  1.
          4   -1    0    0  502    0 -0.00000000000E+00 -0.00000000000E+00 -0.58321764920E+03  0.58321764920E+03  0.00000000000E+00 0.  1.
        -13    1    1    2    0    0 -0.18237255439E+03  0.32053980975E+03 -0.29140145317E+03  0.47002163387E+03  0.10566000000E+00 0.  1.
         13    1    1    2    0    0  0.14893852713E+03 -0.21963115216E+03 -0.10276017581E+03  0.28457018952E+03  0.10566000000E+00 0. -1.
          4    1    1    2  501    0  0.33434027250E+02 -0.10090865759E+03  0.31070691534E+03  0.32838876137E+03  0.00000000000E+00 0.  1.
</event>
<event>
 5    1  0.4881333E-005  0.3159210E+03  0.7818608E-02  0.1029169E+00
          4   -1    0    0  502    0 -0.00000000000E+00  0.00000000000E+00  0.14157419895E+04  0.14157419895E+04  0.00000000000E+00 0.  1.
         21   -1    0    0  501  502  0.00000000000E+00 -0.00000000000E+00 -0.14724912194E+03  0.14724912194E+03  0.00000000000E+00 0.  1.
        -13    1    1    2    0    0 -0.28996216997E+03  0.15603814409E+03  0.19131537623E+03  0.38082482426E+03  0.10566000000E+00 0.  1.
         13    1    1    2    0    0 -0.16693658474E+02 -0.12757518011E+03  0.60428297730E+03  0.61782848157E+03  0.10566000000E+00 0. -1.
          4    1    1    2  501    0  0.30665582844E+03 -0.28462963986E+02  0.47289451400E+03  0.56433780558E+03  0.00000000000E+00 0.  1.
</event>
<event>
 5    1  0.4881333E-005  0.8181649E+02  0.7818608E-02  0.1198742E+00
         21   -1    0    0  501  502  0.00000000000E+00  0.00000000000E+00  0.79941150454E+02  0.79941150454E+02  0.00000000000E+00 0.  1.
         -4   -1    0    0    0  501 -0.00000000000E+00 -0.00000000000E+00 -0.21734703633E+03  0.21734703633E+03  0.00000000000E+00 0. -1.
        -13    1    1    2    0    0 -0.60845814811E+02  0.35490450529E+02  0.37572933819E+02  0.79834339595E+02  0.10566000000E+00 0.  1.
         13    1    1    2    0    0  0.67216605415E+02 -0.49788742731E+02 -0.18199671004E+03  0.20029928751E+03  0.10566000000E+00 0. -1.
         -4    1    1    2    0  502 -0.63707906041E+01  0.14298292202E+02  0.70178903490E+01  0.17154559679E+02  0.00000000000E+00 0. -1.
</event>
<event>
 5    1  0.4881333E-005  0.4602940E+03  0.7818608E-02  0.9874051E-01
          4   -1    0    0  502    0 -0.00000000000E+00  0.00000000000E+00  0.11115272043E+04  0.11115272043E+04  0.00000000000E+00 0.  1.
         21   -1    0    0  501  502  0.00000000000E+00 -0.00000000000E+00 -0.36447397174E+03  0.36447397174E+03  0.00000000000E+00 0.  1.
        -13    1    1    2    0    0  0.42244276643E+03 -0.16574266345E+03  0.30328206423E+03  0.54580998805E+03  0.10566000000E+00 0.  1.
         13    1    1    2    0    0 -0.65405121248E+02 -0.14605637952E+03  0.42685727924E+03  0.45586998573E+03  0.10566000000E+00 0. -1.
          4    1    1    2  501    0 -0.35703764519E+03  0.31179904297E+03  0.16913889091E+02  0.47432120227E+03  0.00000000000E+00 0.  1.
</event>
<event>
 5    1  0.4881333E-005  0.4843401E+03  0.7818608E-02  0.9634479E-01
         -4   -1    0    0    0  501 -0.00000000000E+00  0.00000000000E+00  0.13202005989E+04  0.13202005989E+04  0.00000000000E+00 0. -1.
         21   -1    0    0  501  502  0.00000000000E+00 -0.00000000000E+00 -0.38051205487E+03  0.38051205487E+03  0.00000000000E+00 0. -1.
        -13    1    1    2    0    0  0.30493288211E+03  0.73220205165E+02  0.52821972210E+02  0.31801797583E+03  0.10566000000E+00 0.  1.
         13    1    1    2    0    0 -0.61752950376E+03  0.19337444197E+03  0.59146238476E+03  0.87667789214E+03  0.10566000000E+00 0. -1.
         -4    1    1    2    0  502  0.31259662165E+03 -0.26659464714E+03  0.29540418701E+03  0.50601678575E+03  0.00000000000E+00 0. -1.
</event>
<event>
 5    1  0.4881333E-005  0.2281404E+03  0.7818608E-02  0.1042387E+00
         -4   -1    0    0    0  501 -0.00000000000E+00  0.00000000000E+00  0.17920367943E+04  0.17920367943E+04  0.00000000000E+00 0. -1.
         21   -1    0    0  501  502  0.00000000000E+00 -0.00000000000E+00 -0.26266085282E+03  0.26266085282E+03  0.00000000000E+00 0. -1.
        -13    1    1    2    0    0 -0.97311175994E+02  0.20933286150E+03  0.66845384365E+03  0.70719181565E+03  0.10566000000E+00 0.  1.
         13    1    1    2    0    0  0.25790740393E+03 -0.72489593674E+02  0.10380244344E+04  0.10720381093E+04  0.10566000000E+00 0. -1.
         -4    1    1    2    0  502 -0.16059622794E+03 -0.13684326783E+03 -0.17710233653E+03  0.27546772222E+03  0.00000000000E+00 0. -1.
</event>
<event>
 5    1  0.4881333E-005  0.1327368E+03  0.7818608E-02  0.1119505E+00
         21   -1    0    0  501  502  0.00000000000E+00  0.00000000000E+00  0.11240130064E+04  0.11240130064E+04  0.00000000000E+00 0. -1.
          4   -1    0    0  502    0 -0.00000000000E+00 -0.00000000000E+00 -0.44985466322E+02  0.44985466322E+02  0.00000000000E+00 0.  1.
        -13    1    1    2    0    0  0.16947399085E+03 -0.95022102310E+02  0.64702267985E+03  0.67556568364E+03  0.10566000000E+00 0.  1.
         13    1    1    2    0    0 -0.10793533560E+03  0.52647630486E+02  0.10994025825E+03  0.16281486792E+03  0.10566000000E+00 0. -1.
          4    1    1    2  501    0 -0.61538655255E+02  0.42374471824E+02  0.32206460200E+03  0.33061792120E+03  0.00000000000E+00 0.  1.
</event>
<event>
 5    1  0.4881333E-005  0.4881500E+03  0.7818608E-02  0.9632862E-01
         21   -1    0    0  501  502  0.00000000000E+00  0.00000000000E+00  0.61837343750E+03  0.61837343750E+03  0.00000000000E+00 0.  1.
         -4   -1    0    0    0  501 -0.00000000000E+00 -0.00000000000E+00 -0.75735722466E+03  0.75735722466E+03  0.00000000000E+00 0. -1.
        -13    1    1    2    0    0 -0.47457363253E+02  0.30439271078E+03 -0.56743400894E+02  0.31325221214E+03  0.10566000000E+00 0.  1.
         13    1    1    2    0    0  0.10813505011E+03  0.28881779035E+03 -0.29750547650E+03  0.42850720507E+03  0.10566000000E+00 0. -1.
         -4    1    1    2    0  502 -0.60677686859E+02 -0.59321050113E+03  0.21526509024E+03  0.63397124494E+03  0.00000000000E+00 0. -1.
</event>
<event>
 5    1  0.4881333E-005  0.4113084E+02  0.7818608E-02  0.1332811E+00
         21   -1    0    0  501  502  0.00000000000E+00  0.00000000000E+00  0.11349626714E+03  0.11349626714E+03  0.00000000000E+00 0. -1.
         -4   -1    0    0    0  501 -0.00000000000E+00 -0.00000000000E+00 -0.57441510122E+02  0.57441510122E+02  0.00000000000E+00 0. -1.
        -13    1    1    2    0    0  0.63808807570E+01 -0.35336853463E+02 -0.20405950794E+02  0.41301608247E+02  0.10566000000E+00 0.  1.
         13    1    1    2    0    0 -0.12571706289E+02  0.57000185669E+02  0.96930650355E+01  0.59169549932E+02  0.10566000000E+00 0. -1.
         -4    1    1    2    0  502  0.61908255317E+01 -0.21663332206E+02  0.66767642777E+02  0.70466619083E+02  0.00000000000E+00 0. -1.
</event>
<event>
 5    1  0.4881333E-005  0.4485350E+02  0.7818608E-02  0.1314291E+00
         21   -1    0    0  501  502  0.00000000000E+00  0.00000000000E+00  0.17062115661E+02  0.17062115661E+02  0.00000000000E+00 0.  1.
         -4   -1    0    0    0  501 -0.00000000000E+00 -0.00000000000E+00 -0.17619619872E+03  0.17619619872E+03  0.00000000000E+00 0. -1.
        -13    1    1    2    0    0 -0.25075533770E+01  0.50760484721E+02 -0.71270987728E+02  0.87535589841E+02  0.10566000000E+00 0.  1.
         13    1    1    2    0    0 -0.79364063070E+01 -0.40791488378E+02 -0.77539977866E+02  0.87973810879E+02  0.10566000000E+00 0. -1.
         -4    1    1    2    0  502  0.10443959684E+02 -0.99689963429E+01 -0.10323117467E+02  0.17748913662E+02  0.00000000000E+00 0. -1.
</event>
<event>
 5    1  0.4881333E-005  0.3436297E+03  0.7818608E-02  0.1069594E+00
         21   -1    0    0  501  502  0.00000000000E+00  0.00000000000E+00  0.33596093554E+03  0.33596093554E+03  0.00000000000E+00 0.  1.
          4   -1    0    0  502    0 -0.00000000000E+00 -0.00000000000E+00 -0.10689830018E+04  0.10689830018E+04  0.00000000000E+00 0.  1.
        -13    1    1    2    0    0 -0.18815279350E+02 -0.31624642826E+03 -0.90717597154E+03  0.96090273838E+03  0.10566000000E+00 0.  1.
         13    1    1    2    0    0  0.28305586156E+01 -0.29863270027E+02 -0.29558225359E+02  0.42113261679E+02  0.10566000000E+00 0. -1.
          4    1    1    2  501    0  0.15984720735E+02  0.34610969829E+03  0.20371213069E+03  0.40192793724E+03  0.00000000000E+00 0.  1.
</event>
<event>
 5    1  0.4881333E-005  0.1127617E+03  0.7818608E-02  0.1145011E+00
         -4   -1    0    0    0  501 -0.00000000000E+00  0.00000000000E+00  0.27815441617E+03  0.27815441617E+03  0.00000000000E+00 0. -1.
         21   -1    0    0  501  502  0.00000000000E+00 -0.00000000000E+00 -0.14023862292E+03  0.14023862292E+03  0.00000000000E+00 0. -1.
        -13    1    1    2    0    0  0.87912975381E+02 -0.49867739276E+02 -0.24773062746E+02  0.10406343480E+03  0.10566000000E+00 0.  1.
         13    1    1    2    0    0 -0.10105097980E+03  0.55524698908E+02  0.22369873575E+03  0.25166530998E+03  0.10566000000E+00 0. -1.
         -4    1    1    2    0  502  0.13138004417E+02 -0.56569596323E+01 -0.61009879755E+02  0.62664294300E+02  0.00000000000E+00 0. -1.
</event>
<event>
 5    1  0.4881333E-005  0.5584814E+03  0.7818608E-02  0.9358247E-01
         -4   -1    0    0    0  501 -0.00000000000E+00  0.00000000000E+00  0.24966319933E+04  0.24966319933E+04  0.00000000000E+00 0. -1.
         21   -1    0    0  501  502  0.00000000000E+00 -0.00000000000E+00 -0.21287558374E+03  0.21287558374E+03  0.00000000000E+00 0. -1.
        -13    1    1    2    0    0 -0.33454522470E+03 -0.38343356582E+03  0.79545136593E+03  0.94429057683E+03  0.10566000000E+00 0.  1.
         13    1    1    2    0    0  0.40247905499E+03  0.43875953273E+03  0.15484313676E+04  0.16589572112E+04  0.10566000000E+00 0. -1.
         -4    1    1    2    0  502 -0.67933830293E+02 -0.55325966904E+02 -0.60126324008E+02  0.10625978897E+03  0.00000000000E+00 0. -1.
</event>
<event>
 5    1  0.4881333E-005  0.4901502E+03  0.7818608E-02  0.9949173E-01
          4   -1    0    0  502    0 -0.00000000000E+00  0.00000000000E+00  0.20951677775E+04  0.20951677775E+04  0.00000000000E+00 0.  1.
         21   -1    0    0  501  502  0.00000000000E+00 -0.00000000000E+00 -0.15671200104E+03  0.15671200104E+03  0.00000000000E+00 0.  1.
        -13    1    1    2    0    0  0.41819103101E+02  0.53837980834E+03  0.87323873711E+03  0.10267168834E+04  0.10566000000E+00 0.  1.
         13    1    1    2    0    0 -0.60113981915E+02 -0.83814120281E+02  0.44012493511E+03  0.45204918676E+03  0.10566000000E+00 0. -1.
          4    1    1    2  501    0  0.18294878814E+02 -0.45456568806E+03  0.62509210421E+03  0.77311370839E+03  0.00000000000E+00 0.  1.
</event>
<event>
 5    1  0.4881333E-005  0.4707960E+03  0.7818608E-02  0.9865064E-01
         -4   -1    0    0    0  501 -0.00000000000E+00  0.00000000000E+00  0.59326121659E+03  0.59326121659E+03  0.00000000000E+00 0. -1.
         21   -1    0    0  501  502  0.00000000000E+00 -0.00000000000E+00 -0.61514646481E+03  0.61514646481E+03  0.00000000000E+00 0. -1.
        -13    1    1    2    0    0  0.18731057367E+01 -0.15414222514E+03 -0.10201518455E+03  0.18485249022E+03  0.10566000000E+00 0.  1.
         13    1    1    2    0    0  0.42427244130E+03 -0.15338033788E+03 -0.11058289635E+03  0.46450104480E+03  0.10566000000E+00 0. -1.
         -4    1    1    2    0  502 -0.42614554704E+03  0.30752256302E+03  0.19071283268E+03  0.55905414637E+03  0.00000000000E+00 0. -1.
</event>
<event>
 5    1  0.4881333E-005  0.4560696E+03  0.7818608E-02  0.9616647E-01
         21   -1    0    0  501  502  0.00000000000E+00  0.00000000000E+00  0.68029985702E+03  0.68029985702E+03  0.00000000000E+00 0. -1.
         -4   -1    0    0    0  501 -0.00000000000E+00 -0.00000000000E+00 -0.12257205330E+04  0.12257205330E+04  0.00000000000E+00 0. -1.
        -13    1    1    2    0    0  0.39571590898E+03 -0.58860769298E+02 -0.71339612086E+03  0.81791790982E+03  0.10566000000E+00 0.  1.
         13    1    1    2    0    0  0.29218973979E+03  0.21760983510E+03  0.10586912188E+03  0.37939051979E+03  0.10566000000E+00 0. -1.
         -4    1    1    2    0  502 -0.68790564877E+03 -0.15874906581E+03  0.62106322977E+02  0.70871196043E+03  0.00000000000E+00 0. -1.
</event>
<event>
 5    1  0.4881333E-005  0.8902108E+03  0.7818608E-02  0.8885208E-01
         -4   -1    0    0    0  501 -0.00000000000E+00  0.00000000000E+00  0.29733687592E+04  0.29733687592E+04  0.00000000000E+00 0. -1.
         21   -1    0    0  501  502  0.00000000000E+00 -0.00000000000E+00 -0.60140721973E+03  0.60140721973E+03  0.00000000000E+00 0.  1.
        -13    1    1    2    0    0 -0.33690246786E+03 -0.10332092077E+04  0.76406974577E+03  0.13284679625E+04  0.10566000000E+00 0.  1.
         13    1    1    2    0    0  0.39800704267E+02  0.83084078295E+03  0.16845770247E+04  0.18787443323E+04  0.10566000000E+00 0. -1.
         -4    1    1    2    0  502  0.29710176359E+03  0.20236842477E+03 -0.76685231018E+02  0.36756368418E+03  0.00000000000E+00 0. -1.
</event>
<event>
 5    1  0.4881333E-005  0.2898221E+03  0.7818608E-02  0.1019863E+00
          4   -1    0    0  502    0 -0.00000000000E+00  0.00000000000E+00  0.31276500572E+03  0.31276500572E+03  0.00000000000E+00 0.  1.
         21   -1    0    0  501  502  0.00000000000E+00 -0.00000000000E+00 -0.13557476105E+04  0.13557476105E+04  0.00000000000E+00 0.  1.
        -13    1    1    2    0    0 -0.15450424593E+03  0.41648515600E+03 -0.57265501395E+02  0.44789596559E+03  0.10566000000E+00 0.  1.
         13    1    1    2    0    0 -0.40789550362E+02 -0.21910404766E+03 -0.29393493825E+02  0.22479848701E+03  0.10566000000E+00 0. -1.
          4    1    1    2  501    0  0.19529379629E+03 -0.19738110834E+03 -0.95632360959E+03  0.99581816365E+03  0.00000000000E+00 0.  1.
</event>
<event>
 5    1  0.4881333E-005  0.3124221E+03  0.7818608E-02  0.1019444E+00
         21   -1    0    0  501  502  0.00000000000E+00  0.00000000000E+00  0.86927744664E+03  0.86927744664E+03  0.00000000000E+00 0.  1.
          4   -1    0    0  502    0 -0.00000000000E+00 -0.00000000000E+00 -0.42132729390E+03  0.42132729390E+03  0.00000000000E+00 0.  1.
        -13    1    1    2    0    0 -0.47103114606E+03 -0.31043639065E+02 -0.14564990708E+03  0.49401209973E+03  0.10566000000E+00 0.  1.
         13    1    1    2    0    0  0.17746137209E+03  0.31785118508E+02  0.64445594100E+02  0.19145777107E+03  0.10566000000E+00 0. -1.
          4    1    1    2  501    0  0.29356977397E+03 -0.74147944298E+00  0.52915446572E+03  0.60513486974E+03  0.00000000000E+00 0.  1.
</event>
<event>
 5    1  0.4881333E-005  0.2286278E+03  0.7818608E-02  0.1087663E+00
         -4   -1    0    0    0  501 -0.00000000000E+00  0.00000000000E+00  0.11815472608E+04  0.11815472608E+04  0.00000000000E+00 0. -1.
         21   -1    0    0  501  502  0.00000000000E+00 -0.00000000000E+00 -0.13265208985E+03  0.13265208985E+03  0.00000000000E+00 0. -1.
        -13    1    1    2    0    0  0.60826663090E+02 -0.69088899314E+01  0.18285593125E+03  0.19283132126E+03  0.10566000000E+00 0.  1.
         13    1    1    2    0    0  0.20572449272E+02  0.22233289620E+03  0.86262414688E+03  0.89105306932E+03  0.10566000000E+00 0. -1.
         -4    1    1    2    0  502 -0.81399112362E+02 -0.21542400626E+03  0.34150928220E+01  0.23031496006E+03  0.00000000000E+00 0. -1.
</event>
<event>
 5    1  0.4881333E-005  0.4210746E+02  0.7818608E-02  0.1327744E+00
         -4   -1    0    0    0  501 -0.00000000000E+00  0.00000000000E+00  0.71694718063E+02  0.71694718063E+02  0.00000000000E+00 0. -1.
         21   -1    0    0  501  502  0.00000000000E+00 -0.00000000000E+00 -0.59990089099E+02  0.59990089099E+02  0.00000000000E+00 0.  1.
        -13    1    1    2    0    0  0.29982536731E+02  0.22346603164E+02 -0.26692747911E+02  0.45943847650E+02  0.10566000000E+00 0.  1.
         13    1    1    2    0    0 -0.17732758061E+02 -0.40622522099E+02  0.44602562642E+02  0.62881155909E+02  0.10566000000E+00 0. -1.
         -4    1    1    2    0  502 -0.12249778670E+02  0.18275918935E+02 -0.62051857668E+01  0.22859803603E+02  0.00000000000E+00 0. -1.
</event>
<event>
 5    1  0.4881333E-005  0.6557031E+02  0.7818608E-02  0.1263701E+00
         21   -1    0    0  501  502  0.00000000000E+00  0.00000000000E+00  0.33961108115E+02  0.33961108115E+02  0.00000000000E+00 0.  1.
          4   -1    0    0  502    0 -0.00000000000E+00 -0.00000000000E+00 -0.26922826364E+03  0.26922826364E+03  0.00000000000E+00 0.  1.
        -13    1    1    2    0    0 -0.45023558179E+02  0.31074358923E+02 -0.14254079987E+03  0.15267818234E+03  0.10566000000E+00 0.  1.
         13    1    1    2    0    0  0.12134907761E+02  0.37030075897E+02 -0.14166846608E+02  0.41463154899E+02  0.10566000000E+00 0. -1.
          4    1    1    2  501    0  0.32888650418E+02 -0.68104434820E+02 -0.78559509050E+02  0.10904803451E+03  0.00000000000E+00 0.  1.
</event>
<event>
 5    1  0.4881333E-005  0.5721862E+02  0.7818608E-02  0.1264900E+00
         21   -1    0    0  501  502  0.00000000000E+00  0.00000000000E+00  0.38851771237E+02  0.38851771237E+02  0.00000000000E+00 0.  1.
         -4   -1    0    0    0  501 -0.00000000000E+00 -0.00000000000E+00 -0.18734241028E+03  0.18734241028E+03  0.00000000000E+00 0. -1.
        -13    1    1    2    0    0 -0.75400375719E+01  0.49161440497E+02 -0.52509200519E+01  0.50012825592E+02  0.10566000000E+00 0.  1.
         13    1    1    2    0    0  0.38329391719E+01 -0.58991252011E+02 -0.15162375068E+03  0.16274038273E+03  0.10566000000E+00 0. -1.
         -4    1    1    2    0  502  0.37070984000E+01  0.98298115148E+01  0.83840316924E+01  0.13440973193E+02  0.00000000000E+00 0. -1.
</event>
<event>
 5    1  0.4881333E-005  0.6510947E+02  0.7818608E-02  0.1240175E+00
         -4   -1    0    0    0  501 -0.00000000000E+00  0.00000000000E+00  0.66972486003E+02  0.66972486003E+02  0.00000000000E+00 0. -1.
         21   -1    0    0  501  502  0.00000000000E+00 -0.00000000000E+00 -0.13741721239E+03  0.13741721239E+03  0.00000000000E+00 0.  1.
        -13    1    1    2    0    0 -0.68719474706E+02 -0.25247740446E+02 -0.77716665923E+02  0.10676940539E+03  0.10566000000E+00 0.  1.
         13    1    1    2    0    0  0.56485249673E+02  0.28929159120E+02  0.31031839382E+02  0.70643229665E+02  0.10566000000E+00 0. -1.
         -4    1    1    2    0  502  0.12234225033E+02 -0.36814186738E+01 -0.23759899845E+02  0.26977063337E+02  0.00000000000E+00 0. -1.
</event>
<event>
 5    1  0.4881333E-005  0.3131345E+03  0.7818608E-02  0.1013788E+00
         -4   -1    0    0    0  501 -0.00000000000E+00  0.00000000000E+00  0.22316995113E+04  0.22316995113E+04  0.00000000000E+00 0. -1.
         21   -1    0    0  501  502  0.00000000000E+00 -0.00000000000E+00 -0.19278597813E+03  0.19278597813E+03  0.00000000000E+00 0. -1.
        -13    1    1    2    0    0  0.17118865317E+03  0.12883230437E+03  0.87577613992E+03  0.90160255991E+03  0.10566000000E+00 0.  1.
         13    1    1    2    0    0 -0.14642882922E+02  0.29745600819E+03  0.26629424231E+02  0.29900439500E+03  0.10566000000E+00 0. -1.
         -4    1    1    2    0  502 -0.15654577025E+03 -0.42628831257E+03  0.11365079690E+04  0.12238785345E+04  0.00000000000E+00 0. -1.
</event>
<event>
 5    1  0.4881333E-005  0.4067444E+03  0.7818608E-02  0.9815504E-01
          4   -1    0    0  502    0 -0.00000000000E+00  0.00000000000E+00  0.10193738940E+04  0.10193738940E+04  0.00000000000E+00 0.  1.
         21   -1    0    0  501  502  0.00000000000E+00 -0.00000000000E+00 -0.44801830132E+03  0.44801830132E+03  0.00000000000E+00 0.  1.
        -13    1    1    2    0    0  0.24955940817E+03 -0.24948775154E+03  0.58166973370E+03  0.68034089003E+03  0.10566000000E+00 0.  1.
         13    1    1    2    0    0 -0.21312534551E+03 -0.18577976389E+03  0.15209573294E+03  0.32104463352E+03  0.10566000000E+00 0. -1.
          4    1    1    2  501    0 -0.36434062659E+02  0.43526751543E+03 -0.16240987400E+03  0.46600667172E+03  0.00000000000E+00 0.  1.
</event>
<event>
 5    1  0.4881333E-005  0.7641120E+02  0.7818608E-02  0.1210845E+00
          4   -1    0    0  502    0 -0.00000000000E+00  0.00000000000E+00  0.12179803091E+03  0.12179803091E+03  0.00000000000E+00 0.  1.
         21   -1    0    0  501  502  0.00000000000E+00 -0.00000000000E+00 -0.19857644558E+03  0.19857644558E+03  0.00000000000E+00 0.  1.
        -13    1    1    2    0    0 -0.74700509146E+02 -0.15604567110E+02  0.58986808392E+02  0.96452699857E+02  0.10566000000E+00 0.  1.
         13    1    1    2    0    0  0.72453798473E+02  0.26336429899E+02  0.10006145300E+02  0.77738629785E+02  0.10566000000E+00 0. -1.
          4    1    1    2  501    0  0.22467106727E+01 -0.10731862789E+02 -0.14577136836E+03  0.14618314685E+03  0.00000000000E+00 0.  1.
</event>
<event>
 5    1  0.4881333E-005  0.9057475E+03  0.7818608E-02  0.8868577E-01
         21   -1    0    0  501  502  0.00000000000E+00  0.00000000000E+00  0.10105000984E+04  0.10105000984E+04  0.00000000000E+00 0.  1.
         -4   -1    0    0    0  501 -0.00000000000E+00 -0.00000000000E+00 -0.17255708165E+04  0.17255708165E+04  0.00000000000E+00 0. -1.
        -13    1    1    2    0    0  0.72424679103E+03 -0.84917045977E+03 -0.57922107438E+03  0.12574263192E+04  0.10566000000E+00 0.  1.
         13    1    1    2    0    0 -0.55216722284E+03  0.55099766004E+03 -0.53925885957E+03  0.94830754091E+03  0.10566000000E+00 0. -1.
         -4    1    1    2    0  502 -0.17207956819E+03  0.29817279972E+03  0.40340921580E+03  0.53033705478E+03  0.00000000000E+00 0. -1.
</event>
<event>
 5    1  0.4881333E-005  0.5286543E+03  0.7818608E-02  0.9417286E-01
         -4   -1    0    0    0  501 -0.00000000000E+00  0.00000000000E+00  0.27743766999E+04  0.27743766999E+04  0.00000000000E+00 0. -1.
         21   -1    0    0  501  502  0.00000000000E+00 -0.00000000000E+00 -0.20147191713E+03  0.20147191713E+03  0.00000000000E+00 0.  1.
        -13    1    1    2    0    0 -0.36114152838E+03 -0.32619251483E+03  0.35374132148E+03  0.60162919971E+03  0.10566000000E+00 0.  1.
         13    1    1    2    0    0  0.48596912030E+03  0.24464575290E+03  0.21345125133E+04  0.22027621775E+04  0.10566000000E+00 0. -1.
         -4    1    1    2    0  502 -0.12482759191E+03  0.81546761931E+02  0.84650948054E+02  0.17145723983E+03  0.00000000000E+00 0. -1.
</event>
<event>
 5    1  0.4881333E-005  0.4929602E+03  0.7818608E-02  0.9939876E-01
         -4   -1    0    0    0  501 -0.00000000000E+00  0.00000000000E+00  0.27851640831E+03  0.27851640831E+03  0.00000000000E+00 0. -1.
         21   -1    0    0  501  502  0.00000000000E+00 -0.00000000000E+00 -0.17424636926E+04  0.17424636926E+04  0.00000000000E+00 0. -1.
        -13    1    1    2    0    0 -0.10057671569E+03  0.28594800899E+02  0.11383905322E+03  0.15457257059E+03  0.10566000000E+00 0.  1.
         13    1    1    2    0    0  0.33695127071E+03 -0.40994649205E+03 -0.10271260510E+04  0.11561056271E+04  0.10566000000E+00 0. -1.
         -4    1    1    2    0  502 -0.23637455501E+03  0.38135169115E+03 -0.55066028650E+03  0.71030190323E+03  0.00000000000E+00 0. -1.
</event>
<event>
 5    1  0.4881333E-005  0.1853886E+03  0.7818608E-02  0.1070642E+00
         -4   -1    0    0    0  501 -0.00000000000E+00  0.00000000000E+00  0.11165698742E+04  0.11165698742E+04  0.00000000000E+00 0. -1.
         21   -1    0    0  501  502  0.00000000000E+00 -0.00000000000E+00 -0.47980126794E+03  0.47980126794E+03  0.00000000000E+00 0.  1.
        -13    1    1    2    0    0  0.13058845711E+03 -0.16180470169E+03 -0.13378714660E+03  0.24725112412E+03  0.10566000000E+00 0.  1.
         13    1    1    2    0    0 -0.84433834211E+02  0.16416971873E+03  0.10498856369E+04  0.10659927911E+04  0.10566000000E+00 0. -1.
         -4    1    1    2    0  502 -0.46154622899E+02 -0.23650170404E+01 -0.27932988403E+03  0.28312722694E+03  0.00000000000E+00 0. -1.
</event>
<event>
 5    1  0.4881333E-005  0.4928195E+03  0.7818608E-02  0.9579782E-01
         -4   -1    0    0    0  501 -0.00000000000E+00  0.00000000000E+00  0.14162047022E+04  0.14162047022E+04  0.00000000000E+00 0. -1.
         21   -1    0    0  501  502  0.00000000000E+00 -0.00000000000E+00 -0.38016808419E+03  0.38016808419E+03  0.00000000000E+00 0. -1.
        -13    1    1    2    0    0  0.35943445972E+03 -0.38839342358E+02  0.44557987361E+03  0.57379705496E+03  0.10566000000E+00 0.  1.
         13    1    1    2    0    0 -0.24408640169E+03 -0.46862236294E+03  0.41998088774E+03  0.67495855263E+03  0.10566000000E+00 0. -1.
         -4    1    1    2    0  502 -0.11534805803E+03  0.50746170530E+03  0.17047585669E+03  0.54761717883E+03  0.00000000000E+00 0. -1.
</event>
<event>
 5    1  0.4881333E-005  0.5761505E+03  0.7818608E-02  0.9344241E-01
         21   -1    0    0  501  502  0.00000000000E+00  0.00000000000E+00  0.47613164441E+03  0.47613164441E+03  0.00000000000E+00 0. -1.
          4   -1    0    0  502    0 -0.00000000000E+00 -0.00000000000E+00 -0.17754267800E+04  0.17754267800E+04  0.00000000000E+00 0.  1.
        -13    1    1    2    0    0  0.67895787906E+02 -0.58896722681E+03 -0.30294263949E+03  0.66578261186E+03  0.10566000000E+00 0.  1.
         13    1    1    2    0    0  0.47240429320E+03  0.38890412212E+03 -0.72564957871E+03  0.94919942830E+03  0.10566000000E+00 0. -1.
          4    1    1    2  501    0 -0.54030008110E+03  0.20006310469E+03 -0.27070291738E+03  0.63657638424E+03  0.00000000000E+00 0.  1.
</event>
<event>
 5    1  0.4881333E-005  0.3462531E+03  0.7818608E-02  0.9898581E-01
          4   -1    0    0  502    0 -0.00000000000E+00  0.00000000000E+00  0.14364307025E+04  0.14364307025E+04  0.00000000000E+00 0.  1.
         21   -1    0    0  501  502  0.00000000000E+00 -0.00000000000E+00 -0.11925368339E+03  0.11925368339E+03  0.00000000000E+00 0. -1.
        -13    1    1    2    0    0 -0.17927649246E+03 -0.33576760286E+03  0.44853131470E+03  0.58826889711E+03  0.10566000000E+00 0.  1.
         13    1    1    2    0    0  0.92782632492E+02  0.31828551406E+03  0.74572195293E+03  0.81609774389E+03  0.10566000000E+00 0. -1.
          4    1    1    2  501    0  0.86493859967E+02  0.17482088804E+02  0.12292375150E+03  0.15131774491E+03  0.00000000000E+00 0.  1.
</event>
<event>
 5    1  0.4881333E-005  0.4472773E+03  0.7818608E-02  0.9648423E-01
         -4   -1    0    0    0  501 -0.00000000000E+00  0.00000000000E+00  0.12279898263E+04  0.12279898263E+04  0.00000000000E+00 0. -1.
         21   -1    0    0  501  502  0.00000000000E+00 -0.00000000000E+00 -0.45767490944E+03  0.45767490944E+03  0.00000000000E+00 0.  1.
        -13    1    1    2    0    0  0.26262269637E+03 -0.27338700915E+03  0.35380738171E+03  0.51854682714E+03  0.10566000000E+00 0.  1.
         13    1    1    2    0    0 -0.14733700176E+03 -0.36960179672E+03  0.10582587631E+02  0.39802723846E+03  0.10566000000E+00 0. -1.
         -4    1    1    2    0  502 -0.11528569461E+03  0.64298880587E+03  0.40592494747E+03  0.76909067010E+03  0.00000000000E+00 0. -1.
</event>
<event>
 5    1  0.5555756E-005  0.3389763E+03  0.7818608E-02  0.1052458E+00
         21   -1    0    0  501  502  0.00000000000E+00  0.00000000000E+00  0.37015797847E+03  0.37015797847E+03  0.00000000000E+00 0. -1.
         -4   -1    0    0    0  501 -0.00000000000E+00 -0.00000000000E+00 -0.75062180519E+03  0.75062180519E+03  0.00000000000E+00 0. -1.
        -13    1    1    2    0    0  0.50016854158E+02 -0.12169220468E+02 -0.45020565674E+02  0.68385949758E+02  0.10566000000E+00 0.  1.
         13    1    1    2    0    0 -0.32006376947E+03  0.20630914003E+03 -0.54087421064E+03  0.66147501894E+03  0.10566000000E+00 0. -1.
         -4    1    1    2    0  502  0.27004691532E+03 -0.19413991956E+03  0.20543094959E+03  0.39091881496E+03  0.00000000000E+00 0. -1.
</event>
<event>
 5    1  0.4881333E-005  0.2473894E+03  0.7818608E-02  0.1031754E+00
          4   -1    0    0  502    0 -0.00000000000E+00  0.00000000000E+00  0.52575554928E+03  0.52575554928E+03  0.00000000000E+00 0.  1.
         21   -1    0    0  501  502  0.00000000000E+00 -0.00000000000E+00 -0.50991161841E+03  0.50991161841E+03  0.00000000000E+00 0. -1.
        -13    1    1    2    0    0 -0.20763729320E+03  0.13360829026E+03  0.45266782594E+03  0.51562834732E+03  0.10566000000E+00 0.  1.
         13    1    1    2    0    0  0.20778117724E+03 -0.14521579072E+03 -0.34843903219E+03  0.43089489880E+03  0.10566000000E+00 0. -1.
          4    1    1    2  501    0 -0.14388403906E+00  0.11607500467E+02 -0.88384862875E+02  0.89143921583E+02  0.00000000000E+00 0.  1.
</event>
<event>
 5    1  0.4881333E-005  0.2862064E+03  0.7818608E-02  0.1028916E+00
         -4   -1    0    0    0  501 -0.00000000000E+00  0.00000000000E+00  0.69561716852E+03  0.69561716852E+03  0.00000000000E+00 0. -1.
         21   -1    0    0  501  502  0.00000000000E+00 -0.00000000000E+00 -0.54165234035E+03  0.54165234035E+03  0.00000000000E+00 0. -1.
        -13    1    1    2    0    0  0.17101620988E+02 -0.17356367143E+03  0.23101630614E+03  0.28945700604E+03  0.10566000000E+00 0.  1.
         13    1    1    2    0    0  0.26435171732E+03  0.12365793505E+03 -0.41363616294E+03  0.50622919889E+03  0.10566000000E+00 0. -1.
         -4    1    1    2    0  502 -0.28145333831E+03  0.49905736377E+02  0.33658468497E+03  0.44158330395E+03  0.00000000000E+00 0. -1.
</event>
<event>
 5    1  0.4881333E-005  0.2847673E+02  0.7818608E-02  0.1417573E+00
          4   -1    0    0  502    0 -0.00000000000E+00  0.00000000000E+00  0.74752588659E+02  0.74752588659E+02  0.00000000000E+00 0.  1.
         21   -1    0    0  501  502  0.00000000000E+00 -0.00000000000E+00 -0.19066993149E+03  0.19066993149E+03  0.00000000000E+00 0.  1.
        -13    1    1    2    0    0 -0.27658428443E+02  0.82855532984E+01  0.69687415346E+02  0.75431996387E+02  0.10566000000E+00 0.  1.
         13    1    1    2    0    0  0.15634823398E+02 -0.15145822514E+02 -0.64006883280E+02  0.67607217910E+02  0.10566000000E+00 0. -1.
          4    1    1    2  501    0  0.12023605045E+02  0.68602692153E+01 -0.12159787489E+03  0.12238330585E+03  0.00000000000E+00 0.  1.
</event>
<event>
 5    1  0.4881333E-005  0.2355863E+03  0.7818608E-02  0.1038145E+00
         -4   -1    0    0    0  501 -0.00000000000E+00  0.00000000000E+00  0.57549644982E+03  0.57549644982E+03  0.00000000000E+00 0. -1.
         21   -1    0    0  501  502  0.00000000000E+00 -0.00000000000E+00 -0.97028742906E+03  0.97028742906E+03  0.00000000000E+00 0. -1.
        -13    1    1    2    0    0  0.19328585802E+03 -0.12865017929E+03  0.23647339900E+03  0.33140605176E+03  0.10566000000E+00 0.  1.
         13    1    1    2    0    0 -0.12773731758E+03  0.33775488731E+03 -0.83838723365E+03  0.91284629095E+03  0.10566000000E+00 0. -1.
         -4    1    1    2    0  502 -0.65548540444E+02 -0.20910470802E+03  0.20712285540E+03  0.30153153616E+03  0.00000000000E+00 0. -1.
</event>
<event>
 5    1  0.4881333E-005  0.7426847E+03  0.7818608E-02  0.9063256E-01
         21   -1    0    0  501  502  0.00000000000E+00  0.00000000000E+00  0.43697593955E+03  0.43697593955E+03  0.00000000000E+00 0. -1.
          4   -1    0    0  502    0 -0.00000000000E+00 -0.00000000000E+00 -0.23767122741E+04  0.23767122741E+04  0.00000000000E+00 0.  1.
        -13    1    1    2    0    0 -0.71148408523E+03 -0.62617555229E+03 -0.50950912135E+03  0.10760599341E+04  0.10566000000E+00 0.  1.
         13    1    1    2    0    0  0.52411112187E+03  0.43146555998E+03 -0.12164993810E+04  0.13930993334E+04  0.10566000000E+00 0. -1.
          4    1    1    2  501    0  0.18737296337E+03  0.19470999231E+03 -0.21372783219E+03  0.34452894618E+03  0.00000000000E+00 0.  1.
</event>
<event>
 5    1  0.4881333E-005  0.4302755E+03  0.7818608E-02  0.9974330E-01
         21   -1    0    0  501  502  0.00000000000E+00  0.00000000000E+00  0.41109210255E+03  0.41109210255E+03  0.00000000000E+00 0. -1.
         -4   -1    0    0    0  501 -0.00000000000E+00 -0.00000000000E+00 -0.88796985451E+03  0.88796985451E+03  0.00000000000E+00 0. -1.
        -13    1    1    2    0    0 -0.13861848387E+03 -0.21737948444E+02 -0.22132611329E+03  0.26205511265E+03  0.10566000000E+00 0.  1.
         13    1    1    2    0    0 -0.19441818120E+03  0.32618553357E+03 -0.41117959533E+03  0.55970001096E+03  0.10566000000E+00 0. -1.
         -4    1    1    2    0  502  0.33303666507E+03 -0.30444758513E+03  0.15562795666E+03  0.47730683346E+03  0.00000000000E+00 0. -1.
</event>
<event>
 5    1  0.4881333E-005  0.8058142E+03  0.7818608E-02  0.8982192E-01
          4   -1    0    0  502    0 -0.00000000000E+00  0.00000000000E+00  0.29758555534E+04  0.29758555534E+04  0.00000000000E+00 0.  1.
         21   -1    0    0  501  502  0.00000000000E+00 -0.00000000000E+00 -0.34230771954E+03  0.34230771954E+03  0.00000000000E+00 0. -1.
        -13    1    1    2    0    0  0.26400395277E+03 -0.86038596857E+03  0.17594622265E+04  0.19762766607E+04  0.10566000000E+00 0.  1.
         13    1    1    2    0    0 -0.79048193316E+02  0.63588578621E+03  0.32033869560E+03  0.71639112295E+03  0.10566000000E+00 0. -1.
          4    1    1    2  501    0 -0.18495575945E+03  0.22450018236E+03  0.55374691176E+03  0.62549548928E+03  0.00000000000E+00 0.  1.
</event>
<event>
 5    1  0.4881333E-005  0.1993887E+03  0.7818608E-02  0.1104996E+00
         -4   -1    0    0    0  501 -0.00000000000E+00  0.00000000000E+00  0.49678221259E+03  0.49678221259E+03  0.00000000000E+00 0. -1.
         21   -1    0    0  501  502  0.00000000000E+00 -0.00000000000E+00 -0.17321936437E+03  0.17321936437E+03  0.00000000000E+00 0. -1.
        -13    1    1    2    0    0 -0.56688029173E+02 -0.97372416554E+01  0.55039431570E+02  0.79609652167E+02  0.10566000000E+00 0.  1.
         13    1    1    2    0    0  0.12416731886E+03  0.19172535815E+03  0.31662975921E+03  0.39042355412E+03  0.10566000000E+00 0. -1.
         -4    1    1    2    0  502 -0.67479289688E+02 -0.18198811649E+03 -0.48106342556E+02  0.19996837069E+03  0.00000000000E+00 0. -1.
</event>
<event>
 5    1  0.4881333E-005  0.5403953E+03  0.7818608E-02  0.9531724E-01
         21   -1    0    0  501  502  0.00000000000E+00  0.00000000000E+00  0.29965536593E+03  0.29965536593E+03  0.00000000000E+00 0. -1.
          4   -1    0    0  502    0 -0.00000000000E+00 -0.00000000000E+00 -0.31514293000E+04  0.31514293000E+04  0.00000000000E+00 0.  1.
        -13    1    1    2    0    0  0.13599467849E+03  0.30614077858E+03 -0.19251446486E+04  0.19540723267E+04  0.10566000000E+00 0.  1.
         13    1    1    2    0    0  0.39541149469E+03 -0.40429636667E+03 -0.72671097081E+03  0.92082281059E+03  0.10566000000E+00 0. -1.
          4    1    1    2  501    0 -0.53140617318E+03  0.98155588086E+02 -0.19991831467E+03  0.57618952864E+03  0.00000000000E+00 0.  1.
</event>
<event>
 5    1  0.4881333E-005  0.3152484E+03  0.7818608E-02  0.1001202E+00
          4   -1    0    0  502    0 -0.00000000000E+00  0.00000000000E+00  0.20842843225E+04  0.20842843225E+04  0.00000000000E+00 0.  1.
         21   -1    0    0  501  502  0.00000000000E+00 -0.00000000000E+00 -0.32252562530E+03  0.32252562530E+03  0.00000000000E+00 0.  1.
        -13    1    1    2    0    0 -0.30687487587E+03  0.21928049792E+03  0.15345377376E+03  0.40719061636E+03  0.10566000000E+00 0.  1.
         13    1    1    2    0    0  0.25123301072E+03 -0.11371760333E+02 -0.10523184098E+03  0.27261895409E+03  0.10566000000E+00 0. -1.
          4    1    1    2  501    0  0.55641865146E+02 -0.20790873759E+03  0.17135367644E+04  0.17270003773E+04  0.00000000000E+00 0.  1.
</event>
<event>
 5    1  0.4881333E-005  0.4519607E+03  0.7818608E-02  0.9709565E-01
         21   -1    0    0  501  502  0.00000000000E+00  0.00000000000E+00  0.10876698771E+04  0.10876698771E+04  0.00000000000E+00 0.  1.
          4   -1    0    0  502    0 -0.00000000000E+00 -0.00000000000E+00 -0.36581290008E+03  0.36581290008E+03  0.00000000000E+00 0.  1.
        -13    1    1    2    0    0  0.60053826270E+02 -0.60149896279E+03  0.43948797790E+03  0.74736681634E+03  0.10566000000E+00 0.  1.
         13    1    1    2    0    0 -0.31714571984E+02  0.29498110986E+03  0.26500230232E+03  0.39780133314E+03  0.10566000000E+00 0. -1.
          4    1    1    2  501    0 -0.28339254286E+02  0.30651785292E+03  0.17366696807E+02  0.30831462770E+03  0.00000000000E+00 0.  1.
</event>
<event>
 5    1  0.4881333E-005  0.3749384E+03  0.7818608E-02  0.9930173E-01
         21   -1    0    0  501  502  0.00000000000E+00  0.00000000000E+00  0.45821440014E+03  0.45821440014E+03  0.00000000000E+00 0. -1.
         -4   -1    0    0    0  501 -0.00000000000E+00 -0.00000000000E+00 -0.10050576162E+04  0.10050576162E+04  0.00000000000E+00 0. -1.
        -13    1    1    2    0    0 -0.23585640359E+03  0.67884630351E+02 -0.30380202493E+03  0.39055377052E+03  0.10566000000E+00 0.  1.
         13    1    1    2    0    0 -0.17360478310E+03 -0.30685451728E+01 -0.53709218140E+03  0.56446085708E+03  0.10566000000E+00 0. -1.
         -4    1    1    2    0  502  0.40946118670E+03 -0.64816085178E+02  0.29405099029E+03  0.50825738873E+03  0.00000000000E+00 0. -1.
</event>
<event>
 5    1  0.4881333E-005  0.4797992E+03  0.7818608E-02  0.9686558E-01
         -4   -1    0    0    0  501 -0.00000000000E+00  0.00000000000E+00  0.21368445908E+04  0.21368445908E+04  0.00000000000E+00 0. -1.
         21   -1    0    0  501  502  0.00000000000E+00 -0.00000000000E+00 -0.37030475696E+03  0.37030475696E+03  0.00000000000E+00 0. -1.
        -13    1    1    2    0    0  0.26861091957E+03 -0.57477903726E+01  0.13754686877E+04  0.14014631587E+04  0.10566000000E+00 0.  1.
         13    1    1    2    0    0 -0.59293151365E+03  0.23306492338E+03  0.26554339736E+03  0.69021760731E+03  0.10566000000E+00 0. -1.
         -4    1    1    2    0  502  0.32432059408E+03 -0.22731713301E+03  0.12552774878E+03  0.41546858175E+03  0.00000000000E+00 0. -1.
</event>
<event>
 5    1  0.4881333E-005  0.4322447E+03  0.7818608E-02  0.9751908E-01
         21   -1    0    0  501  502  0.00000000000E+00  0.00000000000E+00  0.19321707193E+03  0.19321707193E+03  0.00000000000E+00 0.  1.
          4   -1    0    0  502    0 -0.00000000000E+00 -0.00000000000E+00 -0.22074464412E+04  0.22074464412E+04  0.00000000000E+00 0.  1.
        -13    1    1    2    0    0 -0.17215406639E+03 -0.56498788837E+03 -0.12308783358E+04  0.13652508287E+04  0.10566000000E+00 0.  1.
         13    1    1    2    0    0 -0.85502905492E+02  0.28016241874E+03 -0.34728301987E+03  0.45432062992E+03  0.10566000000E+00 0. -1.
          4    1    1    2  501    0  0.25765697188E+03  0.28482546963E+03 -0.43606801358E+03  0.58109205448E+03  0.00000000000E+00 0.  1.
</event>
<event>
 5    1  0.4881333E-005  0.8832657E+02  0.7818608E-02  0.1185463E+00
         -4   -1    0    0    0  501 -0.00000000000E+00  0.00000000000E+00  0.90136652898E+02  0.90136652898E+02  0.00000000000E+00 0. -1.
         21   -1    0    0  501  502  0.00000000000E+00 -0.00000000000E+00 -0.67732211146E+03  0.67732211146E+03  0.00000000000E+00 0. -1.
        -13    1    1    2    0    0  0.36847761756E+02 -0.88716356252E+02 -0.26827356826E+02  0.99740000257E+02  0.10566000000E+00 0.  1.
         13    1    1    2    0    0 -0.38343396454E+02  0.75146802559E+02  0.20403969629E+02  0.86796262173E+02  0.10566000000E+00 0. -1.
         -4    1    1    2    0  502  0.14956346981E+01  0.13569553693E+02 -0.58076207137E+03  0.58092250193E+03  0.00000000000E+00 0. -1.
</event>
<event>
 5    1  0.4881333E-005  0.5019143E+03  0.7818608E-02  0.9605549E-01
         21   -1    0    0  501  502  0.00000000000E+00  0.00000000000E+00  0.24049953450E+03  0.24049953450E+03  0.00000000000E+00 0. -1.
         -4   -1    0    0    0  501 -0.00000000000E+00 -0.00000000000E+00 -0.30332379441E+04  0.30332379441E+04  0.00000000000E+00 0. -1.
        -13    1    1    2    0    0  0.12374035905E+03  0.28663994489E+03 -0.17984250832E+04  0.18253237865E+04  0.10566000000E+00 0.  1.
         13    1    1    2    0    0 -0.30330994357E+03  0.28972529283E+03 -0.58182763914E+03  0.71725942308E+03  0.10566000000E+00 0. -1.
         -4    1    1    2    0  502  0.17956958452E+03 -0.57636523772E+03 -0.41248568727E+03  0.73115426904E+03  0.00000000000E+00 0. -1.
</event>
<event>
 5    1  0.4881333E-005  0.6183242E+02  0.7818608E-02  0.1249941E+00
         -4   -1    0    0    0  501 -0.00000000000E+00  0.00000000000E+00  0.42122979159E+03  0.42122979159E+03  0.00000000000E+00 0. -1.
         21   -1    0    0  501  502  0.00000000000E+00 -0.00000000000E+00 -0.41926776195E+02  0.41926776195E+02  0.00000000000E+00 0. -1.
        -13    1    1    2    0    0 -0.21358316439E+02 -0.51189560167E+02  0.13602641238E+03  0.14690045875E+03  0.10566000000E+00 0.  1.
         13    1    1    2    0    0  0.30961497218E+02  0.58953547515E+02  0.27461461658E+03  0.28257270548E+03  0.10566000000E+00 0. -1.
         -4    1    1    2    0  502 -0.96031807785E+01 -0.77639873478E+01 -0.31338013573E+02  0.33683403558E+02  0.00000000000E+00 0. -1.
</event>
<event>
 5    1  0.4881333E-005  0.5153665E+03  0.7818608E-02  0.9684051E-01
         21   -1    0    0  501  502  0.00000000000E+00  0.00000000000E+00  0.14412131389E+04  0.14412131389E+04  0.00000000000E+00 0.  1.
          4   -1    0    0  502    0 -0.00000000000E+00 -0.00000000000E+00 -0.38668358722E+03  0.38668358722E+03  0.00000000000E+00 0.  1.
        -13    1    1    2    0    0 -0.48543610741E+03 -0.15994218217E+02  0.72656194517E+03  0.87395440426E+03  0.10566000000E+00 0.  1.
         13    1    1    2    0    0 -0.75579158116E+02 -0.20522990721E+03 -0.72061275013E+02  0.23027019450E+03  0.10566000000E+00 0. -1.
          4    1    1    2  501    0  0.56101526553E+03  0.22122412543E+03  0.40002888148E+03  0.72367212731E+03  0.00000000000E+00 0.  1.
</event>
<event>
 5    1  0.4881333E-005  0.6680203E+03  0.7818608E-02  0.9170706E-01
         21   -1    0    0  501  502  0.00000000000E+00  0.00000000000E+00  0.21337532328E+03  0.21337532328E+03  0.00000000000E+00 0.  1.
         -4   -1    0    0    0  501 -0.00000000000E+00 -0.00000000000E+00 -0.33910144464E+04  0.33910144464E+04  0.00000000000E+00 0. -1.
        -13    1    1    2    0    0 -0.53483640573E+03 -0.14372938139E+03 -0.88264579882E+03  0.10420037108E+04  0.10566000000E+00 0.  1.
         13    1    1    2    0    0  0.71597956463E+03  0.40349171609E+03 -0.16045079209E+04  0.18027417955E+04  0.10566000000E+00 0. -1.
         -4    1    1    2    0  502 -0.18114315889E+03 -0.25976233470E+03 -0.69048540336E+03  0.75964426332E+03  0.00000000000E+00 0. -1.
</event>
<event>
 5    1  0.4881333E-005  0.2382480E+03  0.7818608E-02  0.1036669E+00
         21   -1    0    0  501  502  0.00000000000E+00  0.00000000000E+00  0.77104311023E+03  0.77104311023E+03  0.00000000000E+00 0. -1.
          4   -1    0    0  502    0 -0.00000000000E+00 -0.00000000000E+00 -0.10814978054E+03  0.10814978054E+03  0.00000000000E+00 0.  1.
        -13    1    1    2    0    0  0.21332744343E+03 -0.11595423995E+03  0.10638085576E+03  0.26508655477E+03  0.10566000000E+00 0.  1.
         13    1    1    2    0    0 -0.19737207402E+03  0.11232188288E+03  0.42763169864E+03  0.48419089399E+03  0.10566000000E+00 0. -1.
          4    1    1    2  501    0 -0.15955369409E+02  0.36323570753E+01  0.12888077530E+03  0.12991544201E+03  0.00000000000E+00 0.  1.
</event>
<event>
 5    1  0.4881333E-005  0.3715435E+03  0.7818608E-02  0.1017447E+00
          4   -1    0    0  502    0 -0.00000000000E+00  0.00000000000E+00  0.24339181225E+03  0.24339181225E+03  0.00000000000E+00 0.  1.
         21   -1    0    0  501  502  0.00000000000E+00 -0.00000000000E+00 -0.13044637532E+04  0.13044637532E+04  0.00000000000E+00 0.  1.
        -13    1    1    2    0    0  0.12847834323E+03  0.35230632192E+03 -0.47011292415E+02  0.37793716663E+03  0.10566000000E+00 0.  1.
         13    1    1    2    0    0 -0.11219411203E+03  0.21169574655E+02 -0.31192693261E+02  0.11835820606E+03  0.10566000000E+00 0. -1.
          4    1    1    2  501    0 -0.16284231195E+02 -0.37347589657E+03 -0.98286795531E+03  0.10515601928E+04  0.00000000000E+00 0.  1.
</event>
<event>
 5    1  0.4881333E-005  0.2020069E+03  0.7818608E-02  0.1099391E+00
         21   -1    0    0  501  502  0.00000000000E+00  0.00000000000E+00  0.42737453990E+03  0.42737453990E+03  0.00000000000E+00 0.  1.
          4   -1    0    0  502    0 -0.00000000000E+00 -0.00000000000E+00 -0.77681057555E+03  0.77681057555E+03  0.00000000000E+00 0.  1.
        -13    1    1    2    0    0 -0.25368745644E+03 -0.64972085358E+02 -0.35291606243E+03  0.43946382754E+03  0.10566000000E+00 0.  1.
         13    1    1    2    0    0  0.60010444278E+02  0.23211720376E+02 -0.35195883444E+03  0.35779193631E+03  0.10566000000E+00 0. -1.
          4    1    1    2  501    0  0.19367701216E+03  0.41760364982E+02  0.35543886122E+03  0.40692935160E+03  0.00000000000E+00 0.  1.
</event>
<event>
 5    1  0.4881333E-005  0.1768649E+02  0.7818608E-02  0.1544841E+00
         21   -1    0    0  501  502  0.00000000000E+00  0.00000000000E+00  0.24196851693E+03  0.24196851693E+03  0.00000000000E+00 0.  1.
          4   -1    0    0  502    0 -0.00000000000E+00 -0.00000000000E+00 -0.14727088396E+02  0.14727088396E+02  0.00000000000E+00 0.  1.
        -13    1    1    2    0    0  0.13684099351E+02 -0.10314777177E+02 -0.59424440831E+01  0.18137613100E+02  0.10566000000E+00 0.  1.
         13    1    1    2    0    0 -0.23806241529E+02  0.64895170263E+01  0.57877012622E+02  0.62917491376E+02  0.10566000000E+00 0. -1.
          4    1    1    2  501    0  0.10122142178E+02  0.38252601503E+01  0.17530686000E+03  0.17564050085E+03  0.00000000000E+00 0.  1.
</event>
<event>
 5    1  0.4881333E-005  0.2348613E+02  0.7818608E-02  0.1466446E+00
         21   -1    0    0  501  502  0.00000000000E+00  0.00000000000E+00  0.13763116397E+02  0.13763116397E+02  0.00000000000E+00 0.  1.
          4   -1    0    0  502    0 -0.00000000000E+00 -0.00000000000E+00 -0.17785913631E+03  0.17785913631E+03  0.00000000000E+00 0.  1.
        -13    1    1    2    0    0 -0.11415624137E+02  0.18456999778E+02 -0.11677612199E+03  0.11877563363E+03  0.10566000000E+00 0.  1.
         13    1    1    2    0    0  0.10029412424E+02 -0.33461718681E+02 -0.45943016051E+02  0.57715228654E+02  0.10566000000E+00 0. -1.
          4    1    1    2  501    0  0.13862117132E+01  0.15004718903E+02 -0.13768818747E+01  0.15131390418E+02  0.00000000000E+00 0.  1.
</event>
<event>
 5    1  0.4881333E-005  0.7798481E+02  0.7818608E-02  0.1207210E+00
         -4   -1    0    0    0  501 -0.00000000000E+00  0.00000000000E+00  0.19063485307E+03  0.19063485307E+03  0.00000000000E+00 0. -1.
         21   -1    0    0  501  502  0.00000000000E+00 -0.00000000000E+00 -0.53285369733E+02  0.53285369733E+02  0.00000000000E+00 0.  1.
        -13    1    1    2    0    0 -0.37801348318E+02 -0.54996486115E+02  0.36864637822E+02  0.76240200062E+02  0.10566000000E+00 0.  1.
         13    1    1    2    0    0  0.63942706947E+02  0.59812017270E+02  0.10896040930E+03  0.13978028882E+03  0.10566000000E+00 0. -1.
         -4    1    1    2    0  502 -0.26141358629E+02 -0.48155311542E+01 -0.84755637928E+01  0.27899733921E+02  0.00000000000E+00 0. -1.
</event>
<event>
 5    1  0.4881333E-005  0.3270357E+03  0.7818608E-02  0.1025326E+00
          4   -1    0    0  502    0 -0.00000000000E+00  0.00000000000E+00  0.32598275256E+03  0.32598275256E+03  0.00000000000E+00 0.  1.
         21   -1    0    0  501  502  0.00000000000E+00 -0.00000000000E+00 -0.57094834790E+03  0.57094834790E+03  0.00000000000E+00 0.  1.
        -13    1    1    2    0    0  0.37571286344E+03 -0.78966677230E+02 -0.22798137595E+03  0.44651025835E+03  0.10566000000E+00 0.  1.
         13    1    1    2    0    0 -0.95977863049E+02  0.88707828228E+02  0.81119425032E+02  0.15382197914E+03  0.10566000000E+00 0. -1.
          4    1    1    2  501    0 -0.27973500039E+03 -0.97411509973E+01 -0.98103644423E+02  0.29659886297E+03  0.00000000000E+00 0.  1.
</event>
<event>
 5    1  0.4881333E-005  0.5027840E+03  0.7818608E-02  0.9595345E-01
         -4   -1    0    0    0  501 -0.00000000000E+00  0.00000000000E+00  0.62766119184E+03  0.62766119184E+03  0.00000000000E+00 0. -1.
         21   -1    0    0  501  502  0.00000000000E+00 -0.00000000000E+00 -0.88746069304E+03  0.88746069304E+03  0.00000000000E+00 0. -1.
        -13    1    1    2    0    0 -0.31683587126E+03  0.57835498651E+02  0.18265717812E+03  0.37026148882E+03  0.10566000000E+00 0.  1.
         13    1    1    2    0    0  0.12582811846E+03  0.47255959261E+03 -0.16161139397E+03  0.51503741397E+03  0.10566000000E+00 0. -1.
         -4    1    1    2    0  502  0.19100775280E+03 -0.53039509126E+03 -0.28084528536E+03  0.62982298209E+03  0.00000000000E+00 0. -1.
</event>
<event>
 5    1  0.4881333E-005  0.4535860E+03  0.7818608E-02  0.9806723E-01
         -4   -1    0    0    0  501 -0.00000000000E+00  0.00000000000E+00  0.74295749282E+03  0.74295749282E+03  0.00000000000E+00 0. -1.
         21   -1    0    0  501  502  0.00000000000E+00 -0.00000000000E+00 -0.52944218606E+03  0.52944218606E+03  0.00000000000E+00 0. -1.
        -13    1    1    2    0    0  0.37391210273E+02  0.20670854938E+03  0.13425095906E+03  0.24929873278E+03  0.10566000000E+00 0.  1.
         13    1    1    2    0    0  0.11257098393E+03  0.37621701221E+03 -0.79377052465E+02  0.40063973133E+03  0.10566000000E+00 0. -1.
         -4    1    1    2    0  502 -0.14996219420E+03 -0.58292556159E+03  0.15864140016E+03  0.62246121477E+03  0.00000000000E+00 0. -1.
</event>
<event>
 5    1  0.4881333E-005  0.6104865E+02  0.7818608E-02  0.1252377E+00
         21   -1    0    0  501  502  0.00000000000E+00  0.00000000000E+00  0.68591680003E+03  0.68591680003E+03  0.00000000000E+00 0. -1.
         -4   -1    0    0    0  501 -0.00000000000E+00 -0.00000000000E+00 -0.61962829249E+02  0.61962829249E+02  0.00000000000E+00 0. -1.
        -13    1    1    2    0    0  0.28150684384E+02 -0.55689351581E+02  0.10440978133E+02  0.63267607029E+02  0.10566000000E+00 0.  1.
         13    1    1    2    0    0  0.27167733276E+02  0.66517796292E+02  0.34335291116E+01  0.71934020053E+02  0.10566000000E+00 0. -1.
         -4    1    1    2    0  502 -0.55318417660E+02 -0.10828444711E+02  0.61007946354E+03  0.61267800220E+03  0.00000000000E+00 0. -1.
</event>
<event>
 5    1  0.4881333E-005  0.4740143E+03  0.7818608E-02  0.9681095E-01
          4   -1    0    0  502    0 -0.00000000000E+00  0.00000000000E+00  0.25176360867E+04  0.25176360867E+04  0.00000000000E+00 0.  1.
         21   -1    0    0  501  502  0.00000000000E+00 -0.00000000000E+00 -0.16855203518E+03  0.16855203518E+03  0.00000000000E+00 0.  1.
        -13    1    1    2    0    0  0.33291646116E+03 -0.53740537300E+03  0.11748882105E+04  0.13341664901E+04  0.10566000000E+00 0.  1.
         13    1    1    2    0    0 -0.47332721612E+02  0.28002772450E+03  0.45046916116E+03  0.53252078771E+03  0.10566000000E+00 0. -1.
          4    1    1    2  501    0 -0.28558373954E+03  0.25737764850E+03  0.72372667986E+03  0.81950084404E+03  0.00000000000E+00 0.  1.
</event>
<event>
 5    1  0.4881333E-005  0.9977926E+02  0.7818608E-02  0.1164921E+00
         21   -1    0    0  501  502  0.00000000000E+00  0.00000000000E+00  0.14694724740E+03  0.14694724740E+03  0.00000000000E+00 0. -1.
          4   -1    0    0  502    0 -0.00000000000E+00 -0.00000000000E+00 -0.99440128385E+02  0.99440128385E+02  0.00000000000E+00 0.  1.
        -13    1    1    2    0    0 -0.20403614816E+02  0.10459155855E+03 -0.19821033425E+02  0.10839089513E+03  0.10566000000E+00 0.  1.
         13    1    1    2    0    0  0.36450211846E+02 -0.83078140085E+02  0.38339431263E+02  0.98491210050E+02  0.10566000000E+00 0. -1.
          4    1    1    2  501    0 -0.16046597030E+02 -0.21513418461E+02  0.28988721172E+02  0.39505270602E+02  0.00000000000E+00 0.  1.
</event>
<event>
 5    1  0.4881333E-005  0.1201411E+03  0.7818608E-02  0.1134960E+00
          4   -1    0    0  502    0 -0.00000000000E+00  0.00000000000E+00  0.47175788380E+03  0.47175788380E+03  0.00000000000E+00 0.  1.
         21   -1    0    0  501  502  0.00000000000E+00 -0.00000000000E+00 -0.21918722432E+03  0.21918722432E+03  0.00000000000E+00 0. -1.
        -13    1    1    2    0    0  0.10463984082E+03 -0.59536205567E+02  0.44471295664E+03  0.46072082765E+03  0.10566000000E+00 0.  1.
         13    1    1    2    0    0 -0.94364459596E+02  0.65255116571E+02 -0.16897998849E+03  0.20424771516E+03  0.10566000000E+00 0. -1.
          4    1    1    2  501    0 -0.10275381225E+02 -0.57189110037E+01 -0.23162308671E+02  0.25976565311E+02  0.00000000000E+00 0.  1.
</event>
<event>
 5    1  0.4881333E-005  0.1415524E+03  0.7818608E-02  0.1109755E+00
         -4   -1    0    0    0  501 -0.00000000000E+00  0.00000000000E+00  0.79877104093E+02  0.79877104093E+02  0.00000000000E+00 0. -1.
         21   -1    0    0  501  502  0.00000000000E+00 -0.00000000000E+00 -0.28812830955E+03  0.28812830955E+03  0.00000000000E+00 0.  1.
        -13    1    1    2    0    0 -0.81401020465E+02  0.11032436065E+03 -0.11505226117E+03  0.17898219087E+03  0.10566000000E+00 0.  1.
         13    1    1    2    0    0  0.94171593075E+02 -0.11043439194E+03 -0.66949840656E+02  0.15983221263E+03  0.10566000000E+00 0. -1.
         -4    1    1    2    0  502 -0.12770572611E+02  0.11003129882E+00 -0.26249103628E+02  0.29191010140E+02  0.00000000000E+00 0. -1.
</event>
<event>
 5    1  0.4881333E-005  0.4424689E+03  0.7818608E-02  0.9667848E-01
         21   -1    0    0  501  502  0.00000000000E+00  0.00000000000E+00  0.16820943385E+04  0.16820943385E+04  0.00000000000E+00 0. -1.
         -4   -1    0    0    0  501 -0.00000000000E+00 -0.00000000000E+00 -0.38498584873E+03  0.38498584873E+03  0.00000000000E+00 0. -1.
        -13    1    1    2    0    0  0.32044334227E+02  0.36434532104E+03  0.92880051173E+02  0.37736065957E+03  0.10566000000E+00 0.  1.
         13    1    1    2    0    0 -0.19620026791E+03  0.11334847483E+03 -0.13128673644E+03  0.26187523786E+03  0.10566000000E+00 0. -1.
         -4    1    1    2    0  502  0.16415593369E+03 -0.47769379587E+03  0.13355151751E+04  0.14278442898E+04  0.00000000000E+00 0. -1.
</event>
<event>
 5    1  0.4881333E-005  0.5331917E+03  0.7818608E-02  0.9669873E-01
         -4   -1    0    0    0  501 -0.00000000000E+00  0.00000000000E+00  0.53586656760E+03  0.53586656760E+03  0.00000000000E+00 0. -1.
         21   -1    0    0  501  502  0.00000000000E+00 -0.00000000000E+00 -0.99488486772E+03  0.99488486772E+03  0.00000000000E+00 0. -1.
        -13    1    1    2    0    0  0.13073228141E+03  0.16118931351E+03  0.16255537449E+03  0.26362318777E+03  0.10566000000E+00 0.  1.
         13    1    1    2    0    0  0.28148684271E+03  0.34893680492E+03 -0.24868475482E+03  0.51267519434E+03  0.10566000000E+00 0. -1.
         -4    1    1    2    0  502 -0.41221912412E+03 -0.51012611843E+03 -0.37288891980E+03  0.75445305321E+03  0.00000000000E+00 0. -1.
</event>
<event>
 5    1  0.4881333E-005  0.7856634E+02  0.7818608E-02  0.1205890E+00
         -4   -1    0    0    0  501 -0.00000000000E+00  0.00000000000E+00  0.15060169732E+03  0.15060169732E+03  0.00000000000E+00 0. -1.
         21   -1    0    0  501  502  0.00000000000E+00 -0.00000000000E+00 -0.56150134493E+03  0.56150134493E+03  0.00000000000E+00 0. -1.
        -13    1    1    2    0    0  0.89870907340E+02 -0.76041843204E+00 -0.85883623975E+01  0.90283605129E+02  0.10566000000E+00 0.  1.
         13    1    1    2    0    0 -0.75317522788E+02 -0.74047847635E+01  0.96551581989E+02  0.12267754165E+03  0.10566000000E+00 0. -1.
         -4    1    1    2    0  502 -0.14553384552E+02  0.81652031955E+01 -0.49886286721E+03  0.49914189548E+03  0.00000000000E+00 0. -1.
</event>
<event>
 5    1  0.4881333E-005  0.3498292E+03  0.7818608E-02  0.9951833E-01
         -4   -1    0    0    0  501 -0.00000000000E+00  0.00000000000E+00  0.18984652876E+04  0.18984652876E+04  0.00000000000E+00 0. -1.
         21   -1    0    0  501  502  0.00000000000E+00 -0.00000000000E+00 -0.45417953888E+03  0.45417953888E+03  0.00000000000E+00 0. -1.
        -13    1    1    2    0    0 -0.65089727311E+02  0.27357583421E+03  0.12596534828E+04  0.12906615813E+04  0.10566000000E+00 0.  1.
         13    1    1    2    0    0  0.21642521854E+03  0.24341530499E+03 -0.21584459950E+03  0.39074261122E+03  0.10566000000E+00 0. -1.
         -4    1    1    2    0  502 -0.15133549122E+03 -0.51699113920E+03  0.40047686545E+03  0.67124063396E+03  0.00000000000E+00 0. -1.
</event>
<event>
 5    1  0.4881333E-005  0.4811127E+03  0.7818608E-02  0.9520358E-01
         21   -1    0    0  501  502  0.00000000000E+00  0.00000000000E+00  0.60716254085E+03  0.60716254085E+03  0.00000000000E+00 0. -1.
          4   -1    0    0  502    0 -0.00000000000E+00 -0.00000000000E+00 -0.11084797695E+04  0.11084797695E+04  0.00000000000E+00 0.  1.
        -13    1    1    2    0    0 -0.54832131300E+03  0.10268762704E+02  0.16493552560E+03  0.57268267701E+03  0.10566000000E+00 0.  1.
         13    1    1    2    0    0  0.35881099094E+03  0.34427713722E+03 -0.50813482293E+03  0.71096630291E+03  0.10566000000E+00 0. -1.
          4    1    1    2  501    0  0.18951032206E+03 -0.35454589993E+03 -0.15811793129E+03  0.43199333041E+03  0.00000000000E+00 0.  1.
</event>
<event>
 5    1  0.4881333E-005  0.3848743E+02  0.7818608E-02  0.1361422E+00
         -4   -1    0    0    0  501 -0.00000000000E+00  0.00000000000E+00  0.49500441265E+02  0.49500441265E+02  0.00000000000E+00 0. -1.
         21   -1    0    0  501  502  0.00000000000E+00 -0.00000000000E+00 -0.71773354810E+02  0.71773354810E+02  0.00000000000E+00 0.  1.
        -13    1    1    2    0    0 -0.23852159874E+02  0.18093637175E+02 -0.18262811248E+02  0.35069169873E+02  0.10566000000E+00 0.  1.
         13    1    1    2    0    0  0.51821316122E+02  0.10241988334E+01  0.16427623916E+01  0.51857570520E+02  0.10566000000E+00 0. -1.
         -4    1    1    2    0  502 -0.27969156248E+02 -0.19117836008E+02 -0.56528646894E+01  0.34347055683E+02  0.00000000000E+00 0. -1.
</event>
<event>
 5    1  0.4881333E-005  0.3553041E+03  0.7818608E-02  0.9867834E-01
          4   -1    0    0  502    0 -0.00000000000E+00  0.00000000000E+00  0.14475757044E+04  0.14475757044E+04  0.00000000000E+00 0.  1.
         21   -1    0    0  501  502  0.00000000000E+00 -0.00000000000E+00 -0.15169275306E+03  0.15169275306E+03  0.00000000000E+00 0. -1.
        -13    1    1    2    0    0 -0.29292211211E+03 -0.20248965799E+03  0.98108028854E+03  0.10437068406E+04  0.10566000000E+00 0.  1.
         13    1    1    2    0    0  0.23658780300E+03  0.27336014383E+03  0.28466167373E+03  0.46014327814E+03  0.10566000000E+00 0. -1.
          4    1    1    2  501    0  0.56334309115E+02 -0.70870485842E+02  0.30140989074E+02  0.95418338747E+02  0.00000000000E+00 0.  1.
</event>
<event>
 5    1  0.4881333E-005  0.2605601E+03  0.7818608E-02  0.1025061E+00
          4   -1    0    0  502    0 -0.00000000000E+00  0.00000000000E+00  0.89343113385E+03  0.89343113385E+03  0.00000000000E+00 0.  1.
         21   -1    0    0  501  502  0.00000000000E+00 -0.00000000000E+00 -0.86866559864E+03  0.86866559864E+03  0.00000000000E+00 0.  1.
        -13    1    1    2    0    0 -0.18919893217E+03 -0.24719940411E+03  0.24817394159E+03  0.39811317206E+03  0.10566000000E+00 0.  1.
         13    1    1    2    0    0  0.27277653901E+03  0.97622803886E+01  0.51554010711E+03  0.58333862854E+03  0.10566000000E+00 0. -1.
          4    1    1    2  501    0 -0.83577606839E+02  0.23743712372E+03 -0.73894851348E+03  0.78064493188E+03  0.00000000000E+00 0.  1.
</event>
<event>
 5    1  0.4881333E-005  0.4618492E+03  0.7818608E-02  0.9893186E-01
          4   -1    0    0  502    0 -0.00000000000E+00  0.00000000000E+00  0.25809412895E+04  0.25809412895E+04  0.00000000000E+00 0.  1.
         21   -1    0    0  501  502  0.00000000000E+00 -0.00000000000E+00 -0.15398353013E+03  0.15398353013E+03  0.00000000000E+00 0.  1.
        -13    1    1    2    0    0 -0.37755850828E+03 -0.33769467889E+02  0.16990827977E+04  0.17408541492E+04  0.10566000000E+00 0.  1.
         13    1    1    2    0    0 -0.11987087629E+03  0.87765553473E+02  0.61577542850E+02  0.16082171591E+03  0.10566000000E+00 0. -1.
          4    1    1    2  501    0  0.49742938457E+03 -0.53996085584E+02  0.66629741880E+03  0.83324895451E+03  0.00000000000E+00 0.  1.
</event>
<event>
 5    1  0.4881333E-005  0.3549776E+03  0.7818608E-02  0.1015843E+00
         21   -1    0    0  501  502  0.00000000000E+00  0.00000000000E+00  0.32836832898E+03  0.32836832898E+03  0.00000000000E+00 0. -1.
         -4   -1    0    0    0  501 -0.00000000000E+00 -0.00000000000E+00 -0.98357273400E+03  0.98357273400E+03  0.00000000000E+00 0. -1.
        -13    1    1    2    0    0  0.86993365960E+02  0.10680402790E+03 -0.27558875349E+03  0.30809757920E+03  0.10566000000E+00 0.  1.
         13    1    1    2    0    0 -0.11106179596E+03 -0.44003591204E+03 -0.47443624607E+03  0.65654861903E+03  0.10566000000E+00 0. -1.
         -4    1    1    2    0  502  0.24068429996E+02  0.33323188414E+03  0.94820594534E+02  0.34729486474E+03  0.00000000000E+00 0. -1.
</event>
<event>
 5    1  0.4881333E-005  0.2252220E+03  0.7818608E-02  0.1044097E+00
         21   -1    0    0  501  502  0.00000000000E+00  0.00000000000E+00  0.32236446171E+03  0.32236446171E+03  0.00000000000E+00 0. -1.
          4   -1    0    0  502    0 -0.00000000000E+00 -0.00000000000E+00 -0.20881700304E+03  0.20881700304E+03  0.00000000000E+00 0.  1.
        -13    1    1    2    0    0 -0.45688471971E+02 -0.22542642251E+03 -0.49004231013E+02  0.23517213750E+03  0.10566000000E+00 0.  1.
         13    1    1    2    0    0  0.39677238486E+02  0.21243001202E+03  0.11186827191E+03  0.24334197066E+03  0.10566000000E+00 0. -1.
          4    1    1    2  501    0  0.60112334857E+01  0.12996410488E+02  0.50683417774E+02  0.52667356596E+02  0.00000000000E+00 0.  1.
</event>
<event>
 5    1  0.4881333E-005  0.2593617E+03  0.7818608E-02  0.1042340E+00
         -4   -1    0    0    0  501 -0.00000000000E+00  0.00000000000E+00  0.14736575493E+04  0.14736575493E+04  0.00000000000E+00 0. -1.
         21   -1    0    0  501  502  0.00000000000E+00 -0.00000000000E+00 -0.14029804875E+03  0.14029804875E+03  0.00000000000E+00 0. -1.
        -13    1    1    2    0    0  0.15343385483E+03 -0.25237792942E+02  0.33208412031E+03  0.36668619844E+03  0.10566000000E+00 0.  1.
         13    1    1    2    0    0 -0.38926991889E+03  0.40983240413E+01  0.91653099453E+03  0.99577956452E+03  0.10566000000E+00 0. -1.
         -4    1    1    2    0  502  0.23583606406E+03  0.21139468901E+02  0.84744385758E+02  0.25148983513E+03  0.00000000000E+00 0. -1.
</event>
<event>
 5    1  0.4881333E-005  0.2118050E+03  0.7818608E-02  0.1052331E+00
         -4   -1    0    0    0  501 -0.00000000000E+00  0.00000000000E+00  0.27505485089E+03  0.27505485089E+03  0.00000000000E+00 0. -1.
         21   -1    0    0  501  502  0.00000000000E+00 -0.00000000000E+00 -0.21787088529E+03  0.21787088529E+03  0.00000000000E+00 0.  1.
        -13    1    1    2    0    0  0.14386715958E+03 -0.16315693229E+03 -0.36985822779E+02  0.22064883052E+03  0.10566000000E+00 0.  1.
         13    1    1    2    0    0 -0.14435740698E+03  0.15139420771E+03  0.12192645908E+03  0.24212670168E+03  0.10566000000E+00 0. -1.
         -4    1    1    2    0  502  0.49024740300E+00  0.11762724576E+02 -0.27756670695E+02  0.30150203980E+02  0.00000000000E+00 0. -1.
</event>
<event>
 5    1  0.4881333E-005  0.4872543E+03  0.7818608E-02  0.9620423E-01
         21   -1    0    0  501  502  0.00000000000E+00  0.00000000000E+00  0.52444005062E+03  0.52444005062E+03  0.00000000000E+00 0. -1.
         -4   -1    0    0    0  501 -0.00000000000E+00 -0.00000000000E+00 -0.20317060110E+04  0.20317060110E+04  0.00000000000E+00 0. -1.
        -13    1    1    2    0    0  0.31108200251E+03 -0.89518667075E+02 -0.14788217620E+04  0.15138359947E+04  0.10566000000E+00 0.  1.
         13    1    1    2    0    0  0.22534753739E+03 -0.21270176518E+03 -0.23927819711E+03  0.39150685855E+03  0.10566000000E+00 0. -1.
         -4    1    1    2    0  502 -0.53642953990E+03  0.30222043225E+03  0.21083399873E+03  0.65080320833E+03  0.00000000000E+00 0. -1.
</event>
<event>
 5    1  0.4881333E-005  0.1035219E+04  0.7818608E-02  0.8742186E-01
          4   -1    0    0  502    0 -0.00000000000E+00  0.00000000000E+00  0.35144440667E+04  0.35144440667E+04  0.00000000000E+00 0.  1.
         21   -1    0    0  501  502  0.00000000000E+00 -0.00000000000E+00 -0.39169442667E+03  0.39169442667E+03  0.00000000000E+00 0. -1.
        -13    1    1    2    0    0 -0.10951255039E+04  0.12832176519E+03  0.20092842604E+04  0.22919401378E+04  0.10566000000E+00 0.  1.
         13    1    1    2    0    0  0.92786278805E+03 -0.20892971381E+03  0.10529727986E+04  0.14189195554E+04  0.10566000000E+00 0. -1.
          4    1    1    2  501    0  0.16726271582E+03  0.80607948619E+02  0.60492580994E+02  0.19527880028E+03  0.00000000000E+00 0.  1.
</event>
<event>
 5    1  0.4881333E-005  0.4907490E+03  0.7818608E-02  0.9697790E-01
         21   -1    0    0  501  502  0.00000000000E+00  0.00000000000E+00  0.25151597561E+03  0.25151597561E+03  0.00000000000E+00 0.  1.
          4   -1    0    0  502    0 -0.00000000000E+00 -0.00000000000E+00 -0.16192953803E+04  0.16192953803E+04  0.00000000000E+00 0.  1.
        -13    1    1    2    0    0 -0.57063956687E+03  0.42873433390E+02 -0.34132506064E+03  0.66631107957E+03  0.10566000000E+00 0.  1.
         13    1    1    2    0    0  0.19672422007E+03 -0.13997456996E+03 -0.34366434652E+03  0.41999820622E+03  0.10566000000E+00 0. -1.
          4    1    1    2  501    0  0.37391534680E+03  0.97101136572E+02 -0.68278999748E+03  0.78450207008E+03  0.00000000000E+00 0.  1.
</event>
<event>
 5    1  0.4881333E-005  0.4717796E+03  0.7818608E-02  0.1021166E+00
         -4   -1    0    0    0  501 -0.00000000000E+00  0.00000000000E+00  0.13232878642E+04  0.13232878642E+04  0.00000000000E+00 0. -1.
         21   -1    0    0  501  502  0.00000000000E+00 -0.00000000000E+00 -0.22106738086E+03  0.22106738086E+03  0.00000000000E+00 0. -1.
        -13    1    1    2    0    0 -0.15605182721E+02  0.47071891926E+02  0.19828749457E+03  0.20439478076E+03  0.10566000000E+00 0.  1.
         13    1    1    2    0    0  0.37681836303E+01 -0.50224469071E+03  0.64041495526E+03  0.81387668270E+03  0.10566000000E+00 0. -1.
         -4    1    1    2    0  502  0.11836999091E+02  0.45517279878E+03  0.26351803355E+03  0.52608378164E+03  0.00000000000E+00 0. -1.
</event>
<event>
 5    1  0.4881333E-005  0.4687875E+03  0.7818608E-02  0.9600269E-01
         21   -1    0    0  501  502  0.00000000000E+00  0.00000000000E+00  0.50452778420E+03  0.50452778420E+03  0.00000000000E+00 0.  1.
          4   -1    0    0  502    0 -0.00000000000E+00 -0.00000000000E+00 -0.10998038540E+04  0.10998038540E+04  0.00000000000E+00 0.  1.
        -13    1    1    2    0    0  0.27821553646E+03  0.11580763342E+03 -0.44075510888E+03  0.53392918057E+03  0.10566000000E+00 0.  1.
         13    1    1    2    0    0  0.27160813333E+03 -0.28048962693E+03 -0.28302912967E+03  0.48223532462E+03  0.10566000000E+00 0. -1.
          4    1    1    2  501    0 -0.54982366979E+03  0.16468199351E+03  0.12850816880E+03  0.58816713296E+03  0.00000000000E+00 0.  1.
</event>
<event>
 5    1  0.4881333E-005  0.8240625E+02  0.7818608E-02  0.1197484E+00
         -4   -1    0    0    0  501 -0.00000000000E+00  0.00000000000E+00  0.12368306211E+02  0.12368306211E+02  0.00000000000E+00 0. -1.
         21   -1    0    0  501  502  0.00000000000E+00 -0.00000000000E+00 -0.71992340567E+03  0.71992340567E+03  0.00000000000E+00 0.  1.
        -13    1    1    2    0    0  0.84744228521E+02  0.23549343915E+01 -0.42289185401E+03  0.43130576316E+03  0.10566000000E+00 0.  1.
         13    1    1    2    0    0 -0.80984023788E+02  0.89425354673E+01 -0.20773514634E+03  0.22314184556E+03  0.10566000000E+00 0. -1.
         -4    1    1    2    0  502 -0.37602047327E+01 -0.11297469859E+02 -0.76928099113E+02  0.77844103167E+02  0.00000000000E+00 0. -1.
</event>
<event>
 5    1  0.4881333E-005  0.3204863E+03  0.7818608E-02  0.1008643E+00
         21   -1    0    0  501  502  0.00000000000E+00  0.00000000000E+00  0.29986557128E+03  0.29986557128E+03  0.00000000000E+00 0.  1.
          4   -1    0    0  502    0 -0.00000000000E+00 -0.00000000000E+00 -0.15224487660E+04  0.15224487660E+04  0.00000000000E+00 0.  1.
        -13    1    1    2    0    0  0.27745087883E+03 -0.19372544292E+03  0.14537175837E+03  0.36829539326E+03  0.10566000000E+00 0.  1.
         13    1    1    2    0    0 -0.22973428287E+03 -0.52589765766E+02 -0.54778560674E+03  0.59633263059E+03  0.10566000000E+00 0. -1.
          4    1    1    2  501    0 -0.47716595960E+02  0.24631520869E+03 -0.82016934640E+03  0.85768631348E+03  0.00000000000E+00 0.  1.
</event>
<event>
 5    1  0.4881333E-005  0.3168469E+03  0.7818608E-02  0.1000584E+00
          4   -1    0    0  502    0 -0.00000000000E+00  0.00000000000E+00  0.19274015154E+04  0.19274015154E+04  0.00000000000E+00 0.  1.
         21   -1    0    0  501  502  0.00000000000E+00 -0.00000000000E+00 -0.94728449238E+02  0.94728449238E+02  0.00000000000E+00 0.  1.
        -13    1    1    2    0    0  0.25947046840E+03  0.18813893990E+03  0.13793073653E+04  0.14160543788E+04  0.10566000000E+00 0.  1.
         13    1    1    2    0    0 -0.25918074950E+03 -0.16678799095E+03  0.48092581145E+03  0.57121146883E+03  0.10566000000E+00 0. -1.
          4    1    1    2  501    0 -0.28971890414E+00 -0.21350948942E+02 -0.27560110581E+02  0.34864116983E+02  0.00000000000E+00 0.  1.
</event>
<event>
 5    1  0.4881333E-005  0.3252972E+03  0.7818608E-02  0.1006156E+00
         21   -1    0    0  501  502  0.00000000000E+00  0.00000000000E+00  0.18910792845E+03  0.18910792845E+03  0.00000000000E+00 0.  1.
          4   -1    0    0  502    0 -0.00000000000E+00 -0.00000000000E+00 -0.23064659199E+04  0.23064659199E+04  0.00000000000E+00 0.  1.
        -13    1    1    2    0    0  0.27127539680E+03 -0.19851935684E+03 -0.40890039864E+02  0.33863296129E+03  0.10566000000E+00 0.  1.
         13    1    1    2    0    0  0.48123019290E+02  0.23943222404E+03 -0.64463552957E+03  0.68934649636E+03  0.10566000000E+00 0. -1.
          4    1    1    2  501    0 -0.31939841609E+03 -0.40912867203E+02 -0.14318324220E+04  0.14675943907E+04  0.00000000000E+00 0.  1.
</event>
<event>
 5    1  0.4881333E-005  0.8520497E+02  0.7818608E-02  0.1191667E+00
          4   -1    0    0  502    0 -0.00000000000E+00  0.00000000000E+00  0.18902091211E+02  0.18902091211E+02  0.00000000000E+00 0.  1.
         21   -1    0    0  501  502  0.00000000000E+00 -0.00000000000E+00 -0.58490466120E+03  0.58490466120E+03  0.00000000000E+00 0. -1.
        -13    1    1    2    0    0 -0.13022902118E+02 -0.75151759746E+02 -0.28427186785E+03  0.29432616090E+03  0.10566000000E+00 0.  1.
         13    1    1    2    0    0  0.23642853400E+02  0.86813146526E+02 -0.13706948931E+03  0.16396207790E+03  0.10566000000E+00 0. -1.
          4    1    1    2  501    0 -0.10619951282E+02 -0.11661386780E+02 -0.14466121283E+03  0.14551851361E+03  0.00000000000E+00 0.  1.
</event>
<event>
 5    1  0.4881333E-005  0.1358520E+03  0.7818608E-02  0.1138543E+00
         21   -1    0    0  501  502  0.00000000000E+00  0.00000000000E+00  0.10909207704E+03  0.10909207704E+03  0.00000000000E+00 0. -1.
         -4   -1    0    0    0  501 -0.00000000000E+00 -0.00000000000E+00 -0.29612627672E+03  0.29612627672E+03  0.00000000000E+00 0. -1.
        -13    1    1    2    0    0  0.60429049160E+02  0.45878965485E+02 -0.34226971728E+02  0.83234885799E+02  0.10566000000E+00 0.  1.
         13    1    1    2    0    0  0.82254361797E+01  0.10414116638E+03 -0.10965426171E+03  0.15145002017E+03  0.10566000000E+00 0. -1.
         -4    1    1    2    0  502 -0.68654485339E+02 -0.15002013186E+03 -0.43152966238E+02  0.17053344779E+03  0.00000000000E+00 0. -1.
</event>
<event>
 5    1  0.4881333E-005  0.4746228E+03  0.7818608E-02  0.1004121E+00
         21   -1    0    0  501  502  0.00000000000E+00  0.00000000000E+00  0.74898245785E+03  0.74898245785E+03  0.00000000000E+00 0.  1.
          4   -1    0    0  502    0 -0.00000000000E+00 -0.00000000000E+00 -0.56653868483E+03  0.56653868483E+03  0.00000000000E+00 0.  1.
        -13    1    1    2    0    0 -0.37662494376E+03 -0.21241117156E+03 -0.18333745838E+02  0.43278284562E+03  0.10566000000E+00 0.  1.
         13    1    1    2    0    0 -0.81718325832E+02  0.19417832520E+02 -0.21734258598E+03  0.23300804244E+03  0.10566000000E+00 0. -1.
          4    1    1    2  501    0  0.45834326959E+03  0.19299333904E+03  0.41812010484E+03  0.64973025462E+03  0.00000000000E+00 0.  1.
</event>
<event>
 5    1  0.4881333E-005  0.3727042E+03  0.7818608E-02  0.9989040E-01
         21   -1    0    0  501  502  0.00000000000E+00  0.00000000000E+00  0.32432260278E+03  0.32432260278E+03  0.00000000000E+00 0. -1.
         -4   -1    0    0    0  501 -0.00000000000E+00 -0.00000000000E+00 -0.14274288783E+04  0.14274288783E+04  0.00000000000E+00 0. -1.
        -13    1    1    2    0    0  0.59529880544E+02 -0.19689421596E+03 -0.56594184242E+03  0.60216386401E+03  0.10566000000E+00 0.  1.
         13    1    1    2    0    0 -0.38537785690E+03  0.32520255951E+03 -0.61046814463E+03  0.79179805763E+03  0.10566000000E+00 0. -1.
         -4    1    1    2    0  502  0.32584797636E+03 -0.12830834354E+03  0.73303711525E+02  0.35778955944E+03  0.00000000000E+00 0. -1.
</event>
<event>
 5    1  0.4881333E-005  0.2292230E+03  0.7818608E-02  0.1041760E+00
         21   -1    0    0  501  502  0.00000000000E+00  0.00000000000E+00  0.47905397795E+03  0.47905397795E+03  0.00000000000E+00 0. -1.
          4   -1    0    0  502    0 -0.00000000000E+00 -0.00000000000E+00 -0.13887865008E+03  0.13887865008E+03  0.00000000000E+00 0.  1.
        -13    1    1    2    0    0  0.19540159487E+03  0.12021403957E+03  0.63328306754E+02  0.23799933653E+03  0.10566000000E+00 0.  1.
         13    1    1    2    0    0 -0.20237263365E+03 -0.10754576329E+03  0.20769687265E+03  0.30928752986E+03  0.10566000000E+00 0. -1.
          4    1    1    2  501    0  0.69710387830E+01 -0.12668276280E+02  0.69150148465E+02  0.70645761644E+02  0.00000000000E+00 0.  1.
</event>
<event>
 5    1  0.4881333E-005  0.2942235E+03  0.7818608E-02  0.1028157E+00
         21   -1    0    0  501  502  0.00000000000E+00  0.00000000000E+00  0.45057770409E+03  0.45057770409E+03  0.00000000000E+00 0. -1.
         -4   -1    0    0    0  501 -0.00000000000E+00 -0.00000000000E+00 -0.12889114188E+04  0.12889114188E+04  0.00000000000E+00 0. -1.
        -13    1    1    2    0    0  0.50703147723E+02 -0.15633728146E+03 -0.91995513372E+03  0.93452106128E+03  0.10566000000E+00 0.  1.
         13    1    1    2    0    0  0.27797311781E+03  0.93167572575E+02  0.28864911846E+03  0.41142140872E+03  0.10566000000E+00 0. -1.
         -4    1    1    2    0  502 -0.32867626553E+03  0.63169708881E+02 -0.20702769942E+03  0.39354665285E+03  0.00000000000E+00 0. -1.
</event>
<event>
 5    1  0.4881333E-005  0.3527109E+03  0.7818608E-02  0.9876543E-01
          4   -1    0    0  502    0 -0.00000000000E+00  0.00000000000E+00  0.31862599544E+04  0.31862599544E+04  0.00000000000E+00 0.  1.
         21   -1    0    0  501  502  0.00000000000E+00 -0.00000000000E+00 -0.10907233022E+03  0.10907233022E+03  0.00000000000E+00 0.  1.
        -13    1    1    2    0    0 -0.33676157246E+02 -0.48510048735E+03  0.16674034974E+04  0.17368624012E+04  0.10566000000E+00 0.  1.
         13    1    1    2    0    0 -0.66301949369E+02  0.28566513840E+03  0.12503065481E+04  0.12842379044E+04  0.10566000000E+00 0. -1.
          4    1    1    2  501    0  0.99978106615E+02  0.19943534895E+03  0.15947757873E+03  0.27423197904E+03  0.00000000000E+00 0.  1.
</event>
<event>
 5    1  0.4881333E-005  0.4824105E+02  0.7818608E-02  0.1299121E+00
         21   -1    0    0  501  502  0.00000000000E+00  0.00000000000E+00  0.69360477049E+03  0.69360477049E+03  0.00000000000E+00 0. -1.
         -4   -1    0    0    0  501 -0.00000000000E+00 -0.00000000000E+00 -0.74275801985E+01  0.74275801985E+01  0.00000000000E+00 0. -1.
        -13    1    1    2    0    0  0.82213364626E+00 -0.47664693184E+02  0.14113567727E+03  0.14896942453E+03  0.10566000000E+00 0.  1.
         13    1    1    2    0    0  0.17285359944E+02  0.47873833380E+02  0.19436035519E+03  0.20091452517E+03  0.10566000000E+00 0. -1.
         -4    1    1    2    0  502 -0.18107493590E+02 -0.20914019676E+00  0.35068115783E+03  0.35114840100E+03  0.00000000000E+00 0. -1.
</event>
<event>
 5    1  0.4881333E-005  0.2571999E+03  0.7818608E-02  0.1026728E+00
         -4   -1    0    0    0  501 -0.00000000000E+00  0.00000000000E+00  0.16097076794E+04  0.16097076794E+04  0.00000000000E+00 0. -1.
         21   -1    0    0  501  502  0.00000000000E+00 -0.00000000000E+00 -0.96896674613E+02  0.96896674613E+02  0.00000000000E+00 0.  1.
        -13    1    1    2    0    0  0.11240730243E+03  0.22950335643E+03  0.11164039977E+04  0.11452794809E+04  0.10566000000E+00 0.  1.
         13    1    1    2    0    0 -0.12514772384E+03 -0.22955796010E+03  0.44224435899E+03  0.51374983606E+03  0.10566000000E+00 0. -1.
         -4    1    1    2    0  502  0.12740421414E+02  0.54603671528E-01 -0.45837351884E+02  0.47575037017E+02  0.00000000000E+00 0. -1.
</event>
<event>
 5    1  0.4881333E-005  0.1101339E+03  0.7818608E-02  0.1148797E+00
          4   -1    0    0  502    0 -0.00000000000E+00  0.00000000000E+00  0.40951710650E+03  0.40951710650E+03  0.00000000000E+00 0.  1.
         21   -1    0    0  501  502  0.00000000000E+00 -0.00000000000E+00 -0.68284348698E+02  0.68284348698E+02  0.00000000000E+00 0. -1.
        -13    1    1    2    0    0 -0.10004820122E+03 -0.38965632451E+02  0.27502270590E+03  0.29523797690E+03  0.10566000000E+00 0.  1.
         13    1    1    2    0    0  0.10947036232E+03  0.43583523960E+02  0.95360897773E+02  0.15158164722E+03  0.10566000000E+00 0. -1.
          4    1    1    2  501    0 -0.94221610977E+01 -0.46178915090E+01 -0.29150845872E+02  0.30981831075E+02  0.00000000000E+00 0.  1.
</event>
<event>
 5    1  0.4881333E-005  0.4648994E+03  0.7818608E-02  0.9558413E-01
         -4   -1    0    0    0  501 -0.00000000000E+00  0.00000000000E+00  0.16851685742E+04  0.16851685742E+04  0.00000000000E+00 0. -1.
         21   -1    0    0  501  502  0.00000000000E+00 -0.00000000000E+00 -0.33288113124E+03  0.33288113124E+03  0.00000000000E+00 0. -1.
        -13    1    1    2    0    0 -0.39499246586E+03 -0.20224234557E+02  0.51138393541E+03  0.64648403562E+03  0.10566000000E+00 0.  1.
         13    1    1    2    0    0  0.50696806023E+03  0.26871505536E+03  0.92309323819E+03  0.10868880037E+04  0.10566000000E+00 0. -1.
         -4    1    1    2    0  502 -0.11197559437E+03 -0.24849082080E+03 -0.82189730638E+02  0.28467766611E+03  0.00000000000E+00 0. -1.
</event>
<event>
 5    1  0.4881333E-005  0.2417527E+03  0.7818608E-02  0.1034757E+00
         21   -1    0    0  501  502  0.00000000000E+00  0.00000000000E+00  0.23146693887E+03  0.23146693887E+03  0.00000000000E+00 0. -1.
         -4   -1    0    0    0  501 -0.00000000000E+00 -0.00000000000E+00 -0.22888018320E+04  0.22888018320E+04  0.00000000000E+00 0. -1.
        -13    1    1    2    0    0  0.20550403823E+03 -0.12173616537E+03 -0.10417757954E+04  0.10688070091E+04  0.10566000000E+00 0.  1.
         13    1    1    2    0    0 -0.23441315738E+03  0.16984878044E+03  0.12083193603E+03  0.31368535907E+03  0.10566000000E+00 0. -1.
         -4    1    1    2    0  502  0.28909119155E+02 -0.48112615062E+02 -0.11363910337E+04  0.11377764027E+04  0.00000000000E+00 0. -1.
</event>
<event>
 5    1  0.4881333E-005  0.2410513E+03  0.7818608E-02  0.1035137E+00
         21   -1    0    0  501  502  0.00000000000E+00  0.00000000000E+00  0.63294515318E+03  0.63294515318E+03  0.00000000000E+00 0.  1.
         -4   -1    0    0    0  501 -0.00000000000E+00 -0.00000000000E+00 -0.23619068233E+03  0.23619068233E+03  0.00000000000E+00 0. -1.
        -13    1    1    2    0    0  0.11387280049E+02 -0.15232531901E+03  0.41007445305E+03  0.43759997848E+03  0.10566000000E+00 0.  1.
         13    1    1    2    0    0 -0.80862686982E+02  0.24710750611E+03 -0.10708946976E+03  0.28119221081E+03  0.10566000000E+00 0. -1.
         -4    1    1    2    0  502  0.69475406933E+02 -0.94782187101E+02  0.93769487563E+02  0.15034364622E+03  0.00000000000E+00 0. -1.
</event>
<event>
 5    1  0.4881333E-005  0.4695613E+03  0.7818608E-02  0.9934584E-01
          4   -1    0    0  502    0 -0.00000000000E+00  0.00000000000E+00  0.20249519356E+04  0.20249519356E+04  0.00000000000E+00 0.  1.
         21   -1    0    0  501  502  0.00000000000E+00 -0.00000000000E+00 -0.16854955719E+03  0.16854955719E+03  0.00000000000E+00 0.  1.
        -13    1    1    2    0    0 -0.42851104971E+03  0.19718605137E+03  0.41252712213E+03  0.62664399481E+03  0.10566000000E+00 0.  1.
         13    1    1    2    0    0  0.61951501685E+02  0.10641040561E+03  0.42159616166E+03  0.43920894535E+03  0.10566000000E+00 0. -1.
          4    1    1    2  501    0  0.36655954803E+03 -0.30359645698E+03  0.10222790946E+04  0.11276485526E+04  0.00000000000E+00 0.  1.
</event>
<event>
 5    1  0.4881333E-005  0.5564677E+03  0.7818608E-02  0.9543091E-01
         21   -1    0    0  501  502  0.00000000000E+00  0.00000000000E+00  0.48432607689E+03  0.48432607689E+03  0.00000000000E+00 0. -1.
         -4   -1    0    0    0  501 -0.00000000000E+00 -0.00000000000E+00 -0.16338521352E+04  0.16338521352E+04  0.00000000000E+00 0. -1.
        -13    1    1    2    0    0  0.28638499772E+03  0.56865003097E+01 -0.79127117020E+03  0.84152170451E+03  0.10566000000E+00 0.  1.
         13    1    1    2    0    0 -0.72887121215E+03 -0.15842633553E+03 -0.30382860238E+03  0.80539678325E+03  0.10566000000E+00 0. -1.
         -4    1    1    2    0  502  0.44248621442E+03  0.15273983522E+03 -0.54426285749E+02  0.47125972435E+03  0.00000000000E+00 0. -1.
</event>
<event>
 5    1  0.4881333E-005  0.4910329E+03  0.7818608E-02  0.1028091E+00
          4   -1    0    0  502    0 -0.00000000000E+00  0.00000000000E+00  0.42679318869E+03  0.42679318869E+03  0.00000000000E+00 0.  1.
         21   -1    0    0  501  502  0.00000000000E+00 -0.00000000000E+00 -0.71434589608E+03  0.71434589608E+03  0.00000000000E+00 0.  1.
        -13    1    1    2    0    0  0.62408269347E+02  0.50293628446E+03 -0.25814651690E+03  0.56875243618E+03  0.10566000000E+00 0.  1.
         13    1    1    2    0    0  0.22866411607E+01 -0.35355591442E+02  0.80301767501E+02  0.87770334407E+02  0.10566000000E+00 0. -1.
          4    1    1    2  501    0 -0.64694910508E+02 -0.46758069302E+03 -0.10970795800E+03  0.48461631419E+03  0.00000000000E+00 0.  1.
</event>
<event>
 5    1  0.4881333E-005  0.8864714E+02  0.7818608E-02  0.1184842E+00
         21   -1    0    0  501  502  0.00000000000E+00  0.00000000000E+00  0.11865094205E+04  0.11865094205E+04  0.00000000000E+00 0. -1.
         -4   -1    0    0    0  501 -0.00000000000E+00 -0.00000000000E+00 -0.31138741149E+03  0.31138741149E+03  0.00000000000E+00 0. -1.
        -13    1    1    2    0    0 -0.95038670902E+02 -0.20174973528E+02 -0.65100409890E+02  0.11695064367E+03  0.10566000000E+00 0.  1.
         13    1    1    2    0    0  0.80157468365E+02 -0.45603199786E+02 -0.20968168571E+03  0.22906613030E+03  0.10566000000E+00 0. -1.
         -4    1    1    2    0  502  0.14881202537E+02  0.65778173315E+02  0.11499041046E+04  0.11518800580E+04  0.00000000000E+00 0. -1.
</event>
<event>
 5    1  0.4881333E-005  0.2158715E+03  0.7818608E-02  0.1050976E+00
          4   -1    0    0  502    0 -0.00000000000E+00  0.00000000000E+00  0.62972976693E+03  0.62972976693E+03  0.00000000000E+00 0.  1.
         21   -1    0    0  501  502  0.00000000000E+00 -0.00000000000E+00 -0.89600001702E+03  0.89600001702E+03  0.00000000000E+00 0.  1.
        -13    1    1    2    0    0  0.50646086356E+02 -0.19914867711E+03 -0.69699652481E+03  0.72665630695E+03  0.10566000000E+00 0.  1.
         13    1    1    2    0    0  0.37827902907E+02 -0.20479580466E+03  0.30034668389E+03  0.36548654358E+03  0.10566000000E+00 0. -1.
          4    1    1    2  501    0 -0.88473989263E+02  0.40394448177E+03  0.13037959083E+03  0.43358693342E+03  0.00000000000E+00 0.  1.
</event>
<event>
 5    1  0.4881333E-005  0.8538033E+02  0.7818608E-02  0.1191311E+00
         21   -1    0    0  501  502  0.00000000000E+00  0.00000000000E+00  0.49217461611E+03  0.49217461611E+03  0.00000000000E+00 0.  1.
          4   -1    0    0  502    0 -0.00000000000E+00 -0.00000000000E+00 -0.82517934644E+02  0.82517934644E+02  0.00000000000E+00 0.  1.
        -13    1    1    2    0    0 -0.39939244331E+02 -0.94547183333E+02 -0.42978888674E+01  0.10272680335E+03  0.10566000000E+00 0.  1.
         13    1    1    2    0    0  0.22384004625E+02  0.66565043879E+02  0.15211140275E+02  0.71856375376E+02  0.10566000000E+00 0. -1.
          4    1    1    2  501    0  0.17555239706E+02  0.27982139454E+02  0.39874343005E+03  0.40010937202E+03  0.00000000000E+00 0.  1.
</event>
<event>
 5    1  0.4881333E-005  0.1471684E+03  0.7818608E-02  0.1103938E+00
         21   -1    0    0  501  502  0.00000000000E+00  0.00000000000E+00  0.97152580465E+03  0.97152580465E+03  0.00000000000E+00 0.  1.
         -4   -1    0    0    0  501 -0.00000000000E+00 -0.00000000000E+00 -0.75319812815E+02  0.75319812815E+02  0.00000000000E+00 0. -1.
        -13    1    1    2    0    0  0.97171606801E+01 -0.15855563192E+03  0.59726483770E+03  0.61802880931E+03  0.10566000000E+00 0.  1.
         13    1    1    2    0    0 -0.19686026568E+02  0.14430658423E+03  0.17331576350E+02  0.14667080349E+03  0.10566000000E+00 0. -1.
         -4    1    1    2    0  502  0.99688658878E+01  0.14249047692E+02  0.28160957779E+03  0.28214600467E+03  0.00000000000E+00 0. -1.
</event>
<event>
 5    1  0.4881333E-005  0.5963388E+03  0.7818608E-02  0.9288666E-01
         21   -1    0    0  501  502  0.00000000000E+00  0.00000000000E+00  0.99059647140E+03  0.99059647140E+03  0.00000000000E+00 0. -1.
          4   -1    0    0  502    0 -0.00000000000E+00 -0.00000000000E+00 -0.82513828493E+03  0.82513828493E+03  0.00000000000E+00 0.  1.
        -13    1    1    2    0    0  0.19068044643E+03 -0.56621434654E+03 -0.42384404675E+03  0.73253089082E+03  0.10566000000E+00 0.  1.
         13    1    1    2    0    0 -0.35120446209E+03  0.50055805194E+03  0.17803976818E+03  0.63686820283E+03  0.10566000000E+00 0. -1.
          4    1    1    2  501    0  0.16052401566E+03  0.65656294598E+02  0.41126246504E+03  0.44633566267E+03  0.00000000000E+00 0.  1.
</event>
<event>
 5    1  0.4881333E-005  0.3480405E+03  0.7818608E-02  0.9892430E-01
         21   -1    0    0  501  502  0.00000000000E+00  0.00000000000E+00  0.11389560512E+03  0.11389560512E+03  0.00000000000E+00 0. -1.
          4   -1    0    0  502    0 -0.00000000000E+00 -0.00000000000E+00 -0.14286594955E+04  0.14286594955E+04  0.00000000000E+00 0.  1.
        -13    1    1    2    0    0 -0.49619035478E+02 -0.33238861424E+03 -0.50706367922E+03  0.60832378345E+03  0.10566000000E+00 0.  1.
         13    1    1    2    0    0  0.11515319707E+03  0.34075005034E+03 -0.78650803708E+03  0.86485013682E+03  0.10566000000E+00 0. -1.
          4    1    1    2  501    0 -0.65534161588E+02 -0.83614361054E+01 -0.21192174106E+02  0.69381180388E+02  0.00000000000E+00 0.  1.
</event>
<event>
 5    1  0.4881333E-005  0.3246823E+03  0.7818608E-02  0.1011874E+00
         21   -1    0    0  501  502  0.00000000000E+00  0.00000000000E+00  0.45814019209E+03  0.45814019209E+03  0.00000000000E+00 0. -1.
         -4   -1    0    0    0  501 -0.00000000000E+00 -0.00000000000E+00 -0.11936744222E+04  0.11936744222E+04  0.00000000000E+00 0. -1.
        -13    1    1    2    0    0  0.15750011838E+02  0.20370789196E+03 -0.59216667549E+03  0.62642345969E+03  0.10566000000E+00 0.  1.
         13    1    1    2    0    0  0.29752436108E+03 -0.86962485343E+02 -0.46672257330E+03  0.56027956493E+03  0.10566000000E+00 0. -1.
         -4    1    1    2    0  502 -0.31327437291E+03 -0.11674540662E+03  0.32335501871E+03  0.46511158964E+03  0.00000000000E+00 0. -1.
</event>
<event>
 5    1  0.4881333E-005  0.4773322E+03  0.7818608E-02  0.9735024E-01
         21   -1    0    0  501  502  0.00000000000E+00  0.00000000000E+00  0.35153898962E+03  0.35153898962E+03  0.00000000000E+00 0. -1.
         -4   -1    0    0    0  501 -0.00000000000E+00 -0.00000000000E+00 -0.14945855820E+04  0.14945855820E+04  0.00000000000E+00 0. -1.
        -13    1    1    2    0    0  0.12388956132E+03 -0.19445151118E+03 -0.66963812026E+03  0.70821976595E+03  0.10566000000E+00 0.  1.
         13    1    1    2    0    0 -0.41921655435E+03  0.46641733718E+03 -0.34845903572E+03  0.71743387333E+03  0.10566000000E+00 0. -1.
         -4    1    1    2    0  502  0.29532699302E+03 -0.27196582600E+03 -0.12494943644E+03  0.42047093239E+03  0.00000000000E+00 0. -1.
</event>
<event>
 5    1  0.4881333E-005  0.9246073E+02  0.7818608E-02  0.1177670E+00
         21   -1    0    0  501  502  0.00000000000E+00  0.00000000000E+00  0.17231192169E+03  0.17231192169E+03  0.00000000000E+00 0.  1.
          4   -1    0    0  502    0 -0.00000000000E+00 -0.00000000000E+00 -0.19328208828E+03  0.19328208828E+03  0.00000000000E+00 0.  1.
        -13    1    1    2    0    0  0.72441521426E+02  0.80574973237E+02 -0.13324533705E+03  0.17173942863E+03  0.10566000000E+00 0.  1.
         13    1    1    2    0    0 -0.66546397415E+02 -0.20451478140E+02  0.38369675591E+01  0.69723880064E+02  0.10566000000E+00 0. -1.
          4    1    1    2  501    0 -0.58951240105E+01 -0.60123495097E+02  0.10843820289E+03  0.12413070127E+03  0.00000000000E+00 0.  1.
</event>
<event>
 5    1  0.4881333E-005  0.6448902E+02  0.7818608E-02  0.1285105E+00
         21   -1    0    0  501  502  0.00000000000E+00  0.00000000000E+00  0.80521173839E+02  0.80521173839E+02  0.00000000000E+00 0. -1.
          4   -1    0    0  502    0 -0.00000000000E+00 -0.00000000000E+00 -0.22955601101E+03  0.22955601101E+03  0.00000000000E+00 0.  1.
        -13    1    1    2    0    0  0.11125499409E+02 -0.75492525322E+02 -0.19438379447E+03  0.20882521120E+03  0.10566000000E+00 0.  1.
         13    1    1    2    0    0 -0.23209836992E+02  0.12978529264E+02  0.16946313885E+02  0.31532958526E+02  0.10566000000E+00 0. -1.
          4    1    1    2  501    0  0.12084337583E+02  0.62513996057E+02  0.28402643408E+02  0.69719015128E+02  0.00000000000E+00 0.  1.
</event>
<event>
 5    1  0.4881333E-005  0.4903940E+03  0.7818608E-02  0.9956549E-01
         21   -1    0    0  501  502  0.00000000000E+00  0.00000000000E+00  0.21555259420E+03  0.21555259420E+03  0.00000000000E+00 0.  1.
          4   -1    0    0  502    0 -0.00000000000E+00 -0.00000000000E+00 -0.14742138784E+04  0.14742138784E+04  0.00000000000E+00 0.  1.
        -13    1    1    2    0    0  0.23139473531E+03 -0.42985978089E+03 -0.79933615329E+03  0.93662225678E+03  0.10566000000E+00 0.  1.
         13    1    1    2    0    0  0.86963408518E+02  0.50386223648E+02 -0.94569926012E+02  0.13800321744E+03  0.10566000000E+00 0. -1.
          4    1    1    2  501    0 -0.31835814383E+03  0.37947355724E+03 -0.36475520490E+03  0.61514099838E+03  0.00000000000E+00 0.  1.
</event>
<event>
 5    1  0.4881333E-005  0.2946091E+03  0.7818608E-02  0.1023513E+00
          4   -1    0    0  502    0 -0.00000000000E+00  0.00000000000E+00  0.16810271747E+04  0.16810271747E+04  0.00000000000E+00 0.  1.
         21   -1    0    0  501  502  0.00000000000E+00 -0.00000000000E+00 -0.37725221345E+03  0.37725221345E+03  0.00000000000E+00 0.  1.
        -13    1    1    2    0    0 -0.25275446018E+03 -0.14812631529E+03  0.57777475792E+03  0.64780390897E+03  0.10566000000E+00 0.  1.
         13    1    1    2    0    0  0.13767122226E+03 -0.12976974372E+03  0.99143175320E+03  0.10093217942E+04  0.10566000000E+00 0. -1.
          4    1    1    2  501    0  0.11508323792E+03  0.27789605901E+03 -0.26543154991E+03  0.40115368495E+03  0.00000000000E+00 0.  1.
</event>
<event>
 5    1  0.4881333E-005  0.1262832E+03  0.7818608E-02  0.1127179E+00
         21   -1    0    0  501  502  0.00000000000E+00  0.00000000000E+00  0.87276606162E+03  0.87276606162E+03  0.00000000000E+00 0. -1.
         -4   -1    0    0    0  501 -0.00000000000E+00 -0.00000000000E+00 -0.71136873098E+02  0.71136873098E+02  0.00000000000E+00 0. -1.
        -13    1    1    2    0    0 -0.91738781930E+02 -0.76645110719E+02  0.42132103278E+02  0.12675015739E+03  0.10566000000E+00 0.  1.
         13    1    1    2    0    0  0.17704422931E+03  0.16239378173E+02  0.32702480592E+03  0.37222790248E+03  0.10566000000E+00 0. -1.
         -4    1    1    2    0  502 -0.85305447376E+02  0.60405732547E+02  0.43247227932E+03  0.44492487485E+03  0.00000000000E+00 0. -1.
</event>
<event>
 5    1  0.4881333E-005  0.1375443E+03  0.7818608E-02  0.1114090E+00
         -4   -1    0    0    0  501 -0.00000000000E+00  0.00000000000E+00  0.59061380689E+03  0.59061380689E+03  0.00000000000E+00 0. -1.
         21   -1    0    0  501  502  0.00000000000E+00 -0.00000000000E+00 -0.46468216128E+02  0.46468216128E+02  0.00000000000E+00 0.  1.
        -13    1    1    2    0    0 -0.92377642536E+02  0.93745764258E+02  0.11014231623E+03  0.17161945736E+03  0.10566000000E+00 0.  1.
         13    1    1    2    0    0  0.10469534526E+03 -0.92586360353E+02  0.43047842731E+03  0.45259809653E+03  0.10566000000E+00 0. -1.
         -4    1    1    2    0  502 -0.12317702725E+02 -0.11594039054E+01  0.35248472228E+01  0.12864469122E+02  0.00000000000E+00 0. -1.
</event>
<event>
 5    1  0.4881333E-005  0.1886901E+03  0.7818608E-02  0.1068179E+00
         21   -1    0    0  501  502  0.00000000000E+00  0.00000000000E+00  0.68228058375E+03  0.68228058375E+03  0.00000000000E+00 0.  1.
         -4   -1    0    0    0  501 -0.00000000000E+00 -0.00000000000E+00 -0.11403187763E+03  0.11403187763E+03  0.00000000000E+00 0. -1.
        -13    1    1    2    0    0  0.18721256875E+03  0.90077425260E+02  0.49945801552E+03  0.54094436763E+03  0.10566000000E+00 0.  1.
         13    1    1    2    0    0 -0.16814650346E+03 -0.77752953595E+02  0.24704873809E+01  0.18526975709E+03  0.10566000000E+00 0. -1.
         -4    1    1    2    0  502 -0.19066065283E+02 -0.12324471666E+02  0.66320203221E+02  0.70098336660E+02  0.00000000000E+00 0. -1.
</event>
<event>
 5    1  0.4881333E-005  0.6758477E+03  0.7818608E-02  0.9158770E-01
         21   -1    0    0  501  502  0.00000000000E+00  0.00000000000E+00  0.16070355917E+04  0.16070355917E+04  0.00000000000E+00 0. -1.
          4   -1    0    0  502    0 -0.00000000000E+00 -0.00000000000E+00 -0.81711781760E+03  0.81711781760E+03  0.00000000000E+00 0.  1.
        -13    1    1    2    0    0  0.60433413609E+03  0.13209005946E+03 -0.13977827331E+03  0.63419674290E+03  0.10566000000E+00 0.  1.
         13    1    1    2    0    0 -0.64686721672E+03 -0.66584865670E+03  0.32814365857E+03  0.98461662667E+03  0.10566000000E+00 0. -1.
          4    1    1    2  501    0  0.42533080630E+02  0.53375859725E+03  0.60155238886E+03  0.80534003975E+03  0.00000000000E+00 0.  1.
</event>
<event>
 5    1  0.4881333E-005  0.5681575E+03  0.7818608E-02  0.9339920E-01
         -4   -1    0    0    0  501 -0.00000000000E+00  0.00000000000E+00  0.34605795718E+04  0.34605795718E+04  0.00000000000E+00 0. -1.
         21   -1    0    0  501  502  0.00000000000E+00 -0.00000000000E+00 -0.23956408562E+03  0.23956408562E+03  0.00000000000E+00 0. -1.
        -13    1    1    2    0    0  0.24872963296E+03 -0.55941362194E+03  0.87541234086E+03  0.10682494130E+04  0.10566000000E+00 0.  1.
         13    1    1    2    0    0  0.67201334833E+01  0.53704045080E+03  0.40051876590E+03  0.66997977506E+03  0.10566000000E+00 0. -1.
         -4    1    1    2    0  502 -0.25544976644E+03  0.22373171142E+02  0.19450843794E+04  0.19619144693E+04  0.00000000000E+00 0. -1.
</event>
<event>
 5    1  0.4881333E-005  0.5018219E+03  0.7818608E-02  0.9597253E-01
         21   -1    0    0  501  502  0.00000000000E+00  0.00000000000E+00  0.38907705342E+03  0.38907705342E+03  0.00000000000E+00 0. -1.
         -4   -1    0    0    0  501 -0.00000000000E+00 -0.00000000000E+00 -0.20498135484E+04  0.20498135484E+04  0.00000000000E+00 0. -1.
        -13    1    1    2    0    0  0.18792950227E+03  0.26114352224E+03 -0.12772432751E+04  0.13171422975E+04  0.10566000000E+00 0.  1.
         13    1    1    2    0    0  0.14372920515E+03 -0.57085391298E+03 -0.13333580973E+03  0.60358157999E+03  0.10566000000E+00 0. -1.
         -4    1    1    2    0  502 -0.33165870742E+03  0.30971039074E+03 -0.25015741020E+03  0.51816672434E+03  0.00000000000E+00 0. -1.
</event>
<event>
 5    1  0.4881333E-005  0.3691220E+03  0.7818608E-02  0.9822721E-01
         -4   -1    0    0    0  501 -0.00000000000E+00  0.00000000000E+00  0.98851702608E+03  0.98851702608E+03  0.00000000000E+00 0. -1.
         21   -1    0    0  501  502  0.00000000000E+00 -0.00000000000E+00 -0.48480519263E+03  0.48480519263E+03  0.00000000000E+00 0.  1.
        -13    1    1    2    0    0 -0.28737631524E+03  0.23622582512E+03 -0.27007990572E+03  0.45970746530E+03  0.10566000000E+00 0.  1.
         13    1    1    2    0    0  0.32371242437E+03 -0.17800767573E+03  0.84037822867E+03  0.91799348837E+03  0.10566000000E+00 0. -1.
         -4    1    1    2    0  502 -0.36336109123E+02 -0.58218149383E+02 -0.66586489507E+02  0.95621265044E+02  0.00000000000E+00 0. -1.
</event>
<event>
 5    1  0.4881333E-005  0.3257175E+03  0.7818608E-02  0.9972215E-01
         -4   -1    0    0    0  501 -0.00000000000E+00  0.00000000000E+00  0.12475790837E+04  0.12475790837E+04  0.00000000000E+00 0. -1.
         21   -1    0    0  501  502  0.00000000000E+00 -0.00000000000E+00 -0.56465175105E+03  0.56465175105E+03  0.00000000000E+00 0.  1.
        -13    1    1    2    0    0  0.12986601937E+03 -0.48775638246E+03  0.30697562632E+02  0.50568154320E+03  0.10566000000E+00 0.  1.
         13    1    1    2    0    0 -0.62118516100E+02  0.30067348576E+03  0.92175135585E+03  0.97153941158E+03  0.10566000000E+00 0. -1.
         -4    1    1    2    0  502 -0.67747503269E+02  0.18708289670E+03 -0.26952158584E+03  0.33500987996E+03  0.00000000000E+00 0. -1.
</event>
<event>
 5    1  0.4881333E-005  0.4058270E+03  0.7818608E-02  0.9913763E-01
          4   -1    0    0  502    0 -0.00000000000E+00  0.00000000000E+00  0.16207502557E+04  0.16207502557E+04  0.00000000000E+00 0.  1.
         21   -1    0    0  501  502  0.00000000000E+00 -0.00000000000E+00 -0.24044646557E+03  0.24044646557E+03  0.00000000000E+00 0.  1.
        -13    1    1    2    0    0  0.17850960711E+03 -0.31949407997E+03  0.12423027776E+03  0.38649103489E+03  0.10566000000E+00 0.  1.
         13    1    1    2    0    0  0.60585886847E+02 -0.19523453737E+03  0.30520750568E+03  0.36734017879E+03  0.10566000000E+00 0. -1.
          4    1    1    2  501    0 -0.23909549396E+03  0.51472861735E+03  0.95086600672E+03  0.11073655076E+04  0.00000000000E+00 0.  1.
</event>
<event>
 5    1  0.4881333E-005  0.2193792E+03  0.7818608E-02  0.1047605E+00
         21   -1    0    0  501  502  0.00000000000E+00  0.00000000000E+00  0.89525333907E+03  0.89525333907E+03  0.00000000000E+00 0.  1.
         -4   -1    0    0    0  501 -0.00000000000E+00 -0.00000000000E+00 -0.11938687580E+03  0.11938687580E+03  0.00000000000E+00 0. -1.
        -13    1    1    2    0    0 -0.18469079445E+03 -0.94928445586E+02  0.72950537623E+03  0.75848546753E+03  0.10566000000E+00 0.  1.
         13    1    1    2    0    0  0.20128080490E+03  0.91948660171E+02  0.16547365554E+02  0.22190616260E+03  0.10566000000E+00 0. -1.
         -4    1    1    2    0  502 -0.16590010447E+02  0.29797854146E+01  0.29813721488E+02  0.34248584740E+02  0.00000000000E+00 0. -1.
</event>
<event>
 5    1  0.4881333E-005  0.1845573E+03  0.7818608E-02  0.1071271E+00
         21   -1    0    0  501  502  0.00000000000E+00  0.00000000000E+00  0.24350703705E+03  0.24350703705E+03  0.00000000000E+00 0.  1.
          4   -1    0    0  502    0 -0.00000000000E+00 -0.00000000000E+00 -0.14548092939E+04  0.14548092939E+04  0.00000000000E+00 0.  1.
        -13    1    1    2    0    0 -0.16853951581E+03  0.56129761120E+02  0.16078496258E+03  0.23959952803E+03  0.10566000000E+00 0.  1.
         13    1    1    2    0    0  0.15734478080E+03  0.12084691723E+03 -0.23350558128E+03  0.30640859175E+03  0.10566000000E+00 0. -1.
          4    1    1    2  501    0  0.11194735017E+02 -0.17697667835E+03 -0.11385816381E+04  0.11523082111E+04  0.00000000000E+00 0.  1.
</event>
<event>
 5    1  0.4881333E-005  0.5034978E+03  0.7818608E-02  0.9568039E-01
         -4   -1    0    0    0  501 -0.00000000000E+00  0.00000000000E+00  0.20805268577E+04  0.20805268577E+04  0.00000000000E+00 0. -1.
         21   -1    0    0  501  502  0.00000000000E+00 -0.00000000000E+00 -0.37883417285E+03  0.37883417285E+03  0.00000000000E+00 0.  1.
        -13    1    1    2    0    0  0.29191162393E+03 -0.52517986819E+03  0.76349483582E+03  0.97157123549E+03  0.10566000000E+00 0.  1.
         13    1    1    2    0    0 -0.36394711687E+03 -0.17636037581E+03  0.15304278332E+03  0.43241483638E+03  0.10566000000E+00 0. -1.
         -4    1    1    2    0  502  0.72035492939E+02  0.70154024400E+03  0.78515506575E+03  0.10553749587E+04  0.00000000000E+00 0. -1.
</event>
<event>
 5    1  0.4881333E-005  0.1186284E+03  0.7818608E-02  0.1136955E+00
         -4   -1    0    0    0  501 -0.00000000000E+00  0.00000000000E+00  0.21333438646E+04  0.21333438646E+04  0.00000000000E+00 0. -1.
         21   -1    0    0  501  502  0.00000000000E+00 -0.00000000000E+00 -0.15400866760E+03  0.15400866760E+03  0.00000000000E+00 0. -1.
        -13    1    1    2    0    0 -0.67225173553E+02  0.94070037566E+02  0.34264414480E+03  0.36162607353E+03  0.10566000000E+00 0.  1.
         13    1    1    2    0    0  0.17571038945E+03 -0.72532257560E+02 -0.79448117756E+02  0.20602690098E+03  0.10566000000E+00 0. -1.
         -4    1    1    2    0  502 -0.10848521590E+03 -0.21537780006E+02  0.17161391699E+04  0.17196995577E+04  0.00000000000E+00 0. -1.
</event>
<event>
 5    1  0.4881333E-005  0.1970049E+03  0.7818608E-02  0.1062209E+00
         21   -1    0    0  501  502  0.00000000000E+00  0.00000000000E+00  0.25989351968E+03  0.25989351968E+03  0.00000000000E+00 0. -1.
          4   -1    0    0  502    0 -0.00000000000E+00 -0.00000000000E+00 -0.33430887447E+03  0.33430887447E+03  0.00000000000E+00 0.  1.
        -13    1    1    2    0    0 -0.17063326287E+03  0.88768995168E+02 -0.22372660038E+03  0.29504109508E+03  0.10566000000E+00 0.  1.
         13    1    1    2    0    0  0.20429602273E+03 -0.84093106405E+02  0.10874420040E+03  0.24623937080E+03  0.10566000000E+00 0. -1.
          4    1    1    2  501    0 -0.33662759856E+02 -0.46758887622E+01  0.40567045184E+02  0.52921928270E+02  0.00000000000E+00 0.  1.
</event>
<event>
 5    1  0.4881333E-005  0.6019080E+02  0.7818608E-02  0.1255091E+00
          4   -1    0    0  502    0 -0.00000000000E+00  0.00000000000E+00  0.36111340872E+03  0.36111340872E+03  0.00000000000E+00 0.  1.
         21   -1    0    0  501  502  0.00000000000E+00 -0.00000000000E+00 -0.24625208071E+03  0.24625208071E+03  0.00000000000E+00 0.  1.
        -13    1    1    2    0    0 -0.44040787918E+02 -0.41562912102E+02  0.34799176549E+03  0.35322138480E+03  0.10566000000E+00 0.  1.
         13    1    1    2    0    0  0.55422585622E+02  0.99876077958E+01 -0.82960618486E+02  0.10026909140E+03  0.10566000000E+00 0. -1.
          4    1    1    2  501    0 -0.11381797704E+02  0.31575304306E+02 -0.15016981900E+03  0.15387501324E+03  0.00000000000E+00 0.  1.
</event>
<event>
 5    1  0.4881333E-005  0.3579119E+03  0.7818608E-02  0.9859155E-01
         21   -1    0    0  501  502  0.00000000000E+00  0.00000000000E+00  0.30200453939E+03  0.30200453939E+03  0.00000000000E+00 0.  1.
          4   -1    0    0  502    0 -0.00000000000E+00 -0.00000000000E+00 -0.28485174130E+04  0.28485174130E+04  0.00000000000E+00 0.  1.
        -13    1    1    2    0    0 -0.37185161874E+03  0.38002086951E+03 -0.18551468446E+02  0.53200907489E+03  0.10566000000E+00 0.  1.
         13    1    1    2    0    0  0.90315877535E+02 -0.33899234943E+03 -0.18549885441E+04  0.18878705678E+04  0.10566000000E+00 0. -1.
          4    1    1    2  501    0  0.28153574120E+03 -0.41028520083E+02 -0.67297286102E+03  0.73064230969E+03  0.00000000000E+00 0.  1.
</event>
<event>
 5    1  0.4881333E-005  0.6171341E+02  0.7818608E-02  0.1250308E+00
         21   -1    0    0  501  502  0.00000000000E+00  0.00000000000E+00  0.13423088765E+03  0.13423088765E+03  0.00000000000E+00 0.  1.
         -4   -1    0    0    0  501 -0.00000000000E+00 -0.00000000000E+00 -0.52859090483E+02  0.52859090483E+02  0.00000000000E+00 0. -1.
        -13    1    1    2    0    0 -0.57598083102E+02 -0.28887484224E+02  0.35156699458E+02  0.73403205670E+02  0.10566000000E+00 0.  1.
         13    1    1    2    0    0  0.62284874305E+02  0.19313370590E+01  0.28104294700E+01  0.62378243866E+02  0.10566000000E+00 0. -1.
         -4    1    1    2    0  502 -0.46867912029E+01  0.26956147165E+02  0.43404668235E+02  0.51308528593E+02  0.00000000000E+00 0. -1.
</event>
<event>
 5    1  0.4881333E-005  0.5384824E+03  0.7818608E-02  0.9397393E-01
         21   -1    0    0  501  502  0.00000000000E+00  0.00000000000E+00  0.38070643849E+03  0.38070643849E+03  0.00000000000E+00 0.  1.
         -4   -1    0    0    0  501 -0.00000000000E+00 -0.00000000000E+00 -0.29291813166E+04  0.29291813166E+04  0.00000000000E+00 0. -1.
        -13    1    1    2    0    0  0.56008221460E+03  0.50577649782E+03 -0.14312985735E+04  0.16180598167E+04  0.10566000000E+00 0.  1.
         13    1    1    2    0    0 -0.25238519302E+03 -0.37544298677E+03 -0.12522034274E+04  0.13314162222E+04  0.10566000000E+00 0. -1.
         -4    1    1    2    0  502 -0.30769702159E+03 -0.13033351106E+03  0.13502712285E+03  0.36041171610E+03  0.00000000000E+00 0. -1.
</event>
<event>
 5    1  0.4881333E-005  0.1531523E+03  0.7818608E-02  0.1098044E+00
         -4   -1    0    0    0  501 -0.00000000000E+00  0.00000000000E+00  0.28362640394E+03  0.28362640394E+03  0.00000000000E+00 0. -1.
         21   -1    0    0  501  502  0.00000000000E+00 -0.00000000000E+00 -0.55710504598E+03  0.55710504598E+03  0.00000000000E+00 0.  1.
        -13    1    1    2    0    0 -0.16705180735E+03 -0.14003653723E+03 -0.30032463397E+03  0.37109491378E+03  0.10566000000E+00 0.  1.
         13    1    1    2    0    0  0.13947385201E+03  0.53482767117E+02  0.21436245440E+03  0.26127501754E+03  0.10566000000E+00 0. -1.
         -4    1    1    2    0  502  0.27577955345E+02  0.86553770109E+02 -0.18751646246E+03  0.20836151861E+03  0.00000000000E+00 0. -1.
</event>
<event>
 5    1  0.4881333E-005  0.4528034E+03  0.7818608E-02  0.9679963E-01
         -4   -1    0    0    0  501 -0.00000000000E+00  0.00000000000E+00  0.18388199060E+04  0.18388199060E+04  0.00000000000E+00 0. -1.
         21   -1    0    0  501  502  0.00000000000E+00 -0.00000000000E+00 -0.26514543502E+03  0.26514543502E+03  0.00000000000E+00 0. -1.
        -13    1    1    2    0    0 -0.30071312722E+03  0.12871410686E+03  0.26474579997E+03  0.42081594071E+03  0.10566000000E+00 0.  1.
         13    1    1    2    0    0  0.49560007877E+03  0.26368494126E+03  0.10008693418E+04  0.11475576835E+04  0.10566000000E+00 0. -1.
         -4    1    1    2    0  502 -0.19488695155E+03 -0.39239904812E+03  0.30805932920E+03  0.53559171685E+03  0.00000000000E+00 0. -1.
</event>
<event>
 5    1  0.4881333E-005  0.4782465E+03  0.7818608E-02  0.9598957E-01
         21   -1    0    0  501  502  0.00000000000E+00  0.00000000000E+00  0.25235380470E+03  0.25235380470E+03  0.00000000000E+00 0.  1.
          4   -1    0    0  502    0 -0.00000000000E+00 -0.00000000000E+00 -0.23474302993E+04  0.23474302993E+04  0.00000000000E+00 0.  1.
        -13    1    1    2    0    0  0.56689993079E+03  0.36982254562E+03 -0.67012965770E+03  0.95247992948E+03  0.10566000000E+00 0.  1.
         13    1    1    2    0    0 -0.18661145793E+03 -0.31885888651E+03 -0.10405252716E+04  0.11041683195E+04  0.10566000000E+00 0. -1.
          4    1    1    2  501    0 -0.38028847286E+03 -0.50963659109E+02 -0.38442156522E+03  0.54313585496E+03  0.00000000000E+00 0.  1.
</event>
<event>
 5    1  0.4881333E-005  0.3919204E+02  0.7818608E-02  0.1351537E+00
         21   -1    0    0  501  502  0.00000000000E+00  0.00000000000E+00  0.17471998055E+03  0.17471998055E+03  0.00000000000E+00 0. -1.
          4   -1    0    0  502    0 -0.00000000000E+00 -0.00000000000E+00 -0.27343909244E+02  0.27343909244E+02  0.00000000000E+00 0.  1.
        -13    1    1    2    0    0  0.36556140814E+02 -0.38312021031E+02  0.31038071527E+02  0.61380252809E+02  0.10566000000E+00 0.  1.
         13    1    1    2    0    0 -0.33594485678E+02  0.38140135065E+01  0.92927854770E+02  0.98887479102E+02  0.10566000000E+00 0. -1.
          4    1    1    2  501    0 -0.29616551360E+01  0.34498007525E+02  0.23410145007E+02  0.41796157881E+02  0.00000000000E+00 0.  1.
</event>
<event>
 5    1  0.4881333E-005  0.4813966E+03  0.7818608E-02  0.9519706E-01
         21   -1    0    0  501  502  0.00000000000E+00  0.00000000000E+00  0.40297358375E+03  0.40297358375E+03  0.00000000000E+00 0. -1.
          4   -1    0    0  502    0 -0.00000000000E+00 -0.00000000000E+00 -0.20928480695E+04  0.20928480695E+04  0.00000000000E+00 0.  1.
        -13    1    1    2    0    0 -0.56555937291E+02  0.45299530657E+03 -0.15031105701E+04  0.15709057002E+04  0.10566000000E+00 0.  1.
         13    1    1    2    0    0  0.10086254404E+03 -0.60626950155E+03 -0.34111927814E+03  0.70292128605E+03  0.10566000000E+00 0. -1.
          4    1    1    2  501    0 -0.44306606752E+02  0.15327419498E+03  0.15435536249E+03  0.22199466700E+03  0.00000000000E+00 0.  1.
</event>
<event>
 5    1  0.4881333E-005  0.7190940E+02  0.7818608E-02  0.1221805E+00
         21   -1    0    0  501  502  0.00000000000E+00  0.00000000000E+00  0.99983518897E+02  0.99983518897E+02  0.00000000000E+00 0. -1.
          4   -1    0    0  502    0 -0.00000000000E+00 -0.00000000000E+00 -0.19024088961E+03  0.19024088961E+03  0.00000000000E+00 0.  1.
        -13    1    1    2    0    0  0.24639494362E+02  0.68703864793E+02 -0.16754837562E+03  0.18275610812E+03  0.10566000000E+00 0.  1.
         13    1    1    2    0    0 -0.19585836899E+02 -0.58801437202E+02  0.56376973593E+02  0.83782983592E+02  0.10566000000E+00 0. -1.
          4    1    1    2  501    0 -0.50536574633E+01 -0.99024275911E+01  0.20914031310E+02  0.23685316793E+02  0.00000000000E+00 0.  1.
</event>
<event>
 5    1  0.4881333E-005  0.4496055E+02  0.7818608E-02  0.1335132E+00
         -4   -1    0    0    0  501 -0.00000000000E+00  0.00000000000E+00  0.13989931047E+03  0.13989931047E+03  0.00000000000E+00 0. -1.
         21   -1    0    0  501  502  0.00000000000E+00 -0.00000000000E+00 -0.29333031891E+02  0.29333031891E+02  0.00000000000E+00 0. -1.
        -13    1    1    2    0    0  0.28556139959E+02 -0.97395554289E+01  0.36582532649E+02  0.47419457276E+02  0.10566000000E+00 0.  1.
         13    1    1    2    0    0 -0.57080431425E+02 -0.14987960717E+02  0.44456119886E+02  0.73886212364E+02  0.10566000000E+00 0. -1.
         -4    1    1    2    0  502  0.28524291467E+02  0.24727516146E+02  0.29527626047E+02  0.47926672724E+02  0.00000000000E+00 0. -1.
</event>
<event>
 5    1  0.4881333E-005  0.3870101E+03  0.7818608E-02  0.9767329E-01
         21   -1    0    0  501  502  0.00000000000E+00  0.00000000000E+00  0.20898522875E+03  0.20898522875E+03  0.00000000000E+00 0. -1.
          4   -1    0    0  502    0 -0.00000000000E+00 -0.00000000000E+00 -0.11658532658E+04  0.11658532658E+04  0.00000000000E+00 0.  1.
        -13    1    1    2    0    0 -0.90098252359E+02  0.36886321843E+03 -0.61053798223E+03  0.71898150734E+03  0.10566000000E+00 0.  1.
         13    1    1    2    0    0  0.16796055951E+03 -0.36605799251E+03 -0.39489386671E+03  0.56404820766E+03  0.10566000000E+00 0. -1.
          4    1    1    2  501    0 -0.77862307147E+02 -0.28052259229E+01  0.48563811927E+02  0.91808779513E+02  0.00000000000E+00 0.  1.
</event>
<event>
 5    1  0.4881333E-005  0.4421067E+03  0.7818608E-02  0.9973992E-01
         21   -1    0    0  501  502  0.00000000000E+00  0.00000000000E+00  0.48661163771E+03  0.48661163771E+03  0.00000000000E+00 0. -1.
         -4   -1    0    0    0  501 -0.00000000000E+00 -0.00000000000E+00 -0.83503935120E+03  0.83503935120E+03  0.00000000000E+00 0. -1.
        -13    1    1    2    0    0 -0.39937041311E+02  0.12317839912E+03 -0.32233442162E+03  0.34737209992E+03  0.10566000000E+00 0.  1.
         13    1    1    2    0    0 -0.40955551780E+03 -0.22875420903E+02 -0.23037414502E+03  0.47045856874E+03  0.10566000000E+00 0. -1.
         -4    1    1    2    0  502  0.44949255911E+03 -0.10030297822E+03  0.20428085316E+03  0.50382032025E+03  0.00000000000E+00 0. -1.
</event>
<event>
 5    1  0.4881333E-005  0.8571077E+03  0.7818608E-02  0.8921854E-01
         -4   -1    0    0    0  501 -0.00000000000E+00  0.00000000000E+00  0.22533491890E+04  0.22533491890E+04  0.00000000000E+00 0. -1.
         21   -1    0    0  501  502  0.00000000000E+00 -0.00000000000E+00 -0.56158251792E+03  0.56158251792E+03  0.00000000000E+00 0.  1.
        -13    1    1    2    0    0  0.53796203656E+03 -0.65831136569E+03  0.10471437301E+04  0.13488094787E+04  0.10566000000E+00 0.  1.
         13    1    1    2    0    0 -0.83081540609E+03  0.40948183619E+03  0.38921544772E+03  0.10046981084E+04  0.10566000000E+00 0. -1.
         -4    1    1    2    0  502  0.29285336953E+03  0.24882952950E+03  0.25540749326E+03  0.46142411988E+03  0.00000000000E+00 0. -1.
</event>
<event>
 5    1  0.4881333E-005  0.4548930E+02  0.7818608E-02  0.1311330E+00
         21   -1    0    0  501  502  0.00000000000E+00  0.00000000000E+00  0.43471934382E+03  0.43471934382E+03  0.00000000000E+00 0. -1.
         -4   -1    0    0    0  501 -0.00000000000E+00 -0.00000000000E+00 -0.81261819340E+02  0.81261819340E+02  0.00000000000E+00 0. -1.
        -13    1    1    2    0    0 -0.48071195688E+02  0.41308650815E+02  0.11305959542E+03  0.12961376380E+03  0.10566000000E+00 0.  1.
         13    1    1    2    0    0  0.34999247393E+02 -0.27464336995E+02 -0.65881858406E+02  0.79496336744E+02  0.10566000000E+00 0. -1.
         -4    1    1    2    0  502  0.13071948295E+02 -0.13844313820E+02  0.30627978747E+03  0.30687106261E+03  0.00000000000E+00 0. -1.
</event>
<event>
 5    1  0.4881333E-005  0.4595392E+02  0.7818608E-02  0.1309200E+00
         21   -1    0    0  501  502  0.00000000000E+00  0.00000000000E+00  0.20088389438E+03  0.20088389438E+03  0.00000000000E+00 0. -1.
          4   -1    0    0  502    0 -0.00000000000E+00 -0.00000000000E+00 -0.48649623591E+02  0.48649623591E+02  0.00000000000E+00 0.  1.
        -13    1    1    2    0    0  0.41948820323E+02  0.23305173843E+02 -0.22205791923E+02  0.52876677404E+02  0.10566000000E+00 0.  1.
         13    1    1    2    0    0 -0.46420834743E+02  0.15632400193E+02  0.73021529332E+02  0.87928497906E+02  0.10566000000E+00 0. -1.
          4    1    1    2  501    0  0.44720144202E+01 -0.38937574035E+02  0.10141853338E+03  0.10872834266E+03  0.00000000000E+00 0.  1.
</event>
<event>
 5    1  0.4881333E-005  0.3902037E+03  0.7818608E-02  0.1008722E+00
         21   -1    0    0  501  502  0.00000000000E+00  0.00000000000E+00  0.10599473824E+03  0.10599473824E+03  0.00000000000E+00 0. -1.
         -4   -1    0    0    0  501 -0.00000000000E+00 -0.00000000000E+00 -0.26451082878E+04  0.26451082878E+04  0.00000000000E+00 0. -1.
        -13    1    1    2    0    0 -0.12535125562E+03  0.35373167569E+02 -0.38425963855E+03  0.40573350768E+03  0.10566000000E+00 0.  1.
         13    1    1    2    0    0  0.41284205803E+03  0.20017136550E+03 -0.16846837179E+04  0.17460430639E+04  0.10566000000E+00 0. -1.
         -4    1    1    2    0  502 -0.28749080242E+03 -0.23554453307E+03 -0.47017019309E+03  0.59932645445E+03  0.00000000000E+00 0. -1.
</event>
<event>
 5    1  0.4881333E-005  0.5704582E+02  0.7818608E-02  0.1303440E+00
         21   -1    0    0  501  502  0.00000000000E+00  0.00000000000E+00  0.56303470151E+03  0.56303470151E+03  0.00000000000E+00 0. -1.
         -4   -1    0    0    0  501 -0.00000000000E+00 -0.00000000000E+00 -0.36264142551E+02  0.36264142551E+02  0.00000000000E+00 0. -1.
        -13    1    1    2    0    0  0.45083083268E+02  0.51489182675E+02  0.14183576090E+03  0.15748337869E+03  0.10566000000E+00 0.  1.
         13    1    1    2    0    0  0.57063019227E+01 -0.25514897561E+02 -0.19977701966E+02  0.32904279646E+02  0.10566000000E+00 0. -1.
         -4    1    1    2    0  502 -0.50789385191E+02 -0.25974285114E+02  0.40491250003E+03  0.40891118573E+03  0.00000000000E+00 0. -1.
</event>
<event>
 5    1  0.4881333E-005  0.4276432E+03  0.7818608E-02  0.9720208E-01
         21   -1    0    0  501  502  0.00000000000E+00  0.00000000000E+00  0.32246127306E+03  0.32246127306E+03  0.00000000000E+00 0. -1.
         -4   -1    0    0    0  501 -0.00000000000E+00 -0.00000000000E+00 -0.17264920434E+04  0.17264920434E+04  0.00000000000E+00 0. -1.
        -13    1    1    2    0    0  0.29688283014E+03 -0.16055887538E+03 -0.86203486018E+03  0.92575519368E+03  0.10566000000E+00 0.  1.
         13    1    1    2    0    0 -0.55659682883E+03 -0.13223523904E+03 -0.43132867436E+03  0.71647095182E+03  0.10566000000E+00 0. -1.
         -4    1    1    2    0  502  0.25971399869E+03  0.29279411441E+03 -0.11066723584E+03  0.40672717101E+03  0.00000000000E+00 0. -1.
</event>
<event>
 5    1  0.4881333E-005  0.2492116E+03  0.7818608E-02  0.1030802E+00
         -4   -1    0    0    0  501 -0.00000000000E+00  0.00000000000E+00  0.31563557427E+03  0.31563557427E+03  0.00000000000E+00 0. -1.
         21   -1    0    0  501  502  0.00000000000E+00 -0.00000000000E+00 -0.12844175288E+04  0.12844175288E+04  0.00000000000E+00 0.  1.
        -13    1    1    2    0    0 -0.23185731591E+03  0.50215096624E+02 -0.11012406460E+03  0.26154672936E+03  0.10566000000E+00 0.  1.
         13    1    1    2    0    0  0.30623514767E+03 -0.94271706078E+02 -0.10663991514E+04  0.11134964219E+04  0.10566000000E+00 0. -1.
         -4    1    1    2    0  502 -0.74377831756E+02  0.44056609455E+02  0.20774126149E+03  0.22500995182E+03  0.00000000000E+00 0. -1.
</event>
<event>
 5    1  0.4881333E-005  0.9949957E+02  0.7818608E-02  0.1165386E+00
         21   -1    0    0  501  502  0.00000000000E+00  0.00000000000E+00  0.80380660523E+02  0.80380660523E+02  0.00000000000E+00 0. -1.
          4   -1    0    0  502    0 -0.00000000000E+00 -0.00000000000E+00 -0.24642558540E+03  0.24642558540E+03  0.00000000000E+00 0.  1.
        -13    1    1    2    0    0 -0.10125769306E+03  0.32571892284E+01 -0.14997261188E+03  0.18098487551E+03  0.10566000000E+00 0.  1.
         13    1    1    2    0    0  0.90240928555E+02 -0.44479419388E+02 -0.11364976238E+01  0.10061384958E+03  0.10566000000E+00 0. -1.
          4    1    1    2  501    0  0.11016764503E+02  0.41222230160E+02 -0.14935815373E+02  0.45207520838E+02  0.00000000000E+00 0.  1.
</event>
<event>
 5    1  0.4881333E-005  0.2895079E+03  0.7818608E-02  0.1011733E+00
          4   -1    0    0  502    0 -0.00000000000E+00  0.00000000000E+00  0.62524869992E+03  0.62524869992E+03  0.00000000000E+00 0.  1.
         21   -1    0    0  501  502  0.00000000000E+00 -0.00000000000E+00 -0.30567537721E+03  0.30567537721E+03  0.00000000000E+00 0. -1.
        -13    1    1    2    0    0 -0.27394424338E+03  0.10248678107E+03  0.48734493434E+03  0.56837846983E+03  0.10566000000E+00 0.  1.
         13    1    1    2    0    0  0.24656987699E+03 -0.12331541951E+03 -0.11316790207E+03  0.29801070811E+03  0.10566000000E+00 0. -1.
          4    1    1    2  501    0  0.27374366383E+02  0.20828638432E+02 -0.54603709574E+02  0.64534899186E+02  0.00000000000E+00 0.  1.
</event>
<event>
 5    1  0.4881333E-005  0.4802135E+03  0.7818608E-02  0.9833766E-01
         21   -1    0    0  501  502  0.00000000000E+00  0.00000000000E+00  0.18287500027E+03  0.18287500027E+03  0.00000000000E+00 0.  1.
          4   -1    0    0  502    0 -0.00000000000E+00 -0.00000000000E+00 -0.20938348614E+04  0.20938348614E+04  0.00000000000E+00 0.  1.
        -13    1    1    2    0    0  0.23961012266E+03 -0.44834852331E+03 -0.41216746562E+03  0.65445507112E+03  0.10566000000E+00 0.  1.
         13    1    1    2    0    0 -0.16104196820E+03  0.11756060215E+02 -0.57873221638E+03  0.60083584273E+03  0.10566000000E+00 0. -1.
          4    1    1    2  501    0 -0.78568154455E+02  0.43659246310E+03 -0.92006017914E+03  0.10214189478E+04  0.00000000000E+00 0.  1.
</event>
<event>
 5    1  0.7230908E-005  0.1733366E+03  0.7818608E-02  0.1113364E+00
          4   -1    0    0  502    0 -0.00000000000E+00  0.00000000000E+00  0.11187097309E+04  0.11187097309E+04  0.00000000000E+00 0.  1.
         21   -1    0    0  501  502  0.00000000000E+00 -0.00000000000E+00 -0.29488221487E+03  0.29488221487E+03  0.00000000000E+00 0.  1.
        -13    1    1    2    0    0  0.77527612644E+02  0.22838325954E+03  0.80981375871E+03  0.84496614069E+03  0.10566000000E+00 0.  1.
         13    1    1    2    0    0 -0.23155007125E+02 -0.66115860602E+02  0.25982833391E+03  0.26910636493E+03  0.10566000000E+00 0. -1.
          4    1    1    2  501    0 -0.54372605519E+02 -0.16226739893E+03 -0.24581457656E+03  0.29951944017E+03  0.00000000000E+00 0.  1.
</event>
<event>
 5    1  0.4881333E-005  0.4923540E+03  0.7818608E-02  0.9731482E-01
         21   -1    0    0  501  502  0.00000000000E+00  0.00000000000E+00  0.20657327731E+03  0.20657327731E+03  0.00000000000E+00 0.  1.
          4   -1    0    0  502    0 -0.00000000000E+00 -0.00000000000E+00 -0.22911775706E+04  0.22911775706E+04  0.00000000000E+00 0.  1.
        -13    1    1    2    0    0 -0.47656621539E+03  0.28158693352E+03 -0.40052832188E+03  0.68324922727E+03  0.10566000000E+00 0.  1.
         13    1    1    2    0    0  0.20934691726E+03  0.37556170168E+02 -0.92143684886E+03  0.94566509679E+03  0.10566000000E+00 0. -1.
          4    1    1    2  501    0  0.26721929812E+03 -0.31914310369E+03 -0.76263912258E+03  0.86883652387E+03  0.00000000000E+00 0.  1.
</event>
<event>
 5    1  0.4881333E-005  0.2766254E+03  0.7818608E-02  0.1027177E+00
         21   -1    0    0  501  502  0.00000000000E+00  0.00000000000E+00  0.22989288384E+04  0.22989288384E+04  0.00000000000E+00 0. -1.
         -4   -1    0    0    0  501 -0.00000000000E+00 -0.00000000000E+00 -0.19818087866E+03  0.19818087866E+03  0.00000000000E+00 0. -1.
        -13    1    1    2    0    0  0.94261603280E+02  0.18076126512E+03  0.56356043405E+02  0.21150862775E+03  0.10566000000E+00 0.  1.
         13    1    1    2    0    0  0.18226133320E+03 -0.99883804641E+02 -0.12897258939E+02  0.20823620833E+03  0.10566000000E+00 0. -1.
         -4    1    1    2    0  502 -0.27652293648E+03 -0.80877460481E+02  0.20572891752E+04  0.20773648810E+04  0.00000000000E+00 0. -1.
</event>
<event>
 5    1  0.4881333E-005  0.3591877E+03  0.7818608E-02  0.9911143E-01
         21   -1    0    0  501  502  0.00000000000E+00  0.00000000000E+00  0.25146798502E+03  0.25146798502E+03  0.00000000000E+00 0.  1.
          4   -1    0    0  502    0 -0.00000000000E+00 -0.00000000000E+00 -0.20598247887E+04  0.20598247887E+04  0.00000000000E+00 0.  1.
        -13    1    1    2    0    0  0.30550560043E+03  0.47641642439E+03 -0.95865326217E+03  0.11132485659E+04  0.10566000000E+00 0.  1.
         13    1    1    2    0    0 -0.30055867797E+02 -0.29590191377E+03 -0.81417936193E+03  0.86680409685E+03  0.10566000000E+00 0. -1.
          4    1    1    2  501    0 -0.27544973263E+03 -0.18051451062E+03 -0.35524179572E+02  0.33124011092E+03  0.00000000000E+00 0.  1.
</event>
<event>
 5    1  0.4881333E-005  0.4912823E+03  0.7818608E-02  0.9588701E-01
         -4   -1    0    0    0  501 -0.00000000000E+00  0.00000000000E+00  0.10907597670E+04  0.10907597670E+04  0.00000000000E+00 0. -1.
         21   -1    0    0  501  502  0.00000000000E+00 -0.00000000000E+00 -0.49822576182E+03  0.49822576182E+03  0.00000000000E+00 0. -1.
        -13    1    1    2    0    0 -0.24219451602E+01 -0.35348824813E+03  0.38791483608E+03  0.52482162550E+03  0.10566000000E+00 0.  1.
         13    1    1    2    0    0  0.49202710233E+03  0.19531141601E+03  0.88861319583E+02  0.53678074103E+03  0.10566000000E+00 0. -1.
         -4    1    1    2    0  502 -0.48960515717E+03  0.15817683211E+03  0.11575784954E+03  0.52738316230E+03  0.00000000000E+00 0. -1.
</event>
<event>
 5    1  0.4881333E-005  0.4361844E+03  0.7818608E-02  0.9715678E-01
          4   -1    0    0  502    0 -0.00000000000E+00  0.00000000000E+00  0.29332876668E+03  0.29332876668E+03  0.00000000000E+00 0.  1.
         21   -1    0    0  501  502  0.00000000000E+00 -0.00000000000E+00 -0.16189880509E+04  0.16189880509E+04  0.00000000000E+00 0.  1.
        -13    1    1    2    0    0 -0.90829443475E+02 -0.32745350392E+03 -0.40634791803E+02  0.34223819556E+03  0.10566000000E+00 0.  1.
         13    1    1    2    0    0 -0.31908711765E+03  0.50865776303E+02 -0.20615676250E+03  0.38328127758E+03  0.10566000000E+00 0. -1.
          4    1    1    2  501    0  0.40991656113E+03  0.27658772761E+03 -0.10788677299E+04  0.11867973445E+04  0.00000000000E+00 0.  1.
</event>
<event>
 5    1  0.4881333E-005  0.2055888E+02  0.7818608E-02  0.1502228E+00
         21   -1    0    0  501  502  0.00000000000E+00  0.00000000000E+00  0.31436394701E+02  0.31436394701E+02  0.00000000000E+00 0.  1.
          4   -1    0    0  502    0 -0.00000000000E+00 -0.00000000000E+00 -0.45231538211E+02  0.45231538211E+02  0.00000000000E+00 0.  1.
        -13    1    1    2    0    0  0.44663788135E+01 -0.24535015321E+02 -0.32868843885E+02  0.41258787899E+02  0.10566000000E+00 0.  1.
         13    1    1    2    0    0 -0.67681676280E+01  0.11522966502E+02  0.15382626889E+01  0.13452295945E+02  0.10566000000E+00 0. -1.
          4    1    1    2  501    0  0.23017888145E+01  0.13012048819E+02  0.17535437686E+02  0.21956849069E+02  0.00000000000E+00 0.  1.
</event>
<event>
 5    1  0.4881333E-005  0.4888942E+03  0.7818608E-02  0.1019368E+00
         21   -1    0    0  501  502  0.00000000000E+00  0.00000000000E+00  0.11940801378E+03  0.11940801378E+03  0.00000000000E+00 0.  1.
          4   -1    0    0  502    0 -0.00000000000E+00 -0.00000000000E+00 -0.23488499954E+04  0.23488499954E+04  0.00000000000E+00 0.  1.
        -13    1    1    2    0    0  0.32396303424E+03 -0.33168200071E+03 -0.13349916331E+04  0.14132118273E+04  0.10566000000E+00 0.  1.
         13    1    1    2    0    0  0.44722494475E+02 -0.14963669217E+02 -0.39341636893E+02  0.61414887983E+02  0.10566000000E+00 0. -1.
          4    1    1    2  501    0 -0.36868552871E+03  0.34664566992E+03 -0.85510871158E+03  0.99363129388E+03  0.00000000000E+00 0.  1.
</event>
<event>
 5    1  0.4881333E-005  0.9951737E+02  0.7818608E-02  0.1165357E+00
         -4   -1    0    0    0  501 -0.00000000000E+00  0.00000000000E+00  0.21212608028E+03  0.21212608028E+03  0.00000000000E+00 0. -1.
         21   -1    0    0  501  502  0.00000000000E+00 -0.00000000000E+00 -0.76852444850E+02  0.76852444850E+02  0.00000000000E+00 0.  1.
        -13    1    1    2    0    0  0.10242084463E+03  0.25414910894E+02  0.80049892235E+02  0.13245355232E+03  0.10566000000E+00 0.  1.
         13    1    1    2    0    0 -0.79238542631E+02 -0.56043840143E+02  0.65095889114E+02  0.11686378652E+03  0.10566000000E+00 0. -1.
         -4    1    1    2    0  502 -0.23182302001E+02  0.30628929249E+02 -0.98721459184E+01  0.39661186291E+02  0.00000000000E+00 0. -1.
</event>
<event>
 5    1  0.4881333E-005  0.1570283E+03  0.7818608E-02  0.1094380E+00
         -4   -1    0    0    0  501 -0.00000000000E+00  0.00000000000E+00  0.24913880291E+03  0.24913880291E+03  0.00000000000E+00 0. -1.
         21   -1    0    0  501  502  0.00000000000E+00 -0.00000000000E+00 -0.19488552721E+03  0.19488552721E+03  0.00000000000E+00 0. -1.
        -13    1    1    2    0    0 -0.12093543052E+01 -0.15900183137E+03 -0.34950427894E+02  0.16280229879E+03  0.10566000000E+00 0.  1.
         13    1    1    2    0    0  0.12885635001E+02  0.15594483561E+03  0.15148012891E+03  0.21778675800E+03  0.10566000000E+00 0. -1.
         -4    1    1    2    0  502 -0.11676280696E+02  0.30569957621E+01 -0.62276425310E+02  0.63435273337E+02  0.00000000000E+00 0. -1.
</event>
<event>
 5    1  0.4881333E-005  0.1818578E+03  0.7818608E-02  0.1073339E+00
         21   -1    0    0  501  502  0.00000000000E+00  0.00000000000E+00  0.14833311968E+04  0.14833311968E+04  0.00000000000E+00 0.  1.
          4   -1    0    0  502    0 -0.00000000000E+00 -0.00000000000E+00 -0.10987909262E+03  0.10987909262E+03  0.00000000000E+00 0.  1.
        -13    1    1    2    0    0  0.10124456744E+03 -0.15001053861E+03 -0.17769408251E+02  0.18184990284E+03  0.10566000000E+00 0.  1.
         13    1    1    2    0    0 -0.97041051711E+02  0.16587673378E+03  0.92021299644E+03  0.94006596923E+03  0.10566000000E+00 0. -1.
          4    1    1    2  501    0 -0.42035157247E+01 -0.15866195165E+02  0.47100851600E+03  0.47129441736E+03  0.00000000000E+00 0.  1.
</event>
<event>
 5    1  0.4881333E-005  0.2397541E+03  0.7818608E-02  0.1050008E+00
          4   -1    0    0  502    0 -0.00000000000E+00  0.00000000000E+00  0.44807977820E+03  0.44807977820E+03  0.00000000000E+00 0.  1.
         21   -1    0    0  501  502  0.00000000000E+00 -0.00000000000E+00 -0.80114707151E+03  0.80114707151E+03  0.00000000000E+00 0.  1.
        -13    1    1    2    0    0  0.14875251554E+03 -0.17608492183E+03 -0.60705469913E+03  0.64934476934E+03  0.10566000000E+00 0.  1.
         13    1    1    2    0    0  0.12932423330E+03 -0.88050410055E+02  0.43489883333E+02  0.16238538465E+03  0.10566000000E+00 0. -1.
          4    1    1    2  501    0 -0.27807674885E+03  0.26413533189E+03  0.21049752248E+03  0.43749669572E+03  0.00000000000E+00 0.  1.
</event>
<event>
 5    1  0.4881333E-005  0.2911725E+02  0.7818608E-02  0.1412140E+00
         -4   -1    0    0    0  501 -0.00000000000E+00  0.00000000000E+00  0.16953648319E+03  0.16953648319E+03  0.00000000000E+00 0. -1.
         21   -1    0    0  501  502  0.00000000000E+00 -0.00000000000E+00 -0.23026302720E+03  0.23026302720E+03  0.00000000000E+00 0. -1.
        -13    1    1    2    0    0  0.18696647653E+02 -0.19605798443E+01 -0.16873437401E+02  0.25261285806E+02  0.10566000000E+00 0.  1.
         13    1    1    2    0    0 -0.24710128649E+02  0.16872304441E+02  0.16367537651E+03  0.16638781552E+03  0.10566000000E+00 0. -1.
         -4    1    1    2    0  502  0.60134809954E+01 -0.14911724596E+02 -0.20752848312E+03  0.20815040906E+03  0.00000000000E+00 0. -1.
</event>
<event>
 5    1  0.4881333E-005  0.2867988E+03  0.7818608E-02  0.1037870E+00
         -4   -1    0    0    0  501 -0.00000000000E+00  0.00000000000E+00  0.22614579037E+03  0.22614579037E+03  0.00000000000E+00 0. -1.
         21   -1    0    0  501  502  0.00000000000E+00 -0.00000000000E+00 -0.63139457472E+03  0.63139457472E+03  0.00000000000E+00 0.  1.
        -13    1    1    2    0    0  0.77967839827E+02 -0.10611141225E+03 -0.94910154848E+02  0.16231624846E+03  0.10566000000E+00 0.  1.
         13    1    1    2    0    0 -0.33763760798E+03  0.95472799139E+02 -0.11206186947E+03  0.36833691568E+03  0.10566000000E+00 0. -1.
         -4    1    1    2    0  502  0.25966976815E+03  0.10638613107E+02 -0.19827676003E+03  0.32688720096E+03  0.00000000000E+00 0. -1.
</event>
<event>
 5    1  0.4881333E-005  0.3181641E+03  0.7818608E-02  0.1043480E+00
          4   -1    0    0  502    0 -0.00000000000E+00  0.00000000000E+00  0.12880940354E+04  0.12880940354E+04  0.00000000000E+00 0.  1.
         21   -1    0    0  501  502  0.00000000000E+00 -0.00000000000E+00 -0.16723884082E+03  0.16723884082E+03  0.00000000000E+00 0.  1.
        -13    1    1    2    0    0  0.18206810980E+01 -0.38445400310E+03  0.85407178500E+03  0.93661455277E+03  0.10566000000E+00 0.  1.
         13    1    1    2    0    0 -0.91298668657E+01  0.80872442533E+02  0.18820279434E+03  0.20504635913E+03  0.10566000000E+00 0. -1.
          4    1    1    2  501    0  0.73091857677E+01  0.30358156056E+03  0.78580615261E+02  0.31367196433E+03  0.00000000000E+00 0.  1.
</event>
<event>
 5    1  0.4881333E-005  0.1353227E+04  0.7818608E-02  0.8499326E-01
          4   -1    0    0  502    0 -0.00000000000E+00  0.00000000000E+00  0.45402043000E+04  0.45402043000E+04  0.00000000000E+00 0.  1.
         21   -1    0    0  501  502  0.00000000000E+00 -0.00000000000E+00 -0.49083200472E+03  0.49083200472E+03  0.00000000000E+00 0. -1.
        -13    1    1    2    0    0 -0.23778353079E+03 -0.14129558720E+04  0.16385913382E+04  0.21766871361E+04  0.10566000000E+00 0.  1.
         13    1    1    2    0    0  0.36886262952E+03  0.12511029463E+04  0.22028216101E+04  0.25600275934E+04  0.10566000000E+00 0. -1.
          4    1    1    2  501    0 -0.13107909873E+03  0.16185292561E+03  0.20795934686E+03  0.29432157515E+03  0.00000000000E+00 0.  1.
</event>
<event>
 5    1  0.4881333E-005  0.4385247E+02  0.7818608E-02  0.1319067E+00
         21   -1    0    0  501  502  0.00000000000E+00  0.00000000000E+00  0.17229162752E+02  0.17229162752E+02  0.00000000000E+00 0.  1.
          4   -1    0    0  502    0 -0.00000000000E+00 -0.00000000000E+00 -0.29982865316E+03  0.29982865316E+03  0.00000000000E+00 0.  1.
        -13    1    1    2    0    0  0.57206677873E+02 -0.20491094698E+02 -0.60888248785E+02  0.86022549133E+02  0.10566000000E+00 0.  1.
         13    1    1    2    0    0 -0.38563519910E+02  0.13394910691E+02 -0.18286653093E+03  0.18736794817E+03  0.10566000000E+00 0. -1.
          4    1    1    2  501    0 -0.18643157963E+02  0.70961840072E+01 -0.38844710687E+02  0.43667318611E+02  0.00000000000E+00 0.  1.
</event>
<event>
 5    1  0.4881333E-005  0.7148369E+03  0.7818608E-02  0.9276055E-01
         -4   -1    0    0    0  501 -0.00000000000E+00  0.00000000000E+00  0.11169319652E+04  0.11169319652E+04  0.00000000000E+00 0. -1.
         21   -1    0    0  501  502  0.00000000000E+00 -0.00000000000E+00 -0.84471342938E+03  0.84471342938E+03  0.00000000000E+00 0.  1.
        -13    1    1    2    0    0 -0.36279149360E+03 -0.17967094354E+02  0.22467813375E+03  0.42710743292E+03  0.10566000000E+00 0.  1.
         13    1    1    2    0    0  0.30386248033E+03  0.72278882566E+03  0.20397935415E+03  0.81016275003E+03  0.10566000000E+00 0. -1.
         -4    1    1    2    0  502  0.58929013272E+02 -0.70482173131E+03 -0.15643895206E+03  0.72437521165E+03  0.00000000000E+00 0. -1.
</event>
<event>
 5    1  0.4881333E-005  0.2727022E+03  0.7818608E-02  0.1019256E+00
         -4   -1    0    0    0  501 -0.00000000000E+00  0.00000000000E+00  0.10987241711E+04  0.10987241711E+04  0.00000000000E+00 0. -1.
         21   -1    0    0  501  502  0.00000000000E+00 -0.00000000000E+00 -0.39042395106E+03  0.39042395106E+03  0.00000000000E+00 0. -1.
        -13    1    1    2    0    0 -0.11494129218E+03  0.21995881354E+03  0.14329348615E+02  0.24859348683E+03  0.10566000000E+00 0.  1.
         13    1    1    2    0    0  0.28999420633E+03 -0.52930848155E+02  0.88466505649E+03  0.93248623996E+03  0.10566000000E+00 0. -1.
         -4    1    1    2    0  502 -0.17505291415E+03 -0.16702796538E+03 -0.19069418509E+03  0.30806839533E+03  0.00000000000E+00 0. -1.
</event>
<event>
 5    1  0.4881333E-005  0.3544496E+03  0.7818608E-02  0.1009788E+00
         21   -1    0    0  501  502  0.00000000000E+00  0.00000000000E+00  0.17237100361E+03  0.17237100361E+03  0.00000000000E+00 0. -1.
         -4   -1    0    0    0  501 -0.00000000000E+00 -0.00000000000E+00 -0.20863290185E+04  0.20863290185E+04  0.00000000000E+00 0. -1.
        -13    1    1    2    0    0 -0.10867176658E+03 -0.12800006129E+03 -0.21236822678E+03  0.27072835731E+03  0.10566000000E+00 0.  1.
         13    1    1    2    0    0 -0.33511498384E+03 -0.33890366503E+02 -0.15487181026E+03  0.37072347932E+03  0.10566000000E+00 0. -1.
         -4    1    1    2    0  502  0.44378675042E+03  0.16189042779E+03 -0.15467179779E+04  0.16172481855E+04  0.00000000000E+00 0. -1.
</event>
<event>
 5    1  0.4881333E-005  0.2311429E+03  0.7818608E-02  0.1040656E+00
          4   -1    0    0  502    0 -0.00000000000E+00  0.00000000000E+00  0.11014324894E+04  0.11014324894E+04  0.00000000000E+00 0.  1.
         21   -1    0    0  501  502  0.00000000000E+00 -0.00000000000E+00 -0.82379442526E+02  0.82379442526E+02  0.00000000000E+00 0. -1.
        -13    1    1    2    0    0  0.15147733273E+03 -0.15749523424E+03  0.42918753364E+03  0.48161403772E+03  0.10566000000E+00 0.  1.
         13    1    1    2    0    0 -0.18699058758E+03  0.15517439956E+03  0.61323467966E+03  0.65962213246E+03  0.10566000000E+00 0. -1.
          4    1    1    2  501    0  0.35513254856E+02  0.23208346817E+01 -0.23369166459E+02  0.42575761709E+02  0.00000000000E+00 0.  1.
</event>
<event>
 5    1  0.4881333E-005  0.4079508E+03  0.7818608E-02  0.9936232E-01
         21   -1    0    0  501  502  0.00000000000E+00  0.00000000000E+00  0.28333530298E+03  0.28333530298E+03  0.00000000000E+00 0. -1.
         -4   -1    0    0    0  501 -0.00000000000E+00 -0.00000000000E+00 -0.15020061148E+04  0.15020061148E+04  0.00000000000E+00 0. -1.
        -13    1    1    2    0    0 -0.10665011243E+03  0.15329174254E+03 -0.51241054796E+03  0.54537802086E+03  0.10566000000E+00 0.  1.
         13    1    1    2    0    0 -0.34436631570E+03 -0.21083407036E+03 -0.45256379839E+01  0.40380646005E+03  0.10566000000E+00 0. -1.
         -4    1    1    2    0  502  0.45101642813E+03  0.57542327825E+02 -0.70173462589E+03  0.83615693689E+03  0.00000000000E+00 0. -1.
</event>
<event>
 5    1  0.4881333E-005  0.5871991E+02  0.7818608E-02  0.1259864E+00
         -4   -1    0    0    0  501 -0.00000000000E+00  0.00000000000E+00  0.31018197237E+03  0.31018197237E+03  0.00000000000E+00 0. -1.
         21   -1    0    0  501  502  0.00000000000E+00 -0.00000000000E+00 -0.11040163644E+03  0.11040163644E+03  0.00000000000E+00 0. -1.
        -13    1    1    2    0    0 -0.57055211215E+02 -0.29594734644E+02  0.14134815570E+03  0.15527542539E+03  0.10566000000E+00 0.  1.
         13    1    1    2    0    0  0.56167402388E+02  0.60536986700E+01  0.15548885448E+03  0.16543342888E+03  0.10566000000E+00 0. -1.
         -4    1    1    2    0  502  0.88780882698E+00  0.23541035974E+02 -0.97056674253E+02  0.99874754549E+02  0.00000000000E+00 0. -1.
</event>
<event>
 5    1  0.4881333E-005  0.7197795E+02  0.7818608E-02  0.1221631E+00
         -4   -1    0    0    0  501 -0.00000000000E+00  0.00000000000E+00  0.30130306785E+03  0.30130306785E+03  0.00000000000E+00 0. -1.
         21   -1    0    0  501  502  0.00000000000E+00 -0.00000000000E+00 -0.34790420456E+02  0.34790420456E+02  0.00000000000E+00 0.  1.
        -13    1    1    2    0    0 -0.52758987818E+02 -0.70194579055E+02  0.10927796192E+03  0.14018728134E+03  0.10566000000E+00 0.  1.
         13    1    1    2    0    0  0.48046857191E+02  0.44669856840E+02  0.15677295127E+03  0.16994606794E+03  0.10566000000E+00 0. -1.
         -4    1    1    2    0  502  0.47121306279E+01  0.25524722215E+02  0.46173419893E+00  0.25960139015E+02  0.00000000000E+00 0. -1.
</event>
<event>
 5    1  0.4881333E-005  0.1927498E+03  0.7818608E-02  0.1065223E+00
         21   -1    0    0  501  502  0.00000000000E+00  0.00000000000E+00  0.89454036792E+03  0.89454036792E+03  0.00000000000E+00 0.  1.
          4   -1    0    0  502    0 -0.00000000000E+00 -0.00000000000E+00 -0.68372024639E+02  0.68372024639E+02  0.00000000000E+00 0.  1.
        -13    1    1    2    0    0  0.19270529049E+03 -0.83223243645E+02  0.41541590182E+03  0.46543723520E+03  0.10566000000E+00 0.  1.
         13    1    1    2    0    0 -0.16917495585E+03  0.74760345008E+02  0.15732698649E+03  0.24281899990E+03  0.10566000000E+00 0. -1.
          4    1    1    2  501    0 -0.23530334639E+02  0.84628986364E+01  0.25342545497E+03  0.25465615745E+03  0.00000000000E+00 0.  1.
</event>
<event>
 5    1  0.4881333E-005  0.4147914E+03  0.7818608E-02  0.1022496E+00
          4   -1    0    0  502    0 -0.00000000000E+00  0.00000000000E+00  0.46813232892E+03  0.46813232892E+03  0.00000000000E+00 0.  1.
         21   -1    0    0  501  502  0.00000000000E+00 -0.00000000000E+00 -0.85667485895E+03  0.85667485895E+03  0.00000000000E+00 0.  1.
        -13    1    1    2    0    0  0.23955453878E+03 -0.35144153231E+03 -0.62612751804E+03  0.75692351509E+03  0.10566000000E+00 0.  1.
         13    1    1    2    0    0 -0.69093009167E+02  0.11121809053E+02  0.16659362366E+03  0.18069583603E+03  0.10566000000E+00 0. -1.
          4    1    1    2  501    0 -0.17046152962E+03  0.34031972326E+03  0.70991364353E+02  0.38718783675E+03  0.00000000000E+00 0.  1.
</event>
<event>
 5    1  0.4881333E-005  0.1316014E+03  0.7818608E-02  0.1120821E+00
          4   -1    0    0  502    0 -0.00000000000E+00  0.00000000000E+00  0.22037535958E+03  0.22037535958E+03  0.00000000000E+00 0.  1.
         21   -1    0    0  501  502  0.00000000000E+00 -0.00000000000E+00 -0.17153907767E+03  0.17153907767E+03  0.00000000000E+00 0. -1.
        -13    1    1    2    0    0  0.13109413183E+03  0.20462979141E+02  0.15261975757E+03  0.20223057751E+03  0.10566000000E+00 0.  1.
         13    1    1    2    0    0 -0.12408261022E+03 -0.30467680489E+02 -0.54496308136E+02  0.13890512041E+03  0.10566000000E+00 0. -1.
          4    1    1    2  501    0 -0.70115216160E+01  0.10004701347E+02 -0.49287167523E+02  0.50778739320E+02  0.00000000000E+00 0.  1.
</event>
<event>
 5    1  0.4881333E-005  0.4675449E+03  0.7818608E-02  0.9985232E-01
         21   -1    0    0  501  502  0.00000000000E+00  0.00000000000E+00  0.48620289049E+03  0.48620289049E+03  0.00000000000E+00 0. -1.
         -4   -1    0    0    0  501 -0.00000000000E+00 -0.00000000000E+00 -0.68104934040E+03  0.68104934040E+03  0.00000000000E+00 0. -1.
        -13    1    1    2    0    0  0.58816083470E+02 -0.87593427667E+02 -0.12898933392E+03  0.16664393081E+03  0.10566000000E+00 0.  1.
         13    1    1    2    0    0  0.35787736497E+03  0.30505889765E+03  0.13532523698E+03  0.48933635703E+03  0.10566000000E+00 0. -1.
         -4    1    1    2    0  502 -0.41669344844E+03 -0.21746546998E+03 -0.20118235296E+03  0.51127194305E+03  0.00000000000E+00 0. -1.
</event>
<event>
 5    1  0.4881333E-005  0.1894559E+03  0.7818608E-02  0.1067615E+00
         -4   -1    0    0    0  501 -0.00000000000E+00  0.00000000000E+00  0.29915139268E+03  0.29915139268E+03  0.00000000000E+00 0. -1.
         21   -1    0    0  501  502  0.00000000000E+00 -0.00000000000E+00 -0.36641348981E+03  0.36641348981E+03  0.00000000000E+00 0.  1.
        -13    1    1    2    0    0  0.19309725782E+03  0.14138848893E+02 -0.14474381093E+03  0.24173795729E+03  0.10566000000E+00 0.  1.
         13    1    1    2    0    0 -0.18685353730E+03  0.31975961231E+02  0.21027737847E+03  0.28311357007E+03  0.10566000000E+00 0. -1.
         -4    1    1    2    0  502 -0.62437205211E+01 -0.46114810124E+02 -0.13279566467E+03  0.14071335514E+03  0.00000000000E+00 0. -1.
</event>
<event>
 5    1  0.4881333E-005  0.4927509E+03  0.7818608E-02  0.9845409E-01
         21   -1    0    0  501  502  0.00000000000E+00  0.00000000000E+00  0.58902137280E+03  0.58902137280E+03  0.00000000000E+00 0.  1.
          4   -1    0    0  502    0 -0.00000000000E+00 -0.00000000000E+00 -0.70367379317E+03  0.70367379317E+03  0.00000000000E+00 0.  1.
        -13    1    1    2    0    0 -0.24027369907E+03  0.42576747205E+03  0.65871623407E+02  0.49330363130E+03  0.10566000000E+00 0.  1.
         13    1    1    2    0    0  0.12631907437E+03  0.68459341684E+02 -0.24911685740E+03  0.28758026674E+03  0.10566000000E+00 0. -1.
          4    1    1    2  501    0  0.11395462469E+03 -0.49422681373E+03  0.68592813614E+02  0.51181126793E+03  0.00000000000E+00 0.  1.
</event>
<event>
 5    1  0.4881333E-005  0.6293180E+02  0.7818608E-02  0.1246591E+00
         -4   -1    0    0    0  501 -0.00000000000E+00  0.00000000000E+00  0.13190652241E+03  0.13190652241E+03  0.00000000000E+00 0. -1.
         21   -1    0    0  501  502  0.00000000000E+00 -0.00000000000E+00 -0.13903323245E+03  0.13903323245E+03  0.00000000000E+00 0. -1.
        -13    1    1    2    0    0 -0.57433618950E+02 -0.98545717745E+01  0.71929832253E+02  0.92572377643E+02  0.10566000000E+00 0.  1.
         13    1    1    2    0    0  0.76070503311E+02  0.88080416392E+01  0.18712881287E+02  0.78832012290E+02  0.10566000000E+00 0. -1.
         -4    1    1    2    0  502 -0.18636884362E+02  0.10465301353E+01 -0.97769423580E+02  0.99535364928E+02  0.00000000000E+00 0. -1.
</event>
<event>
 5    1  0.4881333E-005  0.7278932E+02  0.7818608E-02  0.1219594E+00
         -4   -1    0    0    0  501 -0.00000000000E+00  0.00000000000E+00  0.23749104832E+03  0.23749104832E+03  0.00000000000E+00 0. -1.
         21   -1    0    0  501  502  0.00000000000E+00 -0.00000000000E+00 -0.12141480139E+03  0.12141480139E+03  0.00000000000E+00 0.  1.
        -13    1    1    2    0    0  0.34055848959E+02  0.36400531664E+02 -0.97807595991E+02  0.10977766873E+03  0.10566000000E+00 0.  1.
         13    1    1    2    0    0 -0.47444033223E+02 -0.57034928011E+02  0.21182962392E+03  0.22444536092E+03  0.10566000000E+00 0. -1.
         -4    1    1    2    0  502  0.13388184264E+02  0.20634396346E+02  0.20542189943E+01  0.24682820060E+02  0.00000000000E+00 0. -1.
</event>
<event>
 5    1  0.4881333E-005  0.4801647E+03  0.7818608E-02  0.9522539E-01
          4   -1    0    0  502    0 -0.00000000000E+00  0.00000000000E+00  0.30640584075E+04  0.30640584075E+04  0.00000000000E+00 0.  1.
         21   -1    0    0  501  502  0.00000000000E+00 -0.00000000000E+00 -0.18630933171E+03  0.18630933171E+03  0.00000000000E+00 0.  1.
        -13    1    1    2    0    0 -0.13281522737E+03  0.67696014913E+03  0.85657060666E+03  0.10998309613E+04  0.10566000000E+00 0.  1.
         13    1    1    2    0    0 -0.41552649549E+02 -0.41601962461E+03  0.10626712522E+04  0.11419584722E+04  0.10566000000E+00 0. -1.
          4    1    1    2  501    0  0.17436787692E+03 -0.26094052452E+03  0.95850721695E+03  0.10085783057E+04  0.00000000000E+00 0.  1.
</event>
<event>
 5    1  0.4881333E-005  0.3829036E+03  0.7818608E-02  0.9779761E-01
          4   -1    0    0  502    0 -0.00000000000E+00  0.00000000000E+00  0.17655171516E+04  0.17655171516E+04  0.00000000000E+00 0.  1.
         21   -1    0    0  501  502  0.00000000000E+00 -0.00000000000E+00 -0.12948278617E+03  0.12948278617E+03  0.00000000000E+00 0. -1.
        -13    1    1    2    0    0 -0.99812666155E+02 -0.36533690177E+03  0.11126018480E+04  0.11752942199E+04  0.10566000000E+00 0.  1.
         13    1    1    2    0    0  0.10702312365E+03  0.37620582829E+03  0.55875625274E+03  0.68205083050E+03  0.10566000000E+00 0. -1.
          4    1    1    2  501    0 -0.72104574906E+01 -0.10868926523E+02 -0.35323735328E+02  0.37654887313E+02  0.00000000000E+00 0.  1.
</event>
<event>
 5    1  0.4881333E-005  0.2875269E+03  0.7818608E-02  0.1015214E+00
         21   -1    0    0  501  502  0.00000000000E+00  0.00000000000E+00  0.48059003197E+03  0.48059003197E+03  0.00000000000E+00 0. -1.
         -4   -1    0    0    0  501 -0.00000000000E+00 -0.00000000000E+00 -0.10219968565E+04  0.10219968565E+04  0.00000000000E+00 0. -1.
        -13    1    1    2    0    0 -0.21329044612E+03  0.15634556904E+03 -0.34369188553E+03  0.43365986062E+03  0.10566000000E+00 0.  1.
         13    1    1    2    0    0  0.36401794104E+01 -0.35760247174E+03 -0.52245971577E+03  0.63313264366E+03  0.10566000000E+00 0. -1.
         -4    1    1    2    0  502  0.20965026671E+03  0.20125690269E+03  0.32474477680E+03  0.43579438417E+03  0.00000000000E+00 0. -1.
</event>
<event>
 5    1  0.4881333E-005  0.2678291E+03  0.7818608E-02  0.1021546E+00
          4   -1    0    0  502    0 -0.00000000000E+00  0.00000000000E+00  0.23669168403E+03  0.23669168403E+03  0.00000000000E+00 0.  1.
         21   -1    0    0  501  502  0.00000000000E+00 -0.00000000000E+00 -0.73175961838E+03  0.73175961838E+03  0.00000000000E+00 0. -1.
        -13    1    1    2    0    0  0.26148994664E+02 -0.26890681364E+03  0.10345196268E+03  0.28930427596E+03  0.10566000000E+00 0.  1.
         13    1    1    2    0    0 -0.21159729856E+02  0.25655432170E+03 -0.37284780312E+03  0.45308205615E+03  0.10566000000E+00 0. -1.
          4    1    1    2  501    0 -0.49892648078E+01  0.12352491936E+02 -0.22567209392E+03  0.22606497029E+03  0.00000000000E+00 0.  1.
</event>
<event>
 5    1  0.4881333E-005  0.5061061E+03  0.7818608E-02  0.9516458E-01
         21   -1    0    0  501  502  0.00000000000E+00  0.00000000000E+00  0.10615436379E+04  0.10615436379E+04  0.00000000000E+00 0.  1.
          4   -1    0    0  502    0 -0.00000000000E+00 -0.00000000000E+00 -0.65440760440E+03  0.65440760440E+03  0.00000000000E+00 0.  1.
        -13    1    1    2    0    0 -0.60970039497E+02 -0.60997926750E+03  0.33198775249E+03  0.69714269090E+03  0.10566000000E+00 0.  1.
         13    1    1    2    0    0 -0.30575761603E+03  0.28673570512E+03 -0.19274825913E+03  0.46136426705E+03  0.10566000000E+00 0. -1.
          4    1    1    2  501    0  0.36672765553E+03  0.32324356239E+03  0.26789654016E+03  0.55744428438E+03  0.00000000000E+00 0.  1.
</event>
<event>
 5    1  0.4881333E-005  0.5746132E+02  0.7818608E-02  0.1264074E+00
          4   -1    0    0  502    0 -0.00000000000E+00  0.00000000000E+00  0.28797863574E+03  0.28797863574E+03  0.00000000000E+00 0.  1.
         21   -1    0    0  501  502  0.00000000000E+00 -0.00000000000E+00 -0.14722351221E+03  0.14722351221E+03  0.00000000000E+00 0.  1.
        -13    1    1    2    0    0 -0.45540350342E+02 -0.34369282086E+02  0.25893848253E+03  0.26514961806E+03  0.10566000000E+00 0.  1.
         13    1    1    2    0    0  0.35273974141E+02  0.58645908227E+02 -0.24433459876E+02  0.72667743388E+02  0.10566000000E+00 0. -1.
          4    1    1    2  501    0  0.10266376201E+02 -0.24276626141E+02 -0.93749899118E+02  0.97384786500E+02  0.00000000000E+00 0.  1.
</event>
<event>
 5    1  0.4881333E-005  0.1114307E+03  0.7818608E-02  0.1164070E+00
          4   -1    0    0  502    0 -0.00000000000E+00  0.00000000000E+00  0.14094782358E+04  0.14094782358E+04  0.00000000000E+00 0.  1.
         21   -1    0    0  501  502  0.00000000000E+00 -0.00000000000E+00 -0.99910353989E+02  0.99910353989E+02  0.00000000000E+00 0.  1.
        -13    1    1    2    0    0  0.10344512945E+03  0.38303857995E+02 -0.56220760103E+02  0.12380979515E+03  0.10566000000E+00 0.  1.
         13    1    1    2    0    0  0.97283219906E+01  0.72478295239E+02  0.35441896262E+03  0.36188472716E+03  0.10566000000E+00 0. -1.
          4    1    1    2  501    0 -0.11317345144E+03 -0.11078215323E+03  0.10113696793E+04  0.10236940675E+04  0.00000000000E+00 0.  1.
</event>
<event>
 5    1  0.4881333E-005  0.3725345E+03  0.7818608E-02  0.9811901E-01
         21   -1    0    0  501  502  0.00000000000E+00  0.00000000000E+00  0.12478374130E+03  0.12478374130E+03  0.00000000000E+00 0. -1.
          4   -1    0    0  502    0 -0.00000000000E+00 -0.00000000000E+00 -0.19888759150E+04  0.19888759150E+04  0.00000000000E+00 0.  1.
        -13    1    1    2    0    0 -0.15270948065E+03 -0.33543011486E+03 -0.14359768274E+04  0.14825191423E+04  0.10566000000E+00 0.  1.
         13    1    1    2    0    0  0.16760979884E+03  0.34617027220E+03 -0.45675325717E+03  0.59711845652E+03  0.10566000000E+00 0. -1.
          4    1    1    2  501    0 -0.14900318189E+02 -0.10740157339E+02  0.28637910795E+02  0.34022057499E+02  0.00000000000E+00 0.  1.
</event>
<event>
 5    1  0.4881333E-005  0.2818603E+03  0.7818608E-02  0.1015087E+00
         -4   -1    0    0    0  501 -0.00000000000E+00  0.00000000000E+00  0.16699944360E+04  0.16699944360E+04  0.00000000000E+00 0. -1.
         21   -1    0    0  501  502  0.00000000000E+00 -0.00000000000E+00 -0.64791386416E+02  0.64791386416E+02  0.00000000000E+00 0. -1.
        -13    1    1    2    0    0 -0.27763171047E+03 -0.67963142273E+00  0.78629751363E+03  0.83387266394E+03  0.10566000000E+00 0.  1.
         13    1    1    2    0    0  0.28410635317E+03  0.50705152623E+02  0.79366733167E+03  0.84450889690E+03  0.10566000000E+00 0. -1.
         -4    1    1    2    0  502 -0.64746426977E+01 -0.50025521200E+02  0.25238204289E+02  0.56404261587E+02  0.00000000000E+00 0. -1.
</event>
<event>
 5    1  0.4881333E-005  0.4914506E+03  0.7818608E-02  0.9675705E-01
          4   -1    0    0  502    0 -0.00000000000E+00  0.00000000000E+00  0.16125411249E+04  0.16125411249E+04  0.00000000000E+00 0.  1.
         21   -1    0    0  501  502  0.00000000000E+00 -0.00000000000E+00 -0.36953701627E+03  0.36953701627E+03  0.00000000000E+00 0.  1.
        -13    1    1    2    0    0  0.24973012851E+03  0.41014846553E+03  0.13803029509E+03  0.49963914417E+03  0.10566000000E+00 0.  1.
         13    1    1    2    0    0  0.22042599684E+03 -0.13728484083E+03  0.83703632084E+03  0.87639292625E+03  0.10566000000E+00 0. -1.
          4    1    1    2  501    0 -0.47015612535E+03 -0.27286362470E+03  0.26793749270E+03  0.60604607076E+03  0.00000000000E+00 0.  1.
</event>
<event>
 5    1  0.4881333E-005  0.4684930E+03  0.7818608E-02  0.9734535E-01
         21   -1    0    0  501  502  0.00000000000E+00  0.00000000000E+00  0.16476799159E+04  0.16476799159E+04  0.00000000000E+00 0. -1.
         -4   -1    0    0    0  501 -0.00000000000E+00 -0.00000000000E+00 -0.40753049251E+03  0.40753049251E+03  0.00000000000E+00 0. -1.
        -13    1    1    2    0    0 -0.11148036035E+03 -0.21735407511E+03 -0.17858586100E+03  0.30259475478E+03  0.10566000000E+00 0.  1.
         13    1    1    2    0    0  0.38901581187E+03  0.49435205519E+03  0.76646892518E+03  0.99156032635E+03  0.10566000000E+00 0. -1.
         -4    1    1    2    0  502 -0.27753545152E+03 -0.27699798008E+03  0.65226635922E+03  0.76105532729E+03  0.00000000000E+00 0. -1.
</event>
<event>
 5    1  0.4881333E-005  0.4291864E+03  0.7818608E-02  0.9924578E-01
         -4   -1    0    0    0  501 -0.00000000000E+00  0.00000000000E+00  0.10700848952E+04  0.10700848952E+04  0.00000000000E+00 0. -1.
         21   -1    0    0  501  502  0.00000000000E+00 -0.00000000000E+00 -0.42601970910E+03  0.42601970910E+03  0.00000000000E+00 0. -1.
        -13    1    1    2    0    0 -0.11034669309E+03  0.12495972884E+03  0.43495182656E+03  0.46580514070E+03  0.10566000000E+00 0.  1.
         13    1    1    2    0    0 -0.23690567299E+03 -0.38010672614E+03  0.35905824404E+03  0.57404551642E+03  0.10566000000E+00 0. -1.
         -4    1    1    2    0  502  0.34725236608E+03  0.25514699730E+03 -0.14994488446E+03  0.45625394722E+03  0.00000000000E+00 0. -1.
</event>
<event>
 5    1  0.4881333E-005  0.1641933E+02  0.7818608E-02  0.1573081E+00
         21   -1    0    0  501  502  0.00000000000E+00  0.00000000000E+00  0.94091765800E+01  0.94091765800E+01  0.00000000000E+00 0.  1.
          4   -1    0    0  502    0 -0.00000000000E+00 -0.00000000000E+00 -0.15778682737E+03  0.15778682737E+03  0.00000000000E+00 0.  1.
        -13    1    1    2    0    0  0.21942097498E+02 -0.14907281456E+02 -0.12607220618E+03  0.12883281810E+03  0.10566000000E+00 0.  1.
         13    1    1    2    0    0 -0.15081791895E+02  0.78789677334E+00 -0.14047436101E+02  0.20625781273E+02  0.10566000000E+00 0. -1.
          4    1    1    2  501    0 -0.68603056034E+01  0.14119384682E+02 -0.82580085087E+01  0.17737404582E+02  0.00000000000E+00 0.  1.
</event>
<event>
 5    1  0.4881333E-005  0.4420611E+03  0.7818608E-02  0.9614893E-01
          4   -1    0    0  502    0 -0.00000000000E+00  0.00000000000E+00  0.26047338755E+04  0.26047338755E+04  0.00000000000E+00 0.  1.
         21   -1    0    0  501  502  0.00000000000E+00 -0.00000000000E+00 -0.17603560156E+03  0.17603560156E+03  0.00000000000E+00 0. -1.
        -13    1    1    2    0    0 -0.44692228330E+03 -0.51015062809E+02  0.18364372231E+04  0.18907257203E+04  0.10566000000E+00 0.  1.
         13    1    1    2    0    0  0.42029818546E+03  0.61315454696E+02  0.67778752967E+03  0.79987880096E+03  0.10566000000E+00 0. -1.
          4    1    1    2  501    0  0.26624097839E+02 -0.10300391887E+02 -0.85526478859E+02  0.90164955747E+02  0.00000000000E+00 0.  1.
</event>
<event>
 5    1  0.4881333E-005  0.1613597E+03  0.7818608E-02  0.1098672E+00
         21   -1    0    0  501  502  0.00000000000E+00  0.00000000000E+00  0.83719765411E+02  0.83719765411E+02  0.00000000000E+00 0. -1.
         -4   -1    0    0    0  501 -0.00000000000E+00 -0.00000000000E+00 -0.12778357927E+04  0.12778357927E+04  0.00000000000E+00 0. -1.
        -13    1    1    2    0    0  0.66089140318E+02 -0.11047495658E+03 -0.41782945983E+03  0.43721157254E+03  0.10566000000E+00 0.  1.
         13    1    1    2    0    0 -0.13525348118E+03  0.23797798147E+03 -0.71730146860E+03  0.76775545056E+03  0.10566000000E+00 0. -1.
         -4    1    1    2    0  502  0.69164340860E+02 -0.12750302489E+03 -0.58985098824E+02  0.15658853498E+03  0.00000000000E+00 0. -1.
</event>
<event>
 5    1  0.4881333E-005  0.5485927E+02  0.7818608E-02  0.1273176E+00
          4   -1    0    0  502    0 -0.00000000000E+00  0.00000000000E+00  0.15243180087E+03  0.15243180087E+03  0.00000000000E+00 0.  1.
         21   -1    0    0  501  502  0.00000000000E+00 -0.00000000000E+00 -0.24019498611E+03  0.24019498611E+03  0.00000000000E+00 0.  1.
        -13    1    1    2    0    0  0.52258647995E+02  0.15422279059E+02  0.13148924104E+03  0.14233146052E+03  0.10566000000E+00 0.  1.
         13    1    1    2    0    0 -0.63931073351E+02  0.69695716451E+01 -0.56525064485E+02  0.85620389790E+02  0.10566000000E+00 0. -1.
          4    1    1    2  501    0  0.11672425356E+02 -0.22391850704E+02 -0.16272736179E+03  0.16467493667E+03  0.00000000000E+00 0.  1.
</event>
<event>
 5    1  0.4881333E-005  0.3576439E+03  0.7818608E-02  0.9860043E-01
         21   -1    0    0  501  502  0.00000000000E+00  0.00000000000E+00  0.35311939747E+03  0.35311939747E+03  0.00000000000E+00 0. -1.
         -4   -1    0    0    0  501 -0.00000000000E+00 -0.00000000000E+00 -0.14061099111E+04  0.14061099111E+04  0.00000000000E+00 0. -1.
        -13    1    1    2    0    0 -0.27566922622E+02  0.31428867092E+03 -0.45842651114E+03  0.55649993816E+03  0.10566000000E+00 0.  1.
         13    1    1    2    0    0  0.79968323858E+02 -0.38857315792E+03 -0.84652326700E+03  0.93487201510E+03  0.10566000000E+00 0. -1.
         -4    1    1    2    0  502 -0.52401401236E+02  0.74284487003E+02  0.25195926448E+03  0.26785735535E+03  0.00000000000E+00 0. -1.
</event>
<event>
 5    1  0.4881333E-005  0.3293909E+03  0.7818608E-02  0.9958625E-01
         21   -1    0    0  501  502  0.00000000000E+00  0.00000000000E+00  0.50915763727E+03  0.50915763727E+03  0.00000000000E+00 0. -1.
         -4   -1    0    0    0  501 -0.00000000000E+00 -0.00000000000E+00 -0.10360720673E+04  0.10360720673E+04  0.00000000000E+00 0. -1.
        -13    1    1    2    0    0  0.16990308245E+03  0.25531568931E+03 -0.37855858085E+03  0.48719582197E+03  0.10566000000E+00 0.  1.
         13    1    1    2    0    0 -0.16000153625E+03 -0.49680296493E+03  0.26031189699E+03  0.58324606509E+03  0.10566000000E+00 0. -1.
         -4    1    1    2    0  502 -0.99015462017E+01  0.24148727561E+03 -0.40866774612E+03  0.47478781747E+03  0.00000000000E+00 0. -1.
</event>
<event>
 5    1  0.4881333E-005  0.1631010E+03  0.7818608E-02  0.1088864E+00
         21   -1    0    0  501  502  0.00000000000E+00  0.00000000000E+00  0.18167483888E+03  0.18167483888E+03  0.00000000000E+00 0.  1.
         -4   -1    0    0    0  501 -0.00000000000E+00 -0.00000000000E+00 -0.54977481240E+03  0.54977481240E+03  0.00000000000E+00 0. -1.
        -13    1    1    2    0    0  0.15289564149E+03  0.58412753732E+01 -0.23171782155E+03  0.27767671432E+03  0.10566000000E+00 0.  1.
         13    1    1    2    0    0 -0.17318943168E+03 -0.25725635187E+02 -0.26744764252E+03  0.31966332321E+03  0.10566000000E+00 0. -1.
         -4    1    1    2    0  502  0.20293790191E+02  0.19884359814E+02  0.13106549056E+03  0.13410961375E+03  0.00000000000E+00 0. -1.
</event>
<event>
 5    1  0.4881333E-005  0.4609375E+03  0.7818608E-02  0.9567961E-01
         21   -1    0    0  501  502  0.00000000000E+00  0.00000000000E+00  0.22486833600E+03  0.22486833600E+03  0.00000000000E+00 0. -1.
          4   -1    0    0  502    0 -0.00000000000E+00 -0.00000000000E+00 -0.10894869796E+04  0.10894869796E+04  0.00000000000E+00 0.  1.
        -13    1    1    2    0    0 -0.37616413650E+03  0.26756418405E+03 -0.60126335522E+03  0.75802881454E+03  0.10566000000E+00 0.  1.
         13    1    1    2    0    0  0.36322105784E+03 -0.28235990845E+03 -0.27243261174E+03  0.53467391358E+03  0.10566000000E+00 0. -1.
          4    1    1    2  501    0  0.12943078651E+02  0.14795724395E+02  0.90773233571E+01  0.21652587482E+02  0.00000000000E+00 0.  1.
</event>
<event>
 5    1  0.4881333E-005  0.4126083E+02  0.7818608E-02  0.1332127E+00
          4   -1    0    0  502    0 -0.00000000000E+00  0.00000000000E+00  0.10622036644E+03  0.10622036644E+03  0.00000000000E+00 0.  1.
         21   -1    0    0  501  502  0.00000000000E+00 -0.00000000000E+00 -0.33784894673E+02  0.33784894673E+02  0.00000000000E+00 0. -1.
        -13    1    1    2    0    0  0.39428738496E+00  0.42610487662E+02  0.73083526805E+02  0.84599185431E+02  0.10566000000E+00 0.  1.
         13    1    1    2    0    0  0.14642071591E+02 -0.35984709180E+02 -0.21289772239E+01  0.38908010271E+02  0.10566000000E+00 0. -1.
          4    1    1    2  501    0 -0.15036358976E+02 -0.66257784822E+01  0.14809221853E+01  0.16498065410E+02  0.00000000000E+00 0.  1.
</event>
<event>
 5    1  0.4881333E-005  0.4265293E+02  0.7818608E-02  0.1324982E+00
         21   -1    0    0  501  502  0.00000000000E+00  0.00000000000E+00  0.50899492239E+03  0.50899492239E+03  0.00000000000E+00 0. -1.
         -4   -1    0    0    0  501 -0.00000000000E+00 -0.00000000000E+00 -0.26962932558E+02  0.26962932558E+02  0.00000000000E+00 0. -1.
        -13    1    1    2    0    0 -0.36147242256E+02  0.40195000274E+02  0.15694487709E+03  0.16599387572E+03  0.10566000000E+00 0.  1.
         13    1    1    2    0    0  0.33932521903E+02 -0.23775533786E+02 -0.29226262897E+01  0.41536068157E+02  0.10566000000E+00 0. -1.
         -4    1    1    2    0  502  0.22147203524E+01 -0.16419466489E+02  0.32800973904E+03  0.32842791107E+03  0.00000000000E+00 0. -1.
</event>
<event>
 5    1  0.4881333E-005  0.4645771E+03  0.7818608E-02  0.9822351E-01
         21   -1    0    0  501  502  0.00000000000E+00  0.00000000000E+00  0.48372154371E+03  0.48372154371E+03  0.00000000000E+00 0. -1.
         -4   -1    0    0    0  501 -0.00000000000E+00 -0.00000000000E+00 -0.10272138659E+04  0.10272138659E+04  0.00000000000E+00 0. -1.
        -13    1    1    2    0    0 -0.13810101851E+03 -0.12366074391E+03 -0.49962822557E+03  0.53290922853E+03  0.10566000000E+00 0.  1.
         13    1    1    2    0    0 -0.10505038277E+03  0.48372325132E+03  0.12721291312E+03  0.51108404712E+03  0.10566000000E+00 0. -1.
         -4    1    1    2    0  502  0.24315140128E+03 -0.36006250741E+03 -0.17107700970E+03  0.46694213393E+03  0.00000000000E+00 0. -1.
</event>
<event>
 5    1  0.4881333E-005  0.4355265E+03  0.7818608E-02  0.9929071E-01
          4   -1    0    0  502    0 -0.00000000000E+00  0.00000000000E+00  0.77196737600E+03  0.77196737600E+03  0.00000000000E+00 0.  1.
         21   -1    0    0  501  502  0.00000000000E+00 -0.00000000000E+00 -0.54062954701E+03  0.54062954701E+03  0.00000000000E+00 0.  1.
        -13    1    1    2    0    0 -0.25350998075E+03 -0.37354199752E+03 -0.25595765984E+03  0.51895594133E+03  0.10566000000E+00 0.  1.
         13    1    1    2    0    0  0.15429840434E+03 -0.29883328215E+02  0.29841895288E+03  0.33727569360E+03  0.10566000000E+00 0. -1.
          4    1    1    2  501    0  0.99211576407E+02  0.40342532574E+03  0.18887653594E+03  0.45636528808E+03  0.00000000000E+00 0.  1.
</event>
<event>
 5    1  0.4881333E-005  0.4486475E+03  0.7818608E-02  0.1006075E+00
         21   -1    0    0  501  502  0.00000000000E+00  0.00000000000E+00  0.73333215383E+03  0.73333215383E+03  0.00000000000E+00 0.  1.
          4   -1    0    0  502    0 -0.00000000000E+00 -0.00000000000E+00 -0.38487811659E+03  0.38487811659E+03  0.00000000000E+00 0.  1.
        -13    1    1    2    0    0  0.20444678511E+03  0.45443362952E+03  0.26338233871E+02  0.49900112756E+03  0.10566000000E+00 0.  1.
         13    1    1    2    0    0  0.19731688292E+02 -0.91227696187E+02  0.17818786492E+02  0.95022904557E+02  0.10566000000E+00 0. -1.
          4    1    1    2  501    0 -0.22417847340E+03 -0.36320593333E+03  0.30429701689E+03  0.52418623830E+03  0.00000000000E+00 0.  1.
</event>
<event>
 5    1  0.4881333E-005  0.5173525E+03  0.7818608E-02  0.9440729E-01
         -4   -1    0    0    0  501 -0.00000000000E+00  0.00000000000E+00  0.95454753382E+03  0.95454753382E+03  0.00000000000E+00 0. -1.
         21   -1    0    0  501  502  0.00000000000E+00 -0.00000000000E+00 -0.10329084447E+04  0.10329084447E+04  0.00000000000E+00 0. -1.
        -13    1    1    2    0    0 -0.11616401255E+03  0.49578176841E+03  0.56062474601E+03  0.75735972741E+03  0.10566000000E+00 0.  1.
         13    1    1    2    0    0  0.83657083550E+02 -0.53224981599E+03  0.48421189479E+02  0.54095563312E+03  0.10566000000E+00 0. -1.
         -4    1    1    2    0  502  0.32506929004E+02  0.36468047574E+02 -0.68740684638E+03  0.68914061800E+03  0.00000000000E+00 0. -1.
</event>
<event>
 5    1  0.4881333E-005  0.9947336E+02  0.7818608E-02  0.1165430E+00
          4   -1    0    0  502    0 -0.00000000000E+00  0.00000000000E+00  0.91422765923E+02  0.91422765923E+02  0.00000000000E+00 0.  1.
         21   -1    0    0  501  502  0.00000000000E+00 -0.00000000000E+00 -0.35395773405E+03  0.35395773405E+03  0.00000000000E+00 0. -1.
        -13    1    1    2    0    0 -0.26219541726E+02 -0.95131221199E+02  0.49024025408E+02  0.11018520702E+03  0.10566000000E+00 0.  1.
         13    1    1    2    0    0  0.19960345300E+02  0.10591772021E+03 -0.29739313695E+03  0.31632209519E+03  0.10566000000E+00 0. -1.
          4    1    1    2  501    0  0.62591964257E+01 -0.10786499011E+02 -0.14165856590E+02  0.18873197762E+02  0.00000000000E+00 0.  1.
</event>
<event>
 5    1  0.4881333E-005  0.4298948E+03  0.7818608E-02  0.1010727E+00
         -4   -1    0    0    0  501 -0.00000000000E+00  0.00000000000E+00  0.54704096708E+03  0.54704096708E+03  0.00000000000E+00 0. -1.
         21   -1    0    0  501  502  0.00000000000E+00 -0.00000000000E+00 -0.72721875856E+03  0.72721875856E+03  0.00000000000E+00 0. -1.
        -13    1    1    2    0    0  0.93291342024E+01 -0.90841918009E+02  0.17416534202E+03  0.19665417448E+03  0.10566000000E+00 0.  1.
         13    1    1    2    0    0  0.19166365495E+03 -0.36233564870E+03 -0.40875244830E+03  0.57887879051E+03  0.10566000000E+00 0. -1.
         -4    1    1    2    0  502 -0.20099278915E+03  0.45317756671E+03  0.54409314794E+02  0.49872676066E+03  0.00000000000E+00 0. -1.
</event>
<event>
 5    1  0.4881333E-005  0.5025063E+03  0.7818608E-02  0.9631274E-01
         -4   -1    0    0    0  501 -0.00000000000E+00  0.00000000000E+00  0.20451464432E+04  0.20451464432E+04  0.00000000000E+00 0. -1.
         21   -1    0    0  501  502  0.00000000000E+00 -0.00000000000E+00 -0.23832146530E+03  0.23832146530E+03  0.00000000000E+00 0. -1.
        -13    1    1    2    0    0  0.71908953010E+02 -0.27474711383E+03  0.71226295282E+03  0.76679553937E+03  0.10566000000E+00 0.  1.
         13    1    1    2    0    0  0.47204771944E+02 -0.37341913963E+03  0.52277646867E+03  0.64417807452E+03  0.10566000000E+00 0. -1.
         -4    1    1    2    0  502 -0.11911372495E+03  0.64816625346E+03  0.57178555641E+03  0.87249429460E+03  0.00000000000E+00 0. -1.
</event>
<event>
 5    1  0.4881333E-005  0.3095725E+03  0.7818608E-02  0.1003430E+00
          4   -1    0    0  502    0 -0.00000000000E+00  0.00000000000E+00  0.58057547495E+03  0.58057547495E+03  0.00000000000E+00 0.  1.
         21   -1    0    0  501  502  0.00000000000E+00 -0.00000000000E+00 -0.60192190690E+03  0.60192190690E+03  0.00000000000E+00 0.  1.
        -13    1    1    2    0    0  0.49981063052E+02  0.30748231934E+03  0.47363499414E+03  0.56689822914E+03  0.10566000000E+00 0.  1.
         13    1    1    2    0    0 -0.37888244076E+02 -0.29212872395E+03 -0.30287834642E+03  0.42250445476E+03  0.10566000000E+00 0. -1.
          4    1    1    2  501    0 -0.12092818976E+02 -0.15353595383E+02 -0.19210307967E+03  0.19309469796E+03  0.00000000000E+00 0.  1.
</event>
<event>
 5    1  0.4881333E-005  0.4483738E+03  0.7818608E-02  0.9658279E-01
          4   -1    0    0  502    0 -0.00000000000E+00  0.00000000000E+00  0.11077211442E+04  0.11077211442E+04  0.00000000000E+00 0.  1.
         21   -1    0    0  501  502  0.00000000000E+00 -0.00000000000E+00 -0.45952855586E+03  0.45952855586E+03  0.00000000000E+00 0.  1.
        -13    1    1    2    0    0  0.30836059667E+03 -0.35573151816E+03 -0.13962815240E+02  0.47098422687E+03  0.10566000000E+00 0.  1.
         13    1    1    2    0    0  0.18298224422E+03  0.31408203016E+03  0.17621604065E+03  0.40395807643E+03  0.10566000000E+00 0. -1.
          4    1    1    2  501    0 -0.49134284089E+03  0.41649488002E+02  0.48593936289E+03  0.69230739672E+03  0.00000000000E+00 0.  1.
</event>
<event>
 5    1  0.4881333E-005  0.1767523E+03  0.7818608E-02  0.1077359E+00
         21   -1    0    0  501  502  0.00000000000E+00  0.00000000000E+00  0.26604342733E+03  0.26604342733E+03  0.00000000000E+00 0. -1.
          4   -1    0    0  502    0 -0.00000000000E+00 -0.00000000000E+00 -0.28740393166E+03  0.28740393166E+03  0.00000000000E+00 0.  1.
        -13    1    1    2    0    0  0.15922203476E+03  0.83996420962E+02 -0.21173806820E+03  0.27792098837E+03  0.10566000000E+00 0.  1.
         13    1    1    2    0    0 -0.14320293526E+03 -0.74137582143E+02  0.11557783107E+03  0.19839785269E+03  0.10566000000E+00 0. -1.
          4    1    1    2  501    0 -0.16019099498E+02 -0.98588388190E+01  0.74799732802E+02  0.77128517935E+02  0.00000000000E+00 0.  1.
</event>
<event>
 5    1  0.4881333E-005  0.4681311E+03  0.7818608E-02  0.9715133E-01
         -4   -1    0    0    0  501 -0.00000000000E+00  0.00000000000E+00  0.19252380340E+04  0.19252380340E+04  0.00000000000E+00 0. -1.
         21   -1    0    0  501  502  0.00000000000E+00 -0.00000000000E+00 -0.25288084411E+03  0.25288084411E+03  0.00000000000E+00 0.  1.
        -13    1    1    2    0    0  0.63276810209E+02  0.25411150524E+03  0.78129722111E+03  0.82401575876E+03  0.10566000000E+00 0.  1.
         13    1    1    2    0    0  0.38984210656E+03 -0.34857600707E+03  0.64348736342E+03  0.82919123174E+03  0.10566000000E+00 0. -1.
         -4    1    1    2    0  502 -0.45311891677E+03  0.94464501833E+02  0.24757260538E+03  0.52491188763E+03  0.00000000000E+00 0. -1.
</event>
<event>
 5    1  0.4881333E-005  0.4893396E+03  0.7818608E-02  0.9966440E-01
         21   -1    0    0  501  502  0.00000000000E+00  0.00000000000E+00  0.32483784813E+03  0.32483784813E+03  0.00000000000E+00 0.  1.
          4   -1    0    0  502    0 -0.00000000000E+00 -0.00000000000E+00 -0.94117625363E+03  0.94117625363E+03  0.00000000000E+00 0.  1.
        -13    1    1    2    0    0 -0.31340673751E+03 -0.33787017162E+03 -0.39483325603E+03  0.60685529347E+03  0.10566000000E+00 0.  1.
         13    1    1    2    0    0  0.35668115731E+02 -0.91176627251E+02 -0.86225997704E+02  0.13046197025E+03  0.10566000000E+00 0. -1.
          4    1    1    2  501    0  0.27773862178E+03  0.42904679887E+03 -0.13527915177E+03  0.52869683804E+03  0.00000000000E+00 0.  1.
</event>
<event>
 5    1  0.4881333E-005  0.1038736E+03  0.7818608E-02  0.1158301E+00
          4   -1    0    0  502    0 -0.00000000000E+00  0.00000000000E+00  0.58490208898E+02  0.58490208898E+02  0.00000000000E+00 0.  1.
         21   -1    0    0  501  502  0.00000000000E+00 -0.00000000000E+00 -0.58340014478E+03  0.58340014478E+03  0.00000000000E+00 0. -1.
        -13    1    1    2    0    0  0.62263706630E+02  0.84099074528E+02  0.75434443810E+00  0.10464226536E+03  0.10566000000E+00 0.  1.
         13    1    1    2    0    0 -0.48832109382E+02 -0.84340943695E+02 -0.46799082375E+03  0.47803074375E+03  0.10566000000E+00 0. -1.
          4    1    1    2  501    0 -0.13431597249E+02  0.24186916673E+00 -0.57673456563E+02  0.59217344564E+02  0.00000000000E+00 0.  1.
</event>
<event>
 5    1  0.5285547E-005  0.2749417E+03  0.7818608E-02  0.1020180E+00
         -4   -1    0    0    0  501 -0.00000000000E+00  0.00000000000E+00  0.67609907760E+03  0.67609907760E+03  0.00000000000E+00 0. -1.
         21   -1    0    0  501  502  0.00000000000E+00 -0.00000000000E+00 -0.72812070839E+03  0.72812070839E+03  0.00000000000E+00 0. -1.
        -13    1    1    2    0    0  0.25231540189E+03  0.55981459242E+02  0.22074198714E+03  0.33988824907E+03  0.10566000000E+00 0.  1.
         13    1    1    2    0    0 -0.50316568271E+02  0.15561472431E+03  0.34444842337E+03  0.38130358901E+03  0.10566000000E+00 0. -1.
         -4    1    1    2    0  502 -0.20199883361E+03 -0.21159618355E+03 -0.61721204131E+03  0.68302794790E+03  0.00000000000E+00 0. -1.
</event>
<event>
 5    1  0.4881333E-005  0.3332097E+03  0.7818608E-02  0.9944696E-01
         21   -1    0    0  501  502  0.00000000000E+00  0.00000000000E+00  0.42327100374E+03  0.42327100374E+03  0.00000000000E+00 0. -1.
          4   -1    0    0  502    0 -0.00000000000E+00 -0.00000000000E+00 -0.30243043652E+03  0.30243043652E+03  0.00000000000E+00 0.  1.
        -13    1    1    2    0    0 -0.17845916896E+03 -0.29976524546E+03  0.13033165159E+03  0.37241539703E+03  0.10566000000E+00 0.  1.
         13    1    1    2    0    0  0.15472520174E+03  0.28381225144E+03 -0.30009726984E+00  0.32324817608E+03  0.10566000000E+00 0. -1.
          4    1    1    2  501    0  0.23733967224E+02  0.15952994025E+02 -0.91909870977E+01  0.30037867141E+02  0.00000000000E+00 0.  1.
</event>
<event>
 5    1  0.4881333E-005  0.3971915E+03  0.7818608E-02  0.1006749E+00
          4   -1    0    0  502    0 -0.00000000000E+00  0.00000000000E+00  0.36598797519E+03  0.36598797519E+03  0.00000000000E+00 0.  1.
         21   -1    0    0  501  502  0.00000000000E+00 -0.00000000000E+00 -0.97323207945E+03  0.97323207945E+03  0.00000000000E+00 0.  1.
        -13    1    1    2    0    0  0.32568488823E+03 -0.29673838060E+02  0.88273901103E+02  0.33873806380E+03  0.10566000000E+00 0.  1.
         13    1    1    2    0    0  0.85680389989E+02  0.99901872859E+02  0.54286523782E+02  0.14236766226E+03  0.10566000000E+00 0. -1.
          4    1    1    2  501    0 -0.41136527822E+03 -0.70228034800E+02 -0.74980452914E+03  0.85811432858E+03  0.00000000000E+00 0.  1.
</event>
<event>
 5    1  0.4881333E-005  0.2228241E+03  0.7818608E-02  0.1045523E+00
          4   -1    0    0  502    0 -0.00000000000E+00  0.00000000000E+00  0.15519745619E+04  0.15519745619E+04  0.00000000000E+00 0.  1.
         21   -1    0    0  501  502  0.00000000000E+00 -0.00000000000E+00 -0.23433910408E+03  0.23433910408E+03  0.00000000000E+00 0.  1.
        -13    1    1    2    0    0  0.25071624795E+03  0.78679057588E+02  0.11730555541E+04  0.12021266053E+04  0.10566000000E+00 0.  1.
         13    1    1    2    0    0 -0.14159410718E+03 -0.94876860069E+02  0.32829028005E+03  0.36989867384E+03  0.10566000000E+00 0. -1.
          4    1    1    2  501    0 -0.10912214076E+03  0.16197802481E+02 -0.18371037625E+03  0.21428838688E+03  0.00000000000E+00 0.  1.
</event>
<event>
 5    1  0.4881333E-005  0.3058366E+03  0.7818608E-02  0.1044614E+00
         21   -1    0    0  501  502  0.00000000000E+00  0.00000000000E+00  0.14228320060E+03  0.14228320060E+03  0.00000000000E+00 0. -1.
         -4   -1    0    0    0  501 -0.00000000000E+00 -0.00000000000E+00 -0.21287713357E+04  0.21287713357E+04  0.00000000000E+00 0. -1.
        -13    1    1    2    0    0 -0.87344133601E+02  0.14622817879E+02 -0.29447819105E+03  0.30750648879E+03  0.10566000000E+00 0.  1.
         13    1    1    2    0    0  0.61426115428E+02 -0.31845254502E+03 -0.16174317464E+04  0.16496274296E+04  0.10566000000E+00 0. -1.
         -4    1    1    2    0  502  0.25918018172E+02  0.30382972715E+03 -0.74578197624E+02  0.31392061787E+03  0.00000000000E+00 0. -1.
</event>
<event>
 5    1  0.4881333E-005  0.4654388E+03  0.7818608E-02  0.1000101E+00
         21   -1    0    0  501  502  0.00000000000E+00  0.00000000000E+00  0.11004446502E+04  0.11004446502E+04  0.00000000000E+00 0.  1.
          4   -1    0    0  502    0 -0.00000000000E+00 -0.00000000000E+00 -0.40309265727E+03  0.40309265727E+03  0.00000000000E+00 0.  1.
        -13    1    1    2    0    0  0.11928437970E+02 -0.39746632467E+03  0.10597823567E+03  0.41152541171E+03  0.10566000000E+00 0.  1.
         13    1    1    2    0    0  0.12456092669E+02 -0.10078427389E+03 -0.16036519913E+03  0.18981473169E+03  0.10566000000E+00 0. -1.
          4    1    1    2  501    0 -0.24384530639E+02  0.49825059856E+03  0.75173895637E+03  0.90219716406E+03  0.00000000000E+00 0.  1.
</event>
<event>
 5    1  0.4881333E-005  0.4401417E+03  0.7818608E-02  0.1030635E+00
         21   -1    0    0  501  502  0.00000000000E+00  0.00000000000E+00  0.53306827236E+03  0.53306827236E+03  0.00000000000E+00 0. -1.
         -4   -1    0    0    0  501 -0.00000000000E+00 -0.00000000000E+00 -0.53572131648E+03  0.53572131648E+03  0.00000000000E+00 0. -1.
        -13    1    1    2    0    0 -0.45445812734E+02  0.15072957547E+01  0.74545719633E+02  0.87319352467E+02  0.10566000000E+00 0.  1.
         13    1    1    2    0    0  0.39408618578E+03  0.25001616389E+03 -0.23624783882E+03  0.52309182420E+03  0.10566000000E+00 0. -1.
         -4    1    1    2    0  502 -0.34864037305E+03 -0.25152345965E+03  0.15904907507E+03  0.45837841218E+03  0.00000000000E+00 0. -1.
</event>
<event>
 5    1  0.4881333E-005  0.3730451E+03  0.7818608E-02  0.9810292E-01
          4   -1    0    0  502    0 -0.00000000000E+00  0.00000000000E+00  0.57492614582E+03  0.57492614582E+03  0.00000000000E+00 0.  1.
         21   -1    0    0  501  502  0.00000000000E+00 -0.00000000000E+00 -0.15013801911E+04  0.15013801911E+04  0.00000000000E+00 0.  1.
        -13    1    1    2    0    0 -0.10355457074E+03  0.54980738841E+03 -0.29006348011E+03  0.63019722875E+03  0.10566000000E+00 0.  1.
         13    1    1    2    0    0  0.24291782537E+03 -0.25527664130E+03  0.29487532073E+03  0.45948525484E+03  0.10566000000E+00 0. -1.
          4    1    1    2  501    0 -0.13936325463E+03 -0.29453074711E+03 -0.93126588590E+03  0.98662385334E+03  0.00000000000E+00 0.  1.
</event>
<event>
 5    1  0.4881333E-005  0.4825455E+03  0.7818608E-02  0.1022719E+00
         21   -1    0    0  501  502  0.00000000000E+00  0.00000000000E+00  0.15307321684E+03  0.15307321684E+03  0.00000000000E+00 0.  1.
          4   -1    0    0  502    0 -0.00000000000E+00 -0.00000000000E+00 -0.21510665915E+04  0.21510665915E+04  0.00000000000E+00 0.  1.
        -13    1    1    2    0    0  0.23843118578E+03  0.40508262346E+03 -0.14444733074E+04  0.15190274879E+04  0.10566000000E+00 0.  1.
         13    1    1    2    0    0  0.43508747625E+02 -0.74362699947E+01 -0.13701672147E+03  0.14395104153E+03  0.10566000000E+00 0. -1.
          4    1    1    2  501    0 -0.28193993341E+03 -0.39764635346E+03 -0.41650334581E+03  0.64116127888E+03  0.00000000000E+00 0.  1.
</event>
<event>
 5    1  0.4881333E-005  0.4915474E+03  0.7818608E-02  0.9696013E-01
          4   -1    0    0  502    0 -0.00000000000E+00  0.00000000000E+00  0.22086578352E+04  0.22086578352E+04  0.00000000000E+00 0.  1.
         21   -1    0    0  501  502  0.00000000000E+00 -0.00000000000E+00 -0.24700436949E+03  0.24700436949E+03  0.00000000000E+00 0.  1.
        -13    1    1    2    0    0  0.24464647624E+03  0.53923758329E+03  0.29881797126E+03  0.66326560342E+03  0.10566000000E+00 0.  1.
         13    1    1    2    0    0 -0.45441404431E+02 -0.23744945368E+03  0.10781745978E+04  0.11049468941E+04  0.10566000000E+00 0. -1.
          4    1    1    2  501    0 -0.19920507181E+03 -0.30178812961E+03  0.58466089665E+03  0.68744970717E+03  0.00000000000E+00 0.  1.
</event>
<event>
 5    1  0.4881333E-005  0.4459915E+03  0.7818608E-02  0.1076112E+00
         21   -1    0    0  501  502  0.00000000000E+00  0.00000000000E+00  0.18981679325E+03  0.18981679325E+03  0.00000000000E+00 0.  1.
          4   -1    0    0  502    0 -0.00000000000E+00 -0.00000000000E+00 -0.13027956884E+04  0.13027956884E+04  0.00000000000E+00 0.  1.
        -13    1    1    2    0    0  0.42175347617E+03 -0.13087580796E+03 -0.84031295145E+03  0.94927885224E+03  0.10566000000E+00 0.  1.
         13    1    1    2    0    0  0.87245059523E+01  0.73319166940E+01 -0.33988527149E+02  0.35848363258E+02  0.10566000000E+00 0. -1.
          4    1    1    2  501    0 -0.43047798213E+03  0.12354389127E+03 -0.23867741651E+03  0.50748526611E+03  0.00000000000E+00 0.  1.
</event>
<event>
 5    1  0.4881333E-005  0.2976634E+03  0.7818608E-02  0.1008275E+00
          4   -1    0    0  502    0 -0.00000000000E+00  0.00000000000E+00  0.11289734437E+04  0.11289734437E+04  0.00000000000E+00 0.  1.
         21   -1    0    0  501  502  0.00000000000E+00 -0.00000000000E+00 -0.22732701972E+03  0.22732701972E+03  0.00000000000E+00 0.  1.
        -13    1    1    2    0    0 -0.19414949465E+03 -0.22324892332E+03  0.70762587564E+03  0.76698663553E+03  0.10566000000E+00 0.  1.
         13    1    1    2    0    0  0.20968478433E+03  0.21660438058E+03  0.33306817776E+03  0.44924335128E+03  0.10566000000E+00 0. -1.
          4    1    1    2  501    0 -0.15535289676E+02  0.66445427343E+01 -0.13904762942E+03  0.14007047662E+03  0.00000000000E+00 0.  1.
</event>
<event>
 5    1  0.4881333E-005  0.5604093E+03  0.7818608E-02  0.9420294E-01
         21   -1    0    0  501  502  0.00000000000E+00  0.00000000000E+00  0.12482646546E+04  0.12482646546E+04  0.00000000000E+00 0. -1.
          4   -1    0    0  502    0 -0.00000000000E+00 -0.00000000000E+00 -0.66009296807E+03  0.66009296807E+03  0.00000000000E+00 0.  1.
        -13    1    1    2    0    0  0.74828352986E+02 -0.50255290152E+03  0.14599190181E+03  0.52865144263E+03  0.10566000000E+00 0.  1.
         13    1    1    2    0    0  0.55984204693E+03  0.29597723892E+03  0.14812793284E+03  0.65035954604E+03  0.10566000000E+00 0. -1.
          4    1    1    2  501    0 -0.63467039992E+03  0.20657566260E+03  0.29405185188E+03  0.72934663399E+03  0.00000000000E+00 0.  1.
</event>
<event>
 5    1  0.4881333E-005  0.7665025E+03  0.7818608E-02  0.9031713E-01
          4   -1    0    0  502    0 -0.00000000000E+00  0.00000000000E+00  0.22286758170E+04  0.22286758170E+04  0.00000000000E+00 0.  1.
         21   -1    0    0  501  502  0.00000000000E+00 -0.00000000000E+00 -0.83220160857E+03  0.83220160857E+03  0.00000000000E+00 0. -1.
        -13    1    1    2    0    0  0.23135299580E+03  0.59762471372E+03  0.90174155870E+03  0.11062627884E+04  0.10566000000E+00 0.  1.
         13    1    1    2    0    0 -0.32531563451E+03 -0.10849009922E+04  0.78652258454E+03  0.13789337229E+04  0.10566000000E+00 0. -1.
          4    1    1    2  501    0  0.93962638705E+02  0.48727627846E+03 -0.29178993483E+03  0.57568091430E+03  0.00000000000E+00 0.  1.
</event>
<event>
 5    1  0.4881333E-005  0.3375300E+03  0.7818608E-02  0.9929176E-01
         -4   -1    0    0    0  501 -0.00000000000E+00  0.00000000000E+00  0.63831216085E+03  0.63831216085E+03  0.00000000000E+00 0. -1.
         21   -1    0    0  501  502  0.00000000000E+00 -0.00000000000E+00 -0.78319416322E+03  0.78319416322E+03  0.00000000000E+00 0. -1.
        -13    1    1    2    0    0 -0.30071591811E+03  0.81699185858E+02 -0.19315083304E+03  0.36662252500E+03  0.10566000000E+00 0.  1.
         13    1    1    2    0    0  0.30737308206E+03  0.19422177471E+03  0.44307914712E+03  0.57316616362E+03  0.10566000000E+00 0. -1.
         -4    1    1    2    0  502 -0.66571639520E+01 -0.27592096057E+03 -0.39481031646E+03  0.48171763544E+03  0.00000000000E+00 0. -1.
</event>
<event>
 5    1  0.4881333E-005  0.3069520E+03  0.7818608E-02  0.1043082E+00
         21   -1    0    0  501  502  0.00000000000E+00  0.00000000000E+00  0.62804277266E+03  0.62804277266E+03  0.00000000000E+00 0. -1.
         -4   -1    0    0    0  501 -0.00000000000E+00 -0.00000000000E+00 -0.48322434668E+03  0.48322434668E+03  0.00000000000E+00 0. -1.
        -13    1    1    2    0    0 -0.78740038799E+02 -0.47053292760E+02 -0.27800638619E+02  0.95848279803E+02  0.10566000000E+00 0.  1.
         13    1    1    2    0    0 -0.16559512186E+03 -0.24790587354E+03  0.45191041849E+03  0.54138905052E+03  0.10566000000E+00 0. -1.
         -4    1    1    2    0  502  0.24433516066E+03  0.29495916630E+03 -0.27929135389E+03  0.47402978902E+03  0.00000000000E+00 0. -1.
</event>
<event>
 5    1  0.4881333E-005  0.2934343E+03  0.7818608E-02  0.1014917E+00
          4   -1    0    0  502    0 -0.00000000000E+00  0.00000000000E+00  0.51555397766E+03  0.51555397766E+03  0.00000000000E+00 0.  1.
         21   -1    0    0  501  502  0.00000000000E+00 -0.00000000000E+00 -0.12136178146E+04  0.12136178146E+04  0.00000000000E+00 0.  1.
        -13    1    1    2    0    0 -0.51863473225E+03 -0.31070493424E+02 -0.11713883008E+03  0.53260574324E+03  0.10566000000E+00 0.  1.
         13    1    1    2    0    0  0.25113065108E+03 -0.39384512994E+01  0.23084915527E+03  0.34113554339E+03  0.10566000000E+00 0. -1.
          4    1    1    2  501    0  0.26750408117E+03  0.35008944723E+02 -0.81177416211E+03  0.85543050561E+03  0.00000000000E+00 0.  1.
</event>
<event>
 5    1  0.4881333E-005  0.4151243E+03  0.7818608E-02  0.9982499E-01
         21   -1    0    0  501  502  0.00000000000E+00  0.00000000000E+00  0.41252826897E+03  0.41252826897E+03  0.00000000000E+00 0.  1.
          4   -1    0    0  502    0 -0.00000000000E+00 -0.00000000000E+00 -0.12127017744E+04  0.12127017744E+04  0.00000000000E+00 0.  1.
        -13    1    1    2    0    0 -0.11547044349E+03  0.43196617850E+03  0.21277989367E+03  0.49518026717E+03  0.10566000000E+00 0.  1.
         13    1    1    2    0    0  0.86253383556E+02 -0.12527658657E+03 -0.57375600386E+03  0.59357378012E+03  0.10566000000E+00 0. -1.
          4    1    1    2  501    0  0.29217059929E+02 -0.30668959193E+03 -0.43919739526E+03  0.53647599609E+03  0.00000000000E+00 0.  1.
</event>
<event>
 5    1  0.4881333E-005  0.4852911E+03  0.7818608E-02  0.9544633E-01
         21   -1    0    0  501  502  0.00000000000E+00  0.00000000000E+00  0.53170110533E+03  0.53170110533E+03  0.00000000000E+00 0.  1.
          4   -1    0    0  502    0 -0.00000000000E+00 -0.00000000000E+00 -0.11004208917E+04  0.11004208917E+04  0.00000000000E+00 0.  1.
        -13    1    1    2    0    0  0.43788247459E+03 -0.25866238894E+03 -0.39979733392E+02  0.51014280672E+03  0.10566000000E+00 0.  1.
         13    1    1    2    0    0 -0.31930253260E+03 -0.28721701773E+03 -0.26050677859E+03  0.50230619691E+03  0.10566000000E+00 0. -1.
          4    1    1    2  501    0 -0.11857994199E+03  0.54587940667E+03 -0.26823327441E+03  0.61967299342E+03  0.00000000000E+00 0.  1.
</event>
<event>
 5    1  0.4881333E-005  0.3549860E+03  0.7818608E-02  0.1041407E+00
         21   -1    0    0  501  502  0.00000000000E+00  0.00000000000E+00  0.22176084623E+03  0.22176084623E+03  0.00000000000E+00 0. -1.
         -4   -1    0    0    0  501 -0.00000000000E+00 -0.00000000000E+00 -0.89284361436E+03  0.89284361436E+03  0.00000000000E+00 0. -1.
        -13    1    1    2    0    0 -0.54211944946E+02 -0.30856162155E+02  0.63670066091E+02  0.89134315490E+02  0.10566000000E+00 0.  1.
         13    1    1    2    0    0 -0.75518576066E+02  0.35587208016E+03 -0.40878181387E+03  0.54722077380E+03  0.10566000000E+00 0. -1.
         -4    1    1    2    0  502  0.12973052101E+03 -0.32501591801E+03 -0.32597102035E+03  0.47824937130E+03  0.00000000000E+00 0. -1.
</event>
<event>
 5    1  0.4881333E-005  0.1747173E+03  0.7818608E-02  0.1079002E+00
          4   -1    0    0  502    0 -0.00000000000E+00  0.00000000000E+00  0.14518568798E+03  0.14518568798E+03  0.00000000000E+00 0.  1.
         21   -1    0    0  501  502  0.00000000000E+00 -0.00000000000E+00 -0.51366310621E+03  0.51366310621E+03  0.00000000000E+00 0.  1.
        -13    1    1    2    0    0 -0.17022249292E+03 -0.59632906557E+02  0.56483011879E+02  0.18900296938E+03  0.10566000000E+00 0.  1.
         13    1    1    2    0    0  0.14690372319E+03  0.38103143335E+02 -0.25337417390E+03  0.29534900810E+03  0.10566000000E+00 0. -1.
          4    1    1    2  501    0  0.23318769725E+02  0.21529763222E+02 -0.17158625620E+03  0.17449681672E+03  0.00000000000E+00 0.  1.
</event>
<event>
 5    1  0.4881333E-005  0.8202841E+03  0.7818608E-02  0.8964705E-01
          4   -1    0    0  502    0 -0.00000000000E+00  0.00000000000E+00  0.40159266227E+04  0.40159266227E+04  0.00000000000E+00 0.  1.
         21   -1    0    0  501  502  0.00000000000E+00 -0.00000000000E+00 -0.18677215120E+03  0.18677215120E+03  0.00000000000E+00 0. -1.
        -13    1    1    2    0    0 -0.42491115769E+03  0.70312624234E+03  0.21800655350E+04  0.23297256819E+04  0.10566000000E+00 0.  1.
         13    1    1    2    0    0  0.40506740936E+03 -0.71162013214E+03  0.16583473660E+04  0.18494860951E+04  0.10566000000E+00 0. -1.
          4    1    1    2  501    0  0.19843748335E+02  0.84938898025E+01 -0.92584294364E+01  0.23486996990E+02  0.00000000000E+00 0.  1.
</event>
<event>
 5    1  0.4881333E-005  0.2322076E+03  0.7818608E-02  0.1077498E+00
         21   -1    0    0  501  502  0.00000000000E+00  0.00000000000E+00  0.12906516335E+03  0.12906516335E+03  0.00000000000E+00 0. -1.
          4   -1    0    0  502    0 -0.00000000000E+00 -0.00000000000E+00 -0.17796188035E+04  0.17796188035E+04  0.00000000000E+00 0.  1.
        -13    1    1    2    0    0 -0.21335416162E+03  0.17257204928E+03 -0.15663493777E+04  0.15902048594E+04  0.10566000000E+00 0.  1.
         13    1    1    2    0    0  0.76817235185E+02  0.11320898948E+02 -0.28958221349E+02  0.82871226141E+02  0.10566000000E+00 0. -1.
          4    1    1    2  501    0  0.13653692644E+03 -0.18389294822E+03 -0.55246041047E+02  0.23560788132E+03  0.00000000000E+00 0.  1.
</event>
<event>
 5    1  0.4881333E-005  0.4219273E+03  0.7818608E-02  0.9797542E-01
         -4   -1    0    0    0  501 -0.00000000000E+00  0.00000000000E+00  0.23668861833E+04  0.23668861833E+04  0.00000000000E+00 0. -1.
         21   -1    0    0  501  502  0.00000000000E+00 -0.00000000000E+00 -0.28741774894E+03  0.28741774894E+03  0.00000000000E+00 0. -1.
        -13    1    1    2    0    0  0.22059484527E+03  0.15445211374E+03  0.13761711052E+04  0.14022711803E+04  0.10566000000E+00 0.  1.
         13    1    1    2    0    0 -0.19820698561E+03  0.30226437651E+03  0.70779309886E+03  0.79474577345E+03  0.10566000000E+00 0. -1.
         -4    1    1    2    0  502 -0.22387859665E+02 -0.45671649025E+03 -0.44957697108E+01  0.45728697846E+03  0.00000000000E+00 0. -1.
</event>
<event>
 5    1  0.4881333E-005  0.2844771E+02  0.7818608E-02  0.1417823E+00
         21   -1    0    0  501  502  0.00000000000E+00  0.00000000000E+00  0.22315490046E+03  0.22315490046E+03  0.00000000000E+00 0.  1.
          4   -1    0    0  502    0 -0.00000000000E+00 -0.00000000000E+00 -0.40834392143E+02  0.40834392143E+02  0.00000000000E+00 0.  1.
        -13    1    1    2    0    0 -0.27656399514E+02 -0.85688919303E+01 -0.32205147259E+02  0.43306870321E+02  0.10566000000E+00 0.  1.
         13    1    1    2    0    0  0.22052884303E+02 -0.15305073742E+02  0.12566379318E+03  0.12849893022E+03  0.10566000000E+00 0. -1.
          4    1    1    2  501    0  0.56035152114E+01  0.23873965672E+02  0.88861862403E+02  0.92183492066E+02  0.00000000000E+00 0.  1.
</event>
<event>
 5    1  0.4881333E-005  0.3072160E+03  0.7818608E-02  0.1004371E+00
         -4   -1    0    0    0  501 -0.00000000000E+00  0.00000000000E+00  0.73299293293E+03  0.73299293293E+03  0.00000000000E+00 0. -1.
         21   -1    0    0  501  502  0.00000000000E+00 -0.00000000000E+00 -0.16600941427E+03  0.16600941427E+03  0.00000000000E+00 0.  1.
        -13    1    1    2    0    0 -0.26220530791E+03  0.17155691283E+03  0.13969173053E+03  0.34307023855E+03  0.10566000000E+00 0.  1.
         13    1    1    2    0    0  0.24524334088E+03 -0.18047662544E+03  0.43840829037E+03  0.53377705909E+03  0.10566000000E+00 0. -1.
         -4    1    1    2    0  502  0.16961967028E+02  0.89197126109E+01 -0.11116502249E+02  0.22155049555E+02  0.00000000000E+00 0. -1.
</event>
<event>
 5    1  0.4881333E-005  0.5240720E+03  0.7818608E-02  0.9505874E-01
         21   -1    0    0  501  502  0.00000000000E+00  0.00000000000E+00  0.70500164058E+03  0.70500164058E+03  0.00000000000E+00 0.  1.
         -4   -1    0    0    0  501 -0.00000000000E+00 -0.00000000000E+00 -0.12291283965E+04  0.12291283965E+04  0.00000000000E+00 0. -1.
        -13    1    1    2    0    0 -0.58612942604E+03  0.15286614386E+03 -0.43548859332E+03  0.74603357035E+03  0.10566000000E+00 0.  1.
         13    1    1    2    0    0  0.71932312082E+02  0.17160747873E+03 -0.44570548404E+03  0.48298734346E+03  0.10566000000E+00 0. -1.
         -4    1    1    2    0  502  0.51419711395E+03 -0.32447362260E+03  0.35706732139E+03  0.70510912331E+03  0.00000000000E+00 0. -1.
</event>
<event>
 5    1  0.4881333E-005  0.7474894E+02  0.7818608E-02  0.1214792E+00
         21   -1    0    0  501  502  0.00000000000E+00  0.00000000000E+00  0.21790724271E+03  0.21790724271E+03  0.00000000000E+00 0.  1.
          4   -1    0    0  502    0 -0.00000000000E+00 -0.00000000000E+00 -0.14036077352E+03  0.14036077352E+03  0.00000000000E+00 0.  1.
        -13    1    1    2    0    0 -0.28181405774E+02  0.80039778180E+02 -0.10802751674E+03  0.13736998675E+03  0.10566000000E+00 0.  1.
         13    1    1    2    0    0  0.14044062269E+02 -0.46646635514E+02  0.22176809606E+02  0.53525380317E+02  0.10566000000E+00 0. -1.
          4    1    1    2  501    0  0.14137343505E+02 -0.33393142666E+02  0.16339717632E+03  0.16737264916E+03  0.00000000000E+00 0.  1.
</event>
<event>
 5    1  0.4881333E-005  0.4762503E+03  0.7818608E-02  0.9692501E-01
         21   -1    0    0  501  502  0.00000000000E+00  0.00000000000E+00  0.41819490299E+03  0.41819490299E+03  0.00000000000E+00 0.  1.
          4   -1    0    0  502    0 -0.00000000000E+00 -0.00000000000E+00 -0.10972531243E+04  0.10972531243E+04  0.00000000000E+00 0.  1.
        -13    1    1    2    0    0 -0.54495587175E+03  0.33016353158E+03 -0.43196605186E+03  0.76979188152E+03  0.10566000000E+00 0.  1.
         13    1    1    2    0    0  0.20041170471E+03 -0.17955949739E+03  0.40694564635E+02  0.27214430591E+03  0.10566000000E+00 0. -1.
          4    1    1    2  501    0  0.34454416704E+03 -0.15060403419E+03 -0.28778673407E+03  0.47351183983E+03  0.00000000000E+00 0.  1.
</event>
<event>
 5    1  0.4881333E-005  0.4476044E+03  0.7818608E-02  0.9803950E-01
         21   -1    0    0  501  502  0.00000000000E+00  0.00000000000E+00  0.13448575224E+03  0.13448575224E+03  0.00000000000E+00 0. -1.
         -4   -1    0    0    0  501 -0.00000000000E+00 -0.00000000000E+00 -0.28597055484E+04  0.28597055484E+04  0.00000000000E+00 0. -1.
        -13    1    1    2    0    0 -0.21900909942E+03  0.27059045966E+02 -0.87617277498E+03  0.90353523472E+03  0.10566000000E+00 0.  1.
         13    1    1    2    0    0  0.29423151829E+03  0.40436831557E+03 -0.12680234522E+04  0.13630735151E+04  0.10566000000E+00 0. -1.
         -4    1    1    2    0  502 -0.75222418866E+02 -0.43142736153E+03 -0.58102356897E+03  0.72758255083E+03  0.00000000000E+00 0. -1.
</event>
<event>
 5    1  0.4881333E-005  0.3874567E+03  0.7818608E-02  0.1005740E+00
          4   -1    0    0  502    0 -0.00000000000E+00  0.00000000000E+00  0.16308634053E+03  0.16308634053E+03  0.00000000000E+00 0.  1.
         21   -1    0    0  501  502  0.00000000000E+00 -0.00000000000E+00 -0.14940616316E+04  0.14940616316E+04  0.00000000000E+00 0.  1.
        -13    1    1    2    0    0 -0.41584991241E+03 -0.20141466838E+03 -0.46917337709E+03  0.65850033199E+03  0.10566000000E+00 0.  1.
         13    1    1    2    0    0  0.14519366412E+03 -0.19444354413E+02 -0.34545858763E+03  0.37523449994E+03  0.10566000000E+00 0. -1.
          4    1    1    2  501    0  0.27065624830E+03  0.22085902279E+03 -0.51634332632E+03  0.62341314017E+03  0.00000000000E+00 0.  1.
</event>
<event>
 5    1  0.4881333E-005  0.4255985E+02  0.7818608E-02  0.1325450E+00
         21   -1    0    0  501  502  0.00000000000E+00  0.00000000000E+00  0.33152137035E+02  0.33152137035E+02  0.00000000000E+00 0. -1.
          4   -1    0    0  502    0 -0.00000000000E+00 -0.00000000000E+00 -0.95191431671E+02  0.95191431671E+02  0.00000000000E+00 0.  1.
        -13    1    1    2    0    0 -0.26402075503E+02 -0.37623422986E+02 -0.59373203869E+02  0.75085151993E+02  0.10566000000E+00 0.  1.
         13    1    1    2    0    0  0.16627111266E+02  0.28411889007E+02  0.10396648429E+02  0.34522423562E+02  0.10566000000E+00 0. -1.
          4    1    1    2  501    0  0.97749642366E+01  0.92115339793E+01 -0.13062739196E+02  0.18735993152E+02  0.00000000000E+00 0.  1.
</event>
<event>
 5    1  0.4881333E-005  0.1977148E+03  0.7818608E-02  0.1061714E+00
         21   -1    0    0  501  502  0.00000000000E+00  0.00000000000E+00  0.57927746173E+03  0.57927746173E+03  0.00000000000E+00 0. -1.
          4   -1    0    0  502    0 -0.00000000000E+00 -0.00000000000E+00 -0.14889651687E+03  0.14889651687E+03  0.00000000000E+00 0.  1.
        -13    1    1    2    0    0  0.13631669264E+03 -0.14123943841E+03 -0.39089651412E+02  0.20014702512E+03  0.10566000000E+00 0.  1.
         13    1    1    2    0    0 -0.13442851406E+03  0.15380494725E+03  0.33088266346E+03  0.38885773148E+03  0.10566000000E+00 0. -1.
          4    1    1    2  501    0 -0.18881785762E+01 -0.12565508837E+02  0.13858793281E+03  0.13916922200E+03  0.00000000000E+00 0.  1.
</event>
<event>
 5    1  0.4881333E-005  0.4108155E+02  0.7818608E-02  0.1333071E+00
         -4   -1    0    0    0  501 -0.00000000000E+00  0.00000000000E+00  0.48300397912E+02  0.48300397912E+02  0.00000000000E+00 0. -1.
         21   -1    0    0  501  502  0.00000000000E+00 -0.00000000000E+00 -0.14670874433E+03  0.14670874433E+03  0.00000000000E+00 0. -1.
        -13    1    1    2    0    0  0.31616271623E+02  0.23231445481E+02  0.11028846408E+02  0.40754574070E+02  0.10566000000E+00 0.  1.
         13    1    1    2    0    0 -0.45411435896E+02 -0.10153888449E+02 -0.35427508240E+01  0.46667571270E+02  0.10566000000E+00 0. -1.
         -4    1    1    2    0  502  0.13795164273E+02 -0.13077557032E+02 -0.10589444201E+03  0.10758699690E+03  0.00000000000E+00 0. -1.
</event>
<event>
 5    1  0.4881333E-005  0.1135336E+03  0.7818608E-02  0.1143921E+00
          4   -1    0    0  502    0 -0.00000000000E+00  0.00000000000E+00  0.91486035426E+02  0.91486035426E+02  0.00000000000E+00 0.  1.
         21   -1    0    0  501  502  0.00000000000E+00 -0.00000000000E+00 -0.33758983247E+03  0.33758983247E+03  0.00000000000E+00 0. -1.
        -13    1    1    2    0    0  0.97566127222E+02 -0.63513176173E+02  0.73284418447E+01  0.11664814595E+03  0.10566000000E+00 0.  1.
         13    1    1    2    0    0 -0.67796814259E+02  0.89111291726E+02 -0.88033400093E+02  0.14243286500E+03  0.10566000000E+00 0. -1.
          4    1    1    2  501    0 -0.29769312963E+02 -0.25598115553E+02 -0.16539883879E+03  0.16999485695E+03  0.00000000000E+00 0.  1.
</event>
<event>
 5    1  0.4881333E-005  0.1832764E+03  0.7818608E-02  0.1072248E+00
         -4   -1    0    0    0  501 -0.00000000000E+00  0.00000000000E+00  0.10809557002E+04  0.10809557002E+04  0.00000000000E+00 0. -1.
         21   -1    0    0  501  502  0.00000000000E+00 -0.00000000000E+00 -0.54975696644E+02  0.54975696644E+02  0.00000000000E+00 0. -1.
        -13    1    1    2    0    0 -0.63583783518E+02  0.14734905237E+03  0.23558754229E+03  0.28505462986E+03  0.10566000000E+00 0.  1.
         13    1    1    2    0    0  0.35162949154E+02 -0.19291090728E+03  0.76809842410E+03  0.79273340500E+03  0.10566000000E+00 0. -1.
         -4    1    1    2    0  502  0.28420834364E+02  0.45561854910E+02  0.22294037173E+02  0.58143361979E+02  0.00000000000E+00 0. -1.
</event>
<event>
 5    1  0.6205172E-005  0.3294956E+03  0.7818608E-02  0.1006708E+00
         21   -1    0    0  501  502  0.00000000000E+00  0.00000000000E+00  0.30586245917E+03  0.30586245917E+03  0.00000000000E+00 0.  1.
          4   -1    0    0  502    0 -0.00000000000E+00 -0.00000000000E+00 -0.13518107925E+04  0.13518107925E+04  0.00000000000E+00 0.  1.
        -13    1    1    2    0    0  0.16120593363E+03 -0.26336956097E+03  0.50359384917E+02  0.31286891424E+03  0.10566000000E+00 0.  1.
         13    1    1    2    0    0 -0.38181970899E+02 -0.22767071930E+03 -0.16150385256E+03  0.28173626832E+03  0.10566000000E+00 0. -1.
          4    1    1    2  501    0 -0.12302396274E+03  0.49104028028E+03 -0.93480386570E+03  0.10630680691E+04  0.00000000000E+00 0.  1.
</event>
<event>
 5    1  0.4881333E-005  0.1778898E+03  0.7818608E-02  0.1076451E+00
         -4   -1    0    0    0  501 -0.00000000000E+00  0.00000000000E+00  0.84205704302E+03  0.84205704302E+03  0.00000000000E+00 0. -1.
         21   -1    0    0  501  502  0.00000000000E+00 -0.00000000000E+00 -0.88978084544E+02  0.88978084544E+02  0.00000000000E+00 0.  1.
        -13    1    1    2    0    0  0.17116778899E+03  0.68420453539E+02  0.73354495078E+02  0.19839522062E+03  0.10566000000E+00 0.  1.
         13    1    1    2    0    0 -0.16647523922E+03 -0.59431656680E+02  0.69342187555E+03  0.71559767729E+03  0.10566000000E+00 0. -1.
         -4    1    1    2    0  502 -0.46925497715E+01 -0.89887968592E+01 -0.13697412147E+02  0.17042229662E+02  0.00000000000E+00 0. -1.
</event>
<event>
 5    1  0.4881333E-005  0.3573984E+03  0.7818608E-02  0.9924353E-01
         21   -1    0    0  501  502  0.00000000000E+00  0.00000000000E+00  0.53057071272E+03  0.53057071272E+03  0.00000000000E+00 0. -1.
         -4   -1    0    0    0  501 -0.00000000000E+00 -0.00000000000E+00 -0.11934326722E+04  0.11934326722E+04  0.00000000000E+00 0. -1.
        -13    1    1    2    0    0 -0.24360695694E+03 -0.15531799963E+03 -0.66237524975E+03  0.72264030688E+03  0.10566000000E+00 0.  1.
         13    1    1    2    0    0  0.34892853558E+03 -0.19682443339E+03 -0.32126164347E+03  0.51351731739E+03  0.10566000000E+00 0. -1.
         -4    1    1    2    0  502 -0.10532157864E+03  0.35214243302E+03  0.32077493375E+03  0.48784576065E+03  0.00000000000E+00 0. -1.
</event>
<event>
 5    1  0.4881333E-005  0.1639886E+03  0.7818608E-02  0.1143456E+00
         21   -1    0    0  501  502  0.00000000000E+00  0.00000000000E+00  0.48746493054E+03  0.48746493054E+03  0.00000000000E+00 0. -1.
         -4   -1    0    0    0  501 -0.00000000000E+00 -0.00000000000E+00 -0.73419576742E+03  0.73419576742E+03  0.00000000000E+00 0. -1.
        -13    1    1    2    0    0 -0.10409158548E+02 -0.36667541671E+02 -0.21525675912E+03  0.21860544985E+03  0.10566000000E+00 0.  1.
         13    1    1    2    0    0 -0.22219198364E+02  0.16344705511E+03  0.46302093996E+03  0.49152521258E+03  0.10566000000E+00 0. -1.
         -4    1    1    2    0  502  0.32628356911E+02 -0.12677951344E+03 -0.49449501771E+03  0.51153003553E+03  0.00000000000E+00 0. -1.
</event>
<event>
 5    1  0.4881333E-005  0.4238260E+03  0.7818608E-02  0.9863716E-01
         21   -1    0    0  501  502  0.00000000000E+00  0.00000000000E+00  0.17307551274E+03  0.17307551274E+03  0.00000000000E+00 0.  1.
          4   -1    0    0  502    0 -0.00000000000E+00 -0.00000000000E+00 -0.23626153995E+04  0.23626153995E+04  0.00000000000E+00 0.  1.
        -13    1    1    2    0    0 -0.38909185029E+03  0.20466576113E+03 -0.26966406399E+03  0.51575116123E+03  0.10566000000E+00 0.  1.
         13    1    1    2    0    0 -0.24529282775E+02 -0.21083503218E+03 -0.72841502195E+03  0.75871045326E+03  0.10566000000E+00 0. -1.
          4    1    1    2  501    0  0.41362113306E+03  0.61692710493E+01 -0.11914608008E+04  0.12612292977E+04  0.00000000000E+00 0.  1.
</event>
<event>
 5    1  0.4881333E-005  0.4580899E+03  0.7818608E-02  0.9574887E-01
          4   -1    0    0  502    0 -0.00000000000E+00  0.00000000000E+00  0.31237680832E+04  0.31237680832E+04  0.00000000000E+00 0.  1.
         21   -1    0    0  501  502  0.00000000000E+00 -0.00000000000E+00 -0.59469836151E+03  0.59469836151E+03  0.00000000000E+00 0.  1.
        -13    1    1    2    0    0  0.32749547947E+03  0.67745251705E+03 -0.73143262401E+02  0.75600605151E+03  0.10566000000E+00 0.  1.
         13    1    1    2    0    0 -0.94823294331E+02 -0.43525796435E+03  0.25882670158E+04  0.26263219736E+04  0.10566000000E+00 0. -1.
          4    1    1    2  501    0 -0.23267218514E+03 -0.24219455270E+03  0.13945968259E+02  0.33613841959E+03  0.00000000000E+00 0.  1.
</event>
<event>
 5    1  0.4881333E-005  0.2212167E+03  0.7818608E-02  0.1098643E+00
         21   -1    0    0  501  502  0.00000000000E+00  0.00000000000E+00  0.82090621277E+03  0.82090621277E+03  0.00000000000E+00 0.  1.
          4   -1    0    0  502    0 -0.00000000000E+00 -0.00000000000E+00 -0.76883427036E+02  0.76883427036E+02  0.00000000000E+00 0.  1.
        -13    1    1    2    0    0 -0.17223011144E+03 -0.17928145672E+03  0.33458532419E+03  0.41683618166E+03  0.10566000000E+00 0.  1.
         13    1    1    2    0    0  0.20279909750E+02  0.45701502717E+02  0.83940353954E+02  0.97703102694E+02  0.10566000000E+00 0. -1.
          4    1    1    2  501    0  0.15195020169E+03  0.13357995401E+03  0.32549710758E+03  0.38325035545E+03  0.00000000000E+00 0.  1.
</event>
<event>
 5    1  0.4881333E-005  0.4684066E+03  0.7818608E-02  0.9764734E-01
         21   -1    0    0  501  502  0.00000000000E+00  0.00000000000E+00  0.67342344551E+03  0.67342344551E+03  0.00000000000E+00 0. -1.
          4   -1    0    0  502    0 -0.00000000000E+00 -0.00000000000E+00 -0.74279672889E+03  0.74279672889E+03  0.00000000000E+00 0.  1.
        -13    1    1    2    0    0 -0.53221464024E+03  0.98137848614E+02  0.72382044315E+02  0.54600607334E+03  0.10566000000E+00 0.  1.
         13    1    1    2    0    0  0.22023738430E+03 -0.64266303594E+00  0.26747113578E+03  0.34647617248E+03  0.10566000000E+00 0. -1.
          4    1    1    2  501    0  0.31197725594E+03 -0.97495185578E+02 -0.40922646347E+03  0.52373792859E+03  0.00000000000E+00 0.  1.
</event>
<event>
 5    1  0.4881333E-005  0.1889487E+03  0.7818608E-02  0.1067988E+00
         -4   -1    0    0    0  501 -0.00000000000E+00  0.00000000000E+00  0.24838589505E+03  0.24838589505E+03  0.00000000000E+00 0. -1.
         21   -1    0    0  501  502  0.00000000000E+00 -0.00000000000E+00 -0.28094975709E+03  0.28094975709E+03  0.00000000000E+00 0.  1.
        -13    1    1    2    0    0 -0.18044855367E+03  0.45935332230E+02 -0.76352664966E+02  0.20124978480E+03  0.10566000000E+00 0.  1.
         13    1    1    2    0    0  0.18140647037E+03 -0.56414540550E+02  0.13703840321E+03  0.23424440867E+03  0.10566000000E+00 0. -1.
         -4    1    1    2    0  502 -0.95791669330E+00  0.10479208321E+02 -0.93249600286E+02  0.93841458668E+02  0.00000000000E+00 0. -1.
</event>
<event>
 5    1  0.4881333E-005  0.4722126E+02  0.7818608E-02  0.1333036E+00
         21   -1    0    0  501  502  0.00000000000E+00  0.00000000000E+00  0.66579578136E+03  0.66579578136E+03  0.00000000000E+00 0. -1.
         -4   -1    0    0    0  501 -0.00000000000E+00 -0.00000000000E+00 -0.28383304648E+02  0.28383304648E+02  0.00000000000E+00 0. -1.
        -13    1    1    2    0    0  0.22987923756E+02 -0.14289681852E+02  0.84307985040E+02  0.88546525350E+02  0.10566000000E+00 0.  1.
         13    1    1    2    0    0 -0.71013349160E+01  0.58513955157E+02  0.91467389050E+01  0.59648854996E+02  0.10566000000E+00 0. -1.
         -4    1    1    2    0  502 -0.15886588840E+02 -0.44224273305E+02  0.54395775276E+03  0.54598370566E+03  0.00000000000E+00 0. -1.
</event>
<event>
 5    1  0.4881333E-005  0.7333717E+03  0.7818608E-02  0.9075924E-01
         21   -1    0    0  501  502  0.00000000000E+00  0.00000000000E+00  0.22227389409E+04  0.22227389409E+04  0.00000000000E+00 0.  1.
         -4   -1    0    0    0  501 -0.00000000000E+00 -0.00000000000E+00 -0.37258810152E+03  0.37258810152E+03  0.00000000000E+00 0. -1.
        -13    1    1    2    0    0  0.27687615140E+03  0.57744466162E+03  0.57126798552E+03  0.85816657060E+03  0.10566000000E+00 0.  1.
         13    1    1    2    0    0 -0.52691816760E+03 -0.71660462100E+03  0.96216260001E+03  0.13103136335E+04  0.10566000000E+00 0. -1.
         -4    1    1    2    0  502  0.25004201620E+03  0.13915995938E+03  0.31672025384E+03  0.42684683829E+03  0.00000000000E+00 0. -1.
</event>
<event>
 5    1  0.4881333E-005  0.3298298E+03  0.7818608E-02  0.1034354E+00
         21   -1    0    0  501  502  0.00000000000E+00  0.00000000000E+00  0.53377934049E+03  0.53377934049E+03  0.00000000000E+00 0. -1.
         -4   -1    0    0    0  501 -0.00000000000E+00 -0.00000000000E+00 -0.47446239955E+03  0.47446239955E+03  0.00000000000E+00 0. -1.
        -13    1    1    2    0    0  0.80786421060E+02 -0.52558366994E+02  0.66306347143E+02  0.11698448873E+03  0.10566000000E+00 0.  1.
         13    1    1    2    0    0 -0.21320331738E+03  0.33965568342E+03 -0.26711101167E+03  0.48184016182E+03  0.10566000000E+00 0. -1.
         -4    1    1    2    0  502  0.13241689632E+03 -0.28709731643E+03  0.26012160547E+03  0.40941708948E+03  0.00000000000E+00 0. -1.
</event>
<event>
 5    1  0.4881333E-005  0.4838581E+02  0.7818608E-02  0.1357075E+00
         21   -1    0    0  501  502  0.00000000000E+00  0.00000000000E+00  0.63872064444E+02  0.63872064444E+02  0.00000000000E+00 0. -1.
         -4   -1    0    0    0  501 -0.00000000000E+00 -0.00000000000E+00 -0.23922484718E+03  0.23922484718E+03  0.00000000000E+00 0. -1.
        -13    1    1    2    0    0 -0.15674558600E+02 -0.43774462923E+01 -0.29675496341E+01  0.16543014786E+02  0.10566000000E+00 0.  1.
         13    1    1    2    0    0  0.41905063689E+02 -0.36001431286E+02 -0.21516492479E+03  0.22214430770E+03  0.10566000000E+00 0. -1.
         -4    1    1    2    0  502 -0.26230505090E+02  0.40378877578E+02  0.42779691692E+02  0.64409589139E+02  0.00000000000E+00 0. -1.
</event>
<event>
 5    1  0.4881333E-005  0.5709893E+03  0.7818608E-02  0.9346159E-01
         21   -1    0    0  501  502  0.00000000000E+00  0.00000000000E+00  0.47033117884E+03  0.47033117884E+03  0.00000000000E+00 0.  1.
         -4   -1    0    0    0  501 -0.00000000000E+00 -0.00000000000E+00 -0.18752586814E+04  0.18752586814E+04  0.00000000000E+00 0. -1.
        -13    1    1    2    0    0 -0.16828426427E+03  0.59899765990E+03 -0.82982180695E+03  0.10371702043E+04  0.10566000000E+00 0.  1.
         13    1    1    2    0    0  0.56690314277E+03 -0.19018006359E+03 -0.36179291098E+03  0.69888607904E+03  0.10566000000E+00 0. -1.
         -4    1    1    2    0  502 -0.39861887850E+03 -0.40881759631E+03 -0.21331278464E+03  0.60953357696E+03  0.00000000000E+00 0. -1.
</event>
<event>
 5    1  0.4881333E-005  0.4979630E+03  0.7818608E-02  0.9552976E-01
         -4   -1    0    0    0  501 -0.00000000000E+00  0.00000000000E+00  0.19572647939E+04  0.19572647939E+04  0.00000000000E+00 0. -1.
         21   -1    0    0  501  502  0.00000000000E+00 -0.00000000000E+00 -0.30322361796E+03  0.30322361796E+03  0.00000000000E+00 0. -1.
        -13    1    1    2    0    0  0.38530254540E+03 -0.18894955374E+02  0.79090513514E+03  0.87996932605E+03  0.10566000000E+00 0.  1.
         13    1    1    2    0    0 -0.11239379241E+03 -0.47545421429E+03  0.54682258603E+03  0.73328304645E+03  0.10566000000E+00 0. -1.
         -4    1    1    2    0  502 -0.27290875300E+03  0.49434916967E+03  0.31631345481E+03  0.64723603941E+03  0.00000000000E+00 0. -1.
</event>
<event>
 5    1  0.4881333E-005  0.2414954E+03  0.7818608E-02  0.1046407E+00
         -4   -1    0    0    0  501 -0.00000000000E+00  0.00000000000E+00  0.10946431700E+04  0.10946431700E+04  0.00000000000E+00 0. -1.
         21   -1    0    0  501  502  0.00000000000E+00 -0.00000000000E+00 -0.49376452865E+03  0.49376452865E+03  0.00000000000E+00 0. -1.
        -13    1    1    2    0    0  0.21427318864E+02  0.28664606380E+03  0.42723080328E+03  0.51492840893E+03  0.10566000000E+00 0.  1.
         13    1    1    2    0    0  0.20189769176E+03 -0.52280357364E+01 -0.37018410429E+03  0.42169454885E+03  0.10566000000E+00 0. -1.
         -4    1    1    2    0  502 -0.22332501063E+03 -0.28141802806E+03  0.54383194233E+03  0.65178474084E+03  0.00000000000E+00 0. -1.
</event>
<event>
 5    1  0.4881333E-005  0.2693670E+03  0.7818608E-02  0.1020818E+00
         21   -1    0    0  501  502  0.00000000000E+00  0.00000000000E+00  0.15600124003E+03  0.15600124003E+03  0.00000000000E+00 0.  1.
         -4   -1    0    0    0  501 -0.00000000000E+00 -0.00000000000E+00 -0.68810450448E+03  0.68810450448E+03  0.00000000000E+00 0. -1.
        -13    1    1    2    0    0  0.23385310573E+03  0.10614973167E+03 -0.31379000694E+03  0.40548639953E+03  0.10566000000E+00 0.  1.
         13    1    1    2    0    0 -0.27674038043E+03 -0.83176789367E+02 -0.24870183008E+03  0.38125611850E+03  0.10566000000E+00 0. -1.
         -4    1    1    2    0  502  0.42887274699E+02 -0.22972942299E+02  0.30388572563E+02  0.57363226473E+02  0.00000000000E+00 0. -1.
</event>
<event>
 5    1  0.4881333E-005  0.2058221E+03  0.7818608E-02  0.1056216E+00
         -4   -1    0    0    0  501 -0.00000000000E+00  0.00000000000E+00  0.86519899277E+03  0.86519899277E+03  0.00000000000E+00 0. -1.
         21   -1    0    0  501  502  0.00000000000E+00 -0.00000000000E+00 -0.62725612038E+02  0.62725612038E+02  0.00000000000E+00 0.  1.
        -13    1    1    2    0    0 -0.12550986603E+03 -0.17354309475E+03  0.25980738929E+03  0.33670435533E+03  0.10566000000E+00 0.  1.
         13    1    1    2    0    0  0.11025175672E+03  0.16916659252E+03  0.53804633813E+03  0.57468831468E+03  0.10566000000E+00 0. -1.
         -4    1    1    2    0  502  0.15258109308E+02  0.43765022292E+01  0.46196533066E+01  0.16531934795E+02  0.00000000000E+00 0. -1.
</event>
<event>
 5    1  0.4881333E-005  0.1647248E+03  0.7818608E-02  0.1087433E+00
         -4   -1    0    0    0  501 -0.00000000000E+00  0.00000000000E+00  0.46810337405E+02  0.46810337405E+02  0.00000000000E+00 0. -1.
         21   -1    0    0  501  502  0.00000000000E+00 -0.00000000000E+00 -0.90826548350E+03  0.90826548350E+03  0.00000000000E+00 0.  1.
        -13    1    1    2    0    0  0.67239936633E+02  0.15816771388E+03 -0.47650084468E+03  0.50654841914E+03  0.10566000000E+00 0.  1.
         13    1    1    2    0    0 -0.43359897359E+02 -0.15618381613E+03 -0.18019609180E+03  0.24237183785E+03  0.10566000000E+00 0. -1.
         -4    1    1    2    0  502 -0.23880039274E+02 -0.19838977476E+01 -0.20475820961E+03  0.20615556391E+03  0.00000000000E+00 0. -1.
</event>
<event>
 5    1  0.4881333E-005  0.3636771E+02  0.7818608E-02  0.1360033E+00
         -4   -1    0    0    0  501 -0.00000000000E+00  0.00000000000E+00  0.96280851851E+02  0.96280851851E+02  0.00000000000E+00 0. -1.
         21   -1    0    0  501  502  0.00000000000E+00 -0.00000000000E+00 -0.48963244953E+02  0.48963244953E+02  0.00000000000E+00 0. -1.
        -13    1    1    2    0    0  0.76450561731E+01  0.26148390198E+02 -0.14720227729E+02  0.30965811184E+02  0.10566000000E+00 0.  1.
         13    1    1    2    0    0 -0.22628753649E+01 -0.38100610561E+02  0.81970946215E+02  0.90421370911E+02  0.10566000000E+00 0. -1.
         -4    1    1    2    0  502 -0.53821808082E+01  0.11952220363E+02 -0.19933111589E+02  0.23856914710E+02  0.00000000000E+00 0. -1.
</event>
<event>
 5    1  0.4881333E-005  0.5050710E+03  0.7818608E-02  0.9466926E-01
         21   -1    0    0  501  502  0.00000000000E+00  0.00000000000E+00  0.52045283892E+03  0.52045283892E+03  0.00000000000E+00 0.  1.
         -4   -1    0    0    0  501 -0.00000000000E+00 -0.00000000000E+00 -0.11744029886E+04  0.11744029886E+04  0.00000000000E+00 0. -1.
        -13    1    1    2    0    0  0.38855685364E+01  0.44655801121E+03 -0.35079095133E+03  0.56787626973E+03  0.10566000000E+00 0.  1.
         13    1    1    2    0    0 -0.29423983768E+03 -0.64811182047E+03 -0.98527847159E+02  0.71856367967E+03  0.10566000000E+00 0. -1.
         -4    1    1    2    0  502  0.29035426914E+03  0.20155380926E+03 -0.20463135124E+03  0.40841587817E+03  0.00000000000E+00 0. -1.
</event>
<event>
 5    1  0.4881333E-005  0.4929470E+03  0.7818608E-02  0.9631468E-01
         21   -1    0    0  501  502  0.00000000000E+00  0.00000000000E+00  0.45174739756E+03  0.45174739756E+03  0.00000000000E+00 0. -1.
         -4   -1    0    0    0  501 -0.00000000000E+00 -0.00000000000E+00 -0.10382772814E+04  0.10382772814E+04  0.00000000000E+00 0. -1.
        -13    1    1    2    0    0 -0.24711834068E+03 -0.17122275251E+03 -0.25710727682E+03  0.39558673921E+03  0.10566000000E+00 0.  1.
         13    1    1    2    0    0  0.38249395030E+03 -0.33166161101E+03 -0.25975638297E+03  0.56901180646E+03  0.10566000000E+00 0. -1.
         -4    1    1    2    0  502 -0.13537560962E+03  0.50288436352E+03 -0.69666224022E+02  0.52542613327E+03  0.00000000000E+00 0. -1.
</event>
<event>
 5    1  0.4881333E-005  0.2652734E+02  0.7818608E-02  0.1435173E+00
         -4   -1    0    0    0  501 -0.00000000000E+00  0.00000000000E+00  0.30857130817E+02  0.30857130817E+02  0.00000000000E+00 0. -1.
         21   -1    0    0  501  502  0.00000000000E+00 -0.00000000000E+00 -0.59160302879E+02  0.59160302879E+02  0.00000000000E+00 0. -1.
        -13    1    1    2    0    0 -0.12872627141E+02  0.18678850806E+02  0.21790283789E+01  0.22789544218E+02  0.10566000000E+00 0.  1.
         13    1    1    2    0    0  0.78635578770E+01 -0.33891948051E+02 -0.23697597094E+01  0.34873006901E+02  0.10566000000E+00 0. -1.
         -4    1    1    2    0  502  0.50090692640E+01  0.15213097245E+02 -0.28112440732E+02  0.32354882577E+02  0.00000000000E+00 0. -1.
</event>
<event>
 5    1  0.4881333E-005  0.2848792E+03  0.7818608E-02  0.1050922E+00
         21   -1    0    0  501  502  0.00000000000E+00  0.00000000000E+00  0.17732569585E+03  0.17732569585E+03  0.00000000000E+00 0. -1.
         -4   -1    0    0    0  501 -0.00000000000E+00 -0.00000000000E+00 -0.98649860148E+03  0.98649860148E+03  0.00000000000E+00 0. -1.
        -13    1    1    2    0    0  0.28734915914E+02  0.86092726948E+02 -0.25313974961E+01  0.90796873091E+02  0.10566000000E+00 0.  1.
         13    1    1    2    0    0  0.15014804459E+03 -0.29458532729E+03 -0.70753788447E+03  0.78098323892E+03  0.10566000000E+00 0. -1.
         -4    1    1    2    0  502 -0.17888296050E+03  0.20849260035E+03 -0.99103623667E+02  0.29204418532E+03  0.00000000000E+00 0. -1.
</event>
<event>
 5    1  0.4881333E-005  0.4889744E+03  0.7818608E-02  0.9611006E-01
         -4   -1    0    0    0  501 -0.00000000000E+00  0.00000000000E+00  0.10903779348E+04  0.10903779348E+04  0.00000000000E+00 0. -1.
         21   -1    0    0  501  502  0.00000000000E+00 -0.00000000000E+00 -0.66744061640E+03  0.66744061640E+03  0.00000000000E+00 0. -1.
        -13    1    1    2    0    0 -0.31260105339E+03  0.10935618140E+03  0.61520815135E+03  0.69868395833E+03  0.10566000000E+00 0.  1.
         13    1    1    2    0    0 -0.72871953177E+02 -0.48199080060E+03  0.60065067241E+01  0.48750542839E+03  0.10566000000E+00 0. -1.
         -4    1    1    2    0  502  0.38547300656E+03  0.37263461920E+03 -0.19827733969E+03  0.57162916445E+03  0.00000000000E+00 0. -1.
</event>
<event>
 5    1  0.4881333E-005  0.1270976E+02  0.7818608E-02  0.1678080E+00
         21   -1    0    0  501  502  0.00000000000E+00  0.00000000000E+00  0.58029177865E+03  0.58029177865E+03  0.00000000000E+00 0. -1.
         -4   -1    0    0    0  501 -0.00000000000E+00 -0.00000000000E+00 -0.97227444797E+01  0.97227444797E+01  0.00000000000E+00 0. -1.
        -13    1    1    2    0    0 -0.20230762064E+02 -0.20466727422E+01  0.10405911289E+03  0.10602727358E+03  0.10566000000E+00 0.  1.
         13    1    1    2    0    0  0.78963274584E+01 -0.69050615892E+01 -0.54225399949E+01  0.11808766528E+02  0.10566000000E+00 0. -1.
         -4    1    1    2    0  502  0.12334434606E+02  0.89517343315E+01  0.47193246128E+03  0.47217848302E+03  0.00000000000E+00 0. -1.
</event>
<event>
 5    1  0.4881333E-005  0.4863311E+02  0.7818608E-02  0.1297456E+00
         21   -1    0    0  501  502  0.00000000000E+00  0.00000000000E+00  0.58076967774E+02  0.58076967774E+02  0.00000000000E+00 0.  1.
         -4   -1    0    0    0  501 -0.00000000000E+00 -0.00000000000E+00 -0.11511801002E+03  0.11511801002E+03  0.00000000000E+00 0. -1.
        -13    1    1    2    0    0 -0.51311288059E+02 -0.64106652651E+01  0.23572134150E+02  0.56829583703E+02  0.10566000000E+00 0.  1.
         13    1    1    2    0    0  0.44425782070E+02  0.19293455511E+02 -0.87657180341E+02  0.10014828989E+03  0.10566000000E+00 0. -1.
         -4    1    1    2    0  502  0.68855059893E+01 -0.12882790246E+02  0.70440039428E+01  0.16217104205E+02  0.00000000000E+00 0. -1.
</event>
<event>
 5    1  0.4881333E-005  0.3211910E+03  0.7818608E-02  0.9989227E-01
         -4   -1    0    0    0  501 -0.00000000000E+00  0.00000000000E+00  0.13866896374E+04  0.13866896374E+04  0.00000000000E+00 0. -1.
         21   -1    0    0  501  502  0.00000000000E+00 -0.00000000000E+00 -0.89317098075E+02  0.89317098075E+02  0.00000000000E+00 0.  1.
        -13    1    1    2    0    0  0.19912108365E+03  0.25088723757E+03  0.39299140089E+03  0.50698704546E+03  0.10566000000E+00 0.  1.
         13    1    1    2    0    0 -0.21137190729E+03 -0.24256522144E+03  0.89597295338E+03  0.95198924059E+03  0.10566000000E+00 0. -1.
         -4    1    1    2    0  502  0.12250823640E+02 -0.83220161326E+01  0.84081850875E+01  0.17030449461E+02  0.00000000000E+00 0. -1.
</event>
<event>
 5    1  0.4881333E-005  0.1964918E+03  0.7818608E-02  0.1062568E+00
         -4   -1    0    0    0  501 -0.00000000000E+00  0.00000000000E+00  0.15973782073E+03  0.15973782073E+03  0.00000000000E+00 0. -1.
         21   -1    0    0  501  502  0.00000000000E+00 -0.00000000000E+00 -0.43515592092E+03  0.43515592092E+03  0.00000000000E+00 0. -1.
        -13    1    1    2    0    0  0.14218597096E+03 -0.14491839871E+03 -0.22373488112E+03  0.30211835564E+03  0.10566000000E+00 0.  1.
         13    1    1    2    0    0 -0.13093560390E+03  0.14391993125E+03  0.41470524800E+02  0.19893942438E+03  0.10566000000E+00 0. -1.
         -4    1    1    2    0  502 -0.11250367057E+02  0.99846745771E+00 -0.93153743871E+02  0.93835961621E+02  0.00000000000E+00 0. -1.
</event>
<event>
 5    1  0.4881333E-005  0.1701685E+03  0.7818608E-02  0.1082763E+00
          4   -1    0    0  502    0 -0.00000000000E+00  0.00000000000E+00  0.12692975851E+03  0.12692975851E+03  0.00000000000E+00 0.  1.
         21   -1    0    0  501  502  0.00000000000E+00 -0.00000000000E+00 -0.34229128367E+03  0.34229128367E+03  0.00000000000E+00 0. -1.
        -13    1    1    2    0    0  0.14894555463E+03  0.67837362746E+02 -0.87714078237E+02  0.18568914000E+03  0.10566000000E+00 0.  1.
         13    1    1    2    0    0 -0.17359964310E+03 -0.35230321916E+02 -0.32663205525E+02  0.18012470076E+03  0.10566000000E+00 0. -1.
          4    1    1    2  501    0  0.24654088466E+02 -0.32607040830E+02 -0.94984241403E+02  0.10340720142E+03  0.00000000000E+00 0.  1.
</event>
<event>
 5    1  0.4881333E-005  0.3686602E+02  0.7818608E-02  0.1356967E+00
         21   -1    0    0  501  502  0.00000000000E+00  0.00000000000E+00  0.26723124780E+03  0.26723124780E+03  0.00000000000E+00 0.  1.
          4   -1    0    0  502    0 -0.00000000000E+00 -0.00000000000E+00 -0.92869548427E+02  0.92869548427E+02  0.00000000000E+00 0.  1.
        -13    1    1    2    0    0 -0.13636179094E+02  0.34652995160E+02 -0.87286775490E+02  0.94898723876E+02  0.10566000000E+00 0.  1.
         13    1    1    2    0    0  0.18184346820E+02 -0.17750536188E+02  0.13790794319E+03  0.14022968289E+03  0.10566000000E+00 0. -1.
          4    1    1    2  501    0 -0.45481677256E+01 -0.16902458971E+02  0.12374053168E+03  0.12497238946E+03  0.00000000000E+00 0.  1.
</event>
<event>
 5    1  0.4881333E-005  0.3970654E+03  0.7818608E-02  0.9871438E-01
          4   -1    0    0  502    0 -0.00000000000E+00  0.00000000000E+00  0.54078818567E+03  0.54078818567E+03  0.00000000000E+00 0.  1.
         21   -1    0    0  501  502  0.00000000000E+00 -0.00000000000E+00 -0.13937975601E+04  0.13937975601E+04  0.00000000000E+00 0.  1.
        -13    1    1    2    0    0 -0.47143555586E+03 -0.22067176889E+03 -0.29783792605E+03  0.59971239296E+03  0.10566000000E+00 0.  1.
         13    1    1    2    0    0  0.23993232795E+03 -0.75412385914E+02  0.30550525643E+03  0.39571204533E+03  0.10566000000E+00 0. -1.
          4    1    1    2  501    0  0.23150322791E+03  0.29608415481E+03 -0.86067670481E+03  0.93916130748E+03  0.00000000000E+00 0.  1.
</event>
<event>
 5    1  0.4881333E-005  0.5469640E+02  0.7818608E-02  0.1273765E+00
          4   -1    0    0  502    0 -0.00000000000E+00  0.00000000000E+00  0.11825352900E+03  0.11825352900E+03  0.00000000000E+00 0.  1.
         21   -1    0    0  501  502  0.00000000000E+00 -0.00000000000E+00 -0.41100785344E+02  0.41100785344E+02  0.00000000000E+00 0. -1.
        -13    1    1    2    0    0  0.23872917658E+02 -0.40547954086E+02  0.16516815419E+02  0.49868518463E+02  0.10566000000E+00 0.  1.
         13    1    1    2    0    0 -0.25355625182E+02  0.54171471152E+02  0.70609012508E+02  0.92537018682E+02  0.10566000000E+00 0. -1.
          4    1    1    2  501    0  0.14827075240E+01 -0.13623517067E+02 -0.99730842670E+01  0.16948777203E+02  0.00000000000E+00 0.  1.
</event>
<event>
 5    1  0.4881333E-005  0.2515541E+03  0.7818608E-02  0.1029590E+00
          4   -1    0    0  502    0 -0.00000000000E+00  0.00000000000E+00  0.11951504468E+04  0.11951504468E+04  0.00000000000E+00 0.  1.
         21   -1    0    0  501  502  0.00000000000E+00 -0.00000000000E+00 -0.12110667007E+04  0.12110667007E+04  0.00000000000E+00 0.  1.
        -13    1    1    2    0    0  0.25854447347E+03 -0.81858686035E+01  0.13595387490E+03  0.29222546171E+03  0.10566000000E+00 0.  1.
         13    1    1    2    0    0 -0.17705492691E+03 -0.20212153235E+03  0.95103259091E+03  0.98826340674E+03  0.10566000000E+00 0. -1.
          4    1    1    2  501    0 -0.81489546564E+02  0.21030740095E+03 -0.11029027197E+04  0.11257282790E+04  0.00000000000E+00 0.  1.
</event>
<event>
 5    1  0.4881333E-005  0.4938304E+03  0.7818608E-02  0.9590296E-01
         21   -1    0    0  501  502  0.00000000000E+00  0.00000000000E+00  0.39398182552E+03  0.39398182552E+03  0.00000000000E+00 0. -1.
         -4   -1    0    0    0  501 -0.00000000000E+00 -0.00000000000E+00 -0.19909239056E+04  0.19909239056E+04  0.00000000000E+00 0. -1.
        -13    1    1    2    0    0  0.29622178443E+03  0.17895158225E+03 -0.12134892933E+04  0.12618745146E+04  0.10566000000E+00 0.  1.
         13    1    1    2    0    0  0.36410336149E+03 -0.32234251501E+02 -0.22179137579E+03  0.42755319009E+03  0.10566000000E+00 0. -1.
         -4    1    1    2    0  502 -0.66032514592E+03 -0.14671733075E+03 -0.16166141095E+03  0.69547802644E+03  0.00000000000E+00 0. -1.
</event>
<event>
 5    1  0.4881333E-005  0.2941257E+03  0.7818608E-02  0.1034156E+00
         -4   -1    0    0    0  501 -0.00000000000E+00  0.00000000000E+00  0.12869338146E+04  0.12869338146E+04  0.00000000000E+00 0. -1.
         21   -1    0    0  501  502  0.00000000000E+00 -0.00000000000E+00 -0.46625588029E+03  0.46625588029E+03  0.00000000000E+00 0. -1.
        -13    1    1    2    0    0  0.13655995889E+03  0.69803404442E+01  0.72622876719E+03  0.73898956757E+03  0.10566000000E+00 0.  1.
         13    1    1    2    0    0 -0.27143163416E+03 -0.14119553931E+03 -0.38885352196E+03  0.49479125401E+03  0.10566000000E+00 0. -1.
         -4    1    1    2    0  502  0.13487167527E+03  0.13421519886E+03  0.48330268907E+03  0.51940887329E+03  0.00000000000E+00 0. -1.
</event>
<event>
 5    1  0.4881333E-005  0.2209926E+03  0.7818608E-02  0.1066001E+00
         21   -1    0    0  501  502  0.00000000000E+00  0.00000000000E+00  0.35805541765E+03  0.35805541765E+03  0.00000000000E+00 0. -1.
         -4   -1    0    0    0  501 -0.00000000000E+00 -0.00000000000E+00 -0.90520216496E+03  0.90520216496E+03  0.00000000000E+00 0. -1.
        -13    1    1    2    0    0  0.42945288999E+02  0.11744448458E+03 -0.17550296471E+03  0.21549665100E+03  0.10566000000E+00 0.  1.
         13    1    1    2    0    0  0.11875036071E+03  0.42106277179E+02 -0.66494644779E+03  0.67677793724E+03  0.10566000000E+00 0. -1.
         -4    1    1    2    0  502 -0.16169564970E+03 -0.15955076175E+03  0.29330266519E+03  0.37098299438E+03  0.00000000000E+00 0. -1.
</event>
<event>
 5    1  0.4881333E-005  0.4950044E+03  0.7818608E-02  0.9503320E-01
          4   -1    0    0  502    0 -0.00000000000E+00  0.00000000000E+00  0.31790847805E+04  0.31790847805E+04  0.00000000000E+00 0.  1.
         21   -1    0    0  501  502  0.00000000000E+00 -0.00000000000E+00 -0.57900465729E+03  0.57900465729E+03  0.00000000000E+00 0.  1.
        -13    1    1    2    0    0  0.25295361689E+03  0.13628494935E+03  0.25662113367E+03  0.38524477560E+03  0.10566000000E+00 0.  1.
         13    1    1    2    0    0  0.44393312061E+02  0.46776860002E+03  0.26076118227E+04  0.26496070762E+04  0.10566000000E+00 0. -1.
          4    1    1    2  501    0 -0.29734692895E+03 -0.60405354937E+03 -0.26415283308E+03  0.72323758605E+03  0.00000000000E+00 0.  1.
</event>
<event>
 5    1  0.8500648E-005  0.2278675E+03  0.7818608E-02  0.1051276E+00
         21   -1    0    0  501  502  0.00000000000E+00  0.00000000000E+00  0.37644724239E+03  0.37644724239E+03  0.00000000000E+00 0. -1.
         -4   -1    0    0    0  501 -0.00000000000E+00 -0.00000000000E+00 -0.18920946524E+04  0.18920946524E+04  0.00000000000E+00 0. -1.
        -13    1    1    2    0    0 -0.25692968421E+03  0.27130646847E+03 -0.10324069142E+04  0.10979454040E+04  0.10566000000E+00 0.  1.
         13    1    1    2    0    0  0.20302263975E+02 -0.16441705454E+03 -0.76774778439E+03  0.78541824612E+03  0.10566000000E+00 0. -1.
         -4    1    1    2    0  502  0.23662742023E+03 -0.10688941393E+03  0.28450728866E+03  0.38517824461E+03  0.00000000000E+00 0. -1.
</event>
<event>
 5    1  0.4881333E-005  0.4631418E+03  0.7818608E-02  0.9642877E-01
         21   -1    0    0  501  502  0.00000000000E+00  0.00000000000E+00  0.64119160257E+03  0.64119160257E+03  0.00000000000E+00 0. -1.
         -4   -1    0    0    0  501 -0.00000000000E+00 -0.00000000000E+00 -0.11297270622E+04  0.11297270622E+04  0.00000000000E+00 0. -1.
        -13    1    1    2    0    0  0.52706563878E+03  0.86695675057E+02 -0.16839553541E+03  0.56006374205E+03  0.10566000000E+00 0.  1.
         13    1    1    2    0    0  0.27179175704E+03 -0.17598899997E+03  0.46928443490E+02  0.32717759287E+03  0.10566000000E+00 0. -1.
         -4    1    1    2    0  502 -0.79885739582E+03  0.89293324908E+02 -0.36706836774E+03  0.88367732987E+03  0.00000000000E+00 0. -1.
</event>
<event>
 5    1  0.4881333E-005  0.2024648E+03  0.7818608E-02  0.1058459E+00
         21   -1    0    0  501  502  0.00000000000E+00  0.00000000000E+00  0.14059212594E+04  0.14059212594E+04  0.00000000000E+00 0.  1.
          4   -1    0    0  502    0 -0.00000000000E+00 -0.00000000000E+00 -0.14417306042E+03  0.14417306042E+03  0.00000000000E+00 0.  1.
        -13    1    1    2    0    0  0.85322911373E+02 -0.24868028178E+03  0.43231509766E+03  0.50598244691E+03  0.10566000000E+00 0.  1.
         13    1    1    2    0    0 -0.10116112045E+03  0.16334578970E+03 -0.17328632099E+02  0.19291374228E+03  0.10566000000E+00 0. -1.
          4    1    1    2  501    0  0.15838209079E+02  0.85334492072E+02  0.84676173343E+03  0.85119813064E+03  0.00000000000E+00 0.  1.
</event>
<event>
 5    1  0.4881333E-005  0.6128982E+02  0.7818608E-02  0.1262389E+00
         21   -1    0    0  501  502  0.00000000000E+00  0.00000000000E+00  0.12632110282E+03  0.12632110282E+03  0.00000000000E+00 0.  1.
          4   -1    0    0  502    0 -0.00000000000E+00 -0.00000000000E+00 -0.11322447009E+03  0.11322447009E+03  0.00000000000E+00 0.  1.
        -13    1    1    2    0    0 -0.15227474025E+02 -0.84004635910E+02 -0.50022948975E+02  0.98949287051E+02  0.10566000000E+00 0.  1.
         13    1    1    2    0    0  0.39148091139E+02  0.29500782652E+02 -0.59944644456E+01  0.49384349595E+02  0.10566000000E+00 0. -1.
          4    1    1    2  501    0 -0.23920617114E+02  0.54503853258E+02  0.69114046146E+02  0.91211936268E+02  0.00000000000E+00 0.  1.
</event>
<event>
 5    1  0.4881333E-005  0.2061817E+03  0.7818608E-02  0.1067247E+00
         21   -1    0    0  501  502  0.00000000000E+00  0.00000000000E+00  0.30951895667E+03  0.30951895667E+03  0.00000000000E+00 0. -1.
         -4   -1    0    0    0  501 -0.00000000000E+00 -0.00000000000E+00 -0.64783465005E+03  0.64783465005E+03  0.00000000000E+00 0. -1.
        -13    1    1    2    0    0 -0.70614514053E+02  0.13069443713E+03 -0.36076294496E+03  0.39015043139E+03  0.10566000000E+00 0.  1.
         13    1    1    2    0    0  0.23088887399E+03 -0.22138578179E+03 -0.11229820138E+03  0.33901656849E+03  0.10566000000E+00 0. -1.
         -4    1    1    2    0  502 -0.16027435994E+03  0.90691344661E+02  0.13474545297E+03  0.22818660685E+03  0.00000000000E+00 0. -1.
</event>
<event>
 5    1  0.4881333E-005  0.2374102E+03  0.7818608E-02  0.1037132E+00
          4   -1    0    0  502    0 -0.00000000000E+00  0.00000000000E+00  0.10850410413E+04  0.10850410413E+04  0.00000000000E+00 0.  1.
         21   -1    0    0  501  502  0.00000000000E+00 -0.00000000000E+00 -0.22602520489E+03  0.22602520489E+03  0.00000000000E+00 0.  1.
        -13    1    1    2    0    0  0.11396696592E+03  0.20455672425E+03  0.85388946570E+03  0.88541467887E+03  0.10566000000E+00 0.  1.
         13    1    1    2    0    0 -0.88402531078E+02 -0.24010396828E+03  0.13450728070E+03  0.28906252405E+03  0.10566000000E+00 0. -1.
          4    1    1    2  501    0 -0.25564434846E+02  0.35547244031E+02 -0.12938090996E+03  0.13658904330E+03  0.00000000000E+00 0.  1.
</event>
<event>
 5    1  0.4881333E-005  0.1356995E+03  0.7818608E-02  0.1116140E+00
         -4   -1    0    0    0  501 -0.00000000000E+00  0.00000000000E+00  0.44099422058E+03  0.44099422058E+03  0.00000000000E+00 0. -1.
         21   -1    0    0  501  502  0.00000000000E+00 -0.00000000000E+00 -0.30281516829E+03  0.30281516829E+03  0.00000000000E+00 0. -1.
        -13    1    1    2    0    0 -0.97408966273E+02 -0.97355328552E+02  0.27577313488E+03  0.30824892505E+03  0.10566000000E+00 0.  1.
         13    1    1    2    0    0  0.53678902921E+02  0.12772211223E+03  0.11336643776E+03  0.17901486795E+03  0.10566000000E+00 0. -1.
         -4    1    1    2    0  502  0.43730063351E+02 -0.30366783677E+02 -0.25096052035E+03  0.25654559588E+03  0.00000000000E+00 0. -1.
</event>
<event>
 5    1  0.4881333E-005  0.4740313E+03  0.7818608E-02  0.9887075E-01
          4   -1    0    0  502    0 -0.00000000000E+00  0.00000000000E+00  0.11982584590E+04  0.11982584590E+04  0.00000000000E+00 0.  1.
         21   -1    0    0  501  502  0.00000000000E+00 -0.00000000000E+00 -0.28123467945E+03  0.28123467945E+03  0.00000000000E+00 0.  1.
        -13    1    1    2    0    0  0.44257123936E+03  0.12411170361E+03  0.35702809896E+03  0.58201554231E+03  0.10566000000E+00 0.  1.
         13    1    1    2    0    0  0.52497319706E+02 -0.13005144695E+03  0.31555719422E+03  0.34531970899E+03  0.10566000000E+00 0. -1.
          4    1    1    2  501    0 -0.49506855906E+03  0.59397433383E+01  0.24443848639E+03  0.55215788716E+03  0.00000000000E+00 0.  1.
</event>
<event>
 5    1  0.4881333E-005  0.4827879E+03  0.7818608E-02  0.9516516E-01
          4   -1    0    0  502    0 -0.00000000000E+00  0.00000000000E+00  0.21600912251E+04  0.21600912251E+04  0.00000000000E+00 0.  1.
         21   -1    0    0  501  502  0.00000000000E+00 -0.00000000000E+00 -0.45314893285E+03  0.45314893285E+03  0.00000000000E+00 0.  1.
        -13    1    1    2    0    0 -0.36186813490E+03  0.57627541266E+03  0.38737339774E+03  0.78300706174E+03  0.10566000000E+00 0.  1.
         13    1    1    2    0    0  0.49906445880E+02 -0.45388820541E+03  0.14108581341E+04  0.14829112725E+04  0.10566000000E+00 0. -1.
          4    1    1    2  501    0  0.31196168902E+03 -0.12238720725E+03 -0.91289239647E+02  0.34732182366E+03  0.00000000000E+00 0.  1.
</event>
<event>
 5    1  0.4881333E-005  0.2073316E+03  0.7818608E-02  0.1055223E+00
         -4   -1    0    0    0  501 -0.00000000000E+00  0.00000000000E+00  0.11617900095E+04  0.11617900095E+04  0.00000000000E+00 0. -1.
         21   -1    0    0  501  502  0.00000000000E+00 -0.00000000000E+00 -0.49610073597E+03  0.49610073597E+03  0.00000000000E+00 0. -1.
        -13    1    1    2    0    0 -0.15720116707E+03  0.86169928634E+02  0.61279349845E+03  0.63847736564E+03  0.10566000000E+00 0.  1.
         13    1    1    2    0    0  0.23895551639E+03 -0.21037437553E+03  0.47503413183E+03  0.57185186391E+03  0.10566000000E+00 0. -1.
         -4    1    1    2    0  502 -0.81754349318E+02  0.12420444690E+03 -0.42213835677E+03  0.44756151590E+03  0.00000000000E+00 0. -1.
</event>
<event>
 5    1  0.4881333E-005  0.3279607E+03  0.7818608E-02  0.1006960E+00
          4   -1    0    0  502    0 -0.00000000000E+00  0.00000000000E+00  0.71801194076E+03  0.71801194076E+03  0.00000000000E+00 0.  1.
         21   -1    0    0  501  502  0.00000000000E+00 -0.00000000000E+00 -0.56975924818E+03  0.56975924818E+03  0.00000000000E+00 0.  1.
        -13    1    1    2    0    0  0.12556074847E+03 -0.18436176076E+03  0.52944253646E+03  0.57451211560E+03  0.10566000000E+00 0.  1.
         13    1    1    2    0    0 -0.16531609661E+03 -0.16306545079E+03 -0.63322520569E+02  0.24068549149E+03  0.10566000000E+00 0. -1.
          4    1    1    2  501    0  0.39755348135E+02  0.34742721155E+03 -0.31786732331E+03  0.47257358185E+03  0.00000000000E+00 0.  1.
</event>
<event>
 5    1  0.4881333E-005  0.3163845E+03  0.7818608E-02  0.1000762E+00
          4   -1    0    0  502    0 -0.00000000000E+00  0.00000000000E+00  0.18397748273E+04  0.18397748273E+04  0.00000000000E+00 0.  1.
         21   -1    0    0  501  502  0.00000000000E+00 -0.00000000000E+00 -0.23986258846E+03  0.23986258846E+03  0.00000000000E+00 0.  1.
        -13    1    1    2    0    0  0.32169912936E+03  0.12168557830E+03  0.13433538933E+04  0.13866857624E+04  0.10566000000E+00 0.  1.
         13    1    1    2    0    0 -0.12271773544E+03 -0.28269024936E+03  0.30371266801E+03  0.43268327394E+03  0.10566000000E+00 0. -1.
          4    1    1    2  501    0 -0.19898139391E+03  0.16100467106E+03 -0.47154322433E+02  0.26026837947E+03  0.00000000000E+00 0.  1.
</event>
<event>
 5    1  0.4881333E-005  0.4923173E+03  0.7818608E-02  0.9793117E-01
         21   -1    0    0  501  502  0.00000000000E+00  0.00000000000E+00  0.32914812838E+03  0.32914812838E+03  0.00000000000E+00 0. -1.
         -4   -1    0    0    0  501 -0.00000000000E+00 -0.00000000000E+00 -0.13246389272E+04  0.13246389272E+04  0.00000000000E+00 0. -1.
        -13    1    1    2    0    0 -0.13003604168E+03  0.11272514047E+03 -0.50867424166E+03  0.53699704350E+03  0.10566000000E+00 0.  1.
         13    1    1    2    0    0  0.31784048288E+03  0.36785861750E+03 -0.19329443026E+03  0.52316850341E+03  0.10566000000E+00 0. -1.
         -4    1    1    2    0  502 -0.18780444120E+03 -0.48058375797E+03 -0.29352212687E+03  0.59362150865E+03  0.00000000000E+00 0. -1.
</event>
<event>
 5    1  0.4881333E-005  0.2139626E+03  0.7818608E-02  0.1085562E+00
         21   -1    0    0  501  502  0.00000000000E+00  0.00000000000E+00  0.46164885603E+02  0.46164885603E+02  0.00000000000E+00 0. -1.
          4   -1    0    0  502    0 -0.00000000000E+00 -0.00000000000E+00 -0.19612987228E+04  0.19612987228E+04  0.00000000000E+00 0.  1.
        -13    1    1    2    0    0 -0.22390761335E+03 -0.78750507765E+02 -0.12766115829E+04  0.12984888935E+04  0.10566000000E+00 0.  1.
         13    1    1    2    0    0  0.61415647499E+02 -0.49968049521E+02 -0.77136679511E+02  0.11053852822E+03  0.10566000000E+00 0. -1.
          4    1    1    2  501    0  0.16249196585E+03  0.12871855729E+03 -0.56138557483E+03  0.59843618673E+03  0.00000000000E+00 0.  1.
</event>
<event>
 5    1  0.4881333E-005  0.4114910E+03  0.7818608E-02  0.9696433E-01
         21   -1    0    0  501  502  0.00000000000E+00  0.00000000000E+00  0.37351036265E+03  0.37351036265E+03  0.00000000000E+00 0. -1.
         -4   -1    0    0    0  501 -0.00000000000E+00 -0.00000000000E+00 -0.28359829768E+04  0.28359829768E+04  0.00000000000E+00 0. -1.
        -13    1    1    2    0    0  0.35078566747E+03 -0.10496824123E+03 -0.29481916260E+03  0.47009282698E+03  0.10566000000E+00 0.  1.
         13    1    1    2    0    0 -0.41257467932E+03  0.84344917789E+02 -0.24314671410E+04  0.24676637535E+04  0.10566000000E+00 0. -1.
         -4    1    1    2    0  502  0.61789011850E+02  0.20623323443E+02  0.26381368946E+03  0.27173675902E+03  0.00000000000E+00 0. -1.
</event>
<event>
 5    1  0.4881333E-005  0.1804643E+03  0.7818608E-02  0.1110935E+00
         21   -1    0    0  501  502  0.00000000000E+00  0.00000000000E+00  0.60412814949E+02  0.60412814949E+02  0.00000000000E+00 0.  1.
          4   -1    0    0  502    0 -0.00000000000E+00 -0.00000000000E+00 -0.15966072688E+04  0.15966072688E+04  0.00000000000E+00 0.  1.
        -13    1    1    2    0    0  0.14798061159E+03  0.16223755296E+03 -0.12946138387E+04  0.13131048273E+04  0.10566000000E+00 0.  1.
         13    1    1    2    0    0 -0.65660756063E+02 -0.84581483241E+01 -0.40014936538E+02  0.77356845010E+02  0.10566000000E+00 0. -1.
          4    1    1    2  501    0 -0.82319855529E+02 -0.15377940464E+03 -0.20156567860E+03  0.26655841142E+03  0.00000000000E+00 0.  1.
</event>
<event>
 5    1  0.5675585E-005  0.4856775E+03  0.7818608E-02  0.9792153E-01
         21   -1    0    0  501  502  0.00000000000E+00  0.00000000000E+00  0.24948265137E+03  0.24948265137E+03  0.00000000000E+00 0. -1.
         -4   -1    0    0    0  501 -0.00000000000E+00 -0.00000000000E+00 -0.20837114678E+04  0.20837114678E+04  0.00000000000E+00 0. -1.
        -13    1    1    2    0    0  0.15693855020E+03 -0.87823777673E+02 -0.10044570438E+04  0.10204296587E+04  0.10566000000E+00 0.  1.
         13    1    1    2    0    0  0.36237726751E+03 -0.10163384453E+03 -0.61232093227E+03  0.71873754432E+03  0.10566000000E+00 0. -1.
         -4    1    1    2    0  502 -0.51931581771E+03  0.18945762221E+03 -0.21745084046E+03  0.59402691618E+03  0.00000000000E+00 0. -1.
</event>
<event>
 5    1  0.4881333E-005  0.1047387E+03  0.7818608E-02  0.1156945E+00
         -4   -1    0    0    0  501 -0.00000000000E+00  0.00000000000E+00  0.50369259415E+03  0.50369259415E+03  0.00000000000E+00 0. -1.
         21   -1    0    0  501  502  0.00000000000E+00 -0.00000000000E+00 -0.44099381403E+02  0.44099381403E+02  0.00000000000E+00 0.  1.
        -13    1    1    2    0    0  0.98115755288E+02  0.48001712071E+02  0.13258059931E+03  0.17178036056E+03  0.10566000000E+00 0.  1.
         13    1    1    2    0    0 -0.58899399826E+02 -0.90144077758E+02  0.28523299065E+03  0.30488188561E+03  0.10566000000E+00 0. -1.
         -4    1    1    2    0  502 -0.39216355462E+02  0.42142365687E+02  0.41779622791E+02  0.71129729382E+02  0.00000000000E+00 0. -1.
</event>
<event>
 5    1  0.4881333E-005  0.4590531E+03  0.7818608E-02  0.9708292E-01
          4   -1    0    0  502    0 -0.00000000000E+00  0.00000000000E+00  0.61322806776E+03  0.61322806776E+03  0.00000000000E+00 0.  1.
         21   -1    0    0  501  502  0.00000000000E+00 -0.00000000000E+00 -0.73557520644E+03  0.73557520644E+03  0.00000000000E+00 0.  1.
        -13    1    1    2    0    0 -0.19687266238E+03 -0.21734959802E+03  0.30321787975E+03  0.42183028189E+03  0.10566000000E+00 0.  1.
         13    1    1    2    0    0 -0.28352633336E+03 -0.22238425799E+02 -0.11488676097E+03  0.30672578682E+03  0.10566000000E+00 0. -1.
          4    1    1    2  501    0  0.48039899574E+03  0.23958802382E+03 -0.31067825746E+03  0.62024720550E+03  0.00000000000E+00 0.  1.
</event>
<event>
 5    1  0.4881333E-005  0.4795979E+03  0.7818608E-02  0.9557583E-01
          4   -1    0    0  502    0 -0.00000000000E+00  0.00000000000E+00  0.26850787262E+04  0.26850787262E+04  0.00000000000E+00 0.  1.
         21   -1    0    0  501  502  0.00000000000E+00 -0.00000000000E+00 -0.25379755915E+03  0.25379755915E+03  0.00000000000E+00 0. -1.
        -13    1    1    2    0    0  0.45115047498E+02 -0.46347071181E+03  0.12701805915E+04  0.13528485556E+04  0.10566000000E+00 0.  1.
         13    1    1    2    0    0  0.40923041555E+03  0.30989881270E+03  0.90968657767E+03  0.10445269206E+04  0.10566000000E+00 0. -1.
          4    1    1    2  501    0 -0.45434546305E+03  0.15357189911E+03  0.25141399792E+03  0.54150080918E+03  0.00000000000E+00 0.  1.
</event>
<event>
 5    1  0.4881333E-005  0.4427036E+03  0.7818608E-02  0.9613255E-01
         21   -1    0    0  501  502  0.00000000000E+00  0.00000000000E+00  0.10252132664E+04  0.10252132664E+04  0.00000000000E+00 0.  1.
          4   -1    0    0  502    0 -0.00000000000E+00 -0.00000000000E+00 -0.74098143023E+03  0.74098143023E+03  0.00000000000E+00 0.  1.
        -13    1    1    2    0    0 -0.27316647518E+03  0.30419010145E+03 -0.34598237132E+03  0.53558879134E+03  0.10566000000E+00 0.  1.
         13    1    1    2    0    0  0.19323279972E+03 -0.55710289021E+03  0.48959979922E+02  0.59169218008E+03  0.10566000000E+00 0. -1.
          4    1    1    2  501    0  0.79933675463E+02  0.25291278876E+03  0.58125422760E+03  0.63891372524E+03  0.00000000000E+00 0.  1.
</event>
<event>
 5    1  0.4881333E-005  0.2006314E+03  0.7818608E-02  0.1059704E+00
         -4   -1    0    0    0  501 -0.00000000000E+00  0.00000000000E+00  0.68041494301E+03  0.68041494301E+03  0.00000000000E+00 0. -1.
         21   -1    0    0  501  502  0.00000000000E+00 -0.00000000000E+00 -0.11814939131E+03  0.11814939131E+03  0.00000000000E+00 0.  1.
        -13    1    1    2    0    0  0.14013240115E+02 -0.17705419705E+03  0.21022307272E+02  0.17884772338E+03  0.10566000000E+00 0.  1.
         13    1    1    2    0    0 -0.78058392626E+02  0.19332305914E+03  0.50024530122E+03  0.54195229532E+03  0.10566000000E+00 0. -1.
         -4    1    1    2    0  502  0.64045152511E+02 -0.16268862086E+02  0.40997943213E+02  0.77764315604E+02  0.00000000000E+00 0. -1.
</event>
<event>
 5    1  0.4881333E-005  0.4943181E+03  0.7818608E-02  0.9641714E-01
         -4   -1    0    0    0  501 -0.00000000000E+00  0.00000000000E+00  0.27047900916E+04  0.27047900916E+04  0.00000000000E+00 0. -1.
         21   -1    0    0  501  502  0.00000000000E+00 -0.00000000000E+00 -0.16257687650E+03  0.16257687650E+03  0.00000000000E+00 0. -1.
        -13    1    1    2    0    0 -0.28608665695E+03 -0.29032962156E+02  0.54671636638E+03  0.61772751648E+03  0.10566000000E+00 0.  1.
         13    1    1    2    0    0 -0.20467793060E+03  0.38227086359E+03  0.86422298069E+03  0.96690508321E+03  0.10566000000E+00 0. -1.
         -4    1    1    2    0  502  0.49076458756E+03 -0.35323790144E+03  0.11312738680E+04  0.12827343684E+04  0.00000000000E+00 0. -1.
</event>
<event>
 5    1  0.4881333E-005  0.2850505E+03  0.7818608E-02  0.1013674E+00
          4   -1    0    0  502    0 -0.00000000000E+00  0.00000000000E+00  0.12490259526E+04  0.12490259526E+04  0.00000000000E+00 0.  1.
         21   -1    0    0  501  502  0.00000000000E+00 -0.00000000000E+00 -0.40494128675E+03  0.40494128675E+03  0.00000000000E+00 0.  1.
        -13    1    1    2    0    0 -0.30701208451E+03  0.13140515459E+03  0.65450685865E+03  0.73478090195E+03  0.10566000000E+00 0.  1.
         13    1    1    2    0    0  0.26331326637E+03  0.97086760219E+02  0.47454658411E+03  0.55132040313E+03  0.10566000000E+00 0. -1.
          4    1    1    2  501    0  0.43698818139E+02 -0.22849191481E+03 -0.28496877686E+03  0.36786593431E+03  0.00000000000E+00 0.  1.
</event>
<event>
 5    1  0.4881333E-005  0.5001184E+03  0.7818608E-02  0.9822441E-01
          4   -1    0    0  502    0 -0.00000000000E+00  0.00000000000E+00  0.39390391375E+03  0.39390391375E+03  0.00000000000E+00 0.  1.
         21   -1    0    0  501  502  0.00000000000E+00 -0.00000000000E+00 -0.95011654672E+03  0.95011654672E+03  0.00000000000E+00 0.  1.
        -13    1    1    2    0    0 -0.23104730677E+03  0.51562509728E+03 -0.23405823827E+03  0.61158431061E+03  0.10566000000E+00 0.  1.
         13    1    1    2    0    0  0.11775696575E+03 -0.90555975484E+02 -0.24396716156E+03  0.28563451256E+03  0.10566000000E+00 0. -1.
          4    1    1    2  501    0  0.11329034103E+03 -0.42506912180E+03 -0.78187233130E+02  0.44680163731E+03  0.00000000000E+00 0.  1.
</event>
<event>
 5    1  0.4881333E-005  0.4199820E+03  0.7818608E-02  0.9915417E-01
         21   -1    0    0  501  502  0.00000000000E+00  0.00000000000E+00  0.39487093108E+03  0.39487093108E+03  0.00000000000E+00 0. -1.
         -4   -1    0    0    0  501 -0.00000000000E+00 -0.00000000000E+00 -0.14098460102E+04  0.14098460102E+04  0.00000000000E+00 0. -1.
        -13    1    1    2    0    0  0.30184022886E+02  0.18092350872E+03 -0.74512075126E+03  0.76736519101E+03  0.10566000000E+00 0.  1.
         13    1    1    2    0    0 -0.42066182611E+03 -0.27267154041E+03 -0.37103294534E+03  0.62367587623E+03  0.10566000000E+00 0. -1.
         -4    1    1    2    0  502  0.39047780323E+03  0.91748031691E+02  0.10117861749E+03  0.41367587405E+03  0.00000000000E+00 0. -1.
</event>
<event>
 5    1  0.4881333E-005  0.1237057E+03  0.7818608E-02  0.1130384E+00
         -4   -1    0    0    0  501 -0.00000000000E+00  0.00000000000E+00  0.30501560902E+03  0.30501560902E+03  0.00000000000E+00 0. -1.
         21   -1    0    0  501  502  0.00000000000E+00 -0.00000000000E+00 -0.15226961507E+03  0.15226961507E+03  0.00000000000E+00 0. -1.
        -13    1    1    2    0    0  0.25242366995E+02 -0.11070279533E+03  0.39770365900E+02  0.12030785158E+03  0.10566000000E+00 0.  1.
         13    1    1    2    0    0 -0.47785441603E+01  0.12898546108E+03  0.20427853333E+03  0.24163984357E+03  0.10566000000E+00 0. -1.
         -4    1    1    2    0  502 -0.20463822834E+02 -0.18282665750E+02 -0.91302905281E+02  0.95337528941E+02  0.00000000000E+00 0. -1.
</event>
<event>
 5    1  0.4881333E-005  0.4119919E+03  0.7818608E-02  0.1015357E+00
          4   -1    0    0  502    0 -0.00000000000E+00  0.00000000000E+00  0.10182756642E+04  0.10182756642E+04  0.00000000000E+00 0.  1.
         21   -1    0    0  501  502  0.00000000000E+00 -0.00000000000E+00 -0.28968717945E+03  0.28968717945E+03  0.00000000000E+00 0.  1.
        -13    1    1    2    0    0  0.28730416129E+03  0.35355986448E+03  0.64174454241E+03  0.78700973802E+03  0.10566000000E+00 0.  1.
         13    1    1    2    0    0 -0.89345771437E+02 -0.49422624479E+01  0.79944419584E+02  0.11999255901E+03  0.10566000000E+00 0. -1.
          4    1    1    2  501    0 -0.19795838985E+03 -0.34861760203E+03  0.68995227862E+01  0.40096054665E+03  0.00000000000E+00 0.  1.
</event>
<event>
 5    1  0.4881333E-005  0.5891320E+02  0.7818608E-02  0.1303799E+00
         -4   -1    0    0    0  501 -0.00000000000E+00  0.00000000000E+00  0.26583743463E+02  0.26583743463E+02  0.00000000000E+00 0. -1.
         21   -1    0    0  501  502  0.00000000000E+00 -0.00000000000E+00 -0.83198882412E+03  0.83198882412E+03  0.00000000000E+00 0. -1.
        -13    1    1    2    0    0  0.23386989090E+02 -0.61952715351E+01 -0.55254712970E+01  0.24816821818E+02  0.10566000000E+00 0.  1.
         13    1    1    2    0    0 -0.80547281397E+02  0.10142911049E+02 -0.88589925128E+02  0.12016209545E+03  0.10566000000E+00 0. -1.
         -4    1    1    2    0  502  0.57160292307E+02 -0.39476395139E+01 -0.71128968423E+03  0.71359365031E+03  0.00000000000E+00 0. -1.
</event>
<event>
 5    1  0.4881333E-005  0.4967560E+03  0.7818608E-02  0.9491143E-01
         21   -1    0    0  501  502  0.00000000000E+00  0.00000000000E+00  0.41459759977E+03  0.41459759977E+03  0.00000000000E+00 0.  1.
          4   -1    0    0  502    0 -0.00000000000E+00 -0.00000000000E+00 -0.30239007621E+04  0.30239007621E+04  0.00000000000E+00 0.  1.
        -13    1    1    2    0    0  0.36651147468E+01  0.25824714760E+03 -0.42681971586E+03  0.49887884634E+03  0.10566000000E+00 0.  1.
         13    1    1    2    0    0  0.35052032788E+03  0.33658990244E+03 -0.21940501850E+04  0.22472235065E+04  0.10566000000E+00 0. -1.
          4    1    1    2  501    0 -0.35418544263E+03 -0.59483705004E+03  0.11566738552E+02  0.69239600902E+03  0.00000000000E+00 0.  1.
</event>
<event>
 5    1  0.4881333E-005  0.7169022E+02  0.7818608E-02  0.1222361E+00
         21   -1    0    0  501  502  0.00000000000E+00  0.00000000000E+00  0.60171558148E+03  0.60171558148E+03  0.00000000000E+00 0.  1.
          4   -1    0    0  502    0 -0.00000000000E+00 -0.00000000000E+00 -0.20065349552E+02  0.20065349552E+02  0.00000000000E+00 0.  1.
        -13    1    1    2    0    0  0.20163642379E+02  0.84697972059E+02  0.12933480071E+03  0.15590965584E+03  0.10566000000E+00 0.  1.
         13    1    1    2    0    0 -0.32217809409E+02 -0.47975866580E+02  0.14432270785E+03  0.15546294151E+03  0.10566000000E+00 0. -1.
          4    1    1    2  501    0  0.12054167030E+02 -0.36722105479E+02  0.30799272337E+03  0.31040833368E+03  0.00000000000E+00 0.  1.
</event>
<event>
 5    1  0.4881333E-005  0.1122175E+03  0.7818608E-02  0.1145786E+00
         21   -1    0    0  501  502  0.00000000000E+00  0.00000000000E+00  0.19229091309E+03  0.19229091309E+03  0.00000000000E+00 0. -1.
          4   -1    0    0  502    0 -0.00000000000E+00 -0.00000000000E+00 -0.31473800081E+03  0.31473800081E+03  0.00000000000E+00 0.  1.
        -13    1    1    2    0    0 -0.38748741760E+02 -0.10585976908E+03 -0.28519336840E+03  0.30666435111E+03  0.10566000000E+00 0.  1.
         13    1    1    2    0    0  0.43532539800E+02  0.95527387238E+02  0.14065716176E+03  0.17551356658E+03  0.10566000000E+00 0. -1.
          4    1    1    2  501    0 -0.47837980405E+01  0.10332381842E+02  0.22089118919E+02  0.24850996215E+02  0.00000000000E+00 0.  1.
</event>
<event>
 5    1  0.4881333E-005  0.5556220E+02  0.7818608E-02  0.1270662E+00
         21   -1    0    0  501  502  0.00000000000E+00  0.00000000000E+00  0.51196394460E+02  0.51196394460E+02  0.00000000000E+00 0. -1.
         -4   -1    0    0    0  501 -0.00000000000E+00 -0.00000000000E+00 -0.15147886410E+03  0.15147886410E+03  0.00000000000E+00 0. -1.
        -13    1    1    2    0    0 -0.39011161307E+02  0.22483137469E+02 -0.36624393571E+02  0.58040671477E+02  0.10566000000E+00 0.  1.
         13    1    1    2    0    0  0.69254750194E+02 -0.11946578172E+02 -0.81786649289E+02  0.10783324311E+03  0.10566000000E+00 0. -1.
         -4    1    1    2    0  502 -0.30243588887E+02 -0.10536559298E+02  0.18128573224E+02  0.36801343966E+02  0.00000000000E+00 0. -1.
</event>
<event>
 5    1  0.4881333E-005  0.4644733E+03  0.7818608E-02  0.9881258E-01
         21   -1    0    0  501  502  0.00000000000E+00  0.00000000000E+00  0.54327282407E+03  0.54327282407E+03  0.00000000000E+00 0. -1.
         -4   -1    0    0    0  501 -0.00000000000E+00 -0.00000000000E+00 -0.81505344173E+03  0.81505344173E+03  0.00000000000E+00 0. -1.
        -13    1    1    2    0    0  0.11838663717E+03  0.95373035439E+02 -0.56233755022E+02  0.16209151155E+03  0.10566000000E+00 0.  1.
         13    1    1    2    0    0  0.36539713556E+03 -0.15222815211E+02 -0.50748843905E+03  0.62553283504E+03  0.10566000000E+00 0. -1.
         -4    1    1    2    0  502 -0.48378377272E+03 -0.80150220228E+02  0.29194157641E+03  0.57070191921E+03  0.00000000000E+00 0. -1.
</event>
<event>
 5    1  0.4881333E-005  0.3577758E+03  0.7818608E-02  0.9859606E-01
          4   -1    0    0  502    0 -0.00000000000E+00  0.00000000000E+00  0.19956900249E+04  0.19956900249E+04  0.00000000000E+00 0.  1.
         21   -1    0    0  501  502  0.00000000000E+00 -0.00000000000E+00 -0.31923868117E+03  0.31923868117E+03  0.00000000000E+00 0.  1.
        -13    1    1    2    0    0 -0.19534823232E+03 -0.30167071322E+03  0.17535110143E+04  0.17899628599E+04  0.10566000000E+00 0.  1.
         13    1    1    2    0    0  0.20561524256E+03  0.27874919303E+03  0.88504279105E+02  0.35750770505E+03  0.10566000000E+00 0. -1.
          4    1    1    2  501    0 -0.10267010242E+02  0.22921520190E+02 -0.16556394973E+03  0.16745814115E+03  0.00000000000E+00 0.  1.
</event>
<event>
 5    1  0.4881333E-005  0.8144838E+03  0.7818608E-02  0.8971669E-01
          4   -1    0    0  502    0 -0.00000000000E+00  0.00000000000E+00  0.19324497402E+04  0.19324497402E+04  0.00000000000E+00 0.  1.
         21   -1    0    0  501  502  0.00000000000E+00 -0.00000000000E+00 -0.97345453424E+03  0.97345453424E+03  0.00000000000E+00 0.  1.
        -13    1    1    2    0    0 -0.41005488063E+03  0.87143732337E+03 -0.43190772494E+03  0.10555057118E+04  0.10566000000E+00 0.  1.
         13    1    1    2    0    0  0.15907707417E+03 -0.78031872616E+03  0.13673497495E+04  0.15823552631E+04  0.10566000000E+00 0. -1.
          4    1    1    2  501    0  0.25097780646E+03 -0.91118597207E+02  0.23553181438E+02  0.26804329958E+03  0.00000000000E+00 0.  1.
</event>
<event>
 5    1  0.4881333E-005  0.5271472E+02  0.7818608E-02  0.1281114E+00
         -4   -1    0    0    0  501 -0.00000000000E+00  0.00000000000E+00  0.33261158707E+03  0.33261158707E+03  0.00000000000E+00 0. -1.
         21   -1    0    0  501  502  0.00000000000E+00 -0.00000000000E+00 -0.22007727157E+02  0.22007727157E+02  0.00000000000E+00 0. -1.
        -13    1    1    2    0    0 -0.31525959273E+02 -0.46817148895E+02  0.77426603953E+02  0.95815560857E+02  0.10566000000E+00 0.  1.
         13    1    1    2    0    0  0.45456321751E+02  0.26921046168E+02  0.22790753986E+03  0.23395058838E+03  0.10566000000E+00 0. -1.
         -4    1    1    2    0  502 -0.13930362478E+02  0.19896102727E+02  0.52697161066E+01  0.24853164996E+02  0.00000000000E+00 0. -1.
</event>
<event>
 5    1  0.4881333E-005  0.1564848E+03  0.7818608E-02  0.1094887E+00
          4   -1    0    0  502    0 -0.00000000000E+00  0.00000000000E+00  0.23007742498E+03  0.23007742498E+03  0.00000000000E+00 0.  1.
         21   -1    0    0  501  502  0.00000000000E+00 -0.00000000000E+00 -0.29260994250E+03  0.29260994250E+03  0.00000000000E+00 0. -1.
        -13    1    1    2    0    0 -0.20654171270E+02  0.15747262363E+03  0.15235321922E+03  0.22008120445E+03  0.10566000000E+00 0.  1.
         13    1    1    2    0    0  0.39138462619E+01 -0.14828270417E+03 -0.84267420426E+02  0.17059920239E+03  0.10566000000E+00 0. -1.
          4    1    1    2  501    0  0.16740325008E+02 -0.91899194608E+01 -0.13061831631E+03  0.13200696064E+03  0.00000000000E+00 0.  1.
</event>
<event>
 5    1  0.4881333E-005  0.2132857E+03  0.7818608E-02  0.1053738E+00
         -4   -1    0    0    0  501 -0.00000000000E+00  0.00000000000E+00  0.25086249243E+03  0.25086249243E+03  0.00000000000E+00 0. -1.
         21   -1    0    0  501  502  0.00000000000E+00 -0.00000000000E+00 -0.97090088551E+03  0.97090088551E+03  0.00000000000E+00 0.  1.
        -13    1    1    2    0    0 -0.22072951081E+03  0.64515052467E+01 -0.50793315943E+03  0.55385850582E+03  0.10566000000E+00 0.  1.
         13    1    1    2    0    0  0.18250942711E+02  0.10848793360E+03  0.18054104833E+03  0.21141856575E+03  0.10566000000E+00 0. -1.
         -4    1    1    2    0  502  0.20247856810E+03 -0.11493943885E+03 -0.39264628198E+03  0.45648630636E+03  0.00000000000E+00 0. -1.
</event>
<event>
 5    1  0.4881333E-005  0.3182370E+03  0.7818608E-02  0.1000049E+00
         -4   -1    0    0    0  501 -0.00000000000E+00  0.00000000000E+00  0.45054771957E+03  0.45054771957E+03  0.00000000000E+00 0. -1.
         21   -1    0    0  501  502  0.00000000000E+00 -0.00000000000E+00 -0.95322194693E+03  0.95322194693E+03  0.00000000000E+00 0.  1.
        -13    1    1    2    0    0 -0.10038356614E+03  0.23955050290E+03 -0.20519321519E+03  0.33100690403E+03  0.10566000000E+00 0.  1.
         13    1    1    2    0    0  0.14864012296E+03 -0.29929202249E+03  0.31276558960E+03  0.45770287970E+03  0.10566000000E+00 0. -1.
         -4    1    1    2    0  502 -0.48256556815E+02  0.59741519595E+02 -0.61024660176E+03  0.61505988278E+03  0.00000000000E+00 0. -1.
</event>
<event>
 5    1  0.4881333E-005  0.4532779E+03  0.7818608E-02  0.9723461E-01
         21   -1    0    0  501  502  0.00000000000E+00  0.00000000000E+00  0.22628842416E+03  0.22628842416E+03  0.00000000000E+00 0.  1.
          4   -1    0    0  502    0 -0.00000000000E+00 -0.00000000000E+00 -0.19607724110E+04  0.19607724110E+04  0.00000000000E+00 0.  1.
        -13    1    1    2    0    0  0.26992128981E+03 -0.37865214186E+03 -0.31798946932E+03  0.56334027105E+03  0.10566000000E+00 0.  1.
         13    1    1    2    0    0  0.18411851358E+03  0.21128524822E+03 -0.32109245923E+03  0.42619415962E+03  0.10566000000E+00 0. -1.
          4    1    1    2  501    0 -0.45403980338E+03  0.16736689364E+03 -0.10954020583E+04  0.11975264045E+04  0.00000000000E+00 0.  1.
</event>
<event>
 5    1  0.4881333E-005  0.4956631E+03  0.7818608E-02  0.9612888E-01
         21   -1    0    0  501  502  0.00000000000E+00  0.00000000000E+00  0.20051299113E+03  0.20051299113E+03  0.00000000000E+00 0.  1.
          4   -1    0    0  502    0 -0.00000000000E+00 -0.00000000000E+00 -0.26117707177E+04  0.26117707177E+04  0.00000000000E+00 0.  1.
        -13    1    1    2    0    0  0.30100989391E+03 -0.14156398048E+03 -0.76186760014E+03  0.83131797052E+03  0.10566000000E+00 0.  1.
         13    1    1    2    0    0  0.30504253376E+03 -0.81851023040E+02 -0.10617652717E+04  0.11077436711E+04  0.10566000000E+00 0. -1.
          4    1    1    2  501    0 -0.60605242767E+03  0.22341500352E+03 -0.58762485475E+03  0.87322206729E+03  0.00000000000E+00 0.  1.
</event>
<event>
 5    1  0.4881333E-005  0.2178649E+03  0.7818608E-02  0.1048534E+00
         21   -1    0    0  501  502  0.00000000000E+00  0.00000000000E+00  0.33664899298E+03  0.33664899298E+03  0.00000000000E+00 0.  1.
          4   -1    0    0  502    0 -0.00000000000E+00 -0.00000000000E+00 -0.44985974097E+03  0.44985974097E+03  0.00000000000E+00 0.  1.
        -13    1    1    2    0    0 -0.16058856638E+03  0.18082297160E+03 -0.33297967122E+03  0.41153506207E+03  0.10566000000E+00 0.  1.
         13    1    1    2    0    0  0.76853744083E+02 -0.14225224591E+03  0.30627898175E+02  0.16456086642E+03  0.10566000000E+00 0. -1.
          4    1    1    2  501    0  0.83734822293E+02 -0.38570725688E+02  0.18914102506E+03  0.21041280546E+03  0.00000000000E+00 0.  1.
</event>
<event>
 5    1  0.4881333E-005  0.4713448E+03  0.7818608E-02  0.9543091E-01
         21   -1    0    0  501  502  0.00000000000E+00  0.00000000000E+00  0.29911402804E+03  0.29911402804E+03  0.00000000000E+00 0.  1.
          4   -1    0    0  502    0 -0.00000000000E+00 -0.00000000000E+00 -0.27290104643E+04  0.27290104643E+04  0.00000000000E+00 0.  1.
        -13    1    1    2    0    0 -0.74084953608E+03 -0.64556368700E+02 -0.41153444637E+03  0.84993303945E+03  0.10566000000E+00 0.  1.
         13    1    1    2    0    0  0.42426600160E+03  0.97011888675E+02 -0.15642648023E+04  0.16236801808E+04  0.10566000000E+00 0. -1.
          4    1    1    2  501    0  0.31658353447E+03 -0.32455519975E+02 -0.45409718755E+03  0.55451127204E+03  0.00000000000E+00 0.  1.
</event>
<event>
 5    1  0.4881333E-005  0.2524746E+03  0.7818608E-02  0.1029118E+00
          4   -1    0    0  502    0 -0.00000000000E+00  0.00000000000E+00  0.10934477228E+04  0.10934477228E+04  0.00000000000E+00 0.  1.
         21   -1    0    0  501  502  0.00000000000E+00 -0.00000000000E+00 -0.27078408753E+03  0.27078408753E+03  0.00000000000E+00 0.  1.
        -13    1    1    2    0    0  0.77928457400E+02  0.24092091017E+03  0.92190674392E+03  0.95604800354E+03  0.10566000000E+00 0.  1.
         13    1    1    2    0    0 -0.61001097178E+02 -0.24099568155E+03  0.53680733483E+02  0.25432594184E+03  0.10566000000E+00 0. -1.
          4    1    1    2  501    0 -0.16927360222E+02  0.74771376405E-01 -0.15292384212E+03  0.15385786494E+03  0.00000000000E+00 0.  1.
</event>
<event>
 5    1  0.4881333E-005  0.4331745E+02  0.7818608E-02  0.1321678E+00
         -4   -1    0    0    0  501 -0.00000000000E+00  0.00000000000E+00  0.58560187310E+02  0.58560187310E+02  0.00000000000E+00 0. -1.
         21   -1    0    0  501  502  0.00000000000E+00 -0.00000000000E+00 -0.24158099755E+03  0.24158099755E+03  0.00000000000E+00 0. -1.
        -13    1    1    2    0    0  0.21082667420E+02 -0.49118128681E+02 -0.13709478251E+03  0.14714638964E+03  0.10566000000E+00 0.  1.
         13    1    1    2    0    0 -0.26648319463E+02  0.33499084722E+02  0.44097698516E+02  0.61456812364E+02  0.10566000000E+00 0. -1.
         -4    1    1    2    0  502  0.55656520430E+01  0.15619043959E+02 -0.90023726246E+02  0.91537982849E+02  0.00000000000E+00 0. -1.
</event>
<event>
 5    1  0.4881333E-005  0.3595018E+03  0.7818608E-02  0.1014752E+00
         21   -1    0    0  501  502  0.00000000000E+00  0.00000000000E+00  0.21881703847E+03  0.21881703847E+03  0.00000000000E+00 0.  1.
          4   -1    0    0  502    0 -0.00000000000E+00 -0.00000000000E+00 -0.15909134815E+04  0.15909134815E+04  0.00000000000E+00 0.  1.
        -13    1    1    2    0    0 -0.33515254591E+03  0.18027061068E+03  0.24666397395E+01  0.38056644306E+03  0.10566000000E+00 0.  1.
         13    1    1    2    0    0  0.10972260289E+03 -0.82533008010E+02 -0.36054862368E+03  0.38580573894E+03  0.10566000000E+00 0. -1.
          4    1    1    2  501    0  0.22542994302E+03 -0.97737602668E+02 -0.10140144591E+04  0.10433583380E+04  0.00000000000E+00 0.  1.
</event>
<event>
 5    1  0.4881333E-005  0.2968639E+02  0.7818608E-02  0.1407445E+00
         21   -1    0    0  501  502  0.00000000000E+00  0.00000000000E+00  0.26409373165E+02  0.26409373165E+02  0.00000000000E+00 0.  1.
          4   -1    0    0  502    0 -0.00000000000E+00 -0.00000000000E+00 -0.73688500438E+02  0.73688500438E+02  0.00000000000E+00 0.  1.
        -13    1    1    2    0    0 -0.25432785643E+02 -0.28456786196E+02 -0.99380842881E+01  0.39438457748E+02  0.10566000000E+00 0.  1.
         13    1    1    2    0    0  0.22310780441E+02  0.15890771593E+02 -0.38944218829E+02  0.47612507705E+02  0.10566000000E+00 0. -1.
          4    1    1    2  501    0  0.31220052012E+01  0.12566014603E+02  0.16031758439E+01  0.13046908150E+02  0.00000000000E+00 0.  1.
</event>
<event>
 5    1  0.4881333E-005  0.5112615E+02  0.7818608E-02  0.1287270E+00
          4   -1    0    0  502    0 -0.00000000000E+00  0.00000000000E+00  0.19906743391E+02  0.19906743391E+02  0.00000000000E+00 0.  1.
         21   -1    0    0  501  502  0.00000000000E+00 -0.00000000000E+00 -0.23431873918E+03  0.23431873918E+03  0.00000000000E+00 0. -1.
        -13    1    1    2    0    0  0.22481199112E+02 -0.50330543147E+02 -0.90681329455E+02  0.10612107502E+03  0.10566000000E+00 0.  1.
         13    1    1    2    0    0 -0.53316854023E+01  0.49534311871E+02 -0.43754836172E+02  0.66306649548E+02  0.10566000000E+00 0. -1.
          4    1    1    2  501    0 -0.17149513709E+02  0.79623127606E+00 -0.79975830164E+02  0.81797758008E+02  0.00000000000E+00 0.  1.
</event>
<event>
 5    1  0.5014381E-005  0.2180874E+03  0.7818608E-02  0.1048397E+00
          4   -1    0    0  502    0 -0.00000000000E+00  0.00000000000E+00  0.13032812908E+04  0.13032812908E+04  0.00000000000E+00 0.  1.
         21   -1    0    0  501  502  0.00000000000E+00 -0.00000000000E+00 -0.29600488488E+03  0.29600488488E+03  0.00000000000E+00 0.  1.
        -13    1    1    2    0    0 -0.83665052187E+02  0.26394378746E+03 -0.15575875492E+03  0.31769004516E+03  0.10566000000E+00 0.  1.
         13    1    1    2    0    0 -0.37127372821E+02 -0.20686539784E+03  0.14619522092E+03  0.25601716431E+03  0.10566000000E+00 0. -1.
          4    1    1    2  501    0  0.12079242501E+03 -0.57078389616E+02  0.10168399399E+04  0.10255789662E+04  0.00000000000E+00 0.  1.
</event>
<event>
 5    1  0.4881333E-005  0.1705086E+03  0.7818608E-02  0.1118517E+00
         -4   -1    0    0    0  501 -0.00000000000E+00  0.00000000000E+00  0.30902712928E+03  0.30902712928E+03  0.00000000000E+00 0. -1.
         21   -1    0    0  501  502  0.00000000000E+00 -0.00000000000E+00 -0.19834216258E+03  0.19834216258E+03  0.00000000000E+00 0. -1.
        -13    1    1    2    0    0  0.15965720158E+02 -0.62247681853E+02  0.39853660879E+02  0.75617481879E+02  0.10566000000E+00 0.  1.
         13    1    1    2    0    0 -0.16230607703E+03 -0.32357795624E+02  0.16498164458E+03  0.23368620796E+03  0.10566000000E+00 0. -1.
         -4    1    1    2    0  502  0.14634035687E+03  0.94605477477E+02 -0.94150338757E+02  0.19806560203E+03  0.00000000000E+00 0. -1.
</event>
<event>
 5    1  0.4881333E-005  0.8329963E+02  0.7818608E-02  0.1195600E+00
         21   -1    0    0  501  502  0.00000000000E+00  0.00000000000E+00  0.58638105868E+02  0.58638105868E+02  0.00000000000E+00 0. -1.
          4   -1    0    0  502    0 -0.00000000000E+00 -0.00000000000E+00 -0.28508245806E+03  0.28508245806E+03  0.00000000000E+00 0.  1.
        -13    1    1    2    0    0 -0.72526878249E+02  0.39373165137E+02 -0.22792074243E+03  0.24240105238E+03  0.10566000000E+00 0.  1.
         13    1    1    2    0    0  0.72266365617E+02 -0.50652545636E+02 -0.48517833119E+01  0.88383589790E+02  0.10566000000E+00 0. -1.
          4    1    1    2  501    0  0.26051263155E+00  0.11279380498E+02  0.63281735487E+01  0.12935921758E+02  0.00000000000E+00 0.  1.
</event>
<event>
 5    1  0.4881333E-005  0.8197314E+02  0.7818608E-02  0.1198406E+00
         21   -1    0    0  501  502  0.00000000000E+00  0.00000000000E+00  0.86692070281E+02  0.86692070281E+02  0.00000000000E+00 0.  1.
          4   -1    0    0  502    0 -0.00000000000E+00 -0.00000000000E+00 -0.13903910957E+03  0.13903910957E+03  0.00000000000E+00 0.  1.
        -13    1    1    2    0    0  0.46957604076E+02  0.94220769071E+02 -0.30034553323E+02  0.10947445119E+03  0.10566000000E+00 0.  1.
         13    1    1    2    0    0 -0.32673483477E+02 -0.61349845787E+02 -0.35522868325E+02  0.78059243134E+02  0.10566000000E+00 0. -1.
          4    1    1    2  501    0 -0.14284120599E+02 -0.32870923284E+02  0.13210382359E+02  0.38197485531E+02  0.00000000000E+00 0.  1.
</event>
<event>
 5    1  0.4881333E-005  0.4822373E+03  0.7818608E-02  0.9718893E-01
          4   -1    0    0  502    0 -0.00000000000E+00  0.00000000000E+00  0.87527945546E+03  0.87527945546E+03  0.00000000000E+00 0.  1.
         21   -1    0    0  501  502  0.00000000000E+00 -0.00000000000E+00 -0.77819282235E+03  0.77819282235E+03  0.00000000000E+00 0.  1.
        -13    1    1    2    0    0 -0.39033123613E+03 -0.43623757518E+02 -0.15660537569E+03  0.42283183534E+03  0.10566000000E+00 0.  1.
         13    1    1    2    0    0 -0.23505188818E+03  0.25683347960E+02  0.50406010674E+03  0.55676352868E+03  0.10566000000E+00 0. -1.
          4    1    1    2  501    0  0.62538312431E+03  0.17940409559E+02 -0.25036809793E+03  0.67387691378E+03  0.00000000000E+00 0.  1.
</event>
<event>
 5    1  0.4881333E-005  0.7134923E+02  0.7818608E-02  0.1223231E+00
         -4   -1    0    0    0  501 -0.00000000000E+00  0.00000000000E+00  0.24343599355E+03  0.24343599355E+03  0.00000000000E+00 0. -1.
         21   -1    0    0  501  502  0.00000000000E+00 -0.00000000000E+00 -0.12581127532E+03  0.12581127532E+03  0.00000000000E+00 0.  1.
        -13    1    1    2    0    0 -0.96066263484E+00  0.46458743366E+02 -0.33571449903E+02  0.57327054001E+02  0.10566000000E+00 0.  1.
         13    1    1    2    0    0 -0.27842777429E+02 -0.69884989068E+02  0.22067429410E+03  0.23314434841E+03  0.10566000000E+00 0. -1.
         -4    1    1    2    0  502  0.28803440063E+02  0.23426245702E+02 -0.69478125972E+02  0.78775866455E+02  0.00000000000E+00 0. -1.
</event>
<event>
 5    1  0.4881333E-005  0.1620780E+03  0.7818608E-02  0.1098043E+00
         21   -1    0    0  501  502  0.00000000000E+00  0.00000000000E+00  0.19321249141E+03  0.19321249141E+03  0.00000000000E+00 0.  1.
         -4   -1    0    0    0  501 -0.00000000000E+00 -0.00000000000E+00 -0.89314453213E+03  0.89314453213E+03  0.00000000000E+00 0. -1.
        -13    1    1    2    0    0  0.29619326361E+02 -0.21321864857E+03 -0.26479603396E+02  0.21688862845E+03  0.10566000000E+00 0.  1.
         13    1    1    2    0    0  0.83466575487E+02  0.97111533383E+02 -0.69434078305E+03  0.70604989435E+03  0.10566000000E+00 0. -1.
         -4    1    1    2    0  502 -0.11308590185E+03  0.11610711519E+03  0.20888345724E+02  0.16341850073E+03  0.00000000000E+00 0. -1.
</event>
<event>
 5    1  0.4881333E-005  0.4663051E+02  0.7818608E-02  0.1306151E+00
          4   -1    0    0  502    0 -0.00000000000E+00  0.00000000000E+00  0.22638570274E+02  0.22638570274E+02  0.00000000000E+00 0.  1.
         21   -1    0    0  501  502  0.00000000000E+00 -0.00000000000E+00 -0.33872575643E+03  0.33872575643E+03  0.00000000000E+00 0. -1.
        -13    1    1    2    0    0 -0.62306459532E+01  0.48224532457E+02 -0.87971860740E+01  0.49414857347E+02  0.10566000000E+00 0.  1.
         13    1    1    2    0    0  0.22915243322E+01 -0.35852394677E+02 -0.15508914593E+03  0.15919579026E+03  0.10566000000E+00 0. -1.
          4    1    1    2  501    0  0.39391216209E+01 -0.12372137781E+02 -0.15220085416E+03  0.15275367910E+03  0.00000000000E+00 0.  1.
</event>
<event>
 5    1  0.4881333E-005  0.3782045E+03  0.7818608E-02  0.9794191E-01
          4   -1    0    0  502    0 -0.00000000000E+00  0.00000000000E+00  0.56323118700E+03  0.56323118700E+03  0.00000000000E+00 0.  1.
         21   -1    0    0  501  502  0.00000000000E+00 -0.00000000000E+00 -0.71737024386E+03  0.71737024386E+03  0.00000000000E+00 0.  1.
        -13    1    1    2    0    0 -0.11648740760E+03  0.36943029992E+03  0.91154369125E+02  0.39794119265E+03  0.10566000000E+00 0.  1.
         13    1    1    2    0    0  0.11278215504E+03 -0.35421007051E+03  0.21010018152E+03  0.42699729037E+03  0.10566000000E+00 0. -1.
          4    1    1    2  501    0  0.37052525604E+01 -0.15220229416E+02 -0.45539360750E+03  0.45566294784E+03  0.00000000000E+00 0.  1.
</event>
<event>
 5    1  0.4881333E-005  0.4065200E+03  0.7818608E-02  0.9710402E-01
         -4   -1    0    0    0  501 -0.00000000000E+00  0.00000000000E+00  0.26081632733E+04  0.26081632733E+04  0.00000000000E+00 0. -1.
         21   -1    0    0  501  502  0.00000000000E+00 -0.00000000000E+00 -0.24785265016E+03  0.24785265016E+03  0.00000000000E+00 0. -1.
        -13    1    1    2    0    0  0.42803104787E+03 -0.15018549105E+03  0.10174233072E+04  0.11139642978E+04  0.10566000000E+00 0.  1.
         13    1    1    2    0    0 -0.26081533211E+03  0.30500091621E+03  0.14396072108E+04  0.14944962793E+04  0.10566000000E+00 0. -1.
         -4    1    1    2    0  502 -0.16721571576E+03 -0.15481542516E+03 -0.96719894804E+02  0.24755534636E+03  0.00000000000E+00 0. -1.
</event>
<event>
 5    1  0.4881333E-005  0.4545649E+02  0.7818608E-02  0.1311481E+00
         -4   -1    0    0    0  501 -0.00000000000E+00  0.00000000000E+00  0.31160494893E+02  0.31160494893E+02  0.00000000000E+00 0. -1.
         21   -1    0    0  501  502  0.00000000000E+00 -0.00000000000E+00 -0.17958314421E+03  0.17958314421E+03  0.00000000000E+00 0.  1.
        -13    1    1    2    0    0 -0.40293072079E+02 -0.13609968738E+01 -0.44348370964E+02  0.59934740688E+02  0.10566000000E+00 0.  1.
         13    1    1    2    0    0  0.47687810442E+02 -0.64799144275E+01 -0.20005397084E+01  0.48167726529E+02  0.10566000000E+00 0. -1.
         -4    1    1    2    0  502 -0.73947383633E+01  0.78409113013E+01 -0.10207373864E+03  0.10264117188E+03  0.00000000000E+00 0. -1.
</event>
<event>
 5    1  0.4881333E-005  0.2417308E+03  0.7818608E-02  0.1053727E+00
         21   -1    0    0  501  502  0.00000000000E+00  0.00000000000E+00  0.10614575971E+04  0.10614575971E+04  0.00000000000E+00 0.  1.
          4   -1    0    0  502    0 -0.00000000000E+00 -0.00000000000E+00 -0.98856647823E+03  0.98856647823E+03  0.00000000000E+00 0.  1.
        -13    1    1    2    0    0  0.20847162121E+03 -0.30056465548E+03 -0.76326948545E+02  0.37366474709E+03  0.10566000000E+00 0.  1.
         13    1    1    2    0    0 -0.53430376187E+02  0.12584398755E+03 -0.74228030050E+03  0.75476590409E+03  0.10566000000E+00 0. -1.
          4    1    1    2  501    0 -0.15504124503E+03  0.17472066793E+03  0.89149836789E+03  0.92159342413E+03  0.00000000000E+00 0.  1.
</event>
<event>
 5    1  0.4881333E-005  0.4261921E+03  0.7818608E-02  0.1007934E+00
         21   -1    0    0  501  502  0.00000000000E+00  0.00000000000E+00  0.12275961330E+03  0.12275961330E+03  0.00000000000E+00 0. -1.
         -4   -1    0    0    0  501 -0.00000000000E+00 -0.00000000000E+00 -0.24609699063E+04  0.24609699063E+04  0.00000000000E+00 0. -1.
        -13    1    1    2    0    0  0.10006720069E+03 -0.22347960521E+02 -0.22161523429E+03  0.24418476453E+03  0.10566000000E+00 0.  1.
         13    1    1    2    0    0  0.17504743274E+02  0.43278174329E+03 -0.16551578654E+04  0.17108927564E+04  0.10566000000E+00 0. -1.
         -4    1    1    2    0  502 -0.11757194397E+03 -0.41043378277E+03 -0.46143719330E+03  0.62865199865E+03  0.00000000000E+00 0. -1.
</event>
<event>
 5    1  0.4881333E-005  0.4318923E+03  0.7818608E-02  0.9644588E-01
         21   -1    0    0  501  502  0.00000000000E+00  0.00000000000E+00  0.49386094364E+03  0.49386094364E+03  0.00000000000E+00 0. -1.
          4   -1    0    0  502    0 -0.00000000000E+00 -0.00000000000E+00 -0.11857553805E+04  0.11857553805E+04  0.00000000000E+00 0.  1.
        -13    1    1    2    0    0  0.66415612838E+02 -0.28212391919E+03 -0.56599856109E+03  0.63589253945E+03  0.10566000000E+00 0.  1.
         13    1    1    2    0    0 -0.41650515706E+03 -0.93138009688E+02 -0.27691390252E+03  0.50875588968E+03  0.10566000000E+00 0. -1.
          4    1    1    2  501    0  0.35008954423E+03  0.37526192888E+03  0.15101802679E+03  0.53496789498E+03  0.00000000000E+00 0.  1.
</event>
<event>
 5    1  0.4881333E-005  0.3598306E+03  0.7818608E-02  0.1018154E+00
         -4   -1    0    0    0  501 -0.00000000000E+00  0.00000000000E+00  0.73135025129E+03  0.73135025129E+03  0.00000000000E+00 0. -1.
         21   -1    0    0  501  502  0.00000000000E+00 -0.00000000000E+00 -0.45724302696E+03  0.45724302696E+03  0.00000000000E+00 0. -1.
        -13    1    1    2    0    0  0.26173261685E+02 -0.12008786836E+03  0.58301283393E+02  0.13603376994E+03  0.10566000000E+00 0.  1.
         13    1    1    2    0    0 -0.30495088143E+03  0.32550106863E+03  0.45072420432E+03  0.63411221821E+03  0.10566000000E+00 0. -1.
         -4    1    1    2    0  502  0.27877761974E+03 -0.20541320027E+03 -0.23491826339E+03  0.41844729009E+03  0.00000000000E+00 0. -1.
</event>
<event>
 5    1  0.4881333E-005  0.3288547E+03  0.7818608E-02  0.9969656E-01
         -4   -1    0    0    0  501 -0.00000000000E+00  0.00000000000E+00  0.22940394840E+04  0.22940394840E+04  0.00000000000E+00 0. -1.
         21   -1    0    0  501  502  0.00000000000E+00 -0.00000000000E+00 -0.36733701908E+03  0.36733701908E+03  0.00000000000E+00 0. -1.
        -13    1    1    2    0    0 -0.22151205538E+03 -0.25937346804E+03  0.14838218475E+04  0.15225207627E+04  0.10566000000E+00 0.  1.
         13    1    1    2    0    0  0.37578972330E+03 -0.31046631043E+02  0.64911161578E+03  0.75068482756E+03  0.10566000000E+00 0. -1.
         -4    1    1    2    0  502 -0.15427766792E+03  0.29042009908E+03 -0.20623099844E+03  0.38817091273E+03  0.00000000000E+00 0. -1.
</event>
<event>
 5    1  0.4881333E-005  0.1291994E+03  0.7818608E-02  0.1123651E+00
         -4   -1    0    0    0  501 -0.00000000000E+00  0.00000000000E+00  0.32408751837E+03  0.32408751837E+03  0.00000000000E+00 0. -1.
         21   -1    0    0  501  502  0.00000000000E+00 -0.00000000000E+00 -0.43995154171E+03  0.43995154171E+03  0.00000000000E+00 0. -1.
        -13    1    1    2    0    0  0.63797809564E+02 -0.11013065704E+03  0.33603600023E+02  0.13163637501E+03  0.10566000000E+00 0.  1.
         13    1    1    2    0    0 -0.77352043105E+02  0.10460458348E+03  0.22379012137E+03  0.25885804419E+03  0.10566000000E+00 0. -1.
         -4    1    1    2    0  502  0.13554233541E+02  0.55260735646E+01 -0.37325774472E+03  0.37354464088E+03  0.00000000000E+00 0. -1.
</event>
<event>
 5    1  0.4881333E-005  0.1658557E+03  0.7818608E-02  0.1102176E+00
         -4   -1    0    0    0  501 -0.00000000000E+00  0.00000000000E+00  0.60711572593E+03  0.60711572593E+03  0.00000000000E+00 0. -1.
         21   -1    0    0  501  502  0.00000000000E+00 -0.00000000000E+00 -0.88615233663E+02  0.88615233663E+02  0.00000000000E+00 0. -1.
        -13    1    1    2    0    0  0.95077078859E+02  0.50838975243E+02  0.10041363279E+03  0.14733350313E+03  0.10566000000E+00 0.  1.
         13    1    1    2    0    0 -0.88469239320E+02 -0.17859359201E+03  0.14386375956E+03  0.24580331546E+03  0.10566000000E+00 0. -1.
         -4    1    1    2    0  502 -0.66078395396E+01  0.12775461676E+03  0.27422309992E+03  0.30259414101E+03  0.00000000000E+00 0. -1.
</event>
<event>
 5    1  0.4881333E-005  0.4926054E+03  0.7818608E-02  0.9674200E-01
          4   -1    0    0  502    0 -0.00000000000E+00  0.00000000000E+00  0.90290543246E+03  0.90290543246E+03  0.00000000000E+00 0.  1.
         21   -1    0    0  501  502  0.00000000000E+00 -0.00000000000E+00 -0.56329743922E+03  0.56329743922E+03  0.00000000000E+00 0.  1.
        -13    1    1    2    0    0  0.30193117437E+03 -0.31787812969E+03 -0.77339994326E+02  0.44518583230E+03  0.10566000000E+00 0.  1.
         13    1    1    2    0    0 -0.40128110539E+02 -0.25609726173E+03  0.26790732326E+03  0.37278736264E+03  0.10566000000E+00 0. -1.
          4    1    1    2  501    0 -0.26180306383E+03  0.57397539143E+03  0.14904066430E+03  0.64822967674E+03  0.00000000000E+00 0.  1.
</event>
<event>
 5    1  0.4881333E-005  0.1375050E+03  0.7818608E-02  0.1117232E+00
         -4   -1    0    0    0  501 -0.00000000000E+00  0.00000000000E+00  0.32273880577E+03  0.32273880577E+03  0.00000000000E+00 0. -1.
         21   -1    0    0  501  502  0.00000000000E+00 -0.00000000000E+00 -0.74151894485E+03  0.74151894485E+03  0.00000000000E+00 0.  1.
        -13    1    1    2    0    0  0.82788637841E+02 -0.95952776087E+02 -0.24587894918E+03  0.27661771926E+03  0.10566000000E+00 0.  1.
         13    1    1    2    0    0 -0.10050148776E+03  0.22864612307E+03  0.24436848673E+03  0.34942176107E+03  0.10566000000E+00 0. -1.
         -4    1    1    2    0  502  0.17712849923E+02 -0.13269334698E+03 -0.41726967663E+03  0.43821827029E+03  0.00000000000E+00 0. -1.
</event>
<event>
 5    1  0.4881333E-005  0.1898777E+03  0.7818608E-02  0.1067306E+00
         -4   -1    0    0    0  501 -0.00000000000E+00  0.00000000000E+00  0.14949422664E+03  0.14949422664E+03  0.00000000000E+00 0. -1.
         21   -1    0    0  501  502  0.00000000000E+00 -0.00000000000E+00 -0.44906628687E+03  0.44906628687E+03  0.00000000000E+00 0.  1.
        -13    1    1    2    0    0 -0.17339987540E+03 -0.86944962893E+02  0.21121382186E+02  0.19512321059E+03  0.10566000000E+00 0.  1.
         13    1    1    2    0    0  0.15345471225E+03  0.95891276331E+02 -0.16085555699E+03  0.24211155893E+03  0.10566000000E+00 0. -1.
         -4    1    1    2    0  502  0.19945163153E+02 -0.89463134380E+01 -0.15983788543E+03  0.16132574399E+03  0.00000000000E+00 0. -1.
</event>
<event>
 5    1  0.4881333E-005  0.4564868E+03  0.7818608E-02  0.9887427E-01
          4   -1    0    0  502    0 -0.00000000000E+00  0.00000000000E+00  0.10867113758E+04  0.10867113758E+04  0.00000000000E+00 0.  1.
         21   -1    0    0  501  502  0.00000000000E+00 -0.00000000000E+00 -0.39745848976E+03  0.39745848976E+03  0.00000000000E+00 0.  1.
        -13    1    1    2    0    0  0.81087055080E+02 -0.48151031442E+03 -0.85516675435E+02  0.49572210596E+03  0.10566000000E+00 0.  1.
         13    1    1    2    0    0 -0.13312189643E+03  0.82972296179E+02  0.43410708734E+03  0.46157861268E+03  0.10566000000E+00 0. -1.
          4    1    1    2  501    0  0.52034841350E+02  0.39853801824E+03  0.34066247418E+03  0.52686914695E+03  0.00000000000E+00 0.  1.
</event>
<event>
 5    1  0.4881333E-005  0.1169151E+03  0.7818608E-02  0.1139254E+00
          4   -1    0    0  502    0 -0.00000000000E+00  0.00000000000E+00  0.84995569230E+02  0.84995569230E+02  0.00000000000E+00 0.  1.
         21   -1    0    0  501  502  0.00000000000E+00 -0.00000000000E+00 -0.31531504266E+03  0.31531504266E+03  0.00000000000E+00 0. -1.
        -13    1    1    2    0    0 -0.11387167995E+03  0.58024067452E+02 -0.17788892928E+02  0.12903490913E+03  0.10566000000E+00 0.  1.
         13    1    1    2    0    0  0.73895409865E+02 -0.40740722563E+02 -0.21149933697E+03  0.22771104228E+03  0.10566000000E+00 0. -1.
          4    1    1    2  501    0  0.39976270081E+02 -0.17283344889E+02 -0.10312435359E+01  0.43564660487E+02  0.00000000000E+00 0.  1.
</event>
<event>
 5    1  0.5976843E-005  0.4050085E+03  0.7818608E-02  0.9714692E-01
         21   -1    0    0  501  502  0.00000000000E+00  0.00000000000E+00  0.32550627805E+03  0.32550627805E+03  0.00000000000E+00 0.  1.
          4   -1    0    0  502    0 -0.00000000000E+00 -0.00000000000E+00 -0.24037408651E+04  0.24037408651E+04  0.00000000000E+00 0.  1.
        -13    1    1    2    0    0 -0.31967916095E+03  0.21996590415E+03 -0.18117607600E+04  0.18528509998E+04  0.10566000000E+00 0.  1.
         13    1    1    2    0    0  0.52767144123E+03 -0.16617570517E+03 -0.33997671850E+03  0.64933480976E+03  0.10566000000E+00 0. -1.
          4    1    1    2  501    0 -0.20799228028E+03 -0.53790198985E+02  0.73502891420E+02  0.22706133359E+03  0.00000000000E+00 0.  1.
</event>
<event>
 5    1  0.4881333E-005  0.4378749E+03  0.7818608E-02  0.1001314E+00
          4   -1    0    0  502    0 -0.00000000000E+00  0.00000000000E+00  0.13662165065E+04  0.13662165065E+04  0.00000000000E+00 0.  1.
         21   -1    0    0  501  502  0.00000000000E+00 -0.00000000000E+00 -0.24540343554E+03  0.24540343554E+03  0.00000000000E+00 0.  1.
        -13    1    1    2    0    0 -0.43555757900E+03 -0.11781192076E+02  0.12130270063E+03  0.45228702994E+03  0.10566000000E+00 0.  1.
         13    1    1    2    0    0 -0.65020834748E+01  0.11703215208E+03  0.32978614638E+03  0.34999673601E+03  0.10566000000E+00 0. -1.
          4    1    1    2  501    0  0.44205966247E+03 -0.10525096001E+03  0.66972422397E+03  0.80933617610E+03  0.00000000000E+00 0.  1.
</event>
<event>
 5    1  0.4881333E-005  0.3404444E+03  0.7818608E-02  0.1009684E+00
         21   -1    0    0  501  502  0.00000000000E+00  0.00000000000E+00  0.15347812089E+03  0.15347812089E+03  0.00000000000E+00 0.  1.
          4   -1    0    0  502    0 -0.00000000000E+00 -0.00000000000E+00 -0.25330433166E+04  0.25330433166E+04  0.00000000000E+00 0.  1.
        -13    1    1    2    0    0  0.40427067371E+03  0.21336167972E+03 -0.16524282556E+04  0.17144903427E+04  0.10566000000E+00 0.  1.
         13    1    1    2    0    0 -0.80018100551E+02 -0.17247228111E+03 -0.58593682972E+03  0.61601263279E+03  0.10566000000E+00 0. -1.
          4    1    1    2  501    0 -0.32425257316E+03 -0.40889398606E+02 -0.14120011033E+03  0.35601846199E+03  0.00000000000E+00 0.  1.
</event>
<event>
 5    1  0.4881333E-005  0.4788039E+03  0.7818608E-02  0.9546756E-01
         21   -1    0    0  501  502  0.00000000000E+00  0.00000000000E+00  0.44957852365E+03  0.44957852365E+03  0.00000000000E+00 0.  1.
          4   -1    0    0  502    0 -0.00000000000E+00 -0.00000000000E+00 -0.19326908393E+04  0.19326908393E+04  0.00000000000E+00 0.  1.
        -13    1    1    2    0    0 -0.96437838816E+02  0.20521547150E+03 -0.54686640948E+03  0.59201058055E+03  0.10566000000E+00 0.  1.
         13    1    1    2    0    0  0.38760353557E+03  0.31163774553E+03 -0.10719536191E+04  0.11817102681E+04  0.10566000000E+00 0. -1.
          4    1    1    2  501    0 -0.29116569676E+03 -0.51685321703E+03  0.13570771287E+03  0.60854851430E+03  0.00000000000E+00 0.  1.
</event>
<event>
 5    1  0.4881333E-005  0.1865260E+03  0.7818608E-02  0.1069787E+00
         21   -1    0    0  501  502  0.00000000000E+00  0.00000000000E+00  0.85217215198E+02  0.85217215198E+02  0.00000000000E+00 0.  1.
          4   -1    0    0  502    0 -0.00000000000E+00 -0.00000000000E+00 -0.86724936591E+03  0.86724936591E+03  0.00000000000E+00 0.  1.
        -13    1    1    2    0    0 -0.81590284209E+02 -0.18754705890E+03 -0.52504031680E+03  0.56346980328E+03  0.10566000000E+00 0.  1.
         13    1    1    2    0    0  0.26007330932E+02  0.16589226230E+03 -0.27881683812E+03  0.32547728697E+03  0.10566000000E+00 0. -1.
          4    1    1    2  501    0  0.55582953277E+02  0.21654796605E+02  0.21825004202E+02  0.63519490862E+02  0.00000000000E+00 0.  1.
</event>
<event>
 5    1  0.4881333E-005  0.7623751E+03  0.7818608E-02  0.9037093E-01
          4   -1    0    0  502    0 -0.00000000000E+00  0.00000000000E+00  0.21788121001E+04  0.21788121001E+04  0.00000000000E+00 0.  1.
         21   -1    0    0  501  502  0.00000000000E+00 -0.00000000000E+00 -0.41979553351E+03  0.41979553351E+03  0.00000000000E+00 0. -1.
        -13    1    1    2    0    0  0.53565840648E+03 -0.72811736138E+03  0.76676149353E+03  0.11853303419E+04  0.10566000000E+00 0.  1.
         13    1    1    2    0    0 -0.54774869373E+03  0.41103428069E+03  0.73684798212E+03  0.10059437217E+04  0.10566000000E+00 0. -1.
          4    1    1    2  501    0  0.12090287253E+02  0.31708308069E+03  0.25540709096E+03  0.40733356996E+03  0.00000000000E+00 0.  1.
</event>
<event>
 5    1  0.4881333E-005  0.2464697E+03  0.7818608E-02  0.1032238E+00
         -4   -1    0    0    0  501 -0.00000000000E+00  0.00000000000E+00  0.10481760710E+04  0.10481760710E+04  0.00000000000E+00 0. -1.
         21   -1    0    0  501  502  0.00000000000E+00 -0.00000000000E+00 -0.72462428958E+02  0.72462428958E+02  0.00000000000E+00 0.  1.
        -13    1    1    2    0    0 -0.19373663660E+03 -0.16052666989E+03  0.42634839731E+03  0.49505117227E+03  0.10566000000E+00 0.  1.
         13    1    1    2    0    0  0.20716559528E+03  0.12806296964E+03  0.53462726353E+03  0.58748960002E+03  0.10566000000E+00 0. -1.
         -4    1    1    2    0  502 -0.13428958683E+02  0.32463700253E+02  0.14737981238E+02  0.38097727706E+02  0.00000000000E+00 0. -1.
</event>
<event>
 5    1  0.5271207E-005  0.3380448E+03  0.7818608E-02  0.1069013E+00
         21   -1    0    0  501  502  0.00000000000E+00  0.00000000000E+00  0.32951512259E+03  0.32951512259E+03  0.00000000000E+00 0. -1.
         -4   -1    0    0    0  501 -0.00000000000E+00 -0.00000000000E+00 -0.83228055846E+03  0.83228055846E+03  0.00000000000E+00 0. -1.
        -13    1    1    2    0    0  0.18028101600E+02  0.26484923268E+02 -0.72597767257E+02  0.79353075445E+02  0.10566000000E+00 0.  1.
         13    1    1    2    0    0  0.42971004335E+02 -0.35586903510E+03 -0.60602818860E+03  0.70410187750E+03  0.10566000000E+00 0. -1.
         -4    1    1    2    0  502 -0.60999105935E+02  0.32938411183E+03  0.17586051999E+03  0.37834072811E+03  0.00000000000E+00 0. -1.
</event>
<event>
 5    1  0.4881333E-005  0.4971812E+03  0.7818608E-02  0.9932760E-01
         -4   -1    0    0    0  501 -0.00000000000E+00  0.00000000000E+00  0.10264688700E+04  0.10264688700E+04  0.00000000000E+00 0. -1.
         21   -1    0    0  501  502  0.00000000000E+00 -0.00000000000E+00 -0.32019411718E+03  0.32019411718E+03  0.00000000000E+00 0. -1.
        -13    1    1    2    0    0 -0.10002140759E+03  0.29775576901E+02  0.17019728544E+03  0.19964466958E+03  0.10566000000E+00 0.  1.
         13    1    1    2    0    0  0.53333692978E+03  0.61129649835E+02  0.14446067483E+03  0.55592626534E+03  0.10566000000E+00 0. -1.
         -4    1    1    2    0  502 -0.43331552220E+03 -0.90905226736E+02  0.39161679250E+03  0.59109205222E+03  0.00000000000E+00 0. -1.
</event>
<event>
 5    1  0.4881333E-005  0.4279792E+03  0.7818608E-02  0.9935732E-01
         21   -1    0    0  501  502  0.00000000000E+00  0.00000000000E+00  0.13873550939E+04  0.13873550939E+04  0.00000000000E+00 0. -1.
         -4   -1    0    0    0  501 -0.00000000000E+00 -0.00000000000E+00 -0.26430205653E+03  0.26430205653E+03  0.00000000000E+00 0. -1.
        -13    1    1    2    0    0  0.17477740218E+02 -0.16105567080E+03  0.68110576864E+01  0.16214438680E+03  0.10566000000E+00 0.  1.
         13    1    1    2    0    0  0.11578290559E+03  0.52697498350E+03  0.39098673302E+03  0.66631745514E+03  0.10566000000E+00 0. -1.
         -4    1    1    2    0  502 -0.13326064580E+03 -0.36591931271E+03  0.72525524670E+03  0.82319530854E+03  0.00000000000E+00 0. -1.
</event>
<event>
 5    1  0.4881333E-005  0.8246847E+02  0.7818608E-02  0.1197352E+00
         -4   -1    0    0    0  501 -0.00000000000E+00  0.00000000000E+00  0.17117946274E+03  0.17117946274E+03  0.00000000000E+00 0. -1.
         21   -1    0    0  501  502  0.00000000000E+00 -0.00000000000E+00 -0.27324285973E+03  0.27324285973E+03  0.00000000000E+00 0.  1.
        -13    1    1    2    0    0  0.18560183451E+02 -0.92442912278E+02 -0.95813554002E+02  0.13442626505E+03  0.10566000000E+00 0.  1.
         13    1    1    2    0    0 -0.18073231962E+02  0.79317426828E+02  0.14066526237E+03  0.16249499412E+03  0.10566000000E+00 0. -1.
         -4    1    1    2    0  502 -0.48695148898E+00  0.13125485450E+02 -0.14691510536E+03  0.14750106330E+03  0.00000000000E+00 0. -1.
</event>
<event>
 5    1  0.4881333E-005  0.4292641E+03  0.7818608E-02  0.9648147E-01
          4   -1    0    0  502    0 -0.00000000000E+00  0.00000000000E+00  0.11547013830E+04  0.11547013830E+04  0.00000000000E+00 0.  1.
         21   -1    0    0  501  502  0.00000000000E+00 -0.00000000000E+00 -0.27588713438E+03  0.27588713438E+03  0.00000000000E+00 0. -1.
        -13    1    1    2    0    0 -0.42660556281E+03  0.77361874982E+02  0.71165746053E+03  0.83332677756E+03  0.10566000000E+00 0.  1.
         13    1    1    2    0    0  0.41231524947E+03 -0.85773286573E+02  0.26529186000E+03  0.49773557617E+03  0.10566000000E+00 0. -1.
          4    1    1    2  501    0  0.14290313332E+02  0.84114115912E+01 -0.98135071940E+02  0.99526163620E+02  0.00000000000E+00 0.  1.
</event>
<event>
 5    1  0.4881333E-005  0.2622819E+03  0.7818608E-02  0.1032439E+00
          4   -1    0    0  502    0 -0.00000000000E+00  0.00000000000E+00  0.12236212149E+04  0.12236212149E+04  0.00000000000E+00 0.  1.
         21   -1    0    0  501  502  0.00000000000E+00 -0.00000000000E+00 -0.58057398414E+03  0.58057398414E+03  0.00000000000E+00 0.  1.
        -13    1    1    2    0    0 -0.40097480228E+03  0.20441812287E+03  0.29715382021E+03  0.53932176393E+03  0.10566000000E+00 0.  1.
         13    1    1    2    0    0  0.18353769410E+03 -0.87358925160E+02  0.75781438334E+03  0.78460201232E+03  0.10566000000E+00 0. -1.
          4    1    1    2  501    0  0.21743710818E+03 -0.11705919771E+03 -0.41192097276E+03  0.48027142282E+03  0.00000000000E+00 0.  1.
</event>
<event>
 5    1  0.4881333E-005  0.8533117E+03  0.7818608E-02  0.8926166E-01
         21   -1    0    0  501  502  0.00000000000E+00  0.00000000000E+00  0.45865651001E+03  0.45865651001E+03  0.00000000000E+00 0.  1.
         -4   -1    0    0    0  501 -0.00000000000E+00 -0.00000000000E+00 -0.20325612603E+04  0.20325612603E+04  0.00000000000E+00 0. -1.
        -13    1    1    2    0    0  0.76326488384E+03  0.33750631689E+03 -0.11376819075E+04  0.14109585149E+04  0.10566000000E+00 0.  1.
         13    1    1    2    0    0 -0.84556332491E+03 -0.29472718561E+03 -0.39186985740E+03  0.97744741376E+03  0.10566000000E+00 0. -1.
         -4    1    1    2    0  502  0.82298441069E+02 -0.42779131286E+02 -0.44352985388E+02  0.10281184168E+03  0.00000000000E+00 0. -1.
</event>
<event>
 5    1  0.4881333E-005  0.6530357E+02  0.7818608E-02  0.1239616E+00
         21   -1    0    0  501  502  0.00000000000E+00  0.00000000000E+00  0.17705812912E+03  0.17705812912E+03  0.00000000000E+00 0. -1.
         -4   -1    0    0    0  501 -0.00000000000E+00 -0.00000000000E+00 -0.40886231004E+02  0.40886231004E+02  0.00000000000E+00 0. -1.
        -13    1    1    2    0    0 -0.16248934526E+02 -0.72647434817E+02  0.43605364336E+02  0.86273498953E+02  0.10566000000E+00 0.  1.
         13    1    1    2    0    0  0.18597580782E+02  0.55827730944E+02  0.28482774946E+02  0.65374958401E+02  0.10566000000E+00 0. -1.
         -4    1    1    2    0  502 -0.23486462558E+01  0.16819703873E+02  0.64083758834E+02  0.66295902769E+02  0.00000000000E+00 0. -1.
</event>
<event>
 5    1  0.4881333E-005  0.5001483E+03  0.7818608E-02  0.9671370E-01
         -4   -1    0    0    0  501 -0.00000000000E+00  0.00000000000E+00  0.22199252299E+04  0.22199252299E+04  0.00000000000E+00 0. -1.
         21   -1    0    0  501  502  0.00000000000E+00 -0.00000000000E+00 -0.18731445763E+03  0.18731445763E+03  0.00000000000E+00 0. -1.
        -13    1    1    2    0    0 -0.18894749221E+03 -0.16391281850E+03  0.29676669345E+03  0.38812246570E+03  0.10566000000E+00 0.  1.
         13    1    1    2    0    0  0.53999268140E+03  0.30311517906E+03  0.81286677114E+03  0.10218724512E+04  0.10566000000E+00 0. -1.
         -4    1    1    2    0  502 -0.35104518919E+03 -0.13920236056E+03  0.92297730769E+03  0.99724477063E+03  0.00000000000E+00 0. -1.
</event>
<event>
 5    1  0.4881333E-005  0.3511859E+03  0.7818608E-02  0.1083739E+00
         21   -1    0    0  501  502  0.00000000000E+00  0.00000000000E+00  0.20203296877E+03  0.20203296877E+03  0.00000000000E+00 0. -1.
         -4   -1    0    0    0  501 -0.00000000000E+00 -0.00000000000E+00 -0.13054184895E+04  0.13054184895E+04  0.00000000000E+00 0. -1.
        -13    1    1    2    0    0 -0.13623341476E+02 -0.13011390335E+02 -0.78647005056E+02  0.80871838607E+02  0.10566000000E+00 0.  1.
         13    1    1    2    0    0  0.13444992697E+03 -0.32334117875E+03 -0.95423051186E+01  0.35031038736E+03  0.10566000000E+00 0. -1.
         -4    1    1    2    0  502 -0.12082658550E+03  0.33635256909E+03 -0.10151962105E+04  0.10762692323E+04  0.00000000000E+00 0. -1.
</event>
<event>
 5    1  0.4881333E-005  0.4913744E+03  0.7818608E-02  0.9866587E-01
         -4   -1    0    0    0  501 -0.00000000000E+00  0.00000000000E+00  0.69833270784E+03  0.69833270784E+03  0.00000000000E+00 0. -1.
         21   -1    0    0  501  502  0.00000000000E+00 -0.00000000000E+00 -0.65417009421E+03  0.65417009421E+03  0.00000000000E+00 0. -1.
        -13    1    1    2    0    0  0.84730394650E+02  0.10496008215E+03  0.29919997314E+03  0.32820190997E+03  0.10566000000E+00 0.  1.
         13    1    1    2    0    0 -0.39823168397E+03  0.28625021886E+03 -0.11396418264E+03  0.50350323535E+03  0.10566000000E+00 0. -1.
         -4    1    1    2    0  502  0.31350128932E+03 -0.39121030101E+03 -0.14107317686E+03  0.52079765672E+03  0.00000000000E+00 0. -1.
</event>
<event>
 5    1  0.4881333E-005  0.1342739E+03  0.7818608E-02  0.1117747E+00
          4   -1    0    0  502    0 -0.00000000000E+00  0.00000000000E+00  0.25971650152E+03  0.25971650152E+03  0.00000000000E+00 0.  1.
         21   -1    0    0  501  502  0.00000000000E+00 -0.00000000000E+00 -0.41729056694E+03  0.41729056694E+03  0.00000000000E+00 0. -1.
        -13    1    1    2    0    0  0.16175242021E+02 -0.13251381725E+03  0.21625771096E+03  0.25414357936E+03  0.10566000000E+00 0.  1.
         13    1    1    2    0    0  0.33530556569E+01  0.14463958437E+03 -0.19633135206E+03  0.24388083835E+03  0.10566000000E+00 0. -1.
          4    1    1    2  501    0 -0.19528297678E+02 -0.12125767118E+02 -0.17750042432E+03  0.17898265076E+03  0.00000000000E+00 0.  1.
</event>
<event>
 5    1  0.4881333E-005  0.4843267E+03  0.7818608E-02  0.9740795E-01
         21   -1    0    0  501  502  0.00000000000E+00  0.00000000000E+00  0.46824947832E+03  0.46824947832E+03  0.00000000000E+00 0.  1.
          4   -1    0    0  502    0 -0.00000000000E+00 -0.00000000000E+00 -0.87432014141E+03  0.87432014141E+03  0.00000000000E+00 0.  1.
        -13    1    1    2    0    0 -0.18038123955E+03  0.48494154212E+03  0.57293015672E+02  0.52056526168E+03  0.10566000000E+00 0.  1.
         13    1    1    2    0    0  0.21424273789E+03 -0.30195654903E+02 -0.20416562429E+03  0.29748166602E+03  0.10566000000E+00 0. -1.
          4    1    1    2  501    0 -0.33861498336E+02 -0.45474588722E+03 -0.25919805448E+03  0.52452269203E+03  0.00000000000E+00 0.  1.
</event>
<event>
 5    1  0.4881333E-005  0.1321255E+03  0.7818608E-02  0.1120212E+00
         -4   -1    0    0    0  501 -0.00000000000E+00  0.00000000000E+00  0.12940376348E+04  0.12940376348E+04  0.00000000000E+00 0. -1.
         21   -1    0    0  501  502  0.00000000000E+00 -0.00000000000E+00 -0.15633964064E+02  0.15633964064E+02  0.00000000000E+00 0.  1.
        -13    1    1    2    0    0 -0.12201251498E+03 -0.41586224874E+02  0.57596699265E+03  0.59021560102E+03  0.10566000000E+00 0.  1.
         13    1    1    2    0    0  0.12493421983E+03  0.51733175632E+02  0.69007388732E+03  0.70319759802E+03  0.10566000000E+00 0. -1.
         -4    1    1    2    0  502 -0.29217048499E+01 -0.10146950757E+02  0.12362790769E+02  0.16258399813E+02  0.00000000000E+00 0. -1.
</event>
<event>
 5    1  0.4881333E-005  0.3882522E+03  0.7818608E-02  0.9913358E-01
         21   -1    0    0  501  502  0.00000000000E+00  0.00000000000E+00  0.36616988072E+03  0.36616988072E+03  0.00000000000E+00 0. -1.
         -4   -1    0    0    0  501 -0.00000000000E+00 -0.00000000000E+00 -0.17475584508E+04  0.17475584508E+04  0.00000000000E+00 0. -1.
        -13    1    1    2    0    0  0.89109060538E+02  0.21612093352E+03 -0.95962969987E+03  0.98769319863E+03  0.10566000000E+00 0.  1.
         13    1    1    2    0    0 -0.28892724588E+03 -0.50079931096E+03 -0.50583548797E+03  0.76821120489E+03  0.10566000000E+00 0. -1.
         -4    1    1    2    0  502  0.19981818534E+03  0.28467837744E+03  0.84076617787E+02  0.35782392797E+03  0.00000000000E+00 0. -1.
</event>
<event>
 5    1  0.4881333E-005  0.3360825E+03  0.7818608E-02  0.1005363E+00
          4   -1    0    0  502    0 -0.00000000000E+00  0.00000000000E+00  0.25763350356E+03  0.25763350356E+03  0.00000000000E+00 0.  1.
         21   -1    0    0  501  502  0.00000000000E+00 -0.00000000000E+00 -0.15311971975E+04  0.15311971975E+04  0.00000000000E+00 0.  1.
        -13    1    1    2    0    0 -0.19748133679E+03 -0.25912686608E+03 -0.94689691412E+03  0.10013787437E+04  0.10566000000E+00 0.  1.
         13    1    1    2    0    0 -0.21468629381E+03  0.74428039773E+02 -0.23441860179E+03  0.32646872726E+03  0.10566000000E+00 0. -1.
          4    1    1    2  501    0  0.41216763060E+03  0.18469882631E+03 -0.92248178075E+02  0.46098323018E+03  0.00000000000E+00 0.  1.
</event>
<event>
 5    1  0.4881333E-005  0.9716656E+02  0.7818608E-02  0.1169330E+00
          4   -1    0    0  502    0 -0.00000000000E+00  0.00000000000E+00  0.11587981704E+03  0.11587981704E+03  0.00000000000E+00 0.  1.
         21   -1    0    0  501  502  0.00000000000E+00 -0.00000000000E+00 -0.17607845532E+03  0.17607845532E+03  0.00000000000E+00 0.  1.
        -13    1    1    2    0    0 -0.21024328628E+01 -0.10102433989E+03  0.59730222775E+02  0.11737993078E+03  0.10566000000E+00 0.  1.
         13    1    1    2    0    0  0.19436304678E+02  0.86059809046E+02 -0.50915518807E+02  0.10186491983E+03  0.10566000000E+00 0. -1.
          4    1    1    2  501    0 -0.17333871816E+02  0.14964530840E+02 -0.69013342240E+02  0.72713421750E+02  0.00000000000E+00 0.  1.
</event>
<event>
 5    1  0.4881333E-005  0.2826751E+03  0.7818608E-02  0.1067575E+00
         21   -1    0    0  501  502  0.00000000000E+00  0.00000000000E+00  0.10099202740E+04  0.10099202740E+04  0.00000000000E+00 0. -1.
         -4   -1    0    0    0  501 -0.00000000000E+00 -0.00000000000E+00 -0.27873061858E+03  0.27873061858E+03  0.00000000000E+00 0. -1.
        -13    1    1    2    0    0  0.36121946946E+02 -0.44227448948E+02  0.35674147915E+02  0.67331406380E+02  0.10566000000E+00 0.  1.
         13    1    1    2    0    0 -0.20563682200E+03  0.20109229666E+03  0.87994553274E+03  0.92575848151E+03  0.10566000000E+00 0. -1.
         -4    1    1    2    0  502  0.16951487505E+03 -0.15686484772E+03 -0.18443002520E+03  0.29556100472E+03  0.00000000000E+00 0. -1.
</event>
<event>
 5    1  0.4881333E-005  0.2231068E+03  0.7818608E-02  0.1064309E+00
         21   -1    0    0  501  502  0.00000000000E+00  0.00000000000E+00  0.24847134610E+03  0.24847134610E+03  0.00000000000E+00 0.  1.
         -4   -1    0    0    0  501 -0.00000000000E+00 -0.00000000000E+00 -0.13708238184E+04  0.13708238184E+04  0.00000000000E+00 0. -1.
        -13    1    1    2    0    0  0.10475530092E+03 -0.72888834670E+02  0.83307875197E+02  0.15240298069E+03  0.10566000000E+00 0.  1.
         13    1    1    2    0    0 -0.26425101239E+03  0.21414483262E+03 -0.12068201523E+04  0.12538347172E+04  0.10566000000E+00 0. -1.
         -4    1    1    2    0  502  0.15949571147E+03 -0.14125599795E+03  0.11598048072E+01  0.21305746661E+03  0.00000000000E+00 0. -1.
</event>
<event>
 5    1  0.4881333E-005  0.5350840E+02  0.7818608E-02  0.1278128E+00
          4   -1    0    0  502    0 -0.00000000000E+00  0.00000000000E+00  0.69758245119E+02  0.69758245119E+02  0.00000000000E+00 0.  1.
         21   -1    0    0  501  502  0.00000000000E+00 -0.00000000000E+00 -0.23585050179E+03  0.23585050179E+03  0.00000000000E+00 0. -1.
        -13    1    1    2    0    0 -0.25657276653E+02 -0.46016964105E+02  0.50124681340E+02  0.72721053857E+02  0.10566000000E+00 0.  1.
         13    1    1    2    0    0  0.44393545112E+02  0.50143942652E+02 -0.15859295875E+03  0.17215382529E+03  0.10566000000E+00 0. -1.
          4    1    1    2  501    0 -0.18736268459E+02 -0.41269785465E+01 -0.57623979257E+02  0.60733867760E+02  0.00000000000E+00 0.  1.
</event>
<event>
 5    1  0.4881333E-005  0.4120744E+03  0.7818608E-02  0.9694807E-01
         -4   -1    0    0    0  501 -0.00000000000E+00  0.00000000000E+00  0.19432683897E+04  0.19432683897E+04  0.00000000000E+00 0. -1.
         21   -1    0    0  501  502  0.00000000000E+00 -0.00000000000E+00 -0.40061685674E+03  0.40061685674E+03  0.00000000000E+00 0. -1.
        -13    1    1    2    0    0 -0.38808092360E+03  0.10809828659E+03  0.11709898439E+04  0.12383494129E+04  0.10566000000E+00 0.  1.
         13    1    1    2    0    0  0.47013442989E+03 -0.21180181167E+03 -0.17390000856E+03  0.54417608707E+03  0.10566000000E+00 0. -1.
         -4    1    1    2    0  502 -0.82053506289E+02  0.10370352508E+03  0.54556169763E+03  0.56135974645E+03  0.00000000000E+00 0. -1.
</event>
<event>
 5    1  0.4881333E-005  0.4970216E+03  0.7818608E-02  0.9814050E-01
         21   -1    0    0  501  502  0.00000000000E+00  0.00000000000E+00  0.23722392237E+03  0.23722392237E+03  0.00000000000E+00 0.  1.
          4   -1    0    0  502    0 -0.00000000000E+00 -0.00000000000E+00 -0.14297467144E+04  0.14297467144E+04  0.00000000000E+00 0.  1.
        -13    1    1    2    0    0  0.48482493896E+03  0.23005416536E+03 -0.50623988844E+03  0.73773909768E+03  0.10566000000E+00 0.  1.
         13    1    1    2    0    0 -0.21544405710E+02 -0.15422868928E+03 -0.19773406330E+03  0.25169310870E+03  0.10566000000E+00 0. -1.
          4    1    1    2  501    0 -0.46328053324E+03 -0.75825476082E+02 -0.48854884027E+03  0.67753843038E+03  0.00000000000E+00 0.  1.
</event>
<event>
 5    1  0.4881333E-005  0.4977297E+03  0.7818608E-02  0.9665350E-01
         21   -1    0    0  501  502  0.00000000000E+00  0.00000000000E+00  0.11808915013E+04  0.11808915013E+04  0.00000000000E+00 0. -1.
         -4   -1    0    0    0  501 -0.00000000000E+00 -0.00000000000E+00 -0.35653957839E+03  0.35653957839E+03  0.00000000000E+00 0. -1.
        -13    1    1    2    0    0  0.23450716175E+03 -0.11044682076E+03  0.21353176116E+03  0.33583914798E+03  0.10566000000E+00 0.  1.
         13    1    1    2    0    0 -0.62437372466E+03  0.48217860133E+00  0.42918252489E+03  0.75765455940E+03  0.10566000000E+00 0. -1.
         -4    1    1    2    0  502  0.38986656292E+03  0.10996464216E+03  0.18163763686E+03  0.44393737230E+03  0.00000000000E+00 0. -1.
</event>
<event>
 5    1  0.4881333E-005  0.6242780E+02  0.7818608E-02  0.1248117E+00
         21   -1    0    0  501  502  0.00000000000E+00  0.00000000000E+00  0.15740784270E+03  0.15740784270E+03  0.00000000000E+00 0. -1.
         -4   -1    0    0    0  501 -0.00000000000E+00 -0.00000000000E+00 -0.86212909119E+02  0.86212909119E+02  0.00000000000E+00 0. -1.
        -13    1    1    2    0    0  0.35601095132E+02 -0.45383615839E+02  0.10770119154E+02  0.58678081017E+02  0.10566000000E+00 0.  1.
         13    1    1    2    0    0 -0.27025093293E+02  0.59519513531E+02 -0.44271566118E+02  0.78948786495E+02  0.10566000000E+00 0. -1.
         -4    1    1    2    0  502 -0.85760018394E+01 -0.14135897692E+02  0.10469638054E+03  0.10599388430E+03  0.00000000000E+00 0. -1.
</event>
<event>
 5    1  0.4881333E-005  0.5813725E+02  0.7818608E-02  0.1261798E+00
         21   -1    0    0  501  502  0.00000000000E+00  0.00000000000E+00  0.82959175788E+02  0.82959175788E+02  0.00000000000E+00 0. -1.
          4   -1    0    0  502    0 -0.00000000000E+00 -0.00000000000E+00 -0.32872401168E+03  0.32872401168E+03  0.00000000000E+00 0.  1.
        -13    1    1    2    0    0  0.22103914055E+02 -0.53272050097E+02 -0.30095995361E+03  0.30643661527E+03  0.10566000000E+00 0.  1.
         13    1    1    2    0    0 -0.24242001649E+02  0.66521090701E+02  0.58013833622E+02  0.91533306547E+02  0.10566000000E+00 0. -1.
          4    1    1    2  501    0  0.21380875937E+01 -0.13249040603E+02 -0.28187159056E+01  0.13713265651E+02  0.00000000000E+00 0.  1.
</event>
<event>
 5    1  0.4881333E-005  0.4550063E+03  0.7818608E-02  0.9832311E-01
         21   -1    0    0  501  502  0.00000000000E+00  0.00000000000E+00  0.24622105420E+03  0.24622105420E+03  0.00000000000E+00 0. -1.
         -4   -1    0    0    0  501 -0.00000000000E+00 -0.00000000000E+00 -0.15024863566E+04  0.15024863566E+04  0.00000000000E+00 0. -1.
        -13    1    1    2    0    0  0.93586636131E+02  0.16622511929E+03 -0.26072131764E+03  0.32305551439E+03  0.10566000000E+00 0.  1.
         13    1    1    2    0    0  0.34462918113E+02  0.32570192285E+03 -0.82801496939E+03  0.89043710388E+03  0.10566000000E+00 0. -1.
         -4    1    1    2    0  502 -0.12804955424E+03 -0.49192704214E+03 -0.16752901535E+03  0.53521479250E+03  0.00000000000E+00 0. -1.
</event>
<event>
 5    1  0.4881333E-005  0.2741154E+03  0.7818608E-02  0.1034619E+00
         21   -1    0    0  501  502  0.00000000000E+00  0.00000000000E+00  0.14807263391E+03  0.14807263391E+03  0.00000000000E+00 0.  1.
          4   -1    0    0  502    0 -0.00000000000E+00 -0.00000000000E+00 -0.19435530337E+04  0.19435530337E+04  0.00000000000E+00 0.  1.
        -13    1    1    2    0    0 -0.29813796815E+03  0.78894359443E+02 -0.85116311268E+03  0.90531167205E+03  0.10566000000E+00 0.  1.
         13    1    1    2    0    0  0.11164831554E+03  0.12357707112E+03 -0.89036546076E+03  0.90580754233E+03  0.10566000000E+00 0. -1.
          4    1    1    2  501    0  0.18648965261E+03 -0.20247143056E+03 -0.53951826339E+02  0.28050645321E+03  0.00000000000E+00 0.  1.
</event>
<event>
 5    1  0.4881333E-005  0.3467629E+03  0.7818608E-02  0.9925425E-01
         21   -1    0    0  501  502  0.00000000000E+00  0.00000000000E+00  0.33085278385E+03  0.33085278385E+03  0.00000000000E+00 0. -1.
          4   -1    0    0  502    0 -0.00000000000E+00 -0.00000000000E+00 -0.15574264312E+04  0.15574264312E+04  0.00000000000E+00 0.  1.
        -13    1    1    2    0    0  0.13943034525E+03  0.72779435649E+02 -0.82901696921E+03  0.84380496196E+03  0.10566000000E+00 0.  1.
         13    1    1    2    0    0  0.12009334597E+03 -0.34331890071E+03 -0.53350646705E+03  0.64569299275E+03  0.10566000000E+00 0. -1.
          4    1    1    2  501    0 -0.25952369122E+03  0.27053946506E+03  0.13594978894E+03  0.39878126031E+03  0.00000000000E+00 0.  1.
</event>
<event>
 5    1  0.4881333E-005  0.4837688E+03  0.7818608E-02  0.9514275E-01
         -4   -1    0    0    0  501 -0.00000000000E+00  0.00000000000E+00  0.26639089544E+04  0.26639089544E+04  0.00000000000E+00 0. -1.
         21   -1    0    0  501  502  0.00000000000E+00 -0.00000000000E+00 -0.75409550829E+03  0.75409550829E+03  0.00000000000E+00 0. -1.
        -13    1    1    2    0    0 -0.18734797589E+03  0.45028249159E+03  0.41288218286E+03  0.63900336023E+03  0.10566000000E+00 0.  1.
         13    1    1    2    0    0  0.37657482241E+03 -0.31937248087E+03  0.20875464198E+04  0.21451474178E+04  0.10566000000E+00 0. -1.
         -4    1    1    2    0  502 -0.18922684653E+03 -0.13091001071E+03 -0.59061515654E+03  0.63385368461E+03  0.00000000000E+00 0. -1.
</event>
<event>
 5    1  0.4881333E-005  0.4549295E+03  0.7818608E-02  0.1005042E+00
          4   -1    0    0  502    0 -0.00000000000E+00  0.00000000000E+00  0.29288127939E+04  0.29288127939E+04  0.00000000000E+00 0.  1.
         21   -1    0    0  501  502  0.00000000000E+00 -0.00000000000E+00 -0.10531172342E+03  0.10531172342E+03  0.00000000000E+00 0.  1.
        -13    1    1    2    0    0  0.24461545777E+03  0.39185876927E+03  0.19410475821E+04  0.19952583152E+04  0.10566000000E+00 0.  1.
         13    1    1    2    0    0  0.68629695185E+02 -0.62123784073E+02  0.17142482766E+03  0.19482269455E+03  0.10566000000E+00 0. -1.
          4    1    1    2  501    0 -0.31324515295E+03 -0.32973498520E+03  0.71102866072E+03  0.84404350758E+03  0.00000000000E+00 0.  1.
</event>
<event>
 5    1  0.4881333E-005  0.3926904E+03  0.7818608E-02  0.9824930E-01
          4   -1    0    0  502    0 -0.00000000000E+00  0.00000000000E+00  0.29967641428E+03  0.29967641428E+03  0.00000000000E+00 0.  1.
         21   -1    0    0  501  502  0.00000000000E+00 -0.00000000000E+00 -0.15765994136E+04  0.15765994136E+04  0.00000000000E+00 0. -1.
        -13    1    1    2    0    0 -0.17390451808E+03  0.54470638179E+03 -0.19112852141E+03  0.60289132241E+03  0.10566000000E+00 0.  1.
         13    1    1    2    0    0 -0.84151248556E+02 -0.29240849926E+03 -0.48706252271E+03  0.57429441514E+03  0.10566000000E+00 0. -1.
          4    1    1    2  501    0  0.25805576663E+03 -0.25229788254E+03 -0.59873195517E+03  0.69909009031E+03  0.00000000000E+00 0.  1.
</event>
<event>
 5    1  0.4881333E-005  0.2102566E+03  0.7818608E-02  0.1053323E+00
          4   -1    0    0  502    0 -0.00000000000E+00  0.00000000000E+00  0.10055003984E+04  0.10055003984E+04  0.00000000000E+00 0.  1.
         21   -1    0    0  501  502  0.00000000000E+00 -0.00000000000E+00 -0.80764180585E+02  0.80764180585E+02  0.00000000000E+00 0. -1.
        -13    1    1    2    0    0  0.10571646936E+03 -0.19637218105E+03  0.64892495064E+03  0.68617899131E+03  0.10566000000E+00 0.  1.
         13    1    1    2    0    0 -0.37790840041E+02  0.17355473396E+03  0.86293734269E+02  0.19747408187E+03  0.10566000000E+00 0. -1.
          4    1    1    2  501    0 -0.67925629314E+02  0.22817447093E+02  0.18951753294E+03  0.20261150584E+03  0.00000000000E+00 0.  1.
</event>
<event>
 5    1  0.4881333E-005  0.5539990E+03  0.7818608E-02  0.9366871E-01
          4   -1    0    0  502    0 -0.00000000000E+00  0.00000000000E+00  0.29852321935E+04  0.29852321935E+04  0.00000000000E+00 0.  1.
         21   -1    0    0  501  502  0.00000000000E+00 -0.00000000000E+00 -0.22934369126E+03  0.22934369126E+03  0.00000000000E+00 0.  1.
        -13    1    1    2    0    0  0.38052579955E+03  0.61567213706E+03  0.73411802228E+03  0.10309128704E+04  0.10566000000E+00 0.  1.
         13    1    1    2    0    0 -0.87305429392E+02 -0.49755232161E+03  0.11388323718E+04  0.12458409742E+04  0.10566000000E+00 0. -1.
          4    1    1    2  501    0 -0.29322037015E+03 -0.11811981545E+03  0.88293810819E+03  0.93782204024E+03  0.00000000000E+00 0.  1.
</event>
<event>
 5    1  0.4881333E-005  0.5346711E+03  0.7818608E-02  0.9698067E-01
         -4   -1    0    0    0  501 -0.00000000000E+00  0.00000000000E+00  0.14326594905E+04  0.14326594905E+04  0.00000000000E+00 0. -1.
         21   -1    0    0  501  502  0.00000000000E+00 -0.00000000000E+00 -0.29385183431E+03  0.29385183431E+03  0.00000000000E+00 0. -1.
        -13    1    1    2    0    0  0.18637521216E+03 -0.71602859430E+01  0.30080570834E+03  0.35393654055E+03  0.10566000000E+00 0.  1.
         13    1    1    2    0    0 -0.57212626233E+03 -0.22372588993E+03  0.34179491963E+03  0.70299751929E+03  0.10566000000E+00 0. -1.
         -4    1    1    2    0  502  0.38575105017E+03  0.23088617588E+03  0.49620702823E+03  0.66957726499E+03  0.00000000000E+00 0. -1.
</event>
<event>
 5    1  0.4881333E-005  0.1663413E+03  0.7818608E-02  0.1086026E+00
         21   -1    0    0  501  502  0.00000000000E+00  0.00000000000E+00  0.39286325554E+03  0.39286325554E+03  0.00000000000E+00 0.  1.
          4   -1    0    0  502    0 -0.00000000000E+00 -0.00000000000E+00 -0.15144720801E+04  0.15144720801E+04  0.00000000000E+00 0.  1.
        -13    1    1    2    0    0 -0.52389481793E+02  0.19798526811E+03 -0.78960506510E+03  0.81573218288E+03  0.10566000000E+00 0.  1.
         13    1    1    2    0    0  0.12203236993E+03 -0.96707754229E+02 -0.69298918550E+03  0.71026636653E+03  0.10566000000E+00 0. -1.
          4    1    1    2  501    0 -0.69642888138E+02 -0.10127751388E+03  0.36098542606E+03  0.38133678621E+03  0.00000000000E+00 0.  1.
</event>
<event>
 5    1  0.4881333E-005  0.5968212E+02  0.7818608E-02  0.1256724E+00
         21   -1    0    0  501  502  0.00000000000E+00  0.00000000000E+00  0.15924752427E+02  0.15924752427E+02  0.00000000000E+00 0. -1.
          4   -1    0    0  502    0 -0.00000000000E+00 -0.00000000000E+00 -0.27810911595E+03  0.27810911595E+03  0.00000000000E+00 0.  1.
        -13    1    1    2    0    0  0.54951804544E+02 -0.31281863059E+02 -0.12537674096E+03  0.14041935093E+03  0.10566000000E+00 0.  1.
         13    1    1    2    0    0 -0.44481179775E+02  0.35764253156E+02 -0.12380996989E+03  0.13633259686E+03  0.10566000000E+00 0. -1.
          4    1    1    2  501    0 -0.10470624769E+02 -0.44823900968E+01 -0.12997652674E+02  0.17281920584E+02  0.00000000000E+00 0.  1.
</event>
<event>
 5    1  0.4881333E-005  0.4650002E+03  0.7818608E-02  0.1018461E+00
         21   -1    0    0  501  502  0.00000000000E+00  0.00000000000E+00  0.17462770433E+03  0.17462770433E+03  0.00000000000E+00 0.  1.
          4   -1    0    0  502    0 -0.00000000000E+00 -0.00000000000E+00 -0.16861893718E+04  0.16861893718E+04  0.00000000000E+00 0.  1.
        -13    1    1    2    0    0 -0.26559559094E+03 -0.37669178500E+03 -0.34376606705E+03  0.57498942497E+03  0.10566000000E+00 0.  1.
         13    1    1    2    0    0  0.37908254944E+02 -0.41763851936E+02 -0.18933420198E+03  0.19755684328E+03  0.10566000000E+00 0. -1.
          4    1    1    2  501    0  0.22768733599E+03  0.41845563694E+03 -0.97846139843E+03  0.10882708079E+04  0.00000000000E+00 0.  1.
</event>
<event>
 5    1  0.4881333E-005  0.3512796E+03  0.7818608E-02  0.1041323E+00
         21   -1    0    0  501  502  0.00000000000E+00  0.00000000000E+00  0.23473494453E+03  0.23473494453E+03  0.00000000000E+00 0. -1.
         -4   -1    0    0    0  501 -0.00000000000E+00 -0.00000000000E+00 -0.12481854229E+04  0.12481854229E+04  0.00000000000E+00 0. -1.
        -13    1    1    2    0    0  0.54663240677E+02  0.34304926088E+02 -0.32484513733E+02  0.72250623746E+02  0.10566000000E+00 0.  1.
         13    1    1    2    0    0 -0.13089255193E+03 -0.37060903644E+03 -0.99057257523E+03  0.10657006878E+04  0.10566000000E+00 0. -1.
         -4    1    1    2    0  502  0.76229311252E+02  0.33630411035E+03  0.96066106012E+01  0.34496905586E+03  0.00000000000E+00 0. -1.
</event>
<event>
 5    1  0.4881333E-005  0.8671921E+02  0.7818608E-02  0.1188622E+00
          4   -1    0    0  502    0 -0.00000000000E+00  0.00000000000E+00  0.63800559542E+02  0.63800559542E+02  0.00000000000E+00 0.  1.
         21   -1    0    0  501  502  0.00000000000E+00 -0.00000000000E+00 -0.21490058333E+03  0.21490058333E+03  0.00000000000E+00 0.  1.
        -13    1    1    2    0    0 -0.39233489420E+02 -0.69743300874E+02 -0.79642356147E+02  0.11289956052E+03  0.10566000000E+00 0.  1.
         13    1    1    2    0    0  0.11227516684E+02  0.91705322730E+02 -0.76081603008E+01  0.92702851170E+02  0.10566000000E+00 0. -1.
          4    1    1    2  501    0  0.28005972736E+02 -0.21962021855E+02 -0.63849507345E+02  0.73098731186E+02  0.00000000000E+00 0.  1.
</event>
<event>
 5    1  0.4881333E-005  0.4856974E+03  0.7818608E-02  0.9760622E-01
         -4   -1    0    0    0  501 -0.00000000000E+00  0.00000000000E+00  0.15139252588E+04  0.15139252588E+04  0.00000000000E+00 0. -1.
         21   -1    0    0  501  502  0.00000000000E+00 -0.00000000000E+00 -0.24960328591E+03  0.24960328591E+03  0.00000000000E+00 0. -1.
        -13    1    1    2    0    0  0.18848508656E+03  0.67947439351E+02  0.17719454919E+03  0.26747224491E+03  0.10566000000E+00 0.  1.
         13    1    1    2    0    0  0.52626627691E+02  0.41114711637E+03  0.76590997221E+03  0.87087864249E+03  0.10566000000E+00 0. -1.
         -4    1    1    2    0  502 -0.24111171425E+03 -0.47909455572E+03  0.32121745151E+03  0.62517765733E+03  0.00000000000E+00 0. -1.
</event>
<event>
 5    1  0.4881333E-005  0.6960242E+02  0.7818608E-02  0.1258168E+00
         -4   -1    0    0    0  501 -0.00000000000E+00  0.00000000000E+00  0.14133105245E+03  0.14133105245E+03  0.00000000000E+00 0. -1.
         21   -1    0    0  501  502  0.00000000000E+00 -0.00000000000E+00 -0.34529303948E+03  0.34529303948E+03  0.00000000000E+00 0. -1.
        -13    1    1    2    0    0  0.11531899192E+02  0.34648863526E+02 -0.72721381747E+02  0.81375297049E+02  0.10566000000E+00 0.  1.
         13    1    1    2    0    0 -0.23106864842E+02 -0.10202040367E+03  0.11160625171E+03  0.15296423292E+03  0.10566000000E+00 0. -1.
         -4    1    1    2    0  502  0.11574965649E+02  0.67371540143E+02 -0.24284685699E+03  0.25228456196E+03  0.00000000000E+00 0. -1.
</event>
<event>
 5    1  0.4881333E-005  0.2314007E+03  0.7818608E-02  0.1040509E+00
          4   -1    0    0  502    0 -0.00000000000E+00  0.00000000000E+00  0.21983843498E+03  0.21983843498E+03  0.00000000000E+00 0.  1.
         21   -1    0    0  501  502  0.00000000000E+00 -0.00000000000E+00 -0.43695578284E+03  0.43695578284E+03  0.00000000000E+00 0. -1.
        -13    1    1    2    0    0  0.23648013892E+03 -0.53723213807E+02  0.88330286692E+02  0.25809163202E+03  0.10566000000E+00 0.  1.
         13    1    1    2    0    0 -0.18396443694E+03  0.75662797410E+02 -0.22769761638E+03  0.30234746343E+03  0.10566000000E+00 0. -1.
          4    1    1    2  501    0 -0.52515701977E+02 -0.21939583604E+02 -0.77750018170E+02  0.96355122377E+02  0.00000000000E+00 0.  1.
</event>
<event>
 5    1  0.4881333E-005  0.4854477E+03  0.7818608E-02  0.1001506E+00
         21   -1    0    0  501  502  0.00000000000E+00  0.00000000000E+00  0.13446935004E+04  0.13446935004E+04  0.00000000000E+00 0.  1.
          4   -1    0    0  502    0 -0.00000000000E+00 -0.00000000000E+00 -0.27007170257E+03  0.27007170257E+03  0.00000000000E+00 0.  1.
        -13    1    1    2    0    0  0.41871178995E+03  0.14485975673E+03  0.26525792098E+03  0.51639683187E+03  0.10566000000E+00 0.  1.
         13    1    1    2    0    0  0.41793158456E+02  0.74568957420E+02 -0.49983296159E+02  0.99022919384E+02  0.10566000000E+00 0. -1.
          4    1    1    2  501    0 -0.46050494840E+03 -0.21942871415E+03  0.85934717304E+03  0.99934545174E+03  0.00000000000E+00 0.  1.
</event>
<event>
 5    1  0.4881333E-005  0.1451046E+02  0.7818608E-02  0.1604714E+00
         -4   -1    0    0    0  501 -0.00000000000E+00  0.00000000000E+00  0.24575977654E+02  0.24575977654E+02  0.00000000000E+00 0. -1.
         21   -1    0    0  501  502  0.00000000000E+00 -0.00000000000E+00 -0.55202961840E+02  0.55202961840E+02  0.00000000000E+00 0. -1.
        -13    1    1    2    0    0 -0.31772682837E+01  0.14366981413E+02  0.15670588625E+02  0.21496132223E+02  0.10566000000E+00 0.  1.
         13    1    1    2    0    0  0.12833495356E+02 -0.10407352697E+02 -0.75723507560E+01  0.18175897590E+02  0.10566000000E+00 0. -1.
         -4    1    1    2    0  502 -0.96562270719E+01 -0.39596287160E+01 -0.38725222056E+02  0.40106909680E+02  0.00000000000E+00 0. -1.
</event>
<event>
 5    1  0.4881333E-005  0.1409263E+03  0.7818608E-02  0.1110422E+00
          4   -1    0    0  502    0 -0.00000000000E+00  0.00000000000E+00  0.78432593490E+02  0.78432593490E+02  0.00000000000E+00 0.  1.
         21   -1    0    0  501  502  0.00000000000E+00 -0.00000000000E+00 -0.89386243392E+03  0.89386243392E+03  0.00000000000E+00 0. -1.
        -13    1    1    2    0    0 -0.33887049942E+02  0.13856493899E+03  0.82617543920E+00  0.14265086120E+03  0.10566000000E+00 0.  1.
         13    1    1    2    0    0  0.29067999994E+02 -0.12236285787E+03 -0.61792477850E+03  0.63059389519E+03  0.10566000000E+00 0. -1.
          4    1    1    2  501    0  0.48190499482E+01 -0.16202081120E+02 -0.19833123738E+03  0.19905027102E+03  0.00000000000E+00 0.  1.
</event>
<event>
 5    1  0.4881333E-005  0.3381280E+03  0.7818608E-02  0.1033047E+00
         21   -1    0    0  501  502  0.00000000000E+00  0.00000000000E+00  0.32911082268E+03  0.32911082268E+03  0.00000000000E+00 0.  1.
          4   -1    0    0  502    0 -0.00000000000E+00 -0.00000000000E+00 -0.94862168039E+03  0.94862168039E+03  0.00000000000E+00 0.  1.
        -13    1    1    2    0    0  0.24299488192E+03 -0.22938654190E+03  0.15819167077E+03  0.36971517971E+03  0.10566000000E+00 0.  1.
         13    1    1    2    0    0  0.81737654782E+02  0.44602455407E+02 -0.12392638449E+03  0.15501026797E+03  0.10566000000E+00 0. -1.
          4    1    1    2  501    0 -0.32473253670E+03  0.18478408649E+03 -0.65377614399E+03  0.75300705539E+03  0.00000000000E+00 0.  1.
</event>
<event>
 5    1  0.4881333E-005  0.4437371E+03  0.7818608E-02  0.9610626E-01
         -4   -1    0    0    0  501 -0.00000000000E+00  0.00000000000E+00  0.55429673935E+03  0.55429673935E+03  0.00000000000E+00 0. -1.
         21   -1    0    0  501  502  0.00000000000E+00 -0.00000000000E+00 -0.54086778177E+03  0.54086778177E+03  0.00000000000E+00 0. -1.
        -13    1    1    2    0    0 -0.24998593921E+03 -0.32398882429E+03  0.87973204547E+02  0.41857021388E+03  0.10566000000E+00 0.  1.
         13    1    1    2    0    0  0.23833363696E+03  0.45913095971E+03 -0.12444573983E+03  0.53206288538E+03  0.10566000000E+00 0. -1.
         -4    1    1    2    0  502  0.11652302247E+02 -0.13514213542E+03  0.49901492859E+02  0.14453142185E+03  0.00000000000E+00 0. -1.
</event>
<event>
 5    1  0.4881333E-005  0.3609379E+03  0.7818608E-02  0.1001340E+00
         21   -1    0    0  501  502  0.00000000000E+00  0.00000000000E+00  0.53539540457E+03  0.53539540457E+03  0.00000000000E+00 0. -1.
         -4   -1    0    0    0  501 -0.00000000000E+00 -0.00000000000E+00 -0.68863314237E+03  0.68863314237E+03  0.00000000000E+00 0. -1.
        -13    1    1    2    0    0  0.16352004844E+03  0.13032930959E+03  0.25616424758E+01  0.20911984209E+03  0.10566000000E+00 0.  1.
         13    1    1    2    0    0 -0.89327971235E+02 -0.37645911796E+03  0.30136117296E+03  0.49042789651E+03  0.10566000000E+00 0. -1.
         -4    1    1    2    0  502 -0.74192077202E+02  0.24612980837E+03 -0.45716055323E+03  0.52448080834E+03  0.00000000000E+00 0. -1.
</event>
<event>
 5    1  0.4881333E-005  0.5035996E+03  0.7818608E-02  0.9594278E-01
         21   -1    0    0  501  502  0.00000000000E+00  0.00000000000E+00  0.72735953542E+03  0.72735953542E+03  0.00000000000E+00 0.  1.
          4   -1    0    0  502    0 -0.00000000000E+00 -0.00000000000E+00 -0.68126041001E+03  0.68126041001E+03  0.00000000000E+00 0.  1.
        -13    1    1    2    0    0 -0.62744707475E+03  0.17767129425E+03  0.12199951960E+03  0.66343109240E+03  0.10566000000E+00 0.  1.
         13    1    1    2    0    0  0.32059435846E+03 -0.27000497900E+02  0.12900923142E+03  0.34663116207E+03  0.10566000000E+00 0. -1.
          4    1    1    2  501    0  0.30685271629E+03 -0.15067079635E+03 -0.20490962560E+03  0.39855769097E+03  0.00000000000E+00 0.  1.
</event>
<event>
 5    1  0.4881333E-005  0.2575319E+03  0.7818608E-02  0.1026562E+00
         21   -1    0    0  501  502  0.00000000000E+00  0.00000000000E+00  0.81750322789E+02  0.81750322789E+02  0.00000000000E+00 0.  1.
         -4   -1    0    0    0  501 -0.00000000000E+00 -0.00000000000E+00 -0.15622683513E+04  0.15622683513E+04  0.00000000000E+00 0. -1.
        -13    1    1    2    0    0 -0.77590478492E+02  0.25124383396E+03 -0.31827674636E+03  0.41284845270E+03  0.10566000000E+00 0.  1.
         13    1    1    2    0    0  0.63412447070E+02 -0.24805288890E+03 -0.11804367785E+04  0.12078834270E+04  0.10566000000E+00 0. -1.
         -4    1    1    2    0  502  0.14178031422E+02 -0.31909450608E+01  0.18195496325E+02  0.23286794367E+02  0.00000000000E+00 0. -1.
</event>
<event>
 5    1  0.4881333E-005  0.3771002E+03  0.7818608E-02  0.9923961E-01
         21   -1    0    0  501  502  0.00000000000E+00  0.00000000000E+00  0.32632389796E+03  0.32632389796E+03  0.00000000000E+00 0.  1.
          4   -1    0    0  502    0 -0.00000000000E+00 -0.00000000000E+00 -0.12488842505E+04  0.12488842505E+04  0.00000000000E+00 0.  1.
        -13    1    1    2    0    0  0.15549984134E+03 -0.26742766995E+03 -0.75526039803E+03  0.81615932225E+03  0.10566000000E+00 0.  1.
         13    1    1    2    0    0 -0.20762698744E+03 -0.13244194025E+03 -0.24611032704E+03  0.34816682451E+03  0.10566000000E+00 0. -1.
          4    1    1    2  501    0  0.52127146093E+02  0.39986961021E+03  0.78810372499E+02  0.41088200172E+03  0.00000000000E+00 0.  1.
</event>
<event>
 5    1  0.4881333E-005  0.4994872E+03  0.7818608E-02  0.9491093E-01
         -4   -1    0    0    0  501 -0.00000000000E+00  0.00000000000E+00  0.28273176443E+04  0.28273176443E+04  0.00000000000E+00 0. -1.
         21   -1    0    0  501  502  0.00000000000E+00 -0.00000000000E+00 -0.22661552758E+03  0.22661552758E+03  0.00000000000E+00 0. -1.
        -13    1    1    2    0    0  0.41724427015E+03 -0.23346234832E+03  0.93717320635E+03  0.10520889121E+04  0.10566000000E+00 0.  1.
         13    1    1    2    0    0 -0.17291288222E+03 -0.36567310432E+03  0.98221277021E+03  0.10622417904E+04  0.10566000000E+00 0. -1.
         -4    1    1    2    0  502 -0.24433138793E+03  0.59913545264E+03  0.68131614015E+03  0.93960246944E+03  0.00000000000E+00 0. -1.
</event>
<event>
 5    1  0.4881333E-005  0.5021173E+03  0.7818608E-02  0.9524564E-01
          4   -1    0    0  502    0 -0.00000000000E+00  0.00000000000E+00  0.15042233562E+04  0.15042233562E+04  0.00000000000E+00 0.  1.
         21   -1    0    0  501  502  0.00000000000E+00 -0.00000000000E+00 -0.38322819244E+03  0.38322819244E+03  0.00000000000E+00 0.  1.
        -13    1    1    2    0    0  0.73174637977E+02 -0.44502103647E+03  0.50661733876E+03  0.67827677953E+03  0.10566000000E+00 0.  1.
         13    1    1    2    0    0  0.41278305245E+03  0.57995713221E+02  0.19936049403E+03  0.46205840419E+03  0.10566000000E+00 0. -1.
          4    1    1    2  501    0 -0.48595769043E+03  0.38702532325E+03  0.41501733095E+03  0.74711636491E+03  0.00000000000E+00 0.  1.
</event>
<event>
 5    1  0.4881333E-005  0.1660004E+03  0.7818608E-02  0.1092471E+00
         -4   -1    0    0    0  501 -0.00000000000E+00  0.00000000000E+00  0.13174164722E+04  0.13174164722E+04  0.00000000000E+00 0. -1.
         21   -1    0    0  501  502  0.00000000000E+00 -0.00000000000E+00 -0.85652329431E+02  0.85652329431E+02  0.00000000000E+00 0.  1.
        -13    1    1    2    0    0  0.21490885362E+03 -0.17719035021E+03  0.61738240802E+03  0.67730590170E+03  0.10566000000E+00 0.  1.
         13    1    1    2    0    0 -0.86890823190E+02  0.71513868231E+02  0.52559950421E+03  0.53751195195E+03  0.10566000000E+00 0. -1.
         -4    1    1    2    0  502 -0.12801803043E+03  0.10567648198E+03  0.88782230555E+02  0.18825094800E+03  0.00000000000E+00 0. -1.
</event>
<event>
 5    1  0.4881333E-005  0.3299410E+03  0.7818608E-02  0.9956606E-01
          4   -1    0    0  502    0 -0.00000000000E+00  0.00000000000E+00  0.14987200283E+04  0.14987200283E+04  0.00000000000E+00 0.  1.
         21   -1    0    0  501  502  0.00000000000E+00 -0.00000000000E+00 -0.12904969502E+03  0.12904969502E+03  0.00000000000E+00 0. -1.
        -13    1    1    2    0    0  0.23719541720E+03  0.22255820108E+03  0.98092057353E+03  0.10334403716E+04  0.10566000000E+00 0.  1.
         13    1    1    2    0    0 -0.18723352374E+03 -0.29688602569E+03  0.35328505236E+03  0.49800406027E+03  0.10566000000E+00 0. -1.
          4    1    1    2  501    0 -0.49961893456E+02  0.74327824609E+02  0.35464707365E+02  0.96325291473E+02  0.00000000000E+00 0.  1.
</event>
<event>
 5    1  0.4881333E-005  0.7512484E+02  0.7818608E-02  0.1235435E+00
         21   -1    0    0  501  502  0.00000000000E+00  0.00000000000E+00  0.48736621457E+02  0.48736621457E+02  0.00000000000E+00 0.  1.
          4   -1    0    0  502    0 -0.00000000000E+00 -0.00000000000E+00 -0.46230642834E+03  0.46230642834E+03  0.00000000000E+00 0.  1.
        -13    1    1    2    0    0  0.90060676550E+02 -0.63132766019E+02 -0.29831081125E+03  0.31794028193E+03  0.10566000000E+00 0.  1.
         13    1    1    2    0    0 -0.46446614991E+02  0.65775026145E+01 -0.11220741499E+03  0.12161852954E+03  0.10566000000E+00 0. -1.
          4    1    1    2  501    0 -0.43614061560E+02  0.56555263404E+02 -0.30515806478E+01  0.71484238325E+02  0.00000000000E+00 0.  1.
</event>
<event>
 5    1  0.4881333E-005  0.8655121E+02  0.7818608E-02  0.1188956E+00
          4   -1    0    0  502    0 -0.00000000000E+00  0.00000000000E+00  0.86756858094E+03  0.86756858094E+03  0.00000000000E+00 0.  1.
         21   -1    0    0  501  502  0.00000000000E+00 -0.00000000000E+00 -0.44629085983E+02  0.44629085983E+02  0.00000000000E+00 0.  1.
        -13    1    1    2    0    0 -0.52105278061E+02  0.66136286519E+02  0.38159737576E+03  0.39077555802E+03  0.10566000000E+00 0.  1.
         13    1    1    2    0    0  0.44961590519E+02 -0.76877879517E+02  0.47609438606E+03  0.48435279351E+03  0.10566000000E+00 0. -1.
          4    1    1    2  501    0  0.71436875417E+01  0.10741592998E+02 -0.34752266859E+02  0.37069315393E+02  0.00000000000E+00 0.  1.
</event>
<event>
 5    1  0.4881333E-005  0.4151480E+03  0.7818608E-02  0.1027460E+00
         21   -1    0    0  501  502  0.00000000000E+00  0.00000000000E+00  0.33988135923E+03  0.33988135923E+03  0.00000000000E+00 0. -1.
         -4   -1    0    0    0  501 -0.00000000000E+00 -0.00000000000E+00 -0.94952772406E+03  0.94952772406E+03  0.00000000000E+00 0. -1.
        -13    1    1    2    0    0 -0.12831540037E+02  0.58390882593E+02 -0.16310846128E+03  0.17371967331E+03  0.10566000000E+00 0.  1.
         13    1    1    2    0    0  0.20153068690E+03  0.35221286741E+03  0.88523342007E+02  0.41533711004E+03  0.10566000000E+00 0. -1.
         -4    1    1    2    0  502 -0.18869914687E+03 -0.41060375000E+03 -0.53506124554E+03  0.70035229994E+03  0.00000000000E+00 0. -1.
</event>
<event>
 5    1  0.4881333E-005  0.5054473E+03  0.7818608E-02  0.9627925E-01
         -4   -1    0    0    0  501 -0.00000000000E+00  0.00000000000E+00  0.84783882476E+03  0.84783882476E+03  0.00000000000E+00 0. -1.
         21   -1    0    0  501  502  0.00000000000E+00 -0.00000000000E+00 -0.60880788313E+03  0.60880788313E+03  0.00000000000E+00 0.  1.
        -13    1    1    2    0    0 -0.11149411530E+03  0.25945463488E+03 -0.15032711840E+03  0.31991545602E+03  0.10566000000E+00 0.  1.
         13    1    1    2    0    0 -0.13754400426E+03  0.36642086491E+03  0.18430821192E+03  0.43261083146E+03  0.10566000000E+00 0. -1.
         -4    1    1    2    0  502  0.24903811956E+03 -0.62587549979E+03  0.20504984810E+03  0.70412042041E+03  0.00000000000E+00 0. -1.
</event>
<event>
 5    1  0.4881333E-005  0.4873802E+03  0.7818608E-02  0.9882207E-01
          4   -1    0    0  502    0 -0.00000000000E+00  0.00000000000E+00  0.87055587038E+03  0.87055587038E+03  0.00000000000E+00 0.  1.
         21   -1    0    0  501  502  0.00000000000E+00 -0.00000000000E+00 -0.39905566200E+03  0.39905566200E+03  0.00000000000E+00 0.  1.
        -13    1    1    2    0    0 -0.46227795368E+03  0.89961385956E+02  0.37170813502E+02  0.47241468856E+03  0.10566000000E+00 0.  1.
         13    1    1    2    0    0 -0.14084728248E+02  0.13040359847E+03  0.15357209975E+03  0.20196009272E+03  0.10566000000E+00 0. -1.
          4    1    1    2  501    0  0.47636268193E+03 -0.22036498443E+03  0.28075729513E+03  0.59523675110E+03  0.00000000000E+00 0.  1.
</event>
<event>
 5    1  0.4881333E-005  0.2118606E+03  0.7818608E-02  0.1101529E+00
          4   -1    0    0  502    0 -0.00000000000E+00  0.00000000000E+00  0.27538962651E+03  0.27538962651E+03  0.00000000000E+00 0.  1.
         21   -1    0    0  501  502  0.00000000000E+00 -0.00000000000E+00 -0.11923444428E+04  0.11923444428E+04  0.00000000000E+00 0.  1.
        -13    1    1    2    0    0  0.84453153306E+00 -0.19913138338E+03  0.16648079984E+03  0.25955710154E+03  0.10566000000E+00 0.  1.
         13    1    1    2    0    0 -0.52127295264E+02 -0.73253302957E+01  0.39156741813E+02  0.65606226602E+02  0.10566000000E+00 0. -1.
          4    1    1    2  501    0  0.51282763731E+02  0.20645671368E+03 -0.11225923579E+04  0.11425707412E+04  0.00000000000E+00 0.  1.
</event>
<event>
 5    1  0.4881333E-005  0.3493722E+03  0.7818608E-02  0.9953893E-01
         -4   -1    0    0    0  501 -0.00000000000E+00  0.00000000000E+00  0.72004140104E+03  0.72004140104E+03  0.00000000000E+00 0. -1.
         21   -1    0    0  501  502  0.00000000000E+00 -0.00000000000E+00 -0.73431197975E+03  0.73431197975E+03  0.00000000000E+00 0. -1.
        -13    1    1    2    0    0  0.96112891172E+02 -0.26341279499E+03  0.25413394272E+03  0.37842840858E+03  0.10566000000E+00 0.  1.
         13    1    1    2    0    0 -0.42274626235E+03  0.14670021659E+03  0.20241830978E+03  0.49112985979E+03  0.10566000000E+00 0. -1.
         -4    1    1    2    0  502  0.32663337117E+03  0.11671257840E+03 -0.47082283121E+03  0.58479511242E+03  0.00000000000E+00 0. -1.
</event>
<event>
 5    1  0.4881333E-005  0.4935976E+03  0.7818608E-02  0.9703079E-01
          4   -1    0    0  502    0 -0.00000000000E+00  0.00000000000E+00  0.87086819102E+03  0.87086819102E+03  0.00000000000E+00 0.  1.
         21   -1    0    0  501  502  0.00000000000E+00 -0.00000000000E+00 -0.46430026774E+03  0.46430026774E+03  0.00000000000E+00 0.  1.
        -13    1    1    2    0    0 -0.47855303038E+03 -0.34120954139E+03  0.69341714838E+02  0.59181520646E+03  0.10566000000E+00 0.  1.
         13    1    1    2    0    0  0.76212652471E+02  0.22013455302E+03  0.18130063089E+03  0.29519064984E+03  0.10566000000E+00 0. -1.
          4    1    1    2  501    0  0.40234037791E+03  0.12107498837E+03  0.15592557755E+03  0.44816260246E+03  0.00000000000E+00 0.  1.
</event>
<event>
 5    1  0.4881333E-005  0.1386696E+03  0.7818608E-02  0.1112857E+00
         -4   -1    0    0    0  501 -0.00000000000E+00  0.00000000000E+00  0.98207321435E+03  0.98207321435E+03  0.00000000000E+00 0. -1.
         21   -1    0    0  501  502  0.00000000000E+00 -0.00000000000E+00 -0.34080914953E+02  0.34080914953E+02  0.00000000000E+00 0.  1.
        -13    1    1    2    0    0  0.13577735715E+03 -0.78229809500E+00  0.20494172734E+03  0.24583983703E+03  0.10566000000E+00 0.  1.
         13    1    1    2    0    0 -0.13882964511E+03  0.16455545053E+02  0.74116607431E+03  0.75423578289E+03  0.10566000000E+00 0. -1.
         -4    1    1    2    0  502  0.30522879585E+01 -0.15673246958E+02  0.18844977514E+01  0.16078509376E+02  0.00000000000E+00 0. -1.
</event>
<event>
 5    1  0.4881333E-005  0.4794943E+03  0.7818608E-02  0.1009154E+00
         21   -1    0    0  501  502  0.00000000000E+00  0.00000000000E+00  0.21787615703E+04  0.21787615703E+04  0.00000000000E+00 0.  1.
          4   -1    0    0  502    0 -0.00000000000E+00 -0.00000000000E+00 -0.23167124225E+03  0.23167124225E+03  0.00000000000E+00 0.  1.
        -13    1    1    2    0    0 -0.42345929857E+03  0.24917744815E+03  0.14271382085E+04  0.15093477583E+04  0.10566000000E+00 0.  1.
         13    1    1    2    0    0 -0.19515604979E+00 -0.69223473665E+02 -0.10448449451E+03  0.12533534277E+03  0.10566000000E+00 0. -1.
          4    1    1    2  501    0  0.42365445462E+03 -0.17995397448E+03  0.62443661406E+03  0.77574971146E+03  0.00000000000E+00 0.  1.
</event>
<event>
 5    1  0.4881333E-005  0.1910824E+03  0.7818608E-02  0.1085650E+00
         21   -1    0    0  501  502  0.00000000000E+00  0.00000000000E+00  0.40095366058E+03  0.40095366058E+03  0.00000000000E+00 0.  1.
          4   -1    0    0  502    0 -0.00000000000E+00 -0.00000000000E+00 -0.11722911409E+04  0.11722911409E+04  0.00000000000E+00 0.  1.
        -13    1    1    2    0    0 -0.22195957226E+03  0.10808595212E+03 -0.55011125225E+03  0.60296851143E+03  0.10566000000E+00 0.  1.
         13    1    1    2    0    0  0.10342297364E+03  0.39993071827E+02 -0.56600548518E+03  0.57676509749E+03  0.10566000000E+00 0. -1.
          4    1    1    2  501    0  0.11853659862E+03 -0.14807902395E+03  0.34477925710E+03  0.39351119256E+03  0.00000000000E+00 0.  1.
</event>
<event>
 5    1  0.4881333E-005  0.1688087E+03  0.7818608E-02  0.1083911E+00
          4   -1    0    0  502    0 -0.00000000000E+00  0.00000000000E+00  0.15694916434E+03  0.15694916434E+03  0.00000000000E+00 0.  1.
         21   -1    0    0  501  502  0.00000000000E+00 -0.00000000000E+00 -0.38990139005E+03  0.38990139005E+03  0.00000000000E+00 0. -1.
        -13    1    1    2    0    0  0.13666407085E+03 -0.10269682469E+03  0.76999889395E+02  0.18749053361E+03  0.10566000000E+00 0.  1.
         13    1    1    2    0    0 -0.11796626507E+03  0.10636930539E+03 -0.24768021356E+03  0.29423794483E+03  0.10566000000E+00 0. -1.
          4    1    1    2  501    0 -0.18697805779E+02 -0.36724806955E+01 -0.62271901541E+02  0.65122075957E+02  0.00000000000E+00 0.  1.
</event>
<event>
 5    1  0.4881333E-005  0.2309427E+03  0.7818608E-02  0.1040771E+00
          4   -1    0    0  502    0 -0.00000000000E+00  0.00000000000E+00  0.10195599892E+04  0.10195599892E+04  0.00000000000E+00 0.  1.
         21   -1    0    0  501  502  0.00000000000E+00 -0.00000000000E+00 -0.22604482437E+03  0.22604482437E+03  0.00000000000E+00 0.  1.
        -13    1    1    2    0    0 -0.23027274152E+03  0.32163232555E+02  0.82440927074E+03  0.85656912498E+03  0.10566000000E+00 0.  1.
         13    1    1    2    0    0  0.22377118859E+03 -0.17210659870E+02  0.10808553560E+03  0.24910288201E+03  0.10566000000E+00 0. -1.
          4    1    1    2  501    0  0.65015529369E+01 -0.14952572684E+02 -0.13897964149E+03  0.13993280662E+03  0.00000000000E+00 0.  1.
</event>
<event>
 5    1  0.4881333E-005  0.1177550E+03  0.7818608E-02  0.1138121E+00
          4   -1    0    0  502    0 -0.00000000000E+00  0.00000000000E+00  0.24581504304E+02  0.24581504304E+02  0.00000000000E+00 0.  1.
         21   -1    0    0  501  502  0.00000000000E+00 -0.00000000000E+00 -0.94079681680E+03  0.94079681680E+03  0.00000000000E+00 0. -1.
        -13    1    1    2    0    0  0.69050004065E+02  0.95292296551E+02 -0.17801982647E+03  0.21340008113E+03  0.10566000000E+00 0.  1.
         13    1    1    2    0    0 -0.60064064826E+02 -0.10196242357E+03 -0.51166539429E+03  0.52517189051E+03  0.10566000000E+00 0. -1.
          4    1    1    2  501    0 -0.89859392393E+01  0.66701270183E+01 -0.22653009174E+03  0.22680634947E+03  0.00000000000E+00 0.  1.
</event>
<event>
 5    1  0.4881333E-005  0.6679332E+02  0.7818608E-02  0.1235401E+00
         -4   -1    0    0    0  501 -0.00000000000E+00  0.00000000000E+00  0.44142785491E+03  0.44142785491E+03  0.00000000000E+00 0. -1.
         21   -1    0    0  501  502  0.00000000000E+00 -0.00000000000E+00 -0.33311144808E+02  0.33311144808E+02  0.00000000000E+00 0.  1.
        -13    1    1    2    0    0  0.39913474818E+02 -0.41941362171E+02  0.23398763111E+02  0.62447390754E+02  0.10566000000E+00 0.  1.
         13    1    1    2    0    0 -0.51653662239E+02  0.44487509821E+02  0.39223862016E+03  0.39811855730E+03  0.10566000000E+00 0. -1.
         -4    1    1    2    0  502  0.11740187421E+02 -0.25461476501E+01 -0.75206731735E+01  0.14173051666E+02  0.00000000000E+00 0. -1.
</event>
<event>
 5    1  0.4881333E-005  0.4002426E+03  0.7818608E-02  0.9728346E-01
          4   -1    0    0  502    0 -0.00000000000E+00  0.00000000000E+00  0.61387679113E+03  0.61387679113E+03  0.00000000000E+00 0.  1.
         21   -1    0    0  501  502  0.00000000000E+00 -0.00000000000E+00 -0.12977902708E+04  0.12977902708E+04  0.00000000000E+00 0.  1.
        -13    1    1    2    0    0 -0.56572850981E+03 -0.13688237175E+03 -0.25999852787E+03  0.63748315755E+03  0.10566000000E+00 0.  1.
         13    1    1    2    0    0  0.34401118620E+03 -0.16902886722E+03  0.28041719492E+03  0.47491922318E+03  0.10566000000E+00 0. -1.
          4    1    1    2  501    0  0.22171732362E+03  0.30591123897E+03 -0.70433214675E+03  0.79926468123E+03  0.00000000000E+00 0.  1.
</event>
<event>
 5    1  0.4881333E-005  0.5011044E+03  0.7818608E-02  0.9823899E-01
         21   -1    0    0  501  502  0.00000000000E+00  0.00000000000E+00  0.49658540311E+03  0.49658540311E+03  0.00000000000E+00 0. -1.
         -4   -1    0    0    0  501 -0.00000000000E+00 -0.00000000000E+00 -0.85554308638E+03  0.85554308638E+03  0.00000000000E+00 0. -1.
        -13    1    1    2    0    0 -0.13636346446E+03  0.54753888828E+02 -0.30240316878E+03  0.33621521446E+03  0.10566000000E+00 0.  1.
         13    1    1    2    0    0 -0.14616943724E+03  0.42236888574E+03 -0.10558698382E+03  0.45924895464E+03  0.10566000000E+00 0. -1.
         -4    1    1    2    0  502  0.28253290169E+03 -0.47712277456E+03  0.49032469329E+02  0.55666432039E+03  0.00000000000E+00 0. -1.
</event>
<event>
 5    1  0.4881333E-005  0.3798091E+03  0.7818608E-02  0.9789239E-01
         21   -1    0    0  501  502  0.00000000000E+00  0.00000000000E+00  0.14122584300E+04  0.14122584300E+04  0.00000000000E+00 0. -1.
          4   -1    0    0  502    0 -0.00000000000E+00 -0.00000000000E+00 -0.13817387587E+03  0.13817387587E+03  0.00000000000E+00 0.  1.
        -13    1    1    2    0    0 -0.25225718345E+03  0.28452013835E+03  0.58636708158E+03  0.69886462298E+03  0.10566000000E+00 0.  1.
         13    1    1    2    0    0  0.23202321793E+03 -0.30077766738E+03  0.36172834061E+03  0.52454683529E+03  0.10566000000E+00 0. -1.
          4    1    1    2  501    0  0.20233965522E+02  0.16257529032E+02  0.32598913198E+03  0.32702084762E+03  0.00000000000E+00 0.  1.
</event>
<event>
 5    1  0.4881333E-005  0.1663651E+03  0.7818608E-02  0.1086006E+00
         21   -1    0    0  501  502  0.00000000000E+00  0.00000000000E+00  0.94699893669E+03  0.94699893669E+03  0.00000000000E+00 0. -1.
          4   -1    0    0  502    0 -0.00000000000E+00 -0.00000000000E+00 -0.69354920339E+02  0.69354920339E+02  0.00000000000E+00 0.  1.
        -13    1    1    2    0    0  0.24200744515E+03  0.74984802845E+02  0.45673669044E+03  0.52230138782E+03  0.10566000000E+00 0.  1.
         13    1    1    2    0    0 -0.12008505241E+03 -0.53600642532E+02  0.17669173232E+03  0.22025764034E+03  0.10566000000E+00 0. -1.
          4    1    1    2  501    0 -0.12192239274E+03 -0.21384160313E+02  0.24421559358E+03  0.27379482886E+03  0.00000000000E+00 0.  1.
</event>
<event>
 5    1  0.4881333E-005  0.4194704E+03  0.7818608E-02  0.9995142E-01
         21   -1    0    0  501  502  0.00000000000E+00  0.00000000000E+00  0.18815209658E+03  0.18815209658E+03  0.00000000000E+00 0. -1.
         -4   -1    0    0    0  501 -0.00000000000E+00 -0.00000000000E+00 -0.18918829383E+04  0.18918829383E+04  0.00000000000E+00 0. -1.
        -13    1    1    2    0    0  0.13219901350E+03 -0.50235694740E+02 -0.43070934574E+03  0.45333294152E+03  0.10566000000E+00 0.  1.
         13    1    1    2    0    0 -0.52083228207E+03  0.67043465935E+02 -0.10606038162E+04  0.11834870335E+04  0.10566000000E+00 0. -1.
         -4    1    1    2    0  502  0.38863326856E+03 -0.16807771195E+02 -0.21241767981E+03  0.44321505988E+03  0.00000000000E+00 0. -1.
</event>
<event>
 5    1  0.4881333E-005  0.4146298E+03  0.7818608E-02  0.9969285E-01
         -4   -1    0    0    0  501 -0.00000000000E+00  0.00000000000E+00  0.40436272059E+03  0.40436272059E+03  0.00000000000E+00 0. -1.
         21   -1    0    0  501  502  0.00000000000E+00 -0.00000000000E+00 -0.91218306311E+03  0.91218306311E+03  0.00000000000E+00 0. -1.
        -13    1    1    2    0    0 -0.15741712488E+03  0.25273661090E+02  0.59024164009E+02  0.17000815349E+03  0.10566000000E+00 0.  1.
         13    1    1    2    0    0 -0.18313784419E+03  0.26231701531E+03  0.10809810991E+03  0.33769053737E+03  0.10566000000E+00 0. -1.
         -4    1    1    2    0  502  0.34055496907E+03 -0.28759067640E+03 -0.67494261644E+03  0.80884709284E+03  0.00000000000E+00 0. -1.
</event>
<event>
 5    1  0.4881333E-005  0.3494272E+03  0.7818608E-02  0.1019909E+00
         21   -1    0    0  501  502  0.00000000000E+00  0.00000000000E+00  0.72609985114E+03  0.72609985114E+03  0.00000000000E+00 0.  1.
          4   -1    0    0  502    0 -0.00000000000E+00 -0.00000000000E+00 -0.86643689970E+03  0.86643689970E+03  0.00000000000E+00 0.  1.
        -13    1    1    2    0    0 -0.34729484034E+02 -0.34279031442E+03  0.54686949569E+03  0.64635717154E+03  0.10566000000E+00 0.  1.
         13    1    1    2    0    0 -0.12513603528E+03 -0.21578191721E+02 -0.48207468963E+03  0.49851846829E+03  0.10566000000E+00 0. -1.
          4    1    1    2  501    0  0.15986551931E+03  0.36436850614E+03 -0.20513185463E+03  0.44766111101E+03  0.00000000000E+00 0.  1.
</event>
<event>
 5    1  0.4881333E-005  0.4007243E+03  0.7818608E-02  0.9778794E-01
         -4   -1    0    0    0  501 -0.00000000000E+00  0.00000000000E+00  0.12171248552E+04  0.12171248552E+04  0.00000000000E+00 0. -1.
         21   -1    0    0  501  502  0.00000000000E+00 -0.00000000000E+00 -0.49537944294E+03  0.49537944294E+03  0.00000000000E+00 0. -1.
        -13    1    1    2    0    0  0.31459226994E+03  0.11562269213E+03  0.55401173486E+03  0.64750746465E+03  0.10566000000E+00 0.  1.
         13    1    1    2    0    0 -0.44779693090E+03  0.25678881280E+03  0.35590224750E+03  0.62700000530E+03  0.10566000000E+00 0. -1.
         -4    1    1    2    0  502  0.13320466096E+03 -0.37241150493E+03 -0.18816857013E+03  0.43799682817E+03  0.00000000000E+00 0. -1.
</event>
<event>
 5    1  0.4881333E-005  0.4158000E+03  0.7818608E-02  0.9937526E-01
          4   -1    0    0  502    0 -0.00000000000E+00  0.00000000000E+00  0.76670089153E+03  0.76670089153E+03  0.00000000000E+00 0.  1.
         21   -1    0    0  501  502  0.00000000000E+00 -0.00000000000E+00 -0.50542962725E+03  0.50542962725E+03  0.00000000000E+00 0.  1.
        -13    1    1    2    0    0 -0.42203236649E+03  0.35445039180E+03  0.25739449877E+03  0.60827488669E+03  0.10566000000E+00 0.  1.
         13    1    1    2    0    0  0.11754623669E+03 -0.13046587858E+03  0.17590242926E+03  0.24855610839E+03  0.10566000000E+00 0. -1.
          4    1    1    2  501    0  0.30448612981E+03 -0.22398451322E+03 -0.17202566375E+03  0.41529952371E+03  0.00000000000E+00 0.  1.
</event>
<event>
 5    1  0.4881333E-005  0.1593291E+03  0.7818608E-02  0.1092259E+00
          4   -1    0    0  502    0 -0.00000000000E+00  0.00000000000E+00  0.98421967041E+03  0.98421967041E+03  0.00000000000E+00 0.  1.
         21   -1    0    0  501  502  0.00000000000E+00 -0.00000000000E+00 -0.55091788284E+02  0.55091788284E+02  0.00000000000E+00 0. -1.
        -13    1    1    2    0    0  0.91490093548E+01  0.16235434041E+03  0.75984418199E+03  0.77704943748E+03  0.10566000000E+00 0.  1.
         13    1    1    2    0    0 -0.52034718842E+02 -0.14104174436E+03  0.11125572870E+03  0.18702468807E+03  0.10566000000E+00 0. -1.
          4    1    1    2  501    0  0.42885709487E+02 -0.21312596054E+02  0.58027971439E+02  0.75237333140E+02  0.00000000000E+00 0.  1.
</event>
<event>
 5    1  0.4881333E-005  0.7167809E+03  0.7818608E-02  0.9098984E-01
         21   -1    0    0  501  502  0.00000000000E+00  0.00000000000E+00  0.16384631868E+04  0.16384631868E+04  0.00000000000E+00 0. -1.
          4   -1    0    0  502    0 -0.00000000000E+00 -0.00000000000E+00 -0.47848979340E+03  0.47848979340E+03  0.00000000000E+00 0.  1.
        -13    1    1    2    0    0  0.41889896660E+03  0.54969026953E+03  0.16644821477E+03  0.71087323483E+03  0.10566000000E+00 0.  1.
         13    1    1    2    0    0 -0.61702870492E+03 -0.49033749806E+03  0.78463175980E+03  0.11121161335E+04  0.10566000000E+00 0. -1.
          4    1    1    2  501    0  0.19812973833E+03 -0.59352771467E+02  0.20889341883E+03  0.29396361190E+03  0.00000000000E+00 0.  1.
</event>
<event>
 5    1  0.4881333E-005  0.5130908E+02  0.7818608E-02  0.1356462E+00
         21   -1    0    0  501  502  0.00000000000E+00  0.00000000000E+00  0.99965709580E+02  0.99965709580E+02  0.00000000000E+00 0. -1.
         -4   -1    0    0    0  501 -0.00000000000E+00 -0.00000000000E+00 -0.35582881726E+02  0.35582881726E+02  0.00000000000E+00 0. -1.
        -13    1    1    2    0    0  0.13794928570E+02 -0.28728750811E+00  0.13253832106E+02  0.19132637505E+02  0.10566000000E+00 0.  1.
         13    1    1    2    0    0 -0.45145103501E+02 -0.32947669780E+02  0.41783742050E+02  0.69781957395E+02  0.10566000000E+00 0. -1.
         -4    1    1    2    0  502  0.31350174931E+02  0.33234957288E+02  0.93452536984E+01  0.46633996407E+02  0.00000000000E+00 0. -1.
</event>
<event>
 5    1  0.4881333E-005  0.3875778E+03  0.7818608E-02  0.9892296E-01
          4   -1    0    0  502    0 -0.00000000000E+00  0.00000000000E+00  0.28265511095E+04  0.28265511095E+04  0.00000000000E+00 0.  1.
         21   -1    0    0  501  502  0.00000000000E+00 -0.00000000000E+00 -0.15018784941E+03  0.15018784941E+03  0.00000000000E+00 0. -1.
        -13    1    1    2    0    0  0.15605740163E+03  0.37847799680E+03  0.26486539520E+03  0.48759942105E+03  0.10566000000E+00 0.  1.
         13    1    1    2    0    0  0.15196611107E+03 -0.20119537572E+03  0.79461413822E+03  0.83365755437E+03  0.10566000000E+00 0. -1.
          4    1    1    2  501    0 -0.30802351271E+03 -0.17728262108E+03  0.16168837267E+04  0.16554819835E+04  0.00000000000E+00 0.  1.
</event>
<event>
 5    1  0.4881333E-005  0.2679349E+03  0.7818608E-02  0.1032804E+00
          4   -1    0    0  502    0 -0.00000000000E+00  0.00000000000E+00  0.13547645831E+04  0.13547645831E+04  0.00000000000E+00 0.  1.
         21   -1    0    0  501  502  0.00000000000E+00 -0.00000000000E+00 -0.37885606604E+03  0.37885606604E+03  0.00000000000E+00 0.  1.
        -13    1    1    2    0    0  0.13879878535E+02  0.36857801003E+03  0.57249806210E+03  0.68102602210E+03  0.10566000000E+00 0.  1.
         13    1    1    2    0    0  0.12198249447E+03 -0.14377059465E+03  0.65939277231E+03  0.68581962074E+03  0.10566000000E+00 0. -1.
          4    1    1    2  501    0 -0.13586237301E+03 -0.22480741538E+03 -0.25598231739E+03  0.36677500627E+03  0.00000000000E+00 0.  1.
</event>
<event>
 5    1  0.4881333E-005  0.4421647E+03  0.7818608E-02  0.1035224E+00
         21   -1    0    0  501  502  0.00000000000E+00  0.00000000000E+00  0.12430033074E+03  0.12430033074E+03  0.00000000000E+00 0. -1.
         -4   -1    0    0    0  501 -0.00000000000E+00 -0.00000000000E+00 -0.22013261862E+04  0.22013261862E+04  0.00000000000E+00 0. -1.
        -13    1    1    2    0    0 -0.26812200718E+02  0.28254766180E+02 -0.22408209347E+03  0.22744234807E+03  0.10566000000E+00 0.  1.
         13    1    1    2    0    0  0.36571315284E+03  0.25444277234E+03 -0.13852804416E+04  0.14551594922E+04  0.10566000000E+00 0. -1.
         -4    1    1    2    0  502 -0.33890095212E+03 -0.28269753852E+03 -0.46766332041E+03  0.64302467673E+03  0.00000000000E+00 0. -1.
</event>
<event>
 5    1  0.4881333E-005  0.7410525E+02  0.7818608E-02  0.1216351E+00
          4   -1    0    0  502    0 -0.00000000000E+00  0.00000000000E+00  0.49064242193E+03  0.49064242193E+03  0.00000000000E+00 0.  1.
         21   -1    0    0  501  502  0.00000000000E+00 -0.00000000000E+00 -0.25115088504E+02  0.25115088504E+02  0.00000000000E+00 0. -1.
        -13    1    1    2    0    0 -0.88175176830E+01  0.79940466766E+02  0.21545250094E+03  0.22997395107E+03  0.10566000000E+00 0.  1.
         13    1    1    2    0    0 -0.48116541644E+00 -0.70246323100E+02  0.25984511380E+03  0.26917331175E+03  0.10566000000E+00 0. -1.
          4    1    1    2  501    0  0.92986830995E+01 -0.96941436661E+01 -0.97702813146E+01  0.16610247613E+02  0.00000000000E+00 0.  1.
</event>
<event>
 5    1  0.4881333E-005  0.7449030E+02  0.7818608E-02  0.1215416E+00
         -4   -1    0    0    0  501 -0.00000000000E+00  0.00000000000E+00  0.95963081294E+02  0.95963081294E+02  0.00000000000E+00 0. -1.
         21   -1    0    0  501  502  0.00000000000E+00 -0.00000000000E+00 -0.23447344048E+03  0.23447344048E+03  0.00000000000E+00 0.  1.
        -13    1    1    2    0    0 -0.58168537267E+02 -0.52459766870E+02 -0.17148912045E+03  0.18853152380E+03  0.10566000000E+00 0.  1.
         13    1    1    2    0    0  0.43207222909E+02  0.60440014779E+02  0.69439466661E+02  0.10169419940E+03  0.10566000000E+00 0. -1.
         -4    1    1    2    0  502  0.14961314359E+02 -0.79802479081E+01 -0.36460705390E+02  0.40210798569E+02  0.00000000000E+00 0. -1.
</event>
<event>
 5    1  0.4881333E-005  0.2234730E+03  0.7818608E-02  0.1045135E+00
         21   -1    0    0  501  502  0.00000000000E+00  0.00000000000E+00  0.19231069967E+03  0.19231069967E+03  0.00000000000E+00 0.  1.
          4   -1    0    0  502    0 -0.00000000000E+00 -0.00000000000E+00 -0.13140787600E+04  0.13140787600E+04  0.00000000000E+00 0.  1.
        -13    1    1    2    0    0  0.49112234244E+02  0.21784395780E+03 -0.11087979233E+04  0.11310618229E+04  0.10566000000E+00 0.  1.
         13    1    1    2    0    0 -0.12724871603E+03 -0.19973019107E+03 -0.99915491748E+02  0.25703599283E+03  0.10566000000E+00 0. -1.
          4    1    1    2  501    0  0.78136481787E+02 -0.18113766736E+02  0.86945354652E+02  0.11829164394E+03  0.00000000000E+00 0.  1.
</event>
<event>
 5    1  0.4881333E-005  0.4974860E+03  0.7818608E-02  0.9693127E-01
          4   -1    0    0  502    0 -0.00000000000E+00  0.00000000000E+00  0.15020493606E+04  0.15020493606E+04  0.00000000000E+00 0.  1.
         21   -1    0    0  501  502  0.00000000000E+00 -0.00000000000E+00 -0.41116160284E+03  0.41116160284E+03  0.00000000000E+00 0.  1.
        -13    1    1    2    0    0 -0.31375982892E+03 -0.35932426693E+03  0.10750995345E+03  0.48899648291E+03  0.10566000000E+00 0.  1.
         13    1    1    2    0    0 -0.19058249686E+03  0.13844609567E+03  0.81514214102E+03  0.84849615835E+03  0.10566000000E+00 0. -1.
          4    1    1    2  501    0  0.50434232578E+03  0.22087817126E+03  0.16823566334E+03  0.57571832221E+03  0.00000000000E+00 0.  1.
</event>
<event>
 5    1  0.4881333E-005  0.6795293E+03  0.7818608E-02  0.9153214E-01
         21   -1    0    0  501  502  0.00000000000E+00  0.00000000000E+00  0.23312270103E+03  0.23312270103E+03  0.00000000000E+00 0. -1.
          4   -1    0    0  502    0 -0.00000000000E+00 -0.00000000000E+00 -0.35283517231E+04  0.35283517231E+04  0.00000000000E+00 0.  1.
        -13    1    1    2    0    0 -0.33971092582E+03 -0.66923240366E+03 -0.17123980207E+04  0.18696476983E+04  0.10566000000E+00 0.  1.
         13    1    1    2    0    0 -0.23949845326E+02  0.62446239496E+03 -0.71375602425E+03  0.94866988522E+03  0.10566000000E+00 0. -1.
          4    1    1    2  501    0  0.36366077115E+03  0.44770008699E+02 -0.86907497711E+03  0.94315684062E+03  0.00000000000E+00 0.  1.
</event>
<event>
 5    1  0.4881333E-005  0.3223715E+03  0.7818608E-02  0.1014817E+00
         21   -1    0    0  501  502  0.00000000000E+00  0.00000000000E+00  0.23588867027E+03  0.23588867027E+03  0.00000000000E+00 0.  1.
          4   -1    0    0  502    0 -0.00000000000E+00 -0.00000000000E+00 -0.16273234141E+04  0.16273234141E+04  0.00000000000E+00 0.  1.
        -13    1    1    2    0    0 -0.13010988877E+03 -0.15340259261E+03 -0.10597722192E+04  0.10786927767E+04  0.10566000000E+00 0.  1.
         13    1    1    2    0    0  0.59032130375E+02 -0.18061610015E+03 -0.39395479431E+03  0.43738696731E+03  0.10566000000E+00 0. -1.
          4    1    1    2  501    0  0.71077758392E+02  0.33401869276E+03  0.62292269774E+02  0.34713234036E+03  0.00000000000E+00 0.  1.
</event>
<event>
 5    1  0.4881333E-005  0.2765586E+03  0.7818608E-02  0.1017480E+00
          4   -1    0    0  502    0 -0.00000000000E+00  0.00000000000E+00  0.79064039334E+03  0.79064039334E+03  0.00000000000E+00 0.  1.
         21   -1    0    0  501  502  0.00000000000E+00 -0.00000000000E+00 -0.24841377071E+03  0.24841377071E+03  0.00000000000E+00 0.  1.
        -13    1    1    2    0    0  0.15176015513E+03  0.25363798991E+03  0.24393314873E+03  0.38323200130E+03  0.10566000000E+00 0.  1.
         13    1    1    2    0    0 -0.15465377775E+03 -0.21722036536E+03  0.43725053826E+03  0.51214306836E+03  0.10566000000E+00 0. -1.
          4    1    1    2  501    0  0.28936226239E+01 -0.36417624554E+02 -0.13895706436E+03  0.14367909439E+03  0.00000000000E+00 0.  1.
</event>
<event>
 5    1  0.4881333E-005  0.4770493E+03  0.7818608E-02  0.1001300E+00
         21   -1    0    0  501  502  0.00000000000E+00  0.00000000000E+00  0.23411278928E+03  0.23411278928E+03  0.00000000000E+00 0. -1.
         -4   -1    0    0    0  501 -0.00000000000E+00 -0.00000000000E+00 -0.13861545805E+04  0.13861545805E+04  0.00000000000E+00 0. -1.
        -13    1    1    2    0    0  0.56152436289E+02 -0.71209841952E+02 -0.29521709475E+03  0.30883180194E+03  0.10566000000E+00 0.  1.
         13    1    1    2    0    0  0.81028630767E+02 -0.43980265939E+03 -0.27493984707E+03  0.52496090224E+03  0.10566000000E+00 0. -1.
         -4    1    1    2    0  502 -0.13718106706E+03  0.51101250134E+03 -0.58188484942E+03  0.78647466562E+03  0.00000000000E+00 0. -1.
</event>
<event>
 5    1  0.4881333E-005  0.3070626E+03  0.7818608E-02  0.1004432E+00
          4   -1    0    0  502    0 -0.00000000000E+00  0.00000000000E+00  0.85634143013E+03  0.85634143013E+03  0.00000000000E+00 0.  1.
         21   -1    0    0  501  502  0.00000000000E+00 -0.00000000000E+00 -0.49652797217E+03  0.49652797217E+03  0.00000000000E+00 0.  1.
        -13    1    1    2    0    0 -0.31049047236E+03 -0.64525707032E+02  0.42508873101E+03  0.53034737738E+03  0.10566000000E+00 0.  1.
         13    1    1    2    0    0  0.28398208631E+03  0.85421169127E+02  0.31970412424E+03  0.43606575158E+03  0.10566000000E+00 0. -1.
          4    1    1    2  501    0  0.26508386050E+02 -0.20895462095E+02 -0.38497939729E+03  0.38645627334E+03  0.00000000000E+00 0.  1.
</event>
<event>
 5    1  0.4881333E-005  0.5097381E+03  0.7818608E-02  0.9727634E-01
         -4   -1    0    0    0  501 -0.00000000000E+00  0.00000000000E+00  0.29152556823E+03  0.29152556823E+03  0.00000000000E+00 0. -1.
         21   -1    0    0  501  502  0.00000000000E+00 -0.00000000000E+00 -0.16088315073E+04  0.16088315073E+04  0.00000000000E+00 0. -1.
        -13    1    1    2    0    0 -0.97537414977E+02  0.16796695363E+03  0.18542187054E+02  0.19511603906E+03  0.10566000000E+00 0.  1.
         13    1    1    2    0    0 -0.17287947893E+03  0.35269826616E+03 -0.23475861195E+03  0.45759698233E+03  0.10566000000E+00 0. -1.
         -4    1    1    2    0  502  0.27041689391E+03 -0.52066521979E+03 -0.11010895142E+04  0.12476440541E+04  0.00000000000E+00 0. -1.
</event>
<event>
 5    1  0.4881333E-005  0.4922970E+03  0.7818608E-02  0.9733010E-01
         21   -1    0    0  501  502  0.00000000000E+00  0.00000000000E+00  0.24711503097E+03  0.24711503097E+03  0.00000000000E+00 0. -1.
         -4   -1    0    0    0  501 -0.00000000000E+00 -0.00000000000E+00 -0.16038902804E+04  0.16038902804E+04  0.00000000000E+00 0. -1.
        -13    1    1    2    0    0  0.22636560793E+02  0.21042658907E+03 -0.17768542242E+03  0.27634015955E+03  0.10566000000E+00 0.  1.
         13    1    1    2    0    0 -0.25754216624E+03  0.29461147460E+03 -0.82918881828E+03  0.91688494146E+03  0.10566000000E+00 0. -1.
         -4    1    1    2    0  502  0.23490560545E+03 -0.50503806367E+03 -0.34990100873E+03  0.65778021036E+03  0.00000000000E+00 0. -1.
</event>
<event>
 5    1  0.4881333E-005  0.4855536E+02  0.7818608E-02  0.1297785E+00
          4   -1    0    0  502    0 -0.00000000000E+00  0.00000000000E+00  0.14613161756E+03  0.14613161756E+03  0.00000000000E+00 0.  1.
         21   -1    0    0  501  502  0.00000000000E+00 -0.00000000000E+00 -0.26781621865E+03  0.26781621865E+03  0.00000000000E+00 0. -1.
        -13    1    1    2    0    0 -0.21577677294E+02 -0.43297109182E+02  0.13740327135E+03  0.14567053910E+03  0.10566000000E+00 0.  1.
         13    1    1    2    0    0  0.20537045561E+02  0.53372655323E+02 -0.18903637818E+03  0.19749727597E+03  0.10566000000E+00 0. -1.
          4    1    1    2  501    0  0.10406317329E+01 -0.10075546142E+02 -0.70051494266E+02  0.70780021145E+02  0.00000000000E+00 0.  1.
</event>
<event>
 5    1  0.4881333E-005  0.5167504E+03  0.7818608E-02  0.9441995E-01
         21   -1    0    0  501  502  0.00000000000E+00  0.00000000000E+00  0.28071956875E+03  0.28071956875E+03  0.00000000000E+00 0.  1.
          4   -1    0    0  502    0 -0.00000000000E+00 -0.00000000000E+00 -0.31108198592E+04  0.31108198592E+04  0.00000000000E+00 0.  1.
        -13    1    1    2    0    0 -0.22123093417E+03 -0.71068229918E+03 -0.44930090793E+03  0.86941576569E+03  0.10566000000E+00 0.  1.
         13    1    1    2    0    0  0.25886199760E+03  0.41087807647E+03 -0.18360496471E+04  0.18991863114E+04  0.10566000000E+00 0. -1.
          4    1    1    2  501    0 -0.37631063438E+02  0.29980422271E+03 -0.54474973543E+03  0.62293735089E+03  0.00000000000E+00 0.  1.
</event>
<event>
 5    1  0.4881333E-005  0.4964620E+03  0.7818608E-02  0.9756305E-01
         21   -1    0    0  501  502  0.00000000000E+00  0.00000000000E+00  0.84093612626E+02  0.84093612626E+02  0.00000000000E+00 0.  1.
          4   -1    0    0  502    0 -0.00000000000E+00 -0.00000000000E+00 -0.43812177295E+04  0.43812177295E+04  0.00000000000E+00 0.  1.
        -13    1    1    2    0    0 -0.38104942797E+03 -0.17112495409E+03 -0.16872867569E+04  0.17382229511E+04  0.10566000000E+00 0.  1.
         13    1    1    2    0    0 -0.18511782542E+03  0.44598806989E+02 -0.94710090355E+03  0.96605268777E+03  0.10566000000E+00 0. -1.
          4    1    1    2  501    0  0.56616725339E+03  0.12652614711E+03 -0.16627364564E+04  0.17610357032E+04  0.00000000000E+00 0.  1.
</event>
<event>
 5    1  0.4881333E-005  0.4742301E+03  0.7818608E-02  0.9859774E-01
         21   -1    0    0  501  502  0.00000000000E+00  0.00000000000E+00  0.19544127353E+03  0.19544127353E+03  0.00000000000E+00 0. -1.
          4   -1    0    0  502    0 -0.00000000000E+00 -0.00000000000E+00 -0.18915176933E+04  0.18915176933E+04  0.00000000000E+00 0.  1.
        -13    1    1    2    0    0 -0.52458587351E+03  0.19063026732E+03 -0.59006715250E+03  0.81222502616E+03  0.10566000000E+00 0.  1.
         13    1    1    2    0    0  0.15156417176E+03 -0.24572634166E+02 -0.62598449500E+03  0.64454023276E+03  0.10566000000E+00 0. -1.
          4    1    1    2  501    0  0.37302170174E+03 -0.16605763316E+03 -0.48002477231E+03  0.63019370795E+03  0.00000000000E+00 0.  1.
</event>
<event>
 5    1  0.4881333E-005  0.1452989E+03  0.7818608E-02  0.1105843E+00
          4   -1    0    0  502    0 -0.00000000000E+00  0.00000000000E+00  0.63397119688E+02  0.63397119688E+02  0.00000000000E+00 0.  1.
         21   -1    0    0  501  502  0.00000000000E+00 -0.00000000000E+00 -0.11966766811E+04  0.11966766811E+04  0.00000000000E+00 0.  1.
        -13    1    1    2    0    0  0.63191622295E+01 -0.14495106984E+03 -0.61577255745E+02  0.15761508192E+03  0.10566000000E+00 0.  1.
         13    1    1    2    0    0  0.22927815951E+02  0.14645154068E+03 -0.34916648589E+03  0.37932965155E+03  0.10566000000E+00 0. -1.
          4    1    1    2  501    0 -0.29246978180E+02 -0.15004708409E+01 -0.72253581977E+03  0.72312906732E+03  0.00000000000E+00 0.  1.
</event>
<event>
 5    1  0.4881333E-005  0.2140151E+03  0.7818608E-02  0.1050931E+00
         -4   -1    0    0    0  501 -0.00000000000E+00  0.00000000000E+00  0.12355687586E+04  0.12355687586E+04  0.00000000000E+00 0. -1.
         21   -1    0    0  501  502  0.00000000000E+00 -0.00000000000E+00 -0.11475407638E+03  0.11475407638E+03  0.00000000000E+00 0.  1.
        -13    1    1    2    0    0  0.22881131782E+03  0.60265728618E+01  0.15347907258E+03  0.27558442559E+03  0.10566000000E+00 0.  1.
         13    1    1    2    0    0 -0.21109930061E+03  0.12370943540E+02  0.10062298905E+04  0.10282093943E+04  0.10566000000E+00 0. -1.
         -4    1    1    2    0  502 -0.17712017208E+02 -0.18397516402E+02 -0.38894280813E+02  0.46529015070E+02  0.00000000000E+00 0. -1.
</event>
<event>
 5    1  0.4881333E-005  0.3023330E+03  0.7818608E-02  0.1017504E+00
         21   -1    0    0  501  502  0.00000000000E+00  0.00000000000E+00  0.70362668574E+03  0.70362668574E+03  0.00000000000E+00 0.  1.
          4   -1    0    0  502    0 -0.00000000000E+00 -0.00000000000E+00 -0.57766524151E+03  0.57766524151E+03  0.00000000000E+00 0.  1.
        -13    1    1    2    0    0  0.47624096388E+03 -0.98715935980E+02 -0.24151077192E+03  0.54302647800E+03  0.10566000000E+00 0.  1.
         13    1    1    2    0    0 -0.19346406744E+03  0.85524271191E+02 -0.65083944665E+02  0.22131126806E+03  0.10566000000E+00 0. -1.
          4    1    1    2  501    0 -0.28277689645E+03  0.13191664789E+02  0.43255616082E+03  0.51695418119E+03  0.00000000000E+00 0.  1.
</event>
<event>
 5    1  0.4881333E-005  0.1121305E+03  0.7818608E-02  0.1145910E+00
         21   -1    0    0  501  502  0.00000000000E+00  0.00000000000E+00  0.93255860599E+02  0.93255860599E+02  0.00000000000E+00 0. -1.
          4   -1    0    0  502    0 -0.00000000000E+00 -0.00000000000E+00 -0.25780164813E+03  0.25780164813E+03  0.00000000000E+00 0.  1.
        -13    1    1    2    0    0  0.36884985827E+02 -0.10735408511E+03 -0.18762748728E+03  0.21929315292E+03  0.10566000000E+00 0.  1.
         13    1    1    2    0    0 -0.16288354490E+02  0.10694892234E+03  0.13422756033E+02  0.10901176095E+03  0.10566000000E+00 0. -1.
          4    1    1    2  501    0 -0.20596631337E+02  0.40516277253E+00  0.96589437190E+01  0.22752594864E+02  0.00000000000E+00 0.  1.
</event>
<event>
 5    1  0.4881333E-005  0.1697331E+03  0.7818608E-02  0.1083129E+00
          4   -1    0    0  502    0 -0.00000000000E+00  0.00000000000E+00  0.64981589171E+02  0.64981589171E+02  0.00000000000E+00 0.  1.
         21   -1    0    0  501  502  0.00000000000E+00 -0.00000000000E+00 -0.63417964967E+03  0.63417964967E+03  0.00000000000E+00 0. -1.
        -13    1    1    2    0    0  0.16905252740E+03  0.41549201765E+02 -0.11874926185E+03  0.21072847824E+03  0.10566000000E+00 0.  1.
         13    1    1    2    0    0 -0.15888604784E+03 -0.16341178367E+02 -0.40654741254E+03  0.43679814573E+03  0.10566000000E+00 0. -1.
          4    1    1    2  501    0 -0.10166479561E+02 -0.25208023398E+02 -0.43901386109E+02  0.51634614869E+02  0.00000000000E+00 0.  1.
</event>
<event>
 5    1  0.4881333E-005  0.2123267E+03  0.7818608E-02  0.1051999E+00
         21   -1    0    0  501  502  0.00000000000E+00  0.00000000000E+00  0.15859020601E+03  0.15859020601E+03  0.00000000000E+00 0.  1.
          4   -1    0    0  502    0 -0.00000000000E+00 -0.00000000000E+00 -0.76580169658E+03  0.76580169658E+03  0.00000000000E+00 0.  1.
        -13    1    1    2    0    0 -0.11862430265E+03 -0.17886180872E+03 -0.58472221469E+03  0.62286704144E+03  0.10566000000E+00 0.  1.
         13    1    1    2    0    0  0.12752449771E+03  0.16055020922E+03 -0.95171142210E+02  0.22604518281E+03  0.10566000000E+00 0. -1.
          4    1    1    2  501    0 -0.89001950582E+01  0.18311599495E+02  0.72681866337E+02  0.75479678340E+02  0.00000000000E+00 0.  1.
</event>
<event>
 5    1  0.4881333E-005  0.4839038E+03  0.7818608E-02  0.9986298E-01
         21   -1    0    0  501  502  0.00000000000E+00  0.00000000000E+00  0.19532906709E+03  0.19532906709E+03  0.00000000000E+00 0.  1.
          4   -1    0    0  502    0 -0.00000000000E+00 -0.00000000000E+00 -0.18334385417E+04  0.18334385417E+04  0.00000000000E+00 0.  1.
        -13    1    1    2    0    0 -0.13663177166E+03  0.49474361180E+03 -0.31338451667E+03  0.60137288673E+03  0.10566000000E+00 0.  1.
         13    1    1    2    0    0  0.21788570388E+01 -0.94807305290E+02 -0.39794359854E+03  0.40908714394E+03  0.10566000000E+00 0. -1.
          4    1    1    2  501    0  0.13445291462E+03 -0.39993630651E+03 -0.92678135939E+03  0.10183075781E+04  0.00000000000E+00 0.  1.
</event>
<event>
 5    1  0.4881333E-005  0.5420556E+03  0.7818608E-02  0.9398638E-01
         21   -1    0    0  501  502  0.00000000000E+00  0.00000000000E+00  0.62811364869E+03  0.62811364869E+03  0.00000000000E+00 0. -1.
          4   -1    0    0  502    0 -0.00000000000E+00 -0.00000000000E+00 -0.12913948651E+04  0.12913948651E+04  0.00000000000E+00 0.  1.
        -13    1    1    2    0    0  0.33026140700E+03 -0.51575425205E+02 -0.55369202544E+03  0.64676695311E+03  0.10566000000E+00 0.  1.
         13    1    1    2    0    0  0.18217170077E+03  0.51953024679E+03 -0.16992705459E+03  0.57617134685E+03  0.10566000000E+00 0. -1.
          4    1    1    2  501    0 -0.51243310777E+03 -0.46795482158E+03  0.60337863632E+02  0.69657021381E+03  0.00000000000E+00 0.  1.
</event>
<event>
 5    1  0.4881333E-005  0.2862730E+03  0.7818608E-02  0.1045299E+00
          4   -1    0    0  502    0 -0.00000000000E+00  0.00000000000E+00  0.21961302445E+03  0.21961302445E+03  0.00000000000E+00 0.  1.
         21   -1    0    0  501  502  0.00000000000E+00 -0.00000000000E+00 -0.21270048495E+04  0.21270048495E+04  0.00000000000E+00 0.  1.
        -13    1    1    2    0    0 -0.23401569973E+03 -0.10538660359E+03 -0.11173059423E+02  0.25689400997E+03  0.10566000000E+00 0.  1.
         13    1    1    2    0    0 -0.55841472538E+02  0.89845505354E+02  0.53480097430E+02  0.11853529800E+03  0.10566000000E+00 0. -1.
          4    1    1    2  501    0  0.28985717227E+03  0.15541098235E+02 -0.19496988631E+04  0.19711885660E+04  0.00000000000E+00 0.  1.
</event>
<event>
 5    1  0.4881333E-005  0.5004268E+03  0.7818608E-02  0.9598063E-01
          4   -1    0    0  502    0 -0.00000000000E+00  0.00000000000E+00  0.20609521263E+04  0.20609521263E+04  0.00000000000E+00 0.  1.
         21   -1    0    0  501  502  0.00000000000E+00 -0.00000000000E+00 -0.30328057109E+03  0.30328057109E+03  0.00000000000E+00 0.  1.
        -13    1    1    2    0    0 -0.11111329230E+03 -0.35895449274E+03  0.45554011113E+03  0.59051781988E+03  0.10566000000E+00 0.  1.
         13    1    1    2    0    0 -0.30054835045E+03 -0.11967473250E+03  0.10417395625E+04  0.10908128528E+04  0.10566000000E+00 0. -1.
          4    1    1    2  501    0  0.41166164275E+03  0.47862922524E+03  0.26039188155E+03  0.68290202470E+03  0.00000000000E+00 0.  1.
</event>
<event>
 5    1  0.4881333E-005  0.3190483E+03  0.7818608E-02  0.1019521E+00
         21   -1    0    0  501  502  0.00000000000E+00  0.00000000000E+00  0.20160868871E+03  0.20160868871E+03  0.00000000000E+00 0.  1.
          4   -1    0    0  502    0 -0.00000000000E+00 -0.00000000000E+00 -0.18006978478E+04  0.18006978478E+04  0.00000000000E+00 0.  1.
        -13    1    1    2    0    0  0.36223733856E+03  0.24374263132E+03 -0.12288322368E+04  0.13040916521E+04  0.10566000000E+00 0.  1.
         13    1    1    2    0    0 -0.69671555672E+02 -0.15383099839E+03 -0.35340658077E+03  0.39168140654E+03  0.10566000000E+00 0. -1.
          4    1    1    2  501    0 -0.29256578288E+03 -0.89911632931E+02 -0.16850341546E+02  0.30653347788E+03  0.00000000000E+00 0.  1.
</event>
<event>
 5    1  0.4881333E-005  0.6194461E+03  0.7818608E-02  0.9248818E-01
         21   -1    0    0  501  502  0.00000000000E+00  0.00000000000E+00  0.25696134945E+03  0.25696134945E+03  0.00000000000E+00 0. -1.
          4   -1    0    0  502    0 -0.00000000000E+00 -0.00000000000E+00 -0.24559594176E+04  0.24559594176E+04  0.00000000000E+00 0.  1.
        -13    1    1    2    0    0  0.28690275669E+03  0.71425873951E+03 -0.12457283073E+04  0.14643489220E+04  0.10566000000E+00 0.  1.
         13    1    1    2    0    0 -0.74203106142E+02 -0.49616565947E+03 -0.59841432231E+03  0.78088806810E+03  0.10566000000E+00 0. -1.
          4    1    1    2  501    0 -0.21269965054E+03 -0.21809308004E+03 -0.35485543854E+03  0.46768377689E+03  0.00000000000E+00 0.  1.
</event>
<event>
 5    1  0.4881333E-005  0.5619267E+03  0.7818608E-02  0.9438616E-01
         -4   -1    0    0    0  501 -0.00000000000E+00  0.00000000000E+00  0.39362443073E+04  0.39362443073E+04  0.00000000000E+00 0. -1.
         21   -1    0    0  501  502  0.00000000000E+00 -0.00000000000E+00 -0.22197680933E+03  0.22197680933E+03  0.00000000000E+00 0. -1.
        -13    1    1    2    0    0  0.22310168796E+03  0.62152655647E+03  0.94862920945E+03  0.11558403920E+04  0.10566000000E+00 0.  1.
         13    1    1    2    0    0 -0.38065790710E+03  0.54417436581E+02  0.16017259102E+04  0.16472363529E+04  0.10566000000E+00 0. -1.
         -4    1    1    2    0  502  0.15755621914E+03 -0.67594399305E+03  0.11639123783E+04  0.13551443717E+04  0.00000000000E+00 0. -1.
</event>
<event>
 5    1  0.4881333E-005  0.4991823E+03  0.7818608E-02  0.9479766E-01
         -4   -1    0    0    0  501 -0.00000000000E+00  0.00000000000E+00  0.77789957425E+03  0.77789957425E+03  0.00000000000E+00 0. -1.
         21   -1    0    0  501  502  0.00000000000E+00 -0.00000000000E+00 -0.75651897405E+03  0.75651897405E+03  0.00000000000E+00 0. -1.
        -13    1    1    2    0    0 -0.39116107513E+03 -0.29817475113E+03 -0.11045143435E+03  0.50409790658E+03  0.10566000000E+00 0.  1.
         13    1    1    2    0    0  0.35800190691E+03  0.35310708373E+03  0.46869299225E+03  0.68740316415E+03  0.10566000000E+00 0. -1.
         -4    1    1    2    0  502  0.33159168217E+02 -0.54932332607E+02 -0.33686095770E+03  0.34291747758E+03  0.00000000000E+00 0. -1.
</event>
<event>
 5    1  0.4881333E-005  0.2587257E+03  0.7818608E-02  0.1080701E+00
         21   -1    0    0  501  502  0.00000000000E+00  0.00000000000E+00  0.23547687530E+03  0.23547687530E+03  0.00000000000E+00 0.  1.
          4   -1    0    0  502    0 -0.00000000000E+00 -0.00000000000E+00 -0.13006120385E+04  0.13006120385E+04  0.00000000000E+00 0.  1.
        -13    1    1    2    0    0  0.16852446951E+03 -0.19595512696E+03  0.13701365348E+03  0.29252634242E+03  0.10566000000E+00 0.  1.
         13    1    1    2    0    0  0.41089640999E+02  0.30705075401E+02 -0.18654687737E+03  0.19347069254E+03  0.10566000000E+00 0. -1.
          4    1    1    2  501    0 -0.20961411051E+03  0.16525005156E+03 -0.10156019393E+04  0.10500918788E+04  0.00000000000E+00 0.  1.
</event>
<event>
 5    1  0.4881333E-005  0.3547512E+03  0.7818608E-02  0.9869684E-01
         -4   -1    0    0    0  501 -0.00000000000E+00  0.00000000000E+00  0.24438823132E+04  0.24438823132E+04  0.00000000000E+00 0. -1.
         21   -1    0    0  501  502  0.00000000000E+00 -0.00000000000E+00 -0.84727114405E+02  0.84727114405E+02  0.00000000000E+00 0.  1.
        -13    1    1    2    0    0 -0.25130876416E+03 -0.21248350811E+03  0.63298844878E+03  0.71342814888E+03  0.10566000000E+00 0.  1.
         13    1    1    2    0    0  0.26081750990E+03  0.25877661340E+03  0.17292215848E+04  0.17678230708E+04  0.10566000000E+00 0. -1.
         -4    1    1    2    0  502 -0.95087457416E+01 -0.46293105296E+02 -0.30548347841E+01  0.47358207938E+02  0.00000000000E+00 0. -1.
</event>
<event>
 5    1  0.4881333E-005  0.1567694E+03  0.7818608E-02  0.1094621E+00
         21   -1    0    0  501  502  0.00000000000E+00  0.00000000000E+00  0.31979692238E+03  0.31979692238E+03  0.00000000000E+00 0. -1.
          4   -1    0    0  502    0 -0.00000000000E+00 -0.00000000000E+00 -0.12055929888E+03  0.12055929888E+03  0.00000000000E+00 0.  1.
        -13    1    1    2    0    0  0.18344978065E+02  0.15297253374E+03 -0.35865238738E+01  0.15411037803E+03  0.10566000000E+00 0.  1.
         13    1    1    2    0    0 -0.49481401106E+02 -0.15759613468E+03  0.14229189028E+03  0.21801821925E+03  0.10566000000E+00 0. -1.
          4    1    1    2  501    0  0.31136423041E+02  0.46236009429E+01  0.60532257091E+02  0.68227623981E+02  0.00000000000E+00 0.  1.
</event>
<event>
 5    1  0.4881333E-005  0.3802465E+03  0.7818608E-02  0.1037760E+00
          4   -1    0    0  502    0 -0.00000000000E+00  0.00000000000E+00  0.73486856795E+03  0.73486856795E+03  0.00000000000E+00 0.  1.
         21   -1    0    0  501  502  0.00000000000E+00 -0.00000000000E+00 -0.63449795539E+03  0.63449795539E+03  0.00000000000E+00 0.  1.
        -13    1    1    2    0    0 -0.11735847866E+03 -0.33562905592E+03  0.24907372335E+03  0.43411704242E+03  0.10566000000E+00 0.  1.
         13    1    1    2    0    0 -0.55974428002E+02 -0.89719721258E+01  0.32184584641E+03  0.32680023392E+03  0.10566000000E+00 0. -1.
          4    1    1    2  501    0  0.17333290666E+03  0.34460102804E+03 -0.47054895719E+03  0.60844924700E+03  0.00000000000E+00 0.  1.
</event>
<event>
 5    1  0.4881333E-005  0.4432038E+03  0.7818608E-02  0.9656755E-01
         21   -1    0    0  501  502  0.00000000000E+00  0.00000000000E+00  0.63798259403E+03  0.63798259403E+03  0.00000000000E+00 0.  1.
          4   -1    0    0  502    0 -0.00000000000E+00 -0.00000000000E+00 -0.11035733444E+04  0.11035733444E+04  0.00000000000E+00 0.  1.
        -13    1    1    2    0    0 -0.70372242832E+02  0.19078310974E+03 -0.32728966540E+03  0.38531673174E+03  0.10566000000E+00 0.  1.
         13    1    1    2    0    0  0.15841649115E+03  0.34362915652E+03 -0.55580728412E+03  0.67238272592E+03  0.10566000000E+00 0. -1.
          4    1    1    2  501    0 -0.88044248318E+02 -0.53441226625E+03  0.41750619914E+03  0.68385648078E+03  0.00000000000E+00 0.  1.
</event>
<event>
 5    1  0.4881333E-005  0.5037795E+03  0.7818608E-02  0.9846665E-01
         21   -1    0    0  501  502  0.00000000000E+00  0.00000000000E+00  0.98880875087E+02  0.98880875087E+02  0.00000000000E+00 0.  1.
          4   -1    0    0  502    0 -0.00000000000E+00 -0.00000000000E+00 -0.34349855633E+04  0.34349855633E+04  0.00000000000E+00 0.  1.
        -13    1    1    2    0    0 -0.43421300942E+03  0.10351187756E+03 -0.17631341951E+04  0.18187627243E+04  0.10566000000E+00 0.  1.
         13    1    1    2    0    0 -0.70661601734E+02  0.11370964066E+03 -0.29509793040E+03  0.32404589803E+03  0.10566000000E+00 0. -1.
          4    1    1    2  501    0  0.50487461115E+03 -0.21722151823E+03 -0.12778725627E+04  0.13910578160E+04  0.00000000000E+00 0.  1.
</event>
<event>
 5    1  0.4881333E-005  0.4390077E+03  0.7818608E-02  0.9818690E-01
         -4   -1    0    0    0  501 -0.00000000000E+00  0.00000000000E+00  0.52907904242E+03  0.52907904242E+03  0.00000000000E+00 0. -1.
         21   -1    0    0  501  502  0.00000000000E+00 -0.00000000000E+00 -0.75689052401E+03  0.75689052401E+03  0.00000000000E+00 0. -1.
        -13    1    1    2    0    0  0.76074992176E+02 -0.20902750546E+03 -0.87485280403E+02  0.23902633312E+03  0.10566000000E+00 0.  1.
         13    1    1    2    0    0 -0.43412174827E+03 -0.68089820259E+02  0.19776378607E+03  0.48188011184E+03  0.10566000000E+00 0. -1.
         -4    1    1    2    0  502  0.35804675609E+03  0.27711732572E+03 -0.33808998725E+03  0.56506312147E+03  0.00000000000E+00 0. -1.
</event>
<event>
 5    1  0.4881333E-005  0.2613852E+03  0.7818608E-02  0.1024656E+00
         21   -1    0    0  501  502  0.00000000000E+00  0.00000000000E+00  0.19585887506E+04  0.19585887506E+04  0.00000000000E+00 0. -1.
         -4   -1    0    0    0  501 -0.00000000000E+00 -0.00000000000E+00 -0.30804230942E+03  0.30804230942E+03  0.00000000000E+00 0. -1.
        -13    1    1    2    0    0 -0.20276911518E+03  0.14481715238E+03 -0.61925728257E+02  0.25675304999E+03  0.10566000000E+00 0.  1.
         13    1    1    2    0    0  0.44546198399E+03 -0.19671055484E+03  0.16921999665E+04  0.17608725562E+04  0.10566000000E+00 0. -1.
         -4    1    1    2    0  502 -0.24269286881E+03  0.51893402466E+02  0.20272202923E+02  0.24900545376E+03  0.00000000000E+00 0. -1.
</event>
<event>
 5    1  0.4881333E-005  0.2444378E+03  0.7818608E-02  0.1053105E+00
         21   -1    0    0  501  502  0.00000000000E+00  0.00000000000E+00  0.96309806347E+03  0.96309806347E+03  0.00000000000E+00 0.  1.
          4   -1    0    0  502    0 -0.00000000000E+00 -0.00000000000E+00 -0.34564604404E+03  0.34564604404E+03  0.00000000000E+00 0.  1.
        -13    1    1    2    0    0  0.13003815950E+03  0.38237164108E+02 -0.25858648851E+03  0.29195716612E+03  0.10566000000E+00 0.  1.
         13    1    1    2    0    0  0.70778143211E+02  0.11457932643E+03  0.35631624846E+02  0.13931113184E+03  0.10566000000E+00 0. -1.
          4    1    1    2  501    0 -0.20081630272E+03 -0.15281649054E+03  0.84040688308E+03  0.87747580955E+03  0.00000000000E+00 0.  1.
</event>
<event>
 5    1  0.4881333E-005  0.8332527E+02  0.7818608E-02  0.1216039E+00
         21   -1    0    0  501  502  0.00000000000E+00  0.00000000000E+00  0.40772702396E+02  0.40772702396E+02  0.00000000000E+00 0.  1.
          4   -1    0    0  502    0 -0.00000000000E+00 -0.00000000000E+00 -0.49434437345E+03  0.49434437345E+03  0.00000000000E+00 0.  1.
        -13    1    1    2    0    0  0.19228101496E+02 -0.11397582979E+03 -0.16201183926E+03  0.19901773008E+03  0.10566000000E+00 0.  1.
         13    1    1    2    0    0  0.15534288519E+02  0.50136987373E+02 -0.24318290771E+03  0.24878297649E+03  0.10566000000E+00 0. -1.
          4    1    1    2  501    0 -0.34762390015E+02  0.63838842415E+02 -0.48376924090E+02  0.87316369284E+02  0.00000000000E+00 0.  1.
</event>
<event>
 5    1  0.4881333E-005  0.1175240E+03  0.7818608E-02  0.1138432E+00
         -4   -1    0    0    0  501 -0.00000000000E+00  0.00000000000E+00  0.12809508693E+04  0.12809508693E+04  0.00000000000E+00 0. -1.
         21   -1    0    0  501  502  0.00000000000E+00 -0.00000000000E+00 -0.12780140159E+02  0.12780140159E+02  0.00000000000E+00 0.  1.
        -13    1    1    2    0    0  0.53170516950E+02  0.96521635757E+02  0.47209525484E+03  0.48478600521E+03  0.10566000000E+00 0.  1.
         13    1    1    2    0    0 -0.49400530743E+02 -0.11337270714E+03  0.74027869547E+03  0.75053736835E+03  0.10566000000E+00 0. -1.
         -4    1    1    2    0  502 -0.37699862071E+01  0.16851071385E+02  0.55796778784E+02  0.58407635850E+02  0.00000000000E+00 0. -1.
</event>
<event>
 5    1  0.4881333E-005  0.5048138E+03  0.7818608E-02  0.9553298E-01
         21   -1    0    0  501  502  0.00000000000E+00  0.00000000000E+00  0.46914971601E+03  0.46914971601E+03  0.00000000000E+00 0. -1.
         -4   -1    0    0    0  501 -0.00000000000E+00 -0.00000000000E+00 -0.14496986956E+04  0.14496986956E+04  0.00000000000E+00 0. -1.
        -13    1    1    2    0    0  0.26880700108E+03 -0.25402224781E+03 -0.72233237629E+03  0.81151006107E+03  0.10566000000E+00 0.  1.
         13    1    1    2    0    0  0.12039021971E+03  0.55992559112E+03 -0.66850832090E+02  0.57661036889E+03  0.10566000000E+00 0. -1.
         -4    1    1    2    0  502 -0.38919722079E+03 -0.30590334331E+03 -0.19136577120E+03  0.53072798165E+03  0.00000000000E+00 0. -1.
</event>
<event>
 5    1  0.1209848E-004  0.6722782E+03  0.7818608E-02  0.9164192E-01
          4   -1    0    0  502    0 -0.00000000000E+00  0.00000000000E+00  0.16682455485E+04  0.16682455485E+04  0.00000000000E+00 0.  1.
         21   -1    0    0  501  502  0.00000000000E+00 -0.00000000000E+00 -0.65349550140E+03  0.65349550140E+03  0.00000000000E+00 0.  1.
        -13    1    1    2    0    0  0.66100343114E+03  0.43362682157E+01  0.59670047984E+02  0.66370540527E+03  0.10566000000E+00 0.  1.
         13    1    1    2    0    0 -0.52298518302E+03  0.55951298763E+03  0.63665600505E+03  0.99594134612E+03  0.10566000000E+00 0. -1.
          4    1    1    2  501    0 -0.13801824812E+03 -0.56384925584E+03  0.31842399407E+03  0.66209429852E+03  0.00000000000E+00 0.  1.
</event>
<event>
 5    1  0.4881333E-005  0.2743050E+03  0.7818608E-02  0.1094075E+00
          4   -1    0    0  502    0 -0.00000000000E+00  0.00000000000E+00  0.33210083862E+03  0.33210083862E+03  0.00000000000E+00 0.  1.
         21   -1    0    0  501  502  0.00000000000E+00 -0.00000000000E+00 -0.11384493344E+04  0.11384493344E+04  0.00000000000E+00 0.  1.
        -13    1    1    2    0    0  0.36699819963E+02  0.29749025308E+03  0.12175908834E+03  0.32353147331E+03  0.10566000000E+00 0.  1.
         13    1    1    2    0    0  0.73046241306E+01 -0.28793147808E+02  0.89141707601E+02  0.93960939185E+02  0.10566000000E+00 0. -1.
          4    1    1    2  501    0 -0.44004444093E+02 -0.26869710527E+03 -0.10172492917E+04  0.10530577605E+04  0.00000000000E+00 0.  1.
</event>
<event>
 5    1  0.4881333E-005  0.4980030E+03  0.7818608E-02  0.9718075E-01
         -4   -1    0    0    0  501 -0.00000000000E+00  0.00000000000E+00  0.11750571497E+04  0.11750571497E+04  0.00000000000E+00 0. -1.
         21   -1    0    0  501  502  0.00000000000E+00 -0.00000000000E+00 -0.50624727504E+03  0.50624727504E+03  0.00000000000E+00 0. -1.
        -13    1    1    2    0    0  0.56043627447E+02  0.20788631725E+03  0.61146173643E+03  0.64826157943E+03  0.10566000000E+00 0.  1.
         13    1    1    2    0    0 -0.49868222383E+03  0.61810544018E+02 -0.45690341543E+02  0.50457122609E+03  0.10566000000E+00 0. -1.
         -4    1    1    2    0  502  0.44263859639E+03 -0.26969686126E+03  0.10303847973E+03  0.52847161919E+03  0.00000000000E+00 0. -1.
</event>
<event>
 5    1  0.4881333E-005  0.1678360E+03  0.7818608E-02  0.1084740E+00
         21   -1    0    0  501  502  0.00000000000E+00  0.00000000000E+00  0.31259985969E+03  0.31259985969E+03  0.00000000000E+00 0. -1.
         -4   -1    0    0    0  501 -0.00000000000E+00 -0.00000000000E+00 -0.29376292717E+03  0.29376292717E+03  0.00000000000E+00 0. -1.
        -13    1    1    2    0    0  0.70758296030E+02 -0.14198448823E+03  0.20931389031E+02  0.16001395429E+03  0.10566000000E+00 0.  1.
         13    1    1    2    0    0 -0.47778551639E+02  0.16514268891E+03 -0.18965245421E+03  0.25597453438E+03  0.10566000000E+00 0. -1.
         -4    1    1    2    0  502 -0.22979744391E+02 -0.23158200678E+02  0.18755799770E+03  0.19037429819E+03  0.00000000000E+00 0. -1.
</event>
<event>
 5    1  0.4881333E-005  0.1142067E+03  0.7818608E-02  0.1142978E+00
          4   -1    0    0  502    0 -0.00000000000E+00  0.00000000000E+00  0.43515478633E+03  0.43515478633E+03  0.00000000000E+00 0.  1.
         21   -1    0    0  501  502  0.00000000000E+00 -0.00000000000E+00 -0.25703697470E+03  0.25703697470E+03  0.00000000000E+00 0.  1.
        -13    1    1    2    0    0  0.11766523232E+03  0.45771319003E+02 -0.22164691526E+03  0.25508329375E+03  0.10566000000E+00 0.  1.
         13    1    1    2    0    0 -0.11372130386E+03 -0.44710350094E+01  0.17642793634E+03  0.20995083470E+03  0.10566000000E+00 0. -1.
          4    1    1    2  501    0 -0.39439284606E+01 -0.41300283994E+02  0.22333679055E+03  0.22715763258E+03  0.00000000000E+00 0.  1.
</event>
<event>
 5    1  0.4881333E-005  0.4133111E+03  0.7818608E-02  0.9789113E-01
          4   -1    0    0  502    0 -0.00000000000E+00  0.00000000000E+00  0.28216910572E+04  0.28216910572E+04  0.00000000000E+00 0.  1.
         21   -1    0    0  501  502  0.00000000000E+00 -0.00000000000E+00 -0.17821502430E+03  0.17821502430E+03  0.00000000000E+00 0.  1.
        -13    1    1    2    0    0  0.92134868070E+02  0.44756499747E+03  0.14128995070E+04  0.14849539686E+04  0.10566000000E+00 0.  1.
         13    1    1    2    0    0  0.23440875858E+03 -0.17887302702E+03  0.98002485222E+03  0.10234215886E+04  0.10566000000E+00 0. -1.
          4    1    1    2  501    0 -0.32654362665E+03 -0.26869197045E+03  0.25055167366E+03  0.49153052425E+03  0.00000000000E+00 0.  1.
</event>
<event>
 5    1  0.4881333E-005  0.4829372E+03  0.7818608E-02  0.9871703E-01
         -4   -1    0    0    0  501 -0.00000000000E+00  0.00000000000E+00  0.17023049902E+04  0.17023049902E+04  0.00000000000E+00 0. -1.
         21   -1    0    0  501  502  0.00000000000E+00 -0.00000000000E+00 -0.25014864305E+03  0.25014864305E+03  0.00000000000E+00 0. -1.
        -13    1    1    2    0    0  0.13931612453E+03  0.97939467233E+01  0.62673032759E+03  0.64210265428E+03  0.10566000000E+00 0.  1.
         13    1    1    2    0    0  0.36460813598E+03  0.24462273430E+03  0.25463042670E+03  0.50755890331E+03  0.10566000000E+00 0. -1.
         -4    1    1    2    0  502 -0.50392426052E+03 -0.25441668102E+03  0.57079559288E+03  0.80279207568E+03  0.00000000000E+00 0. -1.
</event>
<event>
 5    1  0.4881333E-005  0.9432220E+02  0.7818608E-02  0.1174307E+00
         -4   -1    0    0    0  501 -0.00000000000E+00  0.00000000000E+00  0.58081422550E+03  0.58081422550E+03  0.00000000000E+00 0. -1.
         21   -1    0    0  501  502  0.00000000000E+00 -0.00000000000E+00 -0.10188534876E+03  0.10188534876E+03  0.00000000000E+00 0. -1.
        -13    1    1    2    0    0  0.11562576958E+03  0.90613953977E+02  0.16364827979E+03  0.21991129550E+03  0.10566000000E+00 0.  1.
         13    1    1    2    0    0 -0.76847795106E+02 -0.37672898487E+02  0.36849296232E+03  0.37830134197E+03  0.10566000000E+00 0. -1.
         -4    1    1    2    0  502 -0.38777974475E+02 -0.52941055490E+02 -0.53212365364E+02  0.84486936791E+02  0.00000000000E+00 0. -1.
</event>
<event>
 5    1  0.4881333E-005  0.1297449E+03  0.7818608E-02  0.1123003E+00
          4   -1    0    0  502    0 -0.00000000000E+00  0.00000000000E+00  0.11073956467E+04  0.11073956467E+04  0.00000000000E+00 0.  1.
         21   -1    0    0  501  502  0.00000000000E+00 -0.00000000000E+00 -0.63641442092E+02  0.63641442092E+02  0.00000000000E+00 0.  1.
        -13    1    1    2    0    0  0.55033442127E+02 -0.10303209215E+03  0.59269363907E+03  0.60409440713E+03  0.10566000000E+00 0.  1.
         13    1    1    2    0    0 -0.15637790210E+03  0.11009057621E+03  0.41872455379E+03  0.46033058376E+03  0.10566000000E+00 0. -1.
          4    1    1    2  501    0  0.10134445998E+03 -0.70584840540E+01  0.32336011763E+02  0.10661209792E+03  0.00000000000E+00 0.  1.
</event>
<event>
 5    1  0.4881333E-005  0.7373698E+03  0.7818608E-02  0.9070462E-01
         21   -1    0    0  501  502  0.00000000000E+00  0.00000000000E+00  0.22487476341E+03  0.22487476341E+03  0.00000000000E+00 0. -1.
         -4   -1    0    0    0  501 -0.00000000000E+00 -0.00000000000E+00 -0.37561547603E+04  0.37561547603E+04  0.00000000000E+00 0. -1.
        -13    1    1    2    0    0  0.34157299677E+03  0.47985010358E+03 -0.68179549823E+03  0.90098465392E+03  0.10566000000E+00 0.  1.
         13    1    1    2    0    0 -0.61471468747E+03 -0.60647546719E+03 -0.19872413890E+04  0.21667521752E+04  0.10566000000E+00 0. -1.
         -4    1    1    2    0  502  0.27314169070E+03  0.12662536361E+03 -0.86224310966E+03  0.91329269463E+03  0.00000000000E+00 0. -1.
</event>
<event>
 5    1  0.4881333E-005  0.4549244E+03  0.7818608E-02  0.9611040E-01
          4   -1    0    0  502    0 -0.00000000000E+00  0.00000000000E+00  0.22660070942E+04  0.22660070942E+04  0.00000000000E+00 0.  1.
         21   -1    0    0  501  502  0.00000000000E+00 -0.00000000000E+00 -0.29212248485E+03  0.29212248485E+03  0.00000000000E+00 0.  1.
        -13    1    1    2    0    0 -0.28119316255E+02  0.56032044137E+03  0.73405921307E+03  0.92390076979E+03  0.10566000000E+00 0.  1.
         13    1    1    2    0    0  0.34403142623E+03 -0.22522041533E+03  0.10650042815E+04  0.11416286561E+04  0.10566000000E+00 0. -1.
          4    1    1    2  501    0 -0.31591210998E+03 -0.33510002603E+03  0.17482111476E+03  0.49260015311E+03  0.00000000000E+00 0.  1.
</event>
<event>
 5    1  0.4881333E-005  0.4025911E+03  0.7818608E-02  0.9849688E-01
         21   -1    0    0  501  502  0.00000000000E+00  0.00000000000E+00  0.60544737866E+03  0.60544737866E+03  0.00000000000E+00 0. -1.
         -4   -1    0    0    0  501 -0.00000000000E+00 -0.00000000000E+00 -0.86813917382E+03  0.86813917382E+03  0.00000000000E+00 0. -1.
        -13    1    1    2    0    0 -0.10900437862E+02  0.25942467809E+03 -0.34953428637E+03  0.43542417441E+03  0.10566000000E+00 0.  1.
         13    1    1    2    0    0  0.39871254661E+03 -0.10702175372E+03 -0.26688651806E+03  0.49158292818E+03  0.10566000000E+00 0. -1.
         -4    1    1    2    0  502 -0.38781210875E+03 -0.15240292437E+03  0.35372900927E+03  0.54657944989E+03  0.00000000000E+00 0. -1.
</event>
<event>
 5    1  0.4881333E-005  0.3083982E+03  0.7818608E-02  0.1003898E+00
         -4   -1    0    0    0  501 -0.00000000000E+00  0.00000000000E+00  0.18789429151E+04  0.18789429151E+04  0.00000000000E+00 0. -1.
         21   -1    0    0  501  502  0.00000000000E+00 -0.00000000000E+00 -0.47156445409E+03  0.47156445409E+03  0.00000000000E+00 0.  1.
        -13    1    1    2    0    0 -0.28232682815E+03  0.12052652962E+03 -0.35967039601E+03  0.47286138261E+03  0.10566000000E+00 0.  1.
         13    1    1    2    0    0  0.28755063727E+03 -0.11160072376E+03  0.18086580194E+04  0.18347708120E+04  0.10566000000E+00 0. -1.
         -4    1    1    2    0  502 -0.52238091255E+01 -0.89258058619E+01 -0.41609162399E+02  0.42875174491E+02  0.00000000000E+00 0. -1.
</event>
<event>
 5    1  0.4881333E-005  0.2284693E+03  0.7818608E-02  0.1042196E+00
         -4   -1    0    0    0  501 -0.00000000000E+00  0.00000000000E+00  0.25926308472E+04  0.25926308472E+04  0.00000000000E+00 0. -1.
         21   -1    0    0  501  502  0.00000000000E+00 -0.00000000000E+00 -0.18250666609E+03  0.18250666609E+03  0.00000000000E+00 0. -1.
        -13    1    1    2    0    0  0.21432415449E+03 -0.40254552247E+02  0.10327294945E+04  0.10555024833E+04  0.10566000000E+00 0.  1.
         13    1    1    2    0    0 -0.38675966629E+03 -0.10301156823E+02  0.61771680080E+02  0.39179702006E+03  0.10566000000E+00 0. -1.
         -4    1    1    2    0  502  0.17243551180E+03  0.50555709070E+02  0.13156230065E+04  0.13278380099E+04  0.00000000000E+00 0. -1.
</event>
<event>
 5    1  0.4881333E-005  0.3125214E+03  0.7818608E-02  0.1002267E+00
         21   -1    0    0  501  502  0.00000000000E+00  0.00000000000E+00  0.24928863374E+03  0.24928863374E+03  0.00000000000E+00 0.  1.
          4   -1    0    0  502    0 -0.00000000000E+00 -0.00000000000E+00 -0.17762136341E+04  0.17762136341E+04  0.00000000000E+00 0.  1.
        -13    1    1    2    0    0  0.28756192830E+03  0.14222285742E+03 -0.14141395420E+04  0.14500723634E+04  0.10566000000E+00 0.  1.
         13    1    1    2    0    0 -0.27362685256E+03 -0.86951928139E+02 -0.27861751831E+03  0.40007502412E+03  0.10566000000E+00 0. -1.
          4    1    1    2  501    0 -0.13935075731E+02 -0.55270929284E+02  0.16583205991E+03  0.17535488032E+03  0.00000000000E+00 0.  1.
</event>
<event>
 5    1  0.4881333E-005  0.1289999E+03  0.7818608E-02  0.1136514E+00
         -4   -1    0    0    0  501 -0.00000000000E+00  0.00000000000E+00  0.18428794184E+03  0.18428794184E+03  0.00000000000E+00 0. -1.
         21   -1    0    0  501  502  0.00000000000E+00 -0.00000000000E+00 -0.51835476296E+03  0.51835476296E+03  0.00000000000E+00 0. -1.
        -13    1    1    2    0    0 -0.30962045405E+01  0.93239624483E+02  0.20458236213E+02  0.95507929771E+02  0.10566000000E+00 0.  1.
         13    1    1    2    0    0  0.90441255706E+02 -0.18077342717E+03  0.28965560492E+02  0.20420006749E+03  0.10566000000E+00 0. -1.
         -4    1    1    2    0  502 -0.87345051166E+02  0.87533802690E+02 -0.38349061782E+03  0.40293470753E+03  0.00000000000E+00 0. -1.
</event>
<event>
 5    1  0.4881333E-005  0.1928325E+03  0.7818608E-02  0.1065164E+00
         -4   -1    0    0    0  501 -0.00000000000E+00  0.00000000000E+00  0.43872361325E+02  0.43872361325E+02  0.00000000000E+00 0. -1.
         21   -1    0    0  501  502  0.00000000000E+00 -0.00000000000E+00 -0.25420433195E+04  0.25420433195E+04  0.00000000000E+00 0. -1.
        -13    1    1    2    0    0 -0.55948767404E+02 -0.15613525821E+03 -0.67912248656E+03  0.69908214564E+03  0.10566000000E+00 0.  1.
         13    1    1    2    0    0  0.46387764942E+02  0.20022103335E+03 -0.28108371190E+03  0.34820733937E+03  0.10566000000E+00 0. -1.
         -4    1    1    2    0  502  0.95610024621E+01 -0.44085775139E+02 -0.15379647597E+04  0.15386261958E+04  0.00000000000E+00 0. -1.
</event>
<event>
 5    1  0.4881333E-005  0.8838250E+02  0.7818608E-02  0.1201613E+00
         21   -1    0    0  501  502  0.00000000000E+00  0.00000000000E+00  0.10586660483E+04  0.10586660483E+04  0.00000000000E+00 0. -1.
          4   -1    0    0  502    0 -0.00000000000E+00 -0.00000000000E+00 -0.29309959104E+02  0.29309959104E+02  0.00000000000E+00 0.  1.
        -13    1    1    2    0    0  0.54084527982E+02  0.27273514713E+02  0.26035198811E+02  0.65930444508E+02  0.10566000000E+00 0.  1.
         13    1    1    2    0    0 -0.12745135300E+02 -0.10539215168E+03  0.57041674234E+03  0.58021135391E+03  0.10566000000E+00 0. -1.
          4    1    1    2  501    0 -0.41339392683E+02  0.78118636965E+02  0.43290414803E+03  0.44183420896E+03  0.00000000000E+00 0.  1.
</event>
<event>
 5    1  0.4881333E-005  0.7836399E+02  0.7818608E-02  0.1206348E+00
         -4   -1    0    0    0  501 -0.00000000000E+00  0.00000000000E+00  0.43132737912E+03  0.43132737912E+03  0.00000000000E+00 0. -1.
         21   -1    0    0  501  502  0.00000000000E+00 -0.00000000000E+00 -0.31507759879E+02  0.31507759879E+02  0.00000000000E+00 0. -1.
        -13    1    1    2    0    0  0.37611354755E+02  0.48209931044E+02  0.10261661711E+03  0.11945288916E+03  0.10566000000E+00 0.  1.
         13    1    1    2    0    0 -0.89740066193E+02 -0.70505578825E+02  0.17901371106E+03  0.21229751774E+03  0.10566000000E+00 0. -1.
         -4    1    1    2    0  502  0.52128711438E+02  0.22295647781E+02  0.11818929107E+03  0.13108473210E+03  0.00000000000E+00 0. -1.
</event>
<event>
 5    1  0.4881333E-005  0.4514504E+03  0.7818608E-02  0.9740148E-01
         -4   -1    0    0    0  501 -0.00000000000E+00  0.00000000000E+00  0.41082454422E+03  0.41082454422E+03  0.00000000000E+00 0. -1.
         21   -1    0    0  501  502  0.00000000000E+00 -0.00000000000E+00 -0.13308855427E+04  0.13308855427E+04  0.00000000000E+00 0. -1.
        -13    1    1    2    0    0  0.24814675135E+03  0.10057042351E+03  0.10245332614E+03  0.28668434818E+03  0.10566000000E+00 0.  1.
         13    1    1    2    0    0  0.12792787320E+03 -0.40444144662E+03 -0.13639292242E+03  0.44557991981E+03  0.10566000000E+00 0. -1.
         -4    1    1    2    0  502 -0.37607462455E+03  0.30387102311E+03 -0.88612140222E+03  0.10094458190E+04  0.00000000000E+00 0. -1.
</event>
<event>
 5    1  0.4881333E-005  0.5357671E+03  0.7818608E-02  0.9402844E-01
         -4   -1    0    0    0  501 -0.00000000000E+00  0.00000000000E+00  0.22762226274E+04  0.22762226274E+04  0.00000000000E+00 0. -1.
         21   -1    0    0  501  502  0.00000000000E+00 -0.00000000000E+00 -0.36299860032E+03  0.36299860032E+03  0.00000000000E+00 0. -1.
        -13    1    1    2    0    0 -0.38494940146E+03 -0.39998589588E+03  0.10366533607E+04  0.11759357806E+04  0.10566000000E+00 0.  1.
         13    1    1    2    0    0 -0.56415100994E+02  0.64124092606E+03  0.34067093813E+03  0.72830576555E+03  0.10566000000E+00 0. -1.
         -4    1    1    2    0  502  0.44136450245E+03 -0.24125503019E+03  0.53589972819E+03  0.73497968155E+03  0.00000000000E+00 0. -1.
</event>
<event>
 5    1  0.4881333E-005  0.4228454E+03  0.7818608E-02  0.9871781E-01
         21   -1    0    0  501  502  0.00000000000E+00  0.00000000000E+00  0.69897453266E+03  0.69897453266E+03  0.00000000000E+00 0.  1.
          4   -1    0    0  502    0 -0.00000000000E+00 -0.00000000000E+00 -0.49186034118E+03  0.49186034118E+03  0.00000000000E+00 0.  1.
        -13    1    1    2    0    0  0.23497237177E+03  0.17288144126E+03 -0.23225574923E+03  0.37288436873E+03  0.10566000000E+00 0.  1.
         13    1    1    2    0    0  0.73074685987E+02  0.19475240648E+03  0.10292976935E+03  0.23208394633E+03  0.10566000000E+00 0. -1.
          4    1    1    2  501    0 -0.30804705776E+03 -0.36763384774E+03  0.33644017137E+03  0.58586655879E+03  0.00000000000E+00 0.  1.
</event>
<event>
 5    1  0.4881333E-005  0.4630561E+03  0.7818608E-02  0.9562843E-01
          4   -1    0    0  502    0 -0.00000000000E+00  0.00000000000E+00  0.82011854489E+03  0.82011854489E+03  0.00000000000E+00 0.  1.
         21   -1    0    0  501  502  0.00000000000E+00 -0.00000000000E+00 -0.83441306184E+03  0.83441306184E+03  0.00000000000E+00 0.  1.
        -13    1    1    2    0    0 -0.46818482116E+03 -0.26486115921E+02  0.34981590763E+03  0.58503822225E+03  0.10566000000E+00 0.  1.
         13    1    1    2    0    0  0.39850484588E+03  0.32852493982E+03  0.85392369813E+02  0.52347551639E+03  0.10566000000E+00 0. -1.
          4    1    1    2  501    0  0.69679975280E+02 -0.30203882390E+03 -0.44950279440E+03  0.54601786809E+03  0.00000000000E+00 0.  1.
</event>
<event>
 5    1  0.4881333E-005  0.4617388E+03  0.7818608E-02  0.9577918E-01
         21   -1    0    0  501  502  0.00000000000E+00  0.00000000000E+00  0.42307343953E+03  0.42307343953E+03  0.00000000000E+00 0.  1.
          4   -1    0    0  502    0 -0.00000000000E+00 -0.00000000000E+00 -0.18991072418E+04  0.18991072418E+04  0.00000000000E+00 0.  1.
        -13    1    1    2    0    0  0.51020098979E+03 -0.10208519064E+03 -0.42740019297E+03  0.67334788352E+03  0.10566000000E+00 0.  1.
         13    1    1    2    0    0 -0.28257548349E+03 -0.34051863164E+03 -0.10624724220E+04  0.11509341863E+04  0.10566000000E+00 0. -1.
          4    1    1    2  501    0 -0.22762550630E+03  0.44260382228E+03  0.13838812764E+02  0.49789861152E+03  0.00000000000E+00 0.  1.
</event>
<event>
 5    1  0.4881333E-005  0.4354709E+03  0.7818608E-02  0.9631866E-01
         21   -1    0    0  501  502  0.00000000000E+00  0.00000000000E+00  0.98467898064E+03  0.98467898064E+03  0.00000000000E+00 0. -1.
         -4   -1    0    0    0  501 -0.00000000000E+00 -0.00000000000E+00 -0.82030271879E+03  0.82030271879E+03  0.00000000000E+00 0. -1.
        -13    1    1    2    0    0 -0.39226463750E+03  0.16726503391E+03 -0.37642540930E+03  0.56881037028E+03  0.10566000000E+00 0.  1.
         13    1    1    2    0    0  0.54008550570E+03  0.20036553496E+03  0.13016719065E+02  0.57620148143E+03  0.10566000000E+00 0. -1.
         -4    1    1    2    0  502 -0.14782086820E+03 -0.36763056887E+03  0.52778495209E+03  0.65996984772E+03  0.00000000000E+00 0. -1.
</event>
<event>
 5    1  0.4881333E-005  0.2396643E+03  0.7818608E-02  0.1035892E+00
         21   -1    0    0  501  502  0.00000000000E+00  0.00000000000E+00  0.28787071217E+03  0.28787071217E+03  0.00000000000E+00 0. -1.
         -4   -1    0    0    0  501 -0.00000000000E+00 -0.00000000000E+00 -0.87100751715E+03  0.87100751715E+03  0.00000000000E+00 0. -1.
        -13    1    1    2    0    0  0.11426070623E+03  0.19939269304E+03  0.70389739031E+00  0.22981179618E+03  0.10566000000E+00 0.  1.
         13    1    1    2    0    0 -0.11840412257E+03 -0.21026512344E+03 -0.73698254241E+03  0.77548322829E+03  0.10566000000E+00 0. -1.
         -4    1    1    2    0  502  0.41434163463E+01  0.10872430393E+02  0.15314184004E+03  0.15358320485E+03  0.00000000000E+00 0. -1.
</event>
<event>
 5    1  0.4881333E-005  0.4745009E+03  0.7818608E-02  0.9599951E-01
         21   -1    0    0  501  502  0.00000000000E+00  0.00000000000E+00  0.77875572398E+03  0.77875572398E+03  0.00000000000E+00 0.  1.
          4   -1    0    0  502    0 -0.00000000000E+00 -0.00000000000E+00 -0.79219100197E+03  0.79219100197E+03  0.00000000000E+00 0.  1.
        -13    1    1    2    0    0  0.11716425234E+03  0.16396347873E+03 -0.38927424660E+03  0.43834453871E+03  0.10566000000E+00 0.  1.
         13    1    1    2    0    0  0.33761507584E+03  0.16761955205E+03 -0.10615293687E+03  0.39159763895E+03  0.10566000000E+00 0. -1.
          4    1    1    2  501    0 -0.45477932818E+03 -0.33158303077E+03  0.48199190548E+03  0.74100454829E+03  0.00000000000E+00 0.  1.
</event>
<event>
 5    1  0.4881333E-005  0.5029287E+03  0.7818608E-02  0.9631062E-01
         -4   -1    0    0    0  501 -0.00000000000E+00  0.00000000000E+00  0.27012400671E+04  0.27012400671E+04  0.00000000000E+00 0. -1.
         21   -1    0    0  501  502  0.00000000000E+00 -0.00000000000E+00 -0.17430019221E+03  0.17430019221E+03  0.00000000000E+00 0. -1.
        -13    1    1    2    0    0 -0.79341758330E+01 -0.28338797737E+03  0.87697802628E+03  0.92166271846E+03  0.10566000000E+00 0.  1.
         13    1    1    2    0    0 -0.49312500939E+03  0.22452665443E+03  0.87392372492E+03  0.10282641594E+04  0.10566000000E+00 0. -1.
         -4    1    1    2    0  502  0.50105918523E+03  0.58861322940E+02  0.77603812368E+03  0.92561338141E+03  0.00000000000E+00 0. -1.
</event>
<event>
 5    1  0.4881333E-005  0.4950793E+03  0.7818608E-02  0.9594066E-01
          4   -1    0    0  502    0 -0.00000000000E+00  0.00000000000E+00  0.30914223035E+04  0.30914223035E+04  0.00000000000E+00 0.  1.
         21   -1    0    0  501  502  0.00000000000E+00 -0.00000000000E+00 -0.15658705069E+03  0.15658705069E+03  0.00000000000E+00 0.  1.
        -13    1    1    2    0    0 -0.23358249269E+03  0.42315861362E+03  0.10479383580E+04  0.11540358775E+04  0.10566000000E+00 0.  1.
         13    1    1    2    0    0 -0.27785497172E+03 -0.19400701875E+03  0.85503318918E+03  0.91974119969E+03  0.10566000000E+00 0. -1.
          4    1    1    2  501    0  0.51143746441E+03 -0.22915159487E+03  0.10318637056E+04  0.11742322770E+04  0.00000000000E+00 0.  1.
</event>
<event>
 5    1  0.4881333E-005  0.2353704E+03  0.7818608E-02  0.1038266E+00
         -4   -1    0    0    0  501 -0.00000000000E+00  0.00000000000E+00  0.29593035907E+03  0.29593035907E+03  0.00000000000E+00 0. -1.
         21   -1    0    0  501  502  0.00000000000E+00 -0.00000000000E+00 -0.23062917676E+03  0.23062917676E+03  0.00000000000E+00 0.  1.
        -13    1    1    2    0    0  0.12907376630E+03  0.19384799281E+03  0.11225596774E+03  0.25853141960E+03  0.10566000000E+00 0.  1.
         13    1    1    2    0    0 -0.14980394647E+03 -0.18831264541E+03 -0.34150300197E+02  0.24304141410E+03  0.10566000000E+00 0. -1.
         -4    1    1    2    0  502  0.20730180172E+02 -0.55353474000E+01 -0.12804485235E+02  0.24986702122E+02  0.00000000000E+00 0. -1.
</event>
<event>
 5    1  0.4881333E-005  0.2671213E+03  0.7818608E-02  0.1021883E+00
          4   -1    0    0  502    0 -0.00000000000E+00  0.00000000000E+00  0.15981549144E+03  0.15981549144E+03  0.00000000000E+00 0.  1.
         21   -1    0    0  501  502  0.00000000000E+00 -0.00000000000E+00 -0.58040211516E+03  0.58040211516E+03  0.00000000000E+00 0. -1.
        -13    1    1    2    0    0 -0.19007936982E+01 -0.28104557058E+03 -0.12485710016E+03  0.30753785520E+03  0.10566000000E+00 0.  1.
         13    1    1    2    0    0  0.52007501229E+01  0.24445404705E+03 -0.30862362580E+03  0.39374278722E+03  0.10566000000E+00 0. -1.
          4    1    1    2  501    0 -0.32999564247E+01  0.36591523528E+02  0.12894102240E+02  0.38936964174E+02  0.00000000000E+00 0.  1.
</event>
<event>
 5    1  0.4881333E-005  0.1259438E+03  0.7818608E-02  0.1127596E+00
         21   -1    0    0  501  502  0.00000000000E+00  0.00000000000E+00  0.54490857594E+02  0.54490857594E+02  0.00000000000E+00 0.  1.
         -4   -1    0    0    0  501 -0.00000000000E+00 -0.00000000000E+00 -0.60630239611E+03  0.60630239611E+03  0.00000000000E+00 0. -1.
        -13    1    1    2    0    0  0.35991667336E+01 -0.13426613483E+03 -0.23531414946E+03  0.27094853582E+03  0.10566000000E+00 0.  1.
         13    1    1    2    0    0  0.15218701755E+02  0.12056235007E+03 -0.33736408408E+03  0.35858252262E+03  0.10566000000E+00 0. -1.
         -4    1    1    2    0  502 -0.18817868489E+02  0.13703784765E+02  0.20866695023E+02  0.31262195261E+02  0.00000000000E+00 0. -1.
</event>
<event>
 5    1  0.4881333E-005  0.7801038E+03  0.7818608E-02  0.9014234E-01
         21   -1    0    0  501  502  0.00000000000E+00  0.00000000000E+00  0.25121391834E+03  0.25121391834E+03  0.00000000000E+00 0. -1.
          4   -1    0    0  502    0 -0.00000000000E+00 -0.00000000000E+00 -0.37424863185E+04  0.37424863185E+04  0.00000000000E+00 0.  1.
        -13    1    1    2    0    0  0.70184562641E+03  0.37148739883E+03 -0.17093070323E+04  0.18847601207E+04  0.10566000000E+00 0.  1.
         13    1    1    2    0    0 -0.62385736710E+03 -0.45368186857E+03 -0.18299554200E+04  0.19858907580E+04  0.10566000000E+00 0. -1.
          4    1    1    2  501    0 -0.77988259316E+02  0.82194469739E+02  0.47990052084E+02  0.12304935817E+03  0.00000000000E+00 0.  1.
</event>
<event>
 5    1  0.4881333E-005  0.1899501E+03  0.7818608E-02  0.1067253E+00
         -4   -1    0    0    0  501 -0.00000000000E+00  0.00000000000E+00  0.36061906289E+03  0.36061906289E+03  0.00000000000E+00 0. -1.
         21   -1    0    0  501  502  0.00000000000E+00 -0.00000000000E+00 -0.39034350074E+03  0.39034350074E+03  0.00000000000E+00 0.  1.
        -13    1    1    2    0    0  0.91894916810E+02 -0.16176466038E+03 -0.21978972957E+03  0.28795836066E+03  0.10566000000E+00 0.  1.
         13    1    1    2    0    0 -0.11917276834E+03  0.14876663674E+03  0.29643239247E+03  0.35242848266E+03  0.10566000000E+00 0. -1.
         -4    1    1    2    0  502  0.27277851529E+02  0.12998023642E+02 -0.10636710074E+03  0.11057572032E+03  0.00000000000E+00 0. -1.
</event>
<event>
 5    1  0.4881333E-005  0.4428367E+03  0.7818608E-02  0.9783234E-01
         -4   -1    0    0    0  501 -0.00000000000E+00  0.00000000000E+00  0.49365677328E+03  0.49365677328E+03  0.00000000000E+00 0. -1.
         21   -1    0    0  501  502  0.00000000000E+00 -0.00000000000E+00 -0.11473491397E+04  0.11473491397E+04  0.00000000000E+00 0. -1.
        -13    1    1    2    0    0 -0.23729110624E+03 -0.59352510083E+02  0.18820323393E+03  0.30862640519E+03  0.10566000000E+00 0.  1.
         13    1    1    2    0    0  0.11134824017E+02  0.45526515190E+03 -0.10743980034E+03  0.46790347797E+03  0.10566000000E+00 0. -1.
         -4    1    1    2    0  502  0.22615628223E+03 -0.39591264181E+03 -0.73445579998E+03  0.86447602978E+03  0.00000000000E+00 0. -1.
</event>
<event>
 5    1  0.4881333E-005  0.8530909E+03  0.7818608E-02  0.8926418E-01
         21   -1    0    0  501  502  0.00000000000E+00  0.00000000000E+00  0.41962393336E+03  0.41962393336E+03  0.00000000000E+00 0.  1.
          4   -1    0    0  502    0 -0.00000000000E+00 -0.00000000000E+00 -0.37009539654E+04  0.37009539654E+04  0.00000000000E+00 0.  1.
        -13    1    1    2    0    0 -0.22652026166E+03  0.82942286947E+03 -0.11534741293E+04  0.14386647641E+04  0.10566000000E+00 0.  1.
         13    1    1    2    0    0  0.12627521641E+03 -0.84217335108E+03 -0.23164104785E+04  0.24679868111E+04  0.10566000000E+00 0. -1.
          4    1    1    2  501    0  0.10024504525E+03  0.12750481603E+02  0.18855457577E+03  0.21392632358E+03  0.00000000000E+00 0.  1.
</event>
<event>
 5    1  0.4881333E-005  0.3910789E+03  0.7818608E-02  0.9755169E-01
         21   -1    0    0  501  502  0.00000000000E+00  0.00000000000E+00  0.49168064790E+03  0.49168064790E+03  0.00000000000E+00 0. -1.
          4   -1    0    0  502    0 -0.00000000000E+00 -0.00000000000E+00 -0.55847082632E+03  0.55847082632E+03  0.00000000000E+00 0.  1.
        -13    1    1    2    0    0 -0.15995583108E+03  0.39401401043E+03 -0.29805539012E+03  0.51929754001E+03  0.10566000000E+00 0.  1.
         13    1    1    2    0    0  0.10144385974E+03 -0.31400479150E+03  0.63566407676E+02  0.33605143224E+03  0.10566000000E+00 0. -1.
          4    1    1    2  501    0  0.58511971339E+02 -0.80009218927E+02  0.16769880403E+03  0.19480250197E+03  0.00000000000E+00 0.  1.
</event>
<event>
 5    1  0.4881333E-005  0.5693338E+03  0.7818608E-02  0.9337718E-01
         21   -1    0    0  501  502  0.00000000000E+00  0.00000000000E+00  0.29108601746E+03  0.29108601746E+03  0.00000000000E+00 0.  1.
          4   -1    0    0  502    0 -0.00000000000E+00 -0.00000000000E+00 -0.20653318538E+04  0.20653318538E+04  0.00000000000E+00 0.  1.
        -13    1    1    2    0    0 -0.65592983225E+03  0.20526011324E+03 -0.13645710744E+04  0.15278841210E+04  0.10566000000E+00 0.  1.
         13    1    1    2    0    0  0.38893363275E+03 -0.17518254808E+03 -0.35358101696E+03  0.55405581177E+03  0.10566000000E+00 0. -1.
          4    1    1    2  501    0  0.26699619949E+03 -0.30077565167E+02 -0.56093744912E+02  0.27447793844E+03  0.00000000000E+00 0.  1.
</event>
<event>
 5    1  0.4881333E-005  0.5239053E+02  0.7818608E-02  0.1323085E+00
         21   -1    0    0  501  502  0.00000000000E+00  0.00000000000E+00  0.22375039885E+03  0.22375039885E+03  0.00000000000E+00 0.  1.
          4   -1    0    0  502    0 -0.00000000000E+00 -0.00000000000E+00 -0.39624304455E+02  0.39624304455E+02  0.00000000000E+00 0.  1.
        -13    1    1    2    0    0 -0.21473379300E+02  0.57639473906E+02 -0.30047922112E+01  0.61582910868E+02  0.10566000000E+00 0.  1.
         13    1    1    2    0    0 -0.13474485537E+02 -0.19675517245E+02  0.55362151467E+02  0.60279903106E+02  0.10566000000E+00 0. -1.
          4    1    1    2  501    0  0.34947864837E+02 -0.37963956660E+02  0.13176873514E+03  0.14151188933E+03  0.00000000000E+00 0.  1.
</event>
<event>
 5    1  0.4881333E-005  0.4271565E+03  0.7818608E-02  0.9653742E-01
         21   -1    0    0  501  502  0.00000000000E+00  0.00000000000E+00  0.92813404171E+03  0.92813404171E+03  0.00000000000E+00 0.  1.
         -4   -1    0    0    0  501 -0.00000000000E+00 -0.00000000000E+00 -0.95058955723E+03  0.95058955723E+03  0.00000000000E+00 0. -1.
        -13    1    1    2    0    0 -0.47382810596E+03  0.46555112776E+03  0.55955418128E+02  0.66661979159E+03  0.10566000000E+00 0.  1.
         13    1    1    2    0    0  0.22115021633E+03 -0.31854227679E+03 -0.54055434470E+03  0.66526356508E+03  0.10566000000E+00 0. -1.
         -4    1    1    2    0  502  0.25267788964E+03 -0.14700885097E+03  0.46214341106E+03  0.54684024226E+03  0.00000000000E+00 0. -1.
</event>
<event>
 5    1  0.4881333E-005  0.3839413E+02  0.7818608E-02  0.1350893E+00
          4   -1    0    0  502    0 -0.00000000000E+00  0.00000000000E+00  0.53161807375E+02  0.53161807375E+02  0.00000000000E+00 0.  1.
         21   -1    0    0  501  502  0.00000000000E+00 -0.00000000000E+00 -0.52847685112E+03  0.52847685112E+03  0.00000000000E+00 0.  1.
        -13    1    1    2    0    0  0.44402438484E+02  0.15688918439E+02  0.39289568596E+02  0.61330254114E+02  0.10566000000E+00 0.  1.
         13    1    1    2    0    0 -0.10868591489E+02 -0.34719700759E+02 -0.19284281396E+03  0.19624460747E+03  0.10566000000E+00 0. -1.
          4    1    1    2  501    0 -0.33533846995E+02  0.19030782320E+02 -0.32176179838E+03  0.32406379691E+03  0.00000000000E+00 0.  1.
</event>
<event>
 5    1  0.4881333E-005  0.5485007E+02  0.7818608E-02  0.1273210E+00
          4   -1    0    0  502    0 -0.00000000000E+00  0.00000000000E+00  0.10573517544E+03  0.10573517544E+03  0.00000000000E+00 0.  1.
         21   -1    0    0  501  502  0.00000000000E+00 -0.00000000000E+00 -0.97921413958E+02  0.97921413958E+02  0.00000000000E+00 0. -1.
        -13    1    1    2    0    0 -0.25477880416E+02 -0.46624912830E+02  0.76294425312E+02  0.92972336664E+02  0.10566000000E+00 0.  1.
         13    1    1    2    0    0  0.38626886391E+02  0.55476098465E+02 -0.41292629257E+02  0.79213169664E+02  0.10566000000E+00 0. -1.
          4    1    1    2  501    0 -0.13149005976E+02 -0.88511856347E+01 -0.27188034577E+02  0.31471083068E+02  0.00000000000E+00 0.  1.
</event>
<event>
 5    1  0.4881333E-005  0.3188616E+03  0.7818608E-02  0.1025711E+00
         -4   -1    0    0    0  501 -0.00000000000E+00  0.00000000000E+00  0.47977070778E+03  0.47977070778E+03  0.00000000000E+00 0. -1.
         21   -1    0    0  501  502  0.00000000000E+00 -0.00000000000E+00 -0.10335998957E+04  0.10335998957E+04  0.00000000000E+00 0. -1.
        -13    1    1    2    0    0 -0.10052560803E+03  0.96465074070E+02  0.20539593483E+03  0.24819026893E+03  0.10566000000E+00 0.  1.
         13    1    1    2    0    0  0.32948951345E+03  0.12317124147E+02 -0.91161384625E+03  0.96940954547E+03  0.10566000000E+00 0. -1.
         -4    1    1    2    0  502 -0.22896390542E+03 -0.10878219822E+03  0.15238872349E+03  0.29577078909E+03  0.00000000000E+00 0. -1.
</event>
<event>
 5    1  0.4881333E-005  0.4538951E+03  0.7818608E-02  0.9778078E-01
          4   -1    0    0  502    0 -0.00000000000E+00  0.00000000000E+00  0.17346869289E+04  0.17346869289E+04  0.00000000000E+00 0.  1.
         21   -1    0    0  501  502  0.00000000000E+00 -0.00000000000E+00 -0.25126587028E+03  0.25126587028E+03  0.00000000000E+00 0.  1.
        -13    1    1    2    0    0 -0.33688299055E+03  0.20490641487E+03  0.21468554490E+03  0.44896178293E+03  0.10566000000E+00 0.  1.
         13    1    1    2    0    0 -0.12795178820E+03  0.19257264560E+03  0.52792862418E+03  0.57633716463E+03  0.10566000000E+00 0. -1.
          4    1    1    2  501    0  0.46483477875E+03 -0.39747906048E+03  0.74080688956E+03  0.96065385164E+03  0.00000000000E+00 0.  1.
</event>
<event>
 5    1  0.4881333E-005  0.4771331E+03  0.7818608E-02  0.9782226E-01
         21   -1    0    0  501  502  0.00000000000E+00  0.00000000000E+00  0.97022187452E+02  0.97022187452E+02  0.00000000000E+00 0.  1.
          4   -1    0    0  502    0 -0.00000000000E+00 -0.00000000000E+00 -0.38357744748E+04  0.38357744748E+04  0.00000000000E+00 0.  1.
        -13    1    1    2    0    0  0.30157670610E+03  0.49285150082E+03 -0.21211170575E+04  0.21984059439E+04  0.10566000000E+00 0.  1.
         13    1    1    2    0    0 -0.17642514955E+03 -0.85914308277E+02 -0.42720739728E+03  0.47012048798E+03  0.10566000000E+00 0. -1.
          4    1    1    2  501    0 -0.12515155655E+03 -0.40693719254E+03 -0.11904278325E+04  0.12642702303E+04  0.00000000000E+00 0.  1.
</event>
<event>
 5    1  0.4881333E-005  0.8048037E+03  0.7818608E-02  0.8983427E-01
         21   -1    0    0  501  502  0.00000000000E+00  0.00000000000E+00  0.11512200518E+04  0.11512200518E+04  0.00000000000E+00 0. -1.
         -4   -1    0    0    0  501 -0.00000000000E+00 -0.00000000000E+00 -0.15943697813E+04  0.15943697813E+04  0.00000000000E+00 0. -1.
        -13    1    1    2    0    0  0.65109294488E+02 -0.77407254605E+03 -0.10796969101E+04  0.13301026109E+04  0.10566000000E+00 0.  1.
         13    1    1    2    0    0 -0.67532950114E+00  0.10060661509E+04  0.60152458438E+03  0.11721780551E+04  0.10566000000E+00 0. -1.
         -4    1    1    2    0  502 -0.64433964987E+02 -0.23199360487E+03  0.35022596118E+02  0.24330916707E+03  0.00000000000E+00 0. -1.
</event>
<event>
 5    1  0.4881333E-005  0.3396485E+03  0.7818608E-02  0.9958470E-01
         -4   -1    0    0    0  501 -0.00000000000E+00  0.00000000000E+00  0.18345327036E+04  0.18345327036E+04  0.00000000000E+00 0. -1.
         21   -1    0    0  501  502  0.00000000000E+00 -0.00000000000E+00 -0.24649799007E+03  0.24649799007E+03  0.00000000000E+00 0. -1.
        -13    1    1    2    0    0  0.19898806651E+03 -0.22529960055E+03  0.24585276831E+03  0.38832944193E+03  0.10566000000E+00 0.  1.
         13    1    1    2    0    0  0.21196220771E+03  0.27198470928E+03  0.65883802635E+02  0.35106174128E+03  0.10566000000E+00 0. -1.
         -4    1    1    2    0  502 -0.41095027422E+03 -0.46685108731E+02  0.12762981426E+04  0.13416395104E+04  0.00000000000E+00 0. -1.
</event>
<event>
 5    1  0.4881333E-005  0.4822115E+02  0.7818608E-02  0.1371205E+00
         21   -1    0    0  501  502  0.00000000000E+00  0.00000000000E+00  0.21475409866E+02  0.21475409866E+02  0.00000000000E+00 0.  1.
          4   -1    0    0  502    0 -0.00000000000E+00 -0.00000000000E+00 -0.21661990951E+03  0.21661990951E+03  0.00000000000E+00 0.  1.
        -13    1    1    2    0    0 -0.23203632226E+02  0.42601519368E+02 -0.15872054594E+03  0.16596843335E+03  0.10566000000E+00 0.  1.
         13    1    1    2    0    0  0.11980418230E+02  0.45597842915E+01 -0.13102746746E+02  0.18330717118E+02  0.10566000000E+00 0. -1.
          4    1    1    2  501    0  0.11223213996E+02 -0.47161303659E+02 -0.23321206959E+02  0.53796168909E+02  0.00000000000E+00 0.  1.
</event>
<event>
 5    1  0.4881333E-005  0.4450775E+03  0.7818608E-02  0.9800919E-01
         21   -1    0    0  501  502  0.00000000000E+00  0.00000000000E+00  0.32140297642E+03  0.32140297642E+03  0.00000000000E+00 0. -1.
         -4   -1    0    0    0  501 -0.00000000000E+00 -0.00000000000E+00 -0.13017812270E+04  0.13017812270E+04  0.00000000000E+00 0. -1.
        -13    1    1    2    0    0  0.47001992704E+02  0.22186375845E+03 -0.50375370845E+03  0.55244956745E+03  0.10566000000E+00 0.  1.
         13    1    1    2    0    0 -0.44402909239E+03  0.20763410158E+02 -0.40231986918E+03  0.59954502949E+03  0.10566000000E+00 0. -1.
         -4    1    1    2    0  502  0.39702709968E+03 -0.24262716861E+03 -0.74304672955E+02  0.47118960648E+03  0.00000000000E+00 0. -1.
</event>
<event>
 5    1  0.4881333E-005  0.1166730E+03  0.7818608E-02  0.1139582E+00
         21   -1    0    0  501  502  0.00000000000E+00  0.00000000000E+00  0.23575171064E+03  0.23575171064E+03  0.00000000000E+00 0. -1.
          4   -1    0    0  502    0 -0.00000000000E+00 -0.00000000000E+00 -0.23827523503E+03  0.23827523503E+03  0.00000000000E+00 0.  1.
        -13    1    1    2    0    0  0.10723395959E+03 -0.32180663888E+02 -0.17110351035E+03  0.20447772406E+03  0.10566000000E+00 0.  1.
         13    1    1    2    0    0 -0.15269121931E+03  0.47473360547E+02  0.11120530491E+03  0.19476898988E+03  0.10566000000E+00 0. -1.
          4    1    1    2  501    0  0.45457259724E+02 -0.15292696660E+02  0.57374681052E+02  0.74780231736E+02  0.00000000000E+00 0.  1.
</event>
<event>
 5    1  0.4881333E-005  0.1652663E+03  0.7818608E-02  0.1086960E+00
          4   -1    0    0  502    0 -0.00000000000E+00  0.00000000000E+00  0.19734599286E+03  0.19734599286E+03  0.00000000000E+00 0.  1.
         21   -1    0    0  501  502  0.00000000000E+00 -0.00000000000E+00 -0.42720560094E+03  0.42720560094E+03  0.00000000000E+00 0. -1.
        -13    1    1    2    0    0 -0.11339834674E+03 -0.11966319729E+03  0.13525184056E+03  0.21324056220E+03  0.10566000000E+00 0.  1.
         13    1    1    2    0    0  0.12710055185E+03  0.11179023021E+03 -0.30149613094E+03  0.34576225067E+03  0.10566000000E+00 0. -1.
          4    1    1    2  501    0 -0.13702205110E+02  0.78729670780E+01 -0.63615317698E+02  0.65548780929E+02  0.00000000000E+00 0.  1.
</event>
<event>
 5    1  0.4881333E-005  0.8363065E+02  0.7818608E-02  0.1194908E+00
         21   -1    0    0  501  502  0.00000000000E+00  0.00000000000E+00  0.33989425848E+03  0.33989425848E+03  0.00000000000E+00 0. -1.
          4   -1    0    0  502    0 -0.00000000000E+00 -0.00000000000E+00 -0.37397938674E+02  0.37397938674E+02  0.00000000000E+00 0.  1.
        -13    1    1    2    0    0  0.72836660616E+02  0.49463708393E+02  0.38147779086E+02  0.95953643969E+02  0.10566000000E+00 0.  1.
         13    1    1    2    0    0 -0.50950163297E+02 -0.51633499574E+02  0.17754478006E+03  0.19179180772E+03  0.10566000000E+00 0. -1.
          4    1    1    2  501    0 -0.21886497318E+02  0.21697911802E+01  0.86803760665E+02  0.89546745469E+02  0.00000000000E+00 0.  1.
</event>
<event>
 5    1  0.4881333E-005  0.5172248E+03  0.7818608E-02  0.9676958E-01
         -4   -1    0    0    0  501 -0.00000000000E+00  0.00000000000E+00  0.24503305437E+04  0.24503305437E+04  0.00000000000E+00 0. -1.
         21   -1    0    0  501  502  0.00000000000E+00 -0.00000000000E+00 -0.19683980070E+03  0.19683980070E+03  0.00000000000E+00 0. -1.
        -13    1    1    2    0    0  0.16326386239E+03  0.15011631163E+03  0.90882346876E+03  0.93549457739E+03  0.10566000000E+00 0.  1.
         13    1    1    2    0    0 -0.79995396555E+02 -0.58870572577E+03  0.60646290573E+03  0.84898230972E+03  0.10566000000E+00 0. -1.
         -4    1    1    2    0  502 -0.83268465834E+02  0.43858941414E+03  0.73820436855E+03  0.86269345734E+03  0.00000000000E+00 0. -1.
</event>
<event>
 5    1  0.4881333E-005  0.4044874E+03  0.7818608E-02  0.9716175E-01
         21   -1    0    0  501  502  0.00000000000E+00  0.00000000000E+00  0.36471314923E+03  0.36471314923E+03  0.00000000000E+00 0. -1.
          4   -1    0    0  502    0 -0.00000000000E+00 -0.00000000000E+00 -0.18661779548E+04  0.18661779548E+04  0.00000000000E+00 0.  1.
        -13    1    1    2    0    0  0.62310112053E+02 -0.38441668947E+03 -0.11440815206E+04  0.12085451081E+04  0.10566000000E+00 0.  1.
         13    1    1    2    0    0 -0.15802154109E+03  0.41541976435E+03 -0.60751410235E+03  0.75274018345E+03  0.10566000000E+00 0. -1.
          4    1    1    2  501    0  0.95711429034E+02 -0.31003074881E+02  0.25013081744E+03  0.26960581250E+03  0.00000000000E+00 0.  1.
</event>
<event>
 5    1  0.4881333E-005  0.4878304E+03  0.7818608E-02  0.9661315E-01
         -4   -1    0    0    0  501 -0.00000000000E+00  0.00000000000E+00  0.27699871755E+04  0.27699871755E+04  0.00000000000E+00 0. -1.
         21   -1    0    0  501  502  0.00000000000E+00 -0.00000000000E+00 -0.16810372843E+03  0.16810372843E+03  0.00000000000E+00 0. -1.
        -13    1    1    2    0    0 -0.27288479410E+03  0.59254006940E+02  0.90591670975E+03  0.94797797672E+03  0.10566000000E+00 0.  1.
         13    1    1    2    0    0 -0.34542327617E+03  0.16524667672E+03  0.65552192675E+03  0.75916579974E+03  0.10566000000E+00 0. -1.
         -4    1    1    2    0  502  0.61830807027E+03 -0.22450068366E+03  0.10404448105E+04  0.12309471274E+04  0.00000000000E+00 0. -1.
</event>
<event>
 5    1  0.4881333E-005  0.4772088E+03  0.7818608E-02  0.9830589E-01
          4   -1    0    0  502    0 -0.00000000000E+00  0.00000000000E+00  0.44800051359E+03  0.44800051359E+03  0.00000000000E+00 0.  1.
         21   -1    0    0  501  502  0.00000000000E+00 -0.00000000000E+00 -0.13960996521E+04  0.13960996521E+04  0.00000000000E+00 0.  1.
        -13    1    1    2    0    0 -0.42769926201E+03 -0.41397457098E+02 -0.23241629302E+03  0.48852610227E+03  0.10566000000E+00 0.  1.
         13    1    1    2    0    0 -0.68684849341E+02  0.15147769211E+03  0.22883925148E+03  0.28289664882E+03  0.10566000000E+00 0. -1.
          4    1    1    2  501    0  0.49638411135E+03 -0.11008023501E+03 -0.94452209699E+03  0.10726774146E+04  0.00000000000E+00 0.  1.
</event>
<event>
 5    1  0.4881333E-005  0.1171175E+03  0.7818608E-02  0.1138980E+00
         -4   -1    0    0    0  501 -0.00000000000E+00  0.00000000000E+00  0.13495082896E+04  0.13495082896E+04  0.00000000000E+00 0. -1.
         21   -1    0    0  501  502  0.00000000000E+00 -0.00000000000E+00 -0.15293785203E+02  0.15293785203E+02  0.00000000000E+00 0.  1.
        -13    1    1    2    0    0 -0.89187059464E+02  0.83323358435E+02  0.68155071976E+03  0.69239331916E+03  0.10566000000E+00 0.  1.
         13    1    1    2    0    0  0.92118960984E+02 -0.65623270363E+02  0.64124214888E+03  0.65114040056E+03  0.10566000000E+00 0. -1.
         -4    1    1    2    0  502 -0.29319015201E+01 -0.17700088072E+02  0.11421635737E+02  0.21268355065E+02  0.00000000000E+00 0. -1.
</event>
<event>
 5    1  0.4881333E-005  0.5006094E+03  0.7818608E-02  0.9566991E-01
         21   -1    0    0  501  502  0.00000000000E+00  0.00000000000E+00  0.46238618656E+03  0.46238618656E+03  0.00000000000E+00 0.  1.
          4   -1    0    0  502    0 -0.00000000000E+00 -0.00000000000E+00 -0.11074512503E+04  0.11074512503E+04  0.00000000000E+00 0.  1.
        -13    1    1    2    0    0  0.16122304815E+03 -0.46131830107E+03 -0.33685454275E+03  0.59353048809E+03  0.10566000000E+00 0.  1.
         13    1    1    2    0    0 -0.35431067595E+03 -0.69489575581E+02 -0.13561597208E+03  0.38568971889E+03  0.10566000000E+00 0. -1.
          4    1    1    2  501    0  0.19308762780E+03  0.53080787665E+03 -0.17259454894E+03  0.59061722990E+03  0.00000000000E+00 0.  1.
</event>
<event>
 5    1  0.4881333E-005  0.2377628E+03  0.7818608E-02  0.1036937E+00
         21   -1    0    0  501  502  0.00000000000E+00  0.00000000000E+00  0.21866343142E+03  0.21866343142E+03  0.00000000000E+00 0. -1.
          4   -1    0    0  502    0 -0.00000000000E+00 -0.00000000000E+00 -0.47146783657E+03  0.47146783657E+03  0.00000000000E+00 0.  1.
        -13    1    1    2    0    0  0.16594605261E+03  0.16231687835E+03 -0.31589350988E+03  0.39201222191E+03  0.10566000000E+00 0.  1.
         13    1    1    2    0    0 -0.18376916065E+03 -0.18606892200E+03  0.53719199990E+02  0.26698035836E+03  0.10566000000E+00 0. -1.
          4    1    1    2  501    0  0.17823108039E+02  0.23752043646E+02  0.93699047483E+01  0.31138687714E+02  0.00000000000E+00 0.  1.
</event>
<event>
 5    1  0.4881333E-005  0.8498289E+03  0.7818608E-02  0.8930144E-01
         21   -1    0    0  501  502  0.00000000000E+00  0.00000000000E+00  0.63853630091E+03  0.63853630091E+03  0.00000000000E+00 0.  1.
         -4   -1    0    0    0  501 -0.00000000000E+00 -0.00000000000E+00 -0.20052303532E+04  0.20052303532E+04  0.00000000000E+00 0. -1.
        -13    1    1    2    0    0 -0.27908313854E+03 -0.81559148923E+03 -0.92973665504E+03  0.12678671596E+04  0.10566000000E+00 0.  1.
         13    1    1    2    0    0  0.14660782113E+03  0.82810719284E+03 -0.69143484801E+03  0.10887320773E+04  0.10566000000E+00 0. -1.
         -4    1    1    2    0  502  0.13247531742E+03 -0.12515703609E+02  0.25447745073E+03  0.28716741718E+03  0.00000000000E+00 0. -1.
</event>
<event>
 5    1  0.4881333E-005  0.3465830E+03  0.7818608E-02  0.9897443E-01
          4   -1    0    0  502    0 -0.00000000000E+00  0.00000000000E+00  0.19155241679E+04  0.19155241679E+04  0.00000000000E+00 0.  1.
         21   -1    0    0  501  502  0.00000000000E+00 -0.00000000000E+00 -0.17367226498E+03  0.17367226498E+03  0.00000000000E+00 0. -1.
        -13    1    1    2    0    0  0.34386261892E+03  0.28265771389E+02  0.15146680882E+04  0.15534670525E+04  0.10566000000E+00 0.  1.
         13    1    1    2    0    0 -0.35304144849E+03 -0.15589093892E+02  0.29858167610E+03  0.46263626389E+03  0.10566000000E+00 0. -1.
          4    1    1    2  501    0  0.91788295666E+01 -0.12676677497E+02 -0.71397861408E+02  0.73093116490E+02  0.00000000000E+00 0.  1.
</event>
<event>
 5    1  0.4881333E-005  0.4945522E+03  0.7818608E-02  0.1001201E+00
         21   -1    0    0  501  502  0.00000000000E+00  0.00000000000E+00  0.83741645640E+03  0.83741645640E+03  0.00000000000E+00 0.  1.
          4   -1    0    0  502    0 -0.00000000000E+00 -0.00000000000E+00 -0.48881540268E+03  0.48881540268E+03  0.00000000000E+00 0.  1.
        -13    1    1    2    0    0  0.86250063150E+02  0.49862149834E+03  0.39549851454E+03  0.64224727183E+03  0.10566000000E+00 0.  1.
         13    1    1    2    0    0 -0.79687300885E+02 -0.17830439205E+02 -0.16916897386E+03  0.18784606295E+03  0.10566000000E+00 0. -1.
          4    1    1    2  501    0 -0.65627622647E+01 -0.48079105914E+03  0.12227151304E+03  0.49613852430E+03  0.00000000000E+00 0.  1.
</event>
<event>
 5    1  0.4881333E-005  0.3305066E+03  0.7818608E-02  0.1005306E+00
         21   -1    0    0  501  502  0.00000000000E+00  0.00000000000E+00  0.13469828143E+04  0.13469828143E+04  0.00000000000E+00 0. -1.
         -4   -1    0    0    0  501 -0.00000000000E+00 -0.00000000000E+00 -0.18139492638E+03  0.18139492638E+03  0.00000000000E+00 0. -1.
        -13    1    1    2    0    0 -0.91770949213E+02  0.22106333524E+03  0.50203689333E+03  0.55617619397E+03  0.10566000000E+00 0.  1.
         13    1    1    2    0    0 -0.19423360095E+03 -0.34696159706E+03  0.35474740067E+03  0.53287406675E+03  0.10566000000E+00 0. -1.
         -4    1    1    2    0  502  0.28600455017E+03  0.12589826181E+03  0.30880359396E+03  0.43932748000E+03  0.00000000000E+00 0. -1.
</event>
<event>
 5    1  0.4881333E-005  0.4923044E+03  0.7818608E-02  0.9743231E-01
         21   -1    0    0  501  502  0.00000000000E+00  0.00000000000E+00  0.36334674652E+03  0.36334674652E+03  0.00000000000E+00 0. -1.
         -4   -1    0    0    0  501 -0.00000000000E+00 -0.00000000000E+00 -0.16614181193E+04  0.16614181193E+04  0.00000000000E+00 0. -1.
        -13    1    1    2    0    0 -0.14957069253E+03 -0.13914439077E+03 -0.93277852292E+03  0.95488655742E+03  0.10566000000E+00 0.  1.
         13    1    1    2    0    0 -0.55236010374E+02 -0.40491211986E+03 -0.24421835082E+03  0.47607505259E+03  0.10566000000E+00 0. -1.
         -4    1    1    2    0  502  0.20480670291E+03  0.54405651063E+03 -0.12107449905E+03  0.59380325583E+03  0.00000000000E+00 0. -1.
</event>
<event>
 5    1  0.4881333E-005  0.3380315E+03  0.7818608E-02  0.9927390E-01
         21   -1    0    0  501  502  0.00000000000E+00  0.00000000000E+00  0.14268456070E+03  0.14268456070E+03  0.00000000000E+00 0. -1.
          4   -1    0    0  502    0 -0.00000000000E+00 -0.00000000000E+00 -0.26040302941E+04  0.26040302941E+04  0.00000000000E+00 0.  1.
        -13    1    1    2    0    0 -0.19869439621E+03  0.27782960515E+03 -0.19238578621E+04  0.19539441746E+04  0.10566000000E+00 0.  1.
         13    1    1    2    0    0  0.19528695375E+03 -0.26417052864E+03 -0.62396062162E+03  0.70515950749E+03  0.10566000000E+00 0. -1.
          4    1    1    2  501    0  0.34074424590E+01 -0.13659076514E+02  0.86472750341E+02  0.87611172729E+02  0.00000000000E+00 0.  1.
</event>
<event>
 5    1  0.4881333E-005  0.4811964E+03  0.7818608E-02  0.9734703E-01
         -4   -1    0    0    0  501 -0.00000000000E+00  0.00000000000E+00  0.11870780024E+04  0.11870780024E+04  0.00000000000E+00 0. -1.
         21   -1    0    0  501  502  0.00000000000E+00 -0.00000000000E+00 -0.36724320719E+03  0.36724320719E+03  0.00000000000E+00 0. -1.
        -13    1    1    2    0    0  0.17445576555E+03  0.14257451900E+03  0.44098181597E+03  0.49520428187E+03  0.10566000000E+00 0.  1.
         13    1    1    2    0    0 -0.45778018852E+02 -0.55301242975E+03  0.16603201805E+03  0.57921068417E+03  0.10566000000E+00 0. -1.
         -4    1    1    2    0  502 -0.12867774670E+03  0.41043791075E+03  0.21282096119E+03  0.47990624355E+03  0.00000000000E+00 0. -1.
</event>
<event>
 5    1  0.4881333E-005  0.2750634E+03  0.7818608E-02  0.1018165E+00
         21   -1    0    0  501  502  0.00000000000E+00  0.00000000000E+00  0.17756443696E+03  0.17756443696E+03  0.00000000000E+00 0.  1.
          4   -1    0    0  502    0 -0.00000000000E+00 -0.00000000000E+00 -0.14861953005E+04  0.14861953005E+04  0.00000000000E+00 0.  1.
        -13    1    1    2    0    0  0.86543431573E+02 -0.28711452673E+03 -0.94026297030E+03  0.98692399985E+03  0.10566000000E+00 0.  1.
         13    1    1    2    0    0 -0.10808545110E+03  0.22068190004E+03 -0.48339522734E+03  0.54226739043E+03  0.10566000000E+00 0. -1.
          4    1    1    2  501    0  0.21542019524E+02  0.66432626689E+02  0.11502733405E+03  0.13456834722E+03  0.00000000000E+00 0.  1.
</event>
<event>
 5    1  0.4881333E-005  0.4531821E+02  0.7818608E-02  0.1318379E+00
         21   -1    0    0  501  502  0.00000000000E+00  0.00000000000E+00  0.26849964562E+03  0.26849964562E+03  0.00000000000E+00 0. -1.
         -4   -1    0    0    0  501 -0.00000000000E+00 -0.00000000000E+00 -0.41643228331E+02  0.41643228331E+02  0.00000000000E+00 0. -1.
        -13    1    1    2    0    0  0.45476265869E+02 -0.20318389958E+02  0.19297410212E+02  0.53416560473E+02  0.10566000000E+00 0.  1.
         13    1    1    2    0    0 -0.61611681233E+01  0.42858649317E+02 -0.98954008158E+00  0.43310670366E+02  0.10566000000E+00 0. -1.
         -4    1    1    2    0  502 -0.39315097745E+02 -0.22540259359E+02  0.20854854716E+03  0.21341564312E+03  0.00000000000E+00 0. -1.
</event>
<event>
 5    1  0.4881333E-005  0.4147954E+03  0.7818608E-02  0.9841378E-01
         -4   -1    0    0    0  501 -0.00000000000E+00  0.00000000000E+00  0.11814200018E+04  0.11814200018E+04  0.00000000000E+00 0. -1.
         21   -1    0    0  501  502  0.00000000000E+00 -0.00000000000E+00 -0.36518179225E+03  0.36518179225E+03  0.00000000000E+00 0. -1.
        -13    1    1    2    0    0  0.22530829307E+03 -0.94102210071E+02  0.32004534323E+03  0.40255196653E+03  0.10566000000E+00 0.  1.
         13    1    1    2    0    0 -0.19658275319E+03  0.48768309681E+03  0.53175182364E+03  0.74782323772E+03  0.10566000000E+00 0. -1.
         -4    1    1    2    0  502 -0.28725539881E+02 -0.39358088674E+03 -0.35558957284E+02  0.39622658984E+03  0.00000000000E+00 0. -1.
</event>
<event>
 5    1  0.4881333E-005  0.1280384E+03  0.7818608E-02  0.1125043E+00
         21   -1    0    0  501  502  0.00000000000E+00  0.00000000000E+00  0.46939224426E+03  0.46939224426E+03  0.00000000000E+00 0. -1.
          4   -1    0    0  502    0 -0.00000000000E+00 -0.00000000000E+00 -0.17308480872E+03  0.17308480872E+03  0.00000000000E+00 0.  1.
        -13    1    1    2    0    0  0.12804544996E+03  0.48547531545E+02 -0.12594805945E+03  0.18605221020E+03  0.10566000000E+00 0.  1.
         13    1    1    2    0    0 -0.57065842346E+02 -0.68986434819E+02  0.15347835506E+03  0.17768301885E+03  0.10566000000E+00 0. -1.
          4    1    1    2  501    0 -0.70979607618E+02  0.20438903274E+02  0.26877713993E+03  0.27874182394E+03  0.00000000000E+00 0.  1.
</event>
<event>
 5    1  0.4881333E-005  0.4449929E+03  0.7818608E-02  0.9869565E-01
          4   -1    0    0  502    0 -0.00000000000E+00  0.00000000000E+00  0.96201253320E+03  0.96201253320E+03  0.00000000000E+00 0.  1.
         21   -1    0    0  501  502  0.00000000000E+00 -0.00000000000E+00 -0.49265672509E+03  0.49265672509E+03  0.00000000000E+00 0.  1.
        -13    1    1    2    0    0 -0.19383086535E+03  0.41072925085E+03  0.25987375264E+03  0.52326217171E+03  0.10566000000E+00 0.  1.
         13    1    1    2    0    0  0.17522907536E+03  0.40320948364E+02  0.40219632411E+03  0.44055975988E+03  0.10566000000E+00 0. -1.
          4    1    1    2  501    0  0.18601789992E+02 -0.45105019921E+03 -0.19271426864E+03  0.49084732671E+03  0.00000000000E+00 0.  1.
</event>
<event>
 5    1  0.4881333E-005  0.4936310E+03  0.7818608E-02  0.9729303E-01
         -4   -1    0    0    0  501 -0.00000000000E+00  0.00000000000E+00  0.11541073065E+04  0.11541073065E+04  0.00000000000E+00 0. -1.
         21   -1    0    0  501  502  0.00000000000E+00 -0.00000000000E+00 -0.36253463307E+03  0.36253463307E+03  0.00000000000E+00 0. -1.
        -13    1    1    2    0    0  0.20917090083E+03 -0.38256373124E+02  0.34171694819E+03  0.40247546470E+03  0.10566000000E+00 0.  1.
         13    1    1    2    0    0 -0.41424244426E+03 -0.37388710969E+03  0.27034779683E+03  0.62006154198E+03  0.10566000000E+00 0. -1.
         -4    1    1    2    0  502  0.20507154343E+03  0.41214348282E+03  0.17950792840E+03  0.49410493290E+03  0.00000000000E+00 0. -1.
</event>
<event>
 5    1  0.4881333E-005  0.9884713E+02  0.7818608E-02  0.1166477E+00
         21   -1    0    0  501  502  0.00000000000E+00  0.00000000000E+00  0.90374632886E+03  0.90374632886E+03  0.00000000000E+00 0. -1.
         -4   -1    0    0    0  501 -0.00000000000E+00 -0.00000000000E+00 -0.65474171349E+02  0.65474171349E+02  0.00000000000E+00 0. -1.
        -13    1    1    2    0    0  0.39327317298E+02  0.95953089438E+02  0.41957392247E+02  0.11186629156E+03  0.10566000000E+00 0.  1.
         13    1    1    2    0    0 -0.27304556109E+02 -0.90415903235E+02  0.42750127974E+02  0.10367332804E+03  0.10566000000E+00 0. -1.
         -4    1    1    2    0  502 -0.12022761190E+02 -0.55371862031E+01  0.75356463729E+03  0.75368088061E+03  0.00000000000E+00 0. -1.
</event>
<event>
 5    1  0.4881333E-005  0.2563013E+03  0.7818608E-02  0.1063411E+00
         -4   -1    0    0    0  501 -0.00000000000E+00  0.00000000000E+00  0.89035545199E+03  0.89035545199E+03  0.00000000000E+00 0. -1.
         21   -1    0    0  501  502  0.00000000000E+00 -0.00000000000E+00 -0.32137024196E+03  0.32137024196E+03  0.00000000000E+00 0. -1.
        -13    1    1    2    0    0 -0.80789050301E+02  0.30618872162E+02  0.91225280000E+02  0.12564413578E+03  0.10566000000E+00 0.  1.
         13    1    1    2    0    0  0.28085778333E+03 -0.18060654977E+03  0.68452073885E+03  0.76162226422E+03  0.10566000000E+00 0. -1.
         -4    1    1    2    0  502 -0.20006873303E+03  0.14998767761E+03 -0.20676080882E+03  0.32445929396E+03  0.00000000000E+00 0. -1.
</event>
<event>
 5    1  0.4881333E-005  0.3942623E+02  0.7818608E-02  0.1342047E+00
         21   -1    0    0  501  502  0.00000000000E+00  0.00000000000E+00  0.49069823376E+02  0.49069823376E+02  0.00000000000E+00 0.  1.
         -4   -1    0    0    0  501 -0.00000000000E+00 -0.00000000000E+00 -0.99981451136E+02  0.99981451136E+02  0.00000000000E+00 0. -1.
        -13    1    1    2    0    0  0.20799076987E+02 -0.38434175826E+02  0.14032662722E+02  0.45898957091E+02  0.10566000000E+00 0.  1.
         13    1    1    2    0    0  0.14637716281E+01  0.39548461364E+02 -0.69892179379E+02  0.80319059544E+02  0.10566000000E+00 0. -1.
         -4    1    1    2    0  502 -0.22262848615E+02 -0.11142855377E+01  0.49478888964E+01  0.22833257877E+02  0.00000000000E+00 0. -1.
</event>
<event>
 5    1  0.4881333E-005  0.3849803E+02  0.7818608E-02  0.1406991E+00
          4   -1    0    0  502    0 -0.00000000000E+00  0.00000000000E+00  0.11897451617E+02  0.11897451617E+02  0.00000000000E+00 0.  1.
         21   -1    0    0  501  502  0.00000000000E+00 -0.00000000000E+00 -0.28833565918E+03  0.28833565918E+03  0.00000000000E+00 0.  1.
        -13    1    1    2    0    0 -0.27732082424E+02  0.38512129269E+02 -0.75293659513E+02  0.89002240552E+02  0.10566000000E+00 0.  1.
         13    1    1    2    0    0  0.11094622931E+01 -0.13669012052E+02 -0.10859973265E+02  0.17493512524E+02  0.10566000000E+00 0. -1.
          4    1    1    2  501    0  0.26622620131E+02 -0.24843117217E+02 -0.19028457479E+03  0.19373735772E+03  0.00000000000E+00 0.  1.
</event>
<event>
 5    1  0.4881333E-005  0.3562883E+03  0.7818608E-02  0.9864549E-01
         21   -1    0    0  501  502  0.00000000000E+00  0.00000000000E+00  0.47421609586E+03  0.47421609586E+03  0.00000000000E+00 0. -1.
          4   -1    0    0  502    0 -0.00000000000E+00 -0.00000000000E+00 -0.89692831441E+03  0.89692831441E+03  0.00000000000E+00 0.  1.
        -13    1    1    2    0    0 -0.26945282255E+03  0.23790059392E+03 -0.74901590681E+03  0.83079862541E+03  0.10566000000E+00 0.  1.
         13    1    1    2    0    0  0.24518715438E+03 -0.22955178770E+03  0.15993217100E+03  0.37200682036E+03  0.10566000000E+00 0. -1.
          4    1    1    2  501    0  0.24265668171E+02 -0.83488062126E+01  0.16637151726E+03  0.16833896451E+03  0.00000000000E+00 0.  1.
</event>
<event>
 5    1  0.4881333E-005  0.3179044E+03  0.7818608E-02  0.1000177E+00
          4   -1    0    0  502    0 -0.00000000000E+00  0.00000000000E+00  0.35938143955E+03  0.35938143955E+03  0.00000000000E+00 0.  1.
         21   -1    0    0  501  502  0.00000000000E+00 -0.00000000000E+00 -0.31335404124E+03  0.31335404124E+03  0.00000000000E+00 0. -1.
        -13    1    1    2    0    0 -0.25833231493E+03  0.18772487914E+03 -0.19482644744E+02  0.31993092972E+03  0.10566000000E+00 0.  1.
         13    1    1    2    0    0  0.26370325810E+03 -0.17590338683E+03  0.86090255195E+02  0.32847062736E+03  0.10566000000E+00 0. -1.
          4    1    1    2  501    0 -0.53709431774E+01 -0.11821492314E+02 -0.20580212144E+02  0.24333923708E+02  0.00000000000E+00 0.  1.
</event>
<event>
 5    1  0.4881333E-005  0.7732879E+02  0.7818608E-02  0.1218498E+00
         21   -1    0    0  501  502  0.00000000000E+00  0.00000000000E+00  0.43233518017E+03  0.43233518017E+03  0.00000000000E+00 0.  1.
          4   -1    0    0  502    0 -0.00000000000E+00 -0.00000000000E+00 -0.31422730961E+03  0.31422730961E+03  0.00000000000E+00 0.  1.
        -13    1    1    2    0    0  0.53995401324E+02  0.77062743407E+02 -0.27410085627E+03  0.28980245057E+03  0.10566000000E+00 0.  1.
         13    1    1    2    0    0  0.21153875705E+02 -0.58485070482E+02  0.55635640580E+01  0.62441607407E+02  0.10566000000E+00 0. -1.
          4    1    1    2  501    0 -0.75149277029E+02 -0.18577672925E+02  0.38664516276E+03  0.39431843180E+03  0.00000000000E+00 0.  1.
</event>
<event>
 5    1  0.4881333E-005  0.5384635E+03  0.7818608E-02  0.9397431E-01
         21   -1    0    0  501  502  0.00000000000E+00  0.00000000000E+00  0.34691916403E+03  0.34691916403E+03  0.00000000000E+00 0.  1.
         -4   -1    0    0    0  501 -0.00000000000E+00 -0.00000000000E+00 -0.18737209266E+04  0.18737209266E+04  0.00000000000E+00 0. -1.
        -13    1    1    2    0    0  0.38343102199E+03  0.30484778965E+03 -0.30759818982E+03  0.57841869007E+03  0.10566000000E+00 0.  1.
         13    1    1    2    0    0 -0.13603474909E+03 -0.59739582582E+03 -0.10661315877E+04  0.12296437692E+04  0.10566000000E+00 0. -1.
         -4    1    1    2    0  502 -0.24739627290E+03  0.29254803617E+03 -0.15307198510E+03  0.41257763140E+03  0.00000000000E+00 0. -1.
</event>
<event>
 5    1  0.4881333E-005  0.1446426E+03  0.7818608E-02  0.1106519E+00
         -4   -1    0    0    0  501 -0.00000000000E+00  0.00000000000E+00  0.80160552932E+02  0.80160552932E+02  0.00000000000E+00 0. -1.
         21   -1    0    0  501  502  0.00000000000E+00 -0.00000000000E+00 -0.10265739312E+04  0.10265739312E+04  0.00000000000E+00 0. -1.
        -13    1    1    2    0    0  0.13984793307E+03  0.89550335780E+02 -0.27209896808E+03  0.31877039796E+03  0.10566000000E+00 0.  1.
         13    1    1    2    0    0 -0.77544083538E+02 -0.11818507526E+03 -0.35850789202E+02  0.14582896542E+03  0.10566000000E+00 0. -1.
         -4    1    1    2    0  502 -0.62303849534E+02  0.28634739482E+02 -0.63846362101E+03  0.64213512077E+03  0.00000000000E+00 0. -1.
</event>
<event>
 5    1  0.4881333E-005  0.4441053E+03  0.7818608E-02  0.9609692E-01
         21   -1    0    0  501  502  0.00000000000E+00  0.00000000000E+00  0.10224018489E+04  0.10224018489E+04  0.00000000000E+00 0.  1.
         -4   -1    0    0    0  501 -0.00000000000E+00 -0.00000000000E+00 -0.41106588021E+03  0.41106588021E+03  0.00000000000E+00 0. -1.
        -13    1    1    2    0    0 -0.20113808304E+03  0.41129657236E+03  0.30744171919E+03  0.55149054457E+03  0.10566000000E+00 0.  1.
         13    1    1    2    0    0 -0.77525540424E+02 -0.46126576967E+03  0.14971589703E+01  0.46773771746E+03  0.10566000000E+00 0. -1.
         -4    1    1    2    0  502  0.27866362346E+03  0.49969197309E+02  0.30239709054E+03  0.41423946708E+03  0.00000000000E+00 0. -1.
</event>
<event>
 5    1  0.4881333E-005  0.3776887E+03  0.7818608E-02  0.9795789E-01
         21   -1    0    0  501  502  0.00000000000E+00  0.00000000000E+00  0.11455053208E+04  0.11455053208E+04  0.00000000000E+00 0. -1.
         -4   -1    0    0    0  501 -0.00000000000E+00 -0.00000000000E+00 -0.49687847578E+03  0.49687847578E+03  0.00000000000E+00 0. -1.
        -13    1    1    2    0    0 -0.87817159567E+02  0.36707208650E+03  0.40740583327E+03  0.55536771094E+03  0.10566000000E+00 0.  1.
         13    1    1    2    0    0  0.57839532114E+02 -0.37346726120E+03 -0.33797995671E+03  0.50700460448E+03  0.10566000000E+00 0. -1.
         -4    1    1    2    0  502  0.29977627453E+02  0.63951746941E+01  0.57920096844E+03  0.58001148114E+03  0.00000000000E+00 0. -1.
</event>
<event>
 5    1  0.4881333E-005  0.1865295E+03  0.7818608E-02  0.1069785E+00
          4   -1    0    0  502    0 -0.00000000000E+00  0.00000000000E+00  0.59149143591E+03  0.59149143591E+03  0.00000000000E+00 0.  1.
         21   -1    0    0  501  502  0.00000000000E+00 -0.00000000000E+00 -0.76157144155E+02  0.76157144155E+02  0.00000000000E+00 0. -1.
        -13    1    1    2    0    0  0.53499885427E+02 -0.16921793878E+03  0.28463748039E+03  0.33543323472E+03  0.10566000000E+00 0.  1.
         13    1    1    2    0    0 -0.70414847916E+02  0.18703543452E+03  0.23365990407E+03  0.30746945622E+03  0.10566000000E+00 0. -1.
          4    1    1    2  501    0  0.16914962489E+02 -0.17817495742E+02 -0.29630927050E+01  0.24745889131E+02  0.00000000000E+00 0.  1.
</event>
<event>
 5    1  0.4881333E-005  0.7849647E+02  0.7818608E-02  0.1265194E+00
         -4   -1    0    0    0  501 -0.00000000000E+00  0.00000000000E+00  0.31533266726E+02  0.31533266726E+02  0.00000000000E+00 0. -1.
         21   -1    0    0  501  502  0.00000000000E+00 -0.00000000000E+00 -0.31330799561E+03  0.31330799561E+03  0.00000000000E+00 0. -1.
        -13    1    1    2    0    0 -0.12490517627E+02 -0.18144653668E+02 -0.16778057080E+01  0.22092253922E+02  0.10566000000E+00 0.  1.
         13    1    1    2    0    0  0.22242920099E+02  0.87488792924E+02 -0.15361047357E+03  0.17817189772E+03  0.10566000000E+00 0. -1.
         -4    1    1    2    0  502 -0.97524024717E+01 -0.69344139257E+02 -0.12648644960E+03  0.14457711069E+03  0.00000000000E+00 0. -1.
</event>
<event>
 5    1  0.4881333E-005  0.5143896E+03  0.7818608E-02  0.9510565E-01
         21   -1    0    0  501  502  0.00000000000E+00  0.00000000000E+00  0.39955335794E+03  0.39955335794E+03  0.00000000000E+00 0. -1.
          4   -1    0    0  502    0 -0.00000000000E+00 -0.00000000000E+00 -0.19551277489E+04  0.19551277489E+04  0.00000000000E+00 0.  1.
        -13    1    1    2    0    0 -0.14371358647E+03  0.47875852192E+03 -0.69879850950E+03  0.85917558467E+03  0.10566000000E+00 0.  1.
         13    1    1    2    0    0 -0.42926343227E+03 -0.40525107686E+03 -0.65939867978E+03  0.88504359194E+03  0.10566000000E+00 0. -1.
          4    1    1    2  501    0  0.57297701874E+03 -0.73507445063E+02 -0.19737720164E+03  0.61046193019E+03  0.00000000000E+00 0.  1.
</event>
<event>
 5    1  0.4881333E-005  0.4997289E+03  0.7818608E-02  0.9760971E-01
         -4   -1    0    0    0  501 -0.00000000000E+00  0.00000000000E+00  0.10376433331E+04  0.10376433331E+04  0.00000000000E+00 0. -1.
         21   -1    0    0  501  502  0.00000000000E+00 -0.00000000000E+00 -0.34733754838E+03  0.34733754838E+03  0.00000000000E+00 0. -1.
        -13    1    1    2    0    0  0.18326132175E+03 -0.13111247297E+02  0.11020887041E+03  0.21424897464E+03  0.10566000000E+00 0.  1.
         13    1    1    2    0    0 -0.32977603371E+02 -0.49036392925E+03  0.27778226066E+03  0.56454167334E+03  0.10566000000E+00 0. -1.
         -4    1    1    2    0  502 -0.15028371838E+03  0.50347517655E+03  0.30231465370E+03  0.60619023355E+03  0.00000000000E+00 0. -1.
</event>
<event>
 5    1  0.4881333E-005  0.5028759E+03  0.7818608E-02  0.9674057E-01
         21   -1    0    0  501  502  0.00000000000E+00  0.00000000000E+00  0.48010365268E+03  0.48010365268E+03  0.00000000000E+00 0. -1.
         -4   -1    0    0    0  501 -0.00000000000E+00 -0.00000000000E+00 -0.10604727895E+04  0.10604727895E+04  0.00000000000E+00 0. -1.
        -13    1    1    2    0    0 -0.16489712761E+03 -0.17955313424E+03 -0.41918143038E+03  0.48491594473E+03  0.10566000000E+00 0.  1.
         13    1    1    2    0    0 -0.43034711649E+03  0.49314416870E+02 -0.87275910801E+02  0.44186836066E+03  0.10566000000E+00 0. -1.
         -4    1    1    2    0  502  0.59524424410E+03  0.13023871737E+03 -0.73911795619E+02  0.61379213678E+03  0.00000000000E+00 0. -1.
</event>
<event>
 5    1  0.4881333E-005  0.4566231E+03  0.7818608E-02  0.9578476E-01
         -4   -1    0    0    0  501 -0.00000000000E+00  0.00000000000E+00  0.22957527020E+04  0.22957527020E+04  0.00000000000E+00 0. -1.
         21   -1    0    0  501  502  0.00000000000E+00 -0.00000000000E+00 -0.13426481591E+03  0.13426481591E+03  0.00000000000E+00 0. -1.
        -13    1    1    2    0    0  0.42710067425E+02 -0.42585362868E+03  0.10954228592E+04  0.11760640776E+04  0.10566000000E+00 0.  1.
         13    1    1    2    0    0 -0.12935309483E+03  0.48439553270E+03  0.10260465916E+04  0.11419907506E+04  0.10566000000E+00 0. -1.
         -4    1    1    2    0  502  0.86643027401E+02 -0.58541904021E+02  0.40018435304E+02  0.11196268971E+03  0.00000000000E+00 0. -1.
</event>
<event>
 5    1  0.4881333E-005  0.1449066E+03  0.7818608E-02  0.1108551E+00
         21   -1    0    0  501  502  0.00000000000E+00  0.00000000000E+00  0.31054730469E+03  0.31054730469E+03  0.00000000000E+00 0.  1.
          4   -1    0    0  502    0 -0.00000000000E+00 -0.00000000000E+00 -0.11290226377E+04  0.11290226377E+04  0.00000000000E+00 0.  1.
        -13    1    1    2    0    0  0.12664012541E+03  0.64890216560E+02  0.18634979842E+03  0.23446688488E+03  0.10566000000E+00 0.  1.
         13    1    1    2    0    0  0.13582742041E+03 -0.10706035069E+02  0.27122819565E+02  0.13892215743E+03  0.10566000000E+00 0. -1.
          4    1    1    2  501    0 -0.26246754582E+03 -0.54184181491E+02 -0.10319479510E+04  0.10661809001E+04  0.00000000000E+00 0.  1.
</event>
<event>
 5    1  0.4881333E-005  0.5282288E+03  0.7818608E-02  0.9418158E-01
         21   -1    0    0  501  502  0.00000000000E+00  0.00000000000E+00  0.49185939098E+03  0.49185939098E+03  0.00000000000E+00 0.  1.
          4   -1    0    0  502    0 -0.00000000000E+00 -0.00000000000E+00 -0.26245251859E+04  0.26245251859E+04  0.00000000000E+00 0.  1.
        -13    1    1    2    0    0 -0.16642724960E+03  0.43907025875E+03  0.33062219259E+03  0.57427499243E+03  0.10566000000E+00 0.  1.
         13    1    1    2    0    0  0.22718285720E+03 -0.48231283361E+03 -0.18820022654E+04  0.19560598811E+04  0.10566000000E+00 0. -1.
          4    1    1    2  501    0 -0.60755607604E+02  0.43242574856E+02 -0.58128572212E+03  0.58604970342E+03  0.00000000000E+00 0.  1.
</event>
<event>
 5    1  0.4881333E-005  0.3174820E+03  0.7818608E-02  0.1038297E+00
          4   -1    0    0  502    0 -0.00000000000E+00  0.00000000000E+00  0.20587910301E+04  0.20587910301E+04  0.00000000000E+00 0.  1.
         21   -1    0    0  501  502  0.00000000000E+00 -0.00000000000E+00 -0.44255806874E+03  0.44255806874E+03  0.00000000000E+00 0. -1.
        -13    1    1    2    0    0  0.15647814136E+03 -0.18591036263E+02  0.74740993958E+03  0.76384073229E+03  0.10566000000E+00 0.  1.
         13    1    1    2    0    0 -0.36084606584E+03 -0.52197917277E+03  0.96169179355E+03  0.11521819548E+04  0.10566000000E+00 0. -1.
          4    1    1    2  501    0  0.20436792448E+03  0.54057020903E+03 -0.92868771814E+02  0.58532641169E+03  0.00000000000E+00 0.  1.
</event>
<event>
 5    1  0.4881333E-005  0.3796173E+03  0.7818608E-02  0.9860727E-01
         21   -1    0    0  501  502  0.00000000000E+00  0.00000000000E+00  0.13743792870E+04  0.13743792870E+04  0.00000000000E+00 0.  1.
          4   -1    0    0  502    0 -0.00000000000E+00 -0.00000000000E+00 -0.81940445415E+03  0.81940445415E+03  0.00000000000E+00 0.  1.
        -13    1    1    2    0    0  0.23021580793E+03 -0.11282736548E+03 -0.20110117341E+03  0.32583895674E+03  0.10566000000E+00 0.  1.
         13    1    1    2    0    0 -0.63150502226E+03 -0.36551906911E+02 -0.32065798312E+03  0.70919404139E+03  0.10566000000E+00 0. -1.
          4    1    1    2  501    0  0.40128921433E+03  0.14937927239E+03  0.10767339894E+04  0.11587507430E+04  0.00000000000E+00 0.  1.
</event>
<event>
 5    1  0.4881333E-005  0.3011616E+03  0.7818608E-02  0.1016179E+00
         21   -1    0    0  501  502  0.00000000000E+00  0.00000000000E+00  0.72164630657E+03  0.72164630657E+03  0.00000000000E+00 0.  1.
          4   -1    0    0  502    0 -0.00000000000E+00 -0.00000000000E+00 -0.75292894140E+03  0.75292894140E+03  0.00000000000E+00 0.  1.
        -13    1    1    2    0    0  0.29856870933E+02  0.14888108626E+03 -0.32009180894E+03  0.35428207392E+03  0.10566000000E+00 0.  1.
         13    1    1    2    0    0  0.21499906340E+03  0.59893060564E+02 -0.34418112245E+03  0.41021022925E+03  0.10566000000E+00 0. -1.
          4    1    1    2  501    0 -0.24485593433E+03 -0.20877414682E+03  0.63299029656E+03  0.71008294480E+03  0.00000000000E+00 0.  1.
</event>
<event>
 5    1  0.4881333E-005  0.2079851E+03  0.7818608E-02  0.1054795E+00
         -4   -1    0    0    0  501 -0.00000000000E+00  0.00000000000E+00  0.95263999848E+03  0.95263999848E+03  0.00000000000E+00 0. -1.
         21   -1    0    0  501  502  0.00000000000E+00 -0.00000000000E+00 -0.66405625629E+02  0.66405625629E+02  0.00000000000E+00 0.  1.
        -13    1    1    2    0    0 -0.60231711904E+02 -0.18363860111E+03  0.16617931472E+03  0.25488540707E+03  0.10566000000E+00 0.  1.
         13    1    1    2    0    0  0.31479990483E+02  0.21253018556E+03  0.61702538741E+03  0.65336085700E+03  0.10566000000E+00 0. -1.
         -4    1    1    2    0  502  0.28751721421E+02 -0.28891584456E+02  0.10302967072E+03  0.11079936004E+03  0.00000000000E+00 0. -1.
</event>
<event>
 5    1  0.4881333E-005  0.4990729E+03  0.7818608E-02  0.1008370E+00
         21   -1    0    0  501  502  0.00000000000E+00  0.00000000000E+00  0.38028201431E+03  0.38028201431E+03  0.00000000000E+00 0. -1.
         -4   -1    0    0    0  501 -0.00000000000E+00 -0.00000000000E+00 -0.78387380438E+03  0.78387380438E+03  0.00000000000E+00 0. -1.
        -13    1    1    2    0    0  0.61448956075E+02 -0.13713554062E+02 -0.92546066443E+02  0.11193221764E+03  0.10566000000E+00 0.  1.
         13    1    1    2    0    0 -0.49838820093E+03  0.17189727986E+03 -0.79904990617E+02  0.53322067884E+03  0.10566000000E+00 0. -1.
         -4    1    1    2    0  502  0.43693924486E+03 -0.15818372580E+03 -0.23114073301E+03  0.51900292221E+03  0.00000000000E+00 0. -1.
</event>
<event>
 5    1  0.4881333E-005  0.1249006E+03  0.7818608E-02  0.1128888E+00
          4   -1    0    0  502    0 -0.00000000000E+00  0.00000000000E+00  0.87135469805E+02  0.87135469805E+02  0.00000000000E+00 0.  1.
         21   -1    0    0  501  502  0.00000000000E+00 -0.00000000000E+00 -0.56515493011E+03  0.56515493011E+03  0.00000000000E+00 0. -1.
        -13    1    1    2    0    0 -0.66458313621E+02  0.10415862692E+03  0.25303349547E+02  0.12611898221E+03  0.10566000000E+00 0.  1.
         13    1    1    2    0    0  0.66520260625E+02 -0.11974147991E+03 -0.43330608833E+03  0.45444157428E+03  0.10566000000E+00 0. -1.
          4    1    1    2  501    0 -0.61947004153E-01  0.15582852991E+02 -0.70016721526E+02  0.71729843426E+02  0.00000000000E+00 0.  1.
</event>
<event>
 5    1  0.4881333E-005  0.1835528E+03  0.7818608E-02  0.1091318E+00
          4   -1    0    0  502    0 -0.00000000000E+00  0.00000000000E+00  0.19527979799E+03  0.19527979799E+03  0.00000000000E+00 0.  1.
         21   -1    0    0  501  502  0.00000000000E+00 -0.00000000000E+00 -0.31841588294E+03  0.31841588294E+03  0.00000000000E+00 0.  1.
        -13    1    1    2    0    0 -0.13618824913E+03  0.14435243268E+03 -0.21183792467E+02  0.19958363723E+03  0.10566000000E+00 0.  1.
         13    1    1    2    0    0  0.10002827475E+03  0.37819984939E+02 -0.11576942533E+02  0.10756413795E+03  0.10566000000E+00 0. -1.
          4    1    1    2  501    0  0.36159974375E+02 -0.18217241762E+03 -0.90375349945E+02  0.20654790574E+03  0.00000000000E+00 0.  1.
</event>
<event>
 5    1  0.4881333E-005  0.4651600E+03  0.7818608E-02  0.9686347E-01
         -4   -1    0    0    0  501 -0.00000000000E+00  0.00000000000E+00  0.55158503445E+03  0.55158503445E+03  0.00000000000E+00 0. -1.
         21   -1    0    0  501  502  0.00000000000E+00 -0.00000000000E+00 -0.11307994226E+04  0.11307994226E+04  0.00000000000E+00 0. -1.
        -13    1    1    2    0    0 -0.21627504923E+03  0.20071748796E+03  0.21951595527E+03  0.36776306595E+03  0.10566000000E+00 0.  1.
         13    1    1    2    0    0  0.31112042568E+03  0.29815562620E+03 -0.85884279814E+02  0.43939596879E+03  0.10566000000E+00 0. -1.
         -4    1    1    2    0  502 -0.94845376449E+02 -0.49887311416E+03 -0.71284606365E+03  0.87522542235E+03  0.00000000000E+00 0. -1.
</event>
<event>
 5    1  0.4881333E-005  0.1180352E+03  0.7818608E-02  0.1137746E+00
         21   -1    0    0  501  502  0.00000000000E+00  0.00000000000E+00  0.10237054866E+03  0.10237054866E+03  0.00000000000E+00 0. -1.
          4   -1    0    0  502    0 -0.00000000000E+00 -0.00000000000E+00 -0.54852393680E+03  0.54852393680E+03  0.00000000000E+00 0.  1.
        -13    1    1    2    0    0 -0.89667941821E+02 -0.63773615233E+02 -0.33194677874E+03  0.34970857706E+03  0.10566000000E+00 0.  1.
         13    1    1    2    0    0  0.88699890143E+02  0.11891888226E+03 -0.16801007228E+03  0.22413559874E+03  0.10566000000E+00 0. -1.
          4    1    1    2  501    0  0.96805167803E+00 -0.55145267029E+02  0.53803462880E+02  0.77050309653E+02  0.00000000000E+00 0.  1.
</event>
<event>
 5    1  0.4881333E-005  0.1565441E+03  0.7818608E-02  0.1106306E+00
         21   -1    0    0  501  502  0.00000000000E+00  0.00000000000E+00  0.59990593426E+03  0.59990593426E+03  0.00000000000E+00 0.  1.
         -4   -1    0    0    0  501 -0.00000000000E+00 -0.00000000000E+00 -0.12665454586E+03  0.12665454586E+03  0.00000000000E+00 0. -1.
        -13    1    1    2    0    0  0.11118384825E+03 -0.28384060840E+02  0.31376507176E+03  0.33408985984E+03  0.10566000000E+00 0.  1.
         13    1    1    2    0    0  0.50755950746E+02 -0.70511300382E+02 -0.57528472485E+02  0.10419955052E+03  0.10566000000E+00 0. -1.
         -4    1    1    2    0  502 -0.16193979900E+03  0.98895361222E+02  0.21701478912E+03  0.28827106977E+03  0.00000000000E+00 0. -1.
</event>
<event>
 5    1  0.4881333E-005  0.5320292E+03  0.7818608E-02  0.9590783E-01
         21   -1    0    0  501  502  0.00000000000E+00  0.00000000000E+00  0.65515967767E+03  0.65515967767E+03  0.00000000000E+00 0.  1.
          4   -1    0    0  502    0 -0.00000000000E+00 -0.00000000000E+00 -0.98310598128E+03  0.98310598128E+03  0.00000000000E+00 0.  1.
        -13    1    1    2    0    0 -0.20565252504E+03  0.46897906385E+03  0.17473982304E+03  0.54108071515E+03  0.10566000000E+00 0.  1.
         13    1    1    2    0    0 -0.26564133730E+03 -0.75928420415E+02 -0.38249993487E+03  0.47184388992E+03  0.10566000000E+00 0. -1.
          4    1    1    2  501    0  0.47129386234E+03 -0.39305064344E+03 -0.12018619178E+03  0.62534105389E+03  0.00000000000E+00 0.  1.
</event>
<event>
 5    1  0.4881333E-005  0.8263949E+02  0.7818608E-02  0.1196989E+00
          4   -1    0    0  502    0 -0.00000000000E+00  0.00000000000E+00  0.72428172804E+03  0.72428172804E+03  0.00000000000E+00 0.  1.
         21   -1    0    0  501  502  0.00000000000E+00 -0.00000000000E+00 -0.21793075614E+02  0.21793075614E+02  0.00000000000E+00 0. -1.
        -13    1    1    2    0    0  0.64868441431E+02  0.41660748992E+02  0.42292703613E+03  0.42989629186E+03  0.10566000000E+00 0.  1.
         13    1    1    2    0    0 -0.70977910888E+02 -0.65915288988E+02  0.27391394911E+03  0.29053666178E+03  0.10566000000E+00 0. -1.
          4    1    1    2  501    0  0.61094694574E+01  0.24254539996E+02  0.56476671822E+01  0.25641850013E+02  0.00000000000E+00 0.  1.
</event>
<event>
 5    1  0.4881333E-005  0.4454172E+03  0.7818608E-02  0.9606369E-01
         -4   -1    0    0    0  501 -0.00000000000E+00  0.00000000000E+00  0.15444018275E+04  0.15444018275E+04  0.00000000000E+00 0. -1.
         21   -1    0    0  501  502  0.00000000000E+00 -0.00000000000E+00 -0.36578101181E+03  0.36578101181E+03  0.00000000000E+00 0. -1.
        -13    1    1    2    0    0 -0.21935066282E+03 -0.30541327289E+03  0.57049898968E+03  0.68327233877E+03  0.10566000000E+00 0.  1.
         13    1    1    2    0    0  0.28960321653E+03  0.47093900506E+03  0.79450141856E+03  0.96792876017E+03  0.10566000000E+00 0. -1.
         -4    1    1    2    0  502 -0.70252553705E+02 -0.16552573217E+03 -0.18637959256E+03  0.25898174035E+03  0.00000000000E+00 0. -1.
</event>
<event>
 5    1  0.4881333E-005  0.1436856E+03  0.7818608E-02  0.1107511E+00
         -4   -1    0    0    0  501 -0.00000000000E+00  0.00000000000E+00  0.30490247030E+02  0.30490247030E+02  0.00000000000E+00 0. -1.
         21   -1    0    0  501  502  0.00000000000E+00 -0.00000000000E+00 -0.11067799477E+04  0.11067799477E+04  0.00000000000E+00 0.  1.
        -13    1    1    2    0    0  0.25399337136E+02  0.13010722745E+03 -0.37667028845E+03  0.39931633366E+03  0.10566000000E+00 0.  1.
         13    1    1    2    0    0 -0.22948780679E+02 -0.15082877081E+03 -0.28894260687E+03  0.32674731195E+03  0.10566000000E+00 0. -1.
         -4    1    1    2    0  502 -0.24505564565E+01  0.20721543360E+02 -0.41067680536E+03  0.41120654913E+03  0.00000000000E+00 0. -1.
</event>
<event>
 5    1  0.4881333E-005  0.2825654E+03  0.7818608E-02  0.1055145E+00
         21   -1    0    0  501  502  0.00000000000E+00  0.00000000000E+00  0.49048889038E+03  0.49048889038E+03  0.00000000000E+00 0.  1.
          4   -1    0    0  502    0 -0.00000000000E+00 -0.00000000000E+00 -0.91781113400E+03  0.91781113400E+03  0.00000000000E+00 0.  1.
        -13    1    1    2    0    0 -0.22209729239E+03 -0.18664412114E+03  0.41693843941E+03  0.50793789843E+03  0.10566000000E+00 0.  1.
         13    1    1    2    0    0  0.62024997910E+02  0.53778127239E+02 -0.41875152044E+03  0.42672243247E+03  0.10566000000E+00 0. -1.
          4    1    1    2  501    0  0.16007229448E+03  0.13286599390E+03 -0.42550916259E+03  0.47363969348E+03  0.00000000000E+00 0.  1.
</event>
<event>
 5    1  0.4881333E-005  0.4736735E+03  0.7818608E-02  0.9594017E-01
         21   -1    0    0  501  502  0.00000000000E+00  0.00000000000E+00  0.24568738310E+03  0.24568738310E+03  0.00000000000E+00 0.  1.
          4   -1    0    0  502    0 -0.00000000000E+00 -0.00000000000E+00 -0.20812525934E+04  0.20812525934E+04  0.00000000000E+00 0.  1.
        -13    1    1    2    0    0 -0.48024718308E+03 -0.28238441822E+03 -0.46225095497E+03  0.72391592954E+03  0.10566000000E+00 0.  1.
         13    1    1    2    0    0  0.52469023902E+02  0.38342892442E+03 -0.62128501132E+03  0.73196025507E+03  0.10566000000E+00 0. -1.
          4    1    1    2  501    0  0.42777815918E+03 -0.10104450620E+03 -0.75202924406E+03  0.87106379193E+03  0.00000000000E+00 0.  1.
</event>
<event>
 5    1  0.4881333E-005  0.1191551E+03  0.7818608E-02  0.1136256E+00
          4   -1    0    0  502    0 -0.00000000000E+00  0.00000000000E+00  0.21588477427E+03  0.21588477427E+03  0.00000000000E+00 0.  1.
         21   -1    0    0  501  502  0.00000000000E+00 -0.00000000000E+00 -0.98903708357E+02  0.98903708357E+02  0.00000000000E+00 0. -1.
        -13    1    1    2    0    0  0.23364699086E+02 -0.11797610511E+03  0.60730821916E+02  0.13473126748E+03  0.10566000000E+00 0.  1.
         13    1    1    2    0    0 -0.98545897197E+01  0.11817747811E+03  0.86595724666E+02  0.14683957220E+03  0.10566000000E+00 0. -1.
          4    1    1    2  501    0 -0.13510109366E+02 -0.20137299271E+00 -0.30345480667E+02  0.33217642949E+02  0.00000000000E+00 0.  1.
</event>
<event>
 5    1  0.4881333E-005  0.1059298E+03  0.7818608E-02  0.1155101E+00
          4   -1    0    0  502    0 -0.00000000000E+00  0.00000000000E+00  0.25048298139E+03  0.25048298139E+03  0.00000000000E+00 0.  1.
         21   -1    0    0  501  502  0.00000000000E+00 -0.00000000000E+00 -0.10477587900E+03  0.10477587900E+03  0.00000000000E+00 0.  1.
        -13    1    1    2    0    0  0.71178999498E+02  0.81995302213E+02  0.16376825533E+03  0.19649359321E+03  0.10566000000E+00 0.  1.
         13    1    1    2    0    0 -0.73492637117E+02 -0.68467295843E+02  0.33129840616E+02  0.10576642101E+03  0.10566000000E+00 0. -1.
          4    1    1    2  501    0  0.23136376198E+01 -0.13528006371E+02 -0.51190993546E+02  0.52998846172E+02  0.00000000000E+00 0.  1.
</event>
<event>
 5    1  0.4881333E-005  0.6588192E+02  0.7818608E-02  0.1245765E+00
         21   -1    0    0  501  502  0.00000000000E+00  0.00000000000E+00  0.83342476949E+03  0.83342476949E+03  0.00000000000E+00 0. -1.
         -4   -1    0    0    0  501 -0.00000000000E+00 -0.00000000000E+00 -0.10853825695E+03  0.10853825695E+03  0.00000000000E+00 0. -1.
        -13    1    1    2    0    0  0.26210238803E+02 -0.49279299492E+02  0.99788097715E+02  0.11433766477E+03  0.10566000000E+00 0.  1.
         13    1    1    2    0    0 -0.10431307377E+02 -0.15527730284E+02 -0.98853186588E+02  0.10060758542E+03  0.10566000000E+00 0. -1.
         -4    1    1    2    0  502 -0.15778931426E+02  0.64807029776E+02  0.72395160142E+03  0.72701777625E+03  0.00000000000E+00 0. -1.
</event>
<event>
 5    1  0.1549007E-004  0.4554094E+03  0.7818608E-02  0.1036652E+00
         21   -1    0    0  501  502  0.00000000000E+00  0.00000000000E+00  0.28260578161E+03  0.28260578161E+03  0.00000000000E+00 0.  1.
          4   -1    0    0  502    0 -0.00000000000E+00 -0.00000000000E+00 -0.10239830988E+04  0.10239830988E+04  0.00000000000E+00 0.  1.
        -13    1    1    2    0    0 -0.35853480356E+03  0.24686505281E+03 -0.55788535253E+03  0.70761969828E+03  0.10566000000E+00 0.  1.
         13    1    1    2    0    0 -0.12211892389E+02  0.31870337869E+02 -0.12723271623E+03  0.13173087715E+03  0.10566000000E+00 0. -1.
          4    1    1    2  501    0  0.37074669595E+03 -0.27873539067E+03 -0.56259248384E+02  0.46723830493E+03  0.00000000000E+00 0.  1.
</event>
<event>
 5    1  0.4881333E-005  0.4980986E+03  0.7818608E-02  0.9714313E-01
         21   -1    0    0  501  502  0.00000000000E+00  0.00000000000E+00  0.74824320723E+03  0.74824320723E+03  0.00000000000E+00 0.  1.
          4   -1    0    0  502    0 -0.00000000000E+00 -0.00000000000E+00 -0.10070196294E+04  0.10070196294E+04  0.00000000000E+00 0.  1.
        -13    1    1    2    0    0 -0.10416831201E+03 -0.59771546095E+03  0.26641274347E+03  0.66263909523E+03  0.10566000000E+00 0.  1.
         13    1    1    2    0    0 -0.48270640427E+02  0.21260169808E+03 -0.62892895135E+03  0.66564342839E+03  0.10566000000E+00 0. -1.
          4    1    1    2  501    0  0.15243895244E+03  0.38511376287E+03  0.10373978569E+03  0.42698031302E+03  0.00000000000E+00 0.  1.
</event>
<event>
 5    1  0.4881333E-005  0.5362435E+03  0.7818608E-02  0.9606447E-01
          4   -1    0    0  502    0 -0.00000000000E+00  0.00000000000E+00  0.10424588409E+04  0.10424588409E+04  0.00000000000E+00 0.  1.
         21   -1    0    0  501  502  0.00000000000E+00 -0.00000000000E+00 -0.77318197241E+03  0.77318197241E+03  0.00000000000E+00 0. -1.
        -13    1    1    2    0    0  0.22620171993E+03  0.76256325801E+02  0.48587779218E+03  0.54134968867E+03  0.10566000000E+00 0.  1.
         13    1    1    2    0    0 -0.51046092897E+03  0.37844556475E+03  0.11219282265E+03  0.64527408603E+03  0.10566000000E+00 0. -1.
          4    1    1    2  501    0  0.28425920904E+03 -0.45470189055E+03 -0.32879374637E+03  0.62901703859E+03  0.00000000000E+00 0.  1.
</event>
<event>
 5    1  0.4881333E-005  0.4714257E+03  0.7818608E-02  0.1029212E+00
         -4   -1    0    0    0  501 -0.00000000000E+00  0.00000000000E+00  0.29842743051E+03  0.29842743051E+03  0.00000000000E+00 0. -1.
         21   -1    0    0  501  502  0.00000000000E+00 -0.00000000000E+00 -0.81748544397E+03  0.81748544397E+03  0.00000000000E+00 0. -1.
        -13    1    1    2    0    0  0.93752903030E+01 -0.37515563577E+02 -0.48426082442E+00  0.38672461150E+02  0.10566000000E+00 0.  1.
         13    1    1    2    0    0 -0.34260012342E+03  0.34666267743E+03 -0.30560758973E+03  0.57527894674E+03  0.10566000000E+00 0. -1.
         -4    1    1    2    0  502  0.33322483311E+03 -0.30914711386E+03 -0.21296616289E+03  0.50196146660E+03  0.00000000000E+00 0. -1.
</event>
<event>
 5    1  0.5733600E-005  0.4785929E+03  0.7818608E-02  0.9541841E-01
         21   -1    0    0  501  502  0.00000000000E+00  0.00000000000E+00  0.65953857114E+03  0.65953857114E+03  0.00000000000E+00 0.  1.
         -4   -1    0    0    0  501 -0.00000000000E+00 -0.00000000000E+00 -0.18859995289E+04  0.18859995289E+04  0.00000000000E+00 0. -1.
        -13    1    1    2    0    0  0.86141985901E+03  0.17018724492E+03 -0.31548563169E+03  0.93302683070E+03  0.10566000000E+00 0.  1.
         13    1    1    2    0    0 -0.38750320793E+03 -0.10344790476E+03 -0.10418194086E+04  0.11163547360E+04  0.10566000000E+00 0. -1.
         -4    1    1    2    0  502 -0.47391665108E+03 -0.66739340161E+02  0.13084408254E+03  0.49615653340E+03  0.00000000000E+00 0. -1.
</event>
<event>
 5    1  0.4881333E-005  0.1518728E+03  0.7818608E-02  0.1099279E+00
         21   -1    0    0  501  502  0.00000000000E+00  0.00000000000E+00  0.27535469929E+02  0.27535469929E+02  0.00000000000E+00 0.  1.
         -4   -1    0    0    0  501 -0.00000000000E+00 -0.00000000000E+00 -0.15526584369E+04  0.15526584369E+04  0.00000000000E+00 0. -1.
        -13    1    1    2    0    0 -0.22656612434E+02  0.14215703824E+03 -0.64723238431E+03  0.66304729551E+03  0.10566000000E+00 0.  1.
         13    1    1    2    0    0  0.77929125374E+02 -0.14475669119E+03 -0.82280500649E+03  0.83906825592E+03  0.10566000000E+00 0. -1.
         -4    1    1    2    0  502 -0.55272512940E+02  0.25996529493E+01 -0.55085576201E+02  0.78078355436E+02  0.00000000000E+00 0. -1.
</event>
<event>
 5    1  0.4881333E-005  0.6874799E+03  0.7818608E-02  0.9141341E-01
          4   -1    0    0  502    0 -0.00000000000E+00  0.00000000000E+00  0.21410513682E+04  0.21410513682E+04  0.00000000000E+00 0.  1.
         21   -1    0    0  501  502  0.00000000000E+00 -0.00000000000E+00 -0.37361652953E+03  0.37361652953E+03  0.00000000000E+00 0. -1.
        -13    1    1    2    0    0 -0.40887428404E+03  0.69372109010E+03  0.10540092004E+04  0.13264096413E+04  0.10566000000E+00 0.  1.
         13    1    1    2    0    0  0.48160540130E+03 -0.34112888157E+03  0.43675048757E+03  0.73420955861E+03  0.10566000000E+00 0. -1.
          4    1    1    2  501    0 -0.72731117254E+02 -0.35259220853E+03  0.27667515076E+03  0.45404869781E+03  0.00000000000E+00 0.  1.
</event>
<event>
 5    1  0.4881333E-005  0.1318152E+03  0.7818608E-02  0.1173388E+00
         21   -1    0    0  501  502  0.00000000000E+00  0.00000000000E+00  0.14471306778E+03  0.14471306778E+03  0.00000000000E+00 0.  1.
          4   -1    0    0  502    0 -0.00000000000E+00 -0.00000000000E+00 -0.45229052073E+03  0.45229052073E+03  0.00000000000E+00 0.  1.
        -13    1    1    2    0    0  0.15946575546E+03  0.11113854731E+02 -0.38363795094E+03  0.41560911143E+03  0.10566000000E+00 0.  1.
         13    1    1    2    0    0 -0.32830983072E+02  0.13031874325E+02  0.21916222729E+02  0.41569642537E+02  0.10566000000E+00 0. -1.
          4    1    1    2  501    0 -0.12663477239E+03 -0.24145729056E+02  0.54144275263E+02  0.13982483454E+03  0.00000000000E+00 0.  1.
</event>
<event>
 5    1  0.4881333E-005  0.4477172E+03  0.7818608E-02  0.9832464E-01
         21   -1    0    0  501  502  0.00000000000E+00  0.00000000000E+00  0.24591801323E+03  0.24591801323E+03  0.00000000000E+00 0. -1.
         -4   -1    0    0    0  501 -0.00000000000E+00 -0.00000000000E+00 -0.15640305025E+04  0.15640305025E+04  0.00000000000E+00 0. -1.
        -13    1    1    2    0    0 -0.17474474926E+03  0.97542582818E+02 -0.33286550701E+03  0.38839379472E+03  0.10566000000E+00 0.  1.
         13    1    1    2    0    0 -0.29058811950E+03  0.90429831865E+02 -0.84844960199E+03  0.90137991323E+03  0.10566000000E+00 0. -1.
         -4    1    1    2    0  502  0.46533286875E+03 -0.18797241468E+03 -0.13679738029E+03  0.52017480781E+03  0.00000000000E+00 0. -1.
</event>
<event>
 5    1  0.4881333E-005  0.4983479E+03  0.7818608E-02  0.9756279E-01
         -4   -1    0    0    0  501 -0.00000000000E+00  0.00000000000E+00  0.19323913937E+03  0.19323913937E+03  0.00000000000E+00 0. -1.
         21   -1    0    0  501  502  0.00000000000E+00 -0.00000000000E+00 -0.20921295612E+04  0.20921295612E+04  0.00000000000E+00 0. -1.
        -13    1    1    2    0    0  0.18571218013E+03 -0.30978167190E+02 -0.84786256263E+02  0.20648821058E+03  0.10566000000E+00 0.  1.
         13    1    1    2    0    0 -0.34889851749E+03  0.43988230277E+03 -0.11819453496E+04  0.13085187948E+04  0.10566000000E+00 0. -1.
         -4    1    1    2    0  502  0.16318633735E+03 -0.40890413558E+03 -0.63215881597E+03  0.77036169518E+03  0.00000000000E+00 0. -1.
</event>
<event>
 5    1  0.4881333E-005  0.1173193E+03  0.7818608E-02  0.1138707E+00
         21   -1    0    0  501  502  0.00000000000E+00  0.00000000000E+00  0.87659749439E+02  0.87659749439E+02  0.00000000000E+00 0.  1.
         -4   -1    0    0    0  501 -0.00000000000E+00 -0.00000000000E+00 -0.36129378177E+03  0.36129378177E+03  0.00000000000E+00 0. -1.
        -13    1    1    2    0    0  0.92113365274E+02 -0.47230997685E+02  0.36201161995E+02  0.10966391612E+03  0.10566000000E+00 0.  1.
         13    1    1    2    0    0 -0.10467161164E+03  0.57809362785E+02 -0.28901108145E+03  0.31277065891E+03  0.10566000000E+00 0. -1.
         -4    1    1    2    0  502  0.12558246366E+02 -0.10578365100E+02 -0.20824112880E+02  0.26518956187E+02  0.00000000000E+00 0. -1.
</event>
<event>
 5    1  0.4881333E-005  0.3195788E+03  0.7818608E-02  0.9995359E-01
         -4   -1    0    0    0  501 -0.00000000000E+00  0.00000000000E+00  0.48052255410E+03  0.48052255410E+03  0.00000000000E+00 0. -1.
         21   -1    0    0  501  502  0.00000000000E+00 -0.00000000000E+00 -0.21990760329E+04  0.21990760329E+04  0.00000000000E+00 0. -1.
        -13    1    1    2    0    0  0.15422897479E+03  0.27481721124E+03  0.28529102610E+03  0.42509064563E+03  0.10566000000E+00 0.  1.
         13    1    1    2    0    0 -0.10927438774E+03 -0.45311518956E+03 -0.20170044549E+04  0.20701597158E+04  0.10566000000E+00 0. -1.
         -4    1    1    2    0  502 -0.44954587055E+02  0.17829797833E+03  0.13159949998E+02  0.18434822553E+03  0.00000000000E+00 0. -1.
</event>
<event>
 5    1  0.4881333E-005  0.5042676E+03  0.7818608E-02  0.9758532E-01
         -4   -1    0    0    0  501 -0.00000000000E+00  0.00000000000E+00  0.70976798469E+03  0.70976798469E+03  0.00000000000E+00 0. -1.
         21   -1    0    0  501  502  0.00000000000E+00 -0.00000000000E+00 -0.58688612628E+03  0.58688612628E+03  0.00000000000E+00 0. -1.
        -13    1    1    2    0    0 -0.18012803812E+03 -0.83259471321E+01  0.13770788182E+03  0.22688962822E+03  0.10566000000E+00 0.  1.
         13    1    1    2    0    0  0.86673788345E+02 -0.49801821788E+03  0.15309460260E+03  0.52817843522E+03  0.10566000000E+00 0. -1.
         -4    1    1    2    0  502  0.93454249778E+02  0.50634416501E+03 -0.16792062601E+03  0.54158604753E+03  0.00000000000E+00 0. -1.
</event>
<event>
 5    1  0.4881333E-005  0.2087454E+03  0.7818608E-02  0.1127615E+00
         21   -1    0    0  501  502  0.00000000000E+00  0.00000000000E+00  0.85155801020E+03  0.85155801020E+03  0.00000000000E+00 0.  1.
          4   -1    0    0  502    0 -0.00000000000E+00 -0.00000000000E+00 -0.33937488495E+03  0.33937488495E+03  0.00000000000E+00 0.  1.
        -13    1    1    2    0    0 -0.89773578640E+02 -0.18869919113E+03  0.79622056265E+03  0.82318520134E+03  0.10566000000E+00 0.  1.
         13    1    1    2    0    0  0.26719215024E+02 -0.70993038481E+01 -0.28525617413E+02  0.39724533722E+02  0.10566000000E+00 0. -1.
          4    1    1    2  501    0  0.63054363616E+02  0.19579849497E+03 -0.25551181999E+03  0.32802316009E+03  0.00000000000E+00 0.  1.
</event>
<event>
 5    1  0.4881333E-005  0.4289313E+03  0.7818608E-02  0.9819990E-01
         -4   -1    0    0    0  501 -0.00000000000E+00  0.00000000000E+00  0.80542892381E+03  0.80542892381E+03  0.00000000000E+00 0. -1.
         21   -1    0    0  501  502  0.00000000000E+00 -0.00000000000E+00 -0.10821034968E+04  0.10821034968E+04  0.00000000000E+00 0. -1.
        -13    1    1    2    0    0  0.48482788763E+02 -0.23243413455E+03  0.51677459931E+03  0.56871100337E+03  0.10566000000E+00 0.  1.
         13    1    1    2    0    0  0.37631490564E+03  0.67324716171E+02  0.23854355810E+02  0.38303337592E+03  0.10566000000E+00 0. -1.
         -4    1    1    2    0  502 -0.42479769440E+03  0.16510941838E+03 -0.81730352810E+03  0.93578804131E+03  0.00000000000E+00 0. -1.
</event>
<event>
 5    1  0.4881333E-005  0.3090998E+03  0.7818608E-02  0.1065814E+00
         -4   -1    0    0    0  501 -0.00000000000E+00  0.00000000000E+00  0.16055851979E+04  0.16055851979E+04  0.00000000000E+00 0. -1.
         21   -1    0    0  501  502  0.00000000000E+00 -0.00000000000E+00 -0.94649245655E+02  0.94649245655E+02  0.00000000000E+00 0. -1.
        -13    1    1    2    0    0  0.76069003769E+01  0.45314494660E+02  0.15539742109E+03  0.16204825826E+03  0.10566000000E+00 0.  1.
         13    1    1    2    0    0  0.23073566603E+03 -0.23350552416E+03  0.10776808915E+04  0.11265699678E+04  0.10566000000E+00 0. -1.
         -4    1    1    2    0  502 -0.23834256641E+03  0.18819102950E+03  0.27785763964E+03  0.41161621743E+03  0.00000000000E+00 0. -1.
</event>
<event>
 5    1  0.4881333E-005  0.3951100E+03  0.7818608E-02  0.9743275E-01
         21   -1    0    0  501  502  0.00000000000E+00  0.00000000000E+00  0.50237337677E+03  0.50237337677E+03  0.00000000000E+00 0.  1.
          4   -1    0    0  502    0 -0.00000000000E+00 -0.00000000000E+00 -0.74327994581E+03  0.74327994581E+03  0.00000000000E+00 0.  1.
        -13    1    1    2    0    0 -0.42272782017E+03 -0.94443872553E+02 -0.49485837572E+03  0.65764981426E+03  0.10566000000E+00 0.  1.
         13    1    1    2    0    0  0.31966293728E+03  0.21758966232E+01  0.25180042501E+02  0.32066052720E+03  0.10566000000E+00 0. -1.
          4    1    1    2  501    0  0.10306488289E+03  0.92267975930E+02  0.22877176418E+03  0.26734298112E+03  0.00000000000E+00 0.  1.
</event>
<event>
 5    1  0.4881333E-005  0.1600589E+03  0.7818608E-02  0.1091594E+00
         21   -1    0    0  501  502  0.00000000000E+00  0.00000000000E+00  0.15329320907E+03  0.15329320907E+03  0.00000000000E+00 0. -1.
          4   -1    0    0  502    0 -0.00000000000E+00 -0.00000000000E+00 -0.56450911880E+03  0.56450911880E+03  0.00000000000E+00 0.  1.
        -13    1    1    2    0    0 -0.14878999387E+03  0.66373441948E+02 -0.49816955182E+03  0.52413434308E+03  0.10566000000E+00 0.  1.
         13    1    1    2    0    0  0.12368540104E+03 -0.63028796755E+02  0.47376092334E+02  0.14668064951E+03  0.10566000000E+00 0. -1.
          4    1    1    2  501    0  0.25104592823E+02 -0.33446451934E+01  0.39577549755E+02  0.46987335282E+02  0.00000000000E+00 0.  1.
</event>
<event>
 5    1  0.4881333E-005  0.5379538E+03  0.7818608E-02  0.9595459E-01
         21   -1    0    0  501  502  0.00000000000E+00  0.00000000000E+00  0.82861423845E+03  0.82861423845E+03  0.00000000000E+00 0.  1.
          4   -1    0    0  502    0 -0.00000000000E+00 -0.00000000000E+00 -0.59003979063E+03  0.59003979063E+03  0.00000000000E+00 0.  1.
        -13    1    1    2    0    0  0.59986234808E+03 -0.23132591454E+03  0.45418764374E+02  0.64452260682E+03  0.10566000000E+00 0.  1.
         13    1    1    2    0    0 -0.11346675212E+03  0.23708252231E+03  0.79564145679E+02  0.27461480416E+03  0.10566000000E+00 0. -1.
          4    1    1    2  501    0 -0.48639559596E+03 -0.57566077724E+01  0.11359153776E+03  0.49951661810E+03  0.00000000000E+00 0.  1.
</event>
<event>
 5    1  0.4881333E-005  0.9970937E+02  0.7818608E-02  0.1165037E+00
         21   -1    0    0  501  502  0.00000000000E+00  0.00000000000E+00  0.33201845471E+02  0.33201845471E+02  0.00000000000E+00 0. -1.
          4   -1    0    0  502    0 -0.00000000000E+00 -0.00000000000E+00 -0.70682085133E+03  0.70682085133E+03  0.00000000000E+00 0.  1.
        -13    1    1    2    0    0  0.82608249691E+02  0.10537624242E+02 -0.19367041158E+03  0.21081604286E+03  0.10566000000E+00 0.  1.
         13    1    1    2    0    0 -0.10422481252E+03 -0.48645750907E+02 -0.47054273147E+03  0.48439621585E+03  0.10566000000E+00 0. -1.
          4    1    1    2  501    0  0.21616562828E+02  0.38108126665E+02 -0.94058628049E+01  0.44810438087E+02  0.00000000000E+00 0.  1.
</event>
<event>
 5    1  0.4881333E-005  0.5072307E+03  0.7818608E-02  0.9660953E-01
         21   -1    0    0  501  502  0.00000000000E+00  0.00000000000E+00  0.21756672610E+03  0.21756672610E+03  0.00000000000E+00 0. -1.
         -4   -1    0    0    0  501 -0.00000000000E+00 -0.00000000000E+00 -0.21241161177E+04  0.21241161177E+04  0.00000000000E+00 0. -1.
        -13    1    1    2    0    0  0.89267211686E+02 -0.23215795935E+03 -0.70805606425E+03  0.75047275397E+03  0.10566000000E+00 0.  1.
         13    1    1    2    0    0  0.42917307736E+03  0.29691346586E+03 -0.65223205905E+03  0.83531659061E+03  0.10566000000E+00 0. -1.
         -4    1    1    2    0  502 -0.51844028904E+03 -0.64755506508E+02 -0.54626126831E+03  0.75589349923E+03  0.00000000000E+00 0. -1.
</event>
<event>
 5    1  0.4881333E-005  0.9431518E+03  0.7818608E-02  0.8829920E-01
          4   -1    0    0  502    0 -0.00000000000E+00  0.00000000000E+00  0.28440573024E+04  0.28440573024E+04  0.00000000000E+00 0.  1.
         21   -1    0    0  501  502  0.00000000000E+00 -0.00000000000E+00 -0.61520153118E+03  0.61520153118E+03  0.00000000000E+00 0. -1.
        -13    1    1    2    0    0  0.64844973072E+03  0.61494994538E+03  0.80996655347E+03  0.12061079212E+04  0.10566000000E+00 0.  1.
         13    1    1    2    0    0 -0.73848138761E+03 -0.63826594321E+03  0.16982187946E+04  0.19587458385E+04  0.10566000000E+00 0. -1.
          4    1    1    2  501    0  0.90031656890E+02  0.23315997831E+02 -0.27932957692E+03  0.29440507391E+03  0.00000000000E+00 0.  1.
</event>
<event>
 5    1  0.4881333E-005  0.4841946E+03  0.7818608E-02  0.9634621E-01
         21   -1    0    0  501  502  0.00000000000E+00  0.00000000000E+00  0.11721879405E+04  0.11721879405E+04  0.00000000000E+00 0.  1.
          4   -1    0    0  502    0 -0.00000000000E+00 -0.00000000000E+00 -0.61825846174E+03  0.61825846174E+03  0.00000000000E+00 0.  1.
        -13    1    1    2    0    0 -0.13405687508E+03 -0.49550043643E+03  0.59603027503E+03  0.78660284018E+03  0.10566000000E+00 0.  1.
         13    1    1    2    0    0 -0.25483893382E+03  0.18297935454E+03 -0.30702167924E+03  0.43896087419E+03  0.10566000000E+00 0. -1.
          4    1    1    2  501    0  0.38889580890E+03  0.31252108189E+03  0.26492088294E+03  0.56488268784E+03  0.00000000000E+00 0.  1.
</event>
<event>
 5    1  0.4881333E-005  0.3041018E+02  0.7818608E-02  0.1407972E+00
         -4   -1    0    0    0  501 -0.00000000000E+00  0.00000000000E+00  0.51357993962E+02  0.51357993962E+02  0.00000000000E+00 0. -1.
         21   -1    0    0  501  502  0.00000000000E+00 -0.00000000000E+00 -0.97242347700E+02  0.97242347700E+02  0.00000000000E+00 0. -1.
        -13    1    1    2    0    0  0.19762646590E+02  0.18945706694E+02 -0.33728587751E+02  0.43441118748E+02  0.10566000000E+00 0.  1.
         13    1    1    2    0    0 -0.47361521026E+02 -0.10055778311E+02  0.27769740264E+02  0.55815786205E+02  0.10566000000E+00 0. -1.
         -4    1    1    2    0  502  0.27598874436E+02 -0.88899283828E+01 -0.39925506252E+02  0.49343436709E+02  0.00000000000E+00 0. -1.
</event>
<event>
 5    1  0.4881333E-005  0.8219094E+02  0.7818608E-02  0.1197942E+00
         -4   -1    0    0    0  501 -0.00000000000E+00  0.00000000000E+00  0.21663874499E+03  0.21663874499E+03  0.00000000000E+00 0. -1.
         21   -1    0    0  501  502  0.00000000000E+00 -0.00000000000E+00 -0.56648801979E+02  0.56648801979E+02  0.00000000000E+00 0.  1.
        -13    1    1    2    0    0  0.62102273529E+02 -0.59984965809E+02  0.44899628110E+02  0.97318427181E+02  0.10566000000E+00 0.  1.
         13    1    1    2    0    0 -0.43886199526E+02  0.68115689010E+02  0.12851292132E+03  0.15192540179E+03  0.10566000000E+00 0. -1.
         -4    1    1    2    0  502 -0.18216074002E+02 -0.81307232011E+01 -0.13422606423E+02  0.24043717995E+02  0.00000000000E+00 0. -1.
</event>
<event>
 5    1  0.4881333E-005  0.3354671E+03  0.7818608E-02  0.9936555E-01
         -4   -1    0    0    0  501 -0.00000000000E+00  0.00000000000E+00  0.17931449863E+04  0.17931449863E+04  0.00000000000E+00 0. -1.
         21   -1    0    0  501  502  0.00000000000E+00 -0.00000000000E+00 -0.71981652715E+03  0.71981652715E+03  0.00000000000E+00 0. -1.
        -13    1    1    2    0    0 -0.55221391868E+03  0.17629310939E+03 -0.21944816272E+03  0.61982011882E+03  0.10566000000E+00 0.  1.
         13    1    1    2    0    0  0.24429699200E+03 -0.21753741492E+03  0.14897847114E+04  0.15252744162E+04  0.10566000000E+00 0. -1.
         -4    1    1    2    0  502  0.30791692668E+03  0.41244305524E+02 -0.19700808955E+03  0.36786697843E+03  0.00000000000E+00 0. -1.
</event>
<event>
 5    1  0.4881333E-005  0.3304095E+02  0.7818608E-02  0.1382034E+00
         -4   -1    0    0    0  501 -0.00000000000E+00  0.00000000000E+00  0.14407818473E+03  0.14407818473E+03  0.00000000000E+00 0. -1.
         21   -1    0    0  501  502  0.00000000000E+00 -0.00000000000E+00 -0.31571791841E+02  0.31571791841E+02  0.00000000000E+00 0.  1.
        -13    1    1    2    0    0 -0.40300963112E+01  0.34462347236E+02  0.24064998630E+01  0.34780705268E+02  0.10566000000E+00 0.  1.
         13    1    1    2    0    0 -0.17900173960E+02 -0.28675932166E+02  0.11305135449E+03  0.11799722551E+03  0.10566000000E+00 0. -1.
         -4    1    1    2    0  502  0.21930270272E+02 -0.57864150700E+01 -0.29514614680E+01  0.22872045784E+02  0.00000000000E+00 0. -1.
</event>
<event>
 5    1  0.4881333E-005  0.4517761E+03  0.7818608E-02  0.9591145E-01
         21   -1    0    0  501  502  0.00000000000E+00  0.00000000000E+00  0.56228234252E+03  0.56228234252E+03  0.00000000000E+00 0.  1.
          4   -1    0    0  502    0 -0.00000000000E+00 -0.00000000000E+00 -0.32276241071E+04  0.32276241071E+04  0.00000000000E+00 0.  1.
        -13    1    1    2    0    0 -0.13141815851E+03  0.16953859521E+03 -0.37996027673E+03  0.43633002499E+03  0.10566000000E+00 0.  1.
         13    1    1    2    0    0 -0.43294138399E+03 -0.13107244672E+03 -0.26449155609E+04  0.26833182002E+04  0.10566000000E+00 0. -1.
          4    1    1    2  501    0  0.56435954250E+03 -0.38466148491E+02  0.35953407300E+03  0.67025822444E+03  0.00000000000E+00 0.  1.
</event>
<event>
 5    1  0.4881333E-005  0.5236848E+03  0.7818608E-02  0.9765404E-01
         21   -1    0    0  501  502  0.00000000000E+00  0.00000000000E+00  0.26138038803E+03  0.26138038803E+03  0.00000000000E+00 0. -1.
         -4   -1    0    0    0  501 -0.00000000000E+00 -0.00000000000E+00 -0.17196571643E+04  0.17196571643E+04  0.00000000000E+00 0. -1.
        -13    1    1    2    0    0  0.13435729337E+03 -0.81677934228E+02 -0.55863552764E+03  0.58034199497E+03  0.10566000000E+00 0.  1.
         13    1    1    2    0    0  0.23795207298E+03  0.46500963840E+03 -0.56847904637E+03  0.77202564087E+03  0.10566000000E+00 0. -1.
         -4    1    1    2    0  502 -0.37230936634E+03 -0.38333170417E+03 -0.33116220225E+03  0.62866991648E+03  0.00000000000E+00 0. -1.
</event>
<event>
 5    1  0.4881333E-005  0.4726789E+03  0.7818608E-02  0.9642101E-01
         21   -1    0    0  501  502  0.00000000000E+00  0.00000000000E+00  0.33037170232E+03  0.33037170232E+03  0.00000000000E+00 0.  1.
          4   -1    0    0  502    0 -0.00000000000E+00 -0.00000000000E+00 -0.14498887408E+04  0.14498887408E+04  0.00000000000E+00 0.  1.
        -13    1    1    2    0    0 -0.25679548094E+03 -0.43828071533E+02 -0.71080363715E+03  0.75703807080E+03  0.10566000000E+00 0.  1.
         13    1    1    2    0    0 -0.32339080446E+03  0.57347211738E+02 -0.27333778999E+03  0.42729834274E+03  0.10566000000E+00 0. -1.
          4    1    1    2  501    0  0.58018628540E+03 -0.13519140206E+02 -0.13537561135E+03  0.59592402961E+03  0.00000000000E+00 0.  1.
</event>
<event>
 5    1  0.4881333E-005  0.6023787E+03  0.7818608E-02  0.9396743E-01
          4   -1    0    0  502    0 -0.00000000000E+00  0.00000000000E+00  0.10149830197E+04  0.10149830197E+04  0.00000000000E+00 0.  1.
         21   -1    0    0  501  502  0.00000000000E+00 -0.00000000000E+00 -0.98275942110E+03  0.98275942110E+03  0.00000000000E+00 0.  1.
        -13    1    1    2    0    0 -0.76532814292E+03 -0.59477083259E+02 -0.55354432915E+03  0.94640161944E+03  0.10566000000E+00 0.  1.
         13    1    1    2    0    0  0.36536538236E+03  0.12323467151E+03  0.50990867994E+03  0.63928516324E+03  0.10566000000E+00 0. -1.
          4    1    1    2  501    0  0.39996276056E+03 -0.63757588256E+02  0.75859247774E+02  0.41205565809E+03  0.00000000000E+00 0.  1.
</event>
<event>
 5    1  0.4881333E-005  0.6582854E+02  0.7818608E-02  0.1238117E+00
         -4   -1    0    0    0  501 -0.00000000000E+00  0.00000000000E+00  0.11335113189E+03  0.11335113189E+03  0.00000000000E+00 0. -1.
         21   -1    0    0  501  502  0.00000000000E+00 -0.00000000000E+00 -0.19517440941E+03  0.19517440941E+03  0.00000000000E+00 0. -1.
        -13    1    1    2    0    0  0.33395246956E+02 -0.51751882855E+02  0.50381266720E+02  0.79572502152E+02  0.10566000000E+00 0.  1.
         13    1    1    2    0    0 -0.44667631797E+02  0.59346495003E+02  0.19376607876E+02  0.76763714711E+02  0.10566000000E+00 0. -1.
         -4    1    1    2    0  502  0.11272384841E+02 -0.75946121473E+01 -0.15158115212E+03  0.15218932443E+03  0.00000000000E+00 0. -1.
</event>
<event>
 5    1  0.4881333E-005  0.4824765E+03  0.7818608E-02  0.1009149E+00
         21   -1    0    0  501  502  0.00000000000E+00  0.00000000000E+00  0.55036891060E+03  0.55036891060E+03  0.00000000000E+00 0.  1.
          4   -1    0    0  502    0 -0.00000000000E+00 -0.00000000000E+00 -0.58549466287E+03  0.58549466287E+03  0.00000000000E+00 0.  1.
        -13    1    1    2    0    0 -0.29665898018E+03  0.34976986958E+03  0.14558512119E+03  0.48118660712E+03  0.10566000000E+00 0.  1.
         13    1    1    2    0    0 -0.51531386079E+02  0.44304235661E+02 -0.10257055147E+03  0.12304096164E+03  0.10566000000E+00 0. -1.
          4    1    1    2  501    0  0.34819036626E+03 -0.39407410525E+03 -0.78140321998E+02  0.53163600471E+03  0.00000000000E+00 0.  1.
</event>
<event>
 5    1  0.4881333E-005  0.4920304E+03  0.7818608E-02  0.9670875E-01
          4   -1    0    0  502    0 -0.00000000000E+00  0.00000000000E+00  0.30307216114E+04  0.30307216114E+04  0.00000000000E+00 0.  1.
         21   -1    0    0  501  502  0.00000000000E+00 -0.00000000000E+00 -0.14929989518E+03  0.14929989518E+03  0.00000000000E+00 0.  1.
        -13    1    1    2    0    0 -0.21921692890E+03  0.60527376720E+03  0.10668099873E+04  0.12459919563E+04  0.10566000000E+00 0.  1.
         13    1    1    2    0    0  0.78396876125E+02 -0.25123137185E+03  0.10105675462E+04  0.10442748915E+04  0.10566000000E+00 0. -1.
          4    1    1    2  501    0  0.14082005277E+03 -0.35404239534E+03  0.80404418278E+03  0.88975465878E+03  0.00000000000E+00 0.  1.
</event>
<event>
 5    1  0.4881333E-005  0.7112934E+03  0.7818608E-02  0.9275900E-01
         -4   -1    0    0    0  501 -0.00000000000E+00  0.00000000000E+00  0.25608471840E+04  0.25608471840E+04  0.00000000000E+00 0. -1.
         21   -1    0    0  501  502  0.00000000000E+00 -0.00000000000E+00 -0.92525622862E+03  0.92525622862E+03  0.00000000000E+00 0. -1.
        -13    1    1    2    0    0  0.26734723178E+03 -0.25420453409E+03 -0.10020227631E+03  0.38227607149E+03  0.10566000000E+00 0.  1.
         13    1    1    2    0    0  0.46497258537E+03  0.18227195470E+03  0.21852382521E+04  0.22415817630E+04  0.10566000000E+00 0. -1.
         -4    1    1    2    0  502 -0.73231981715E+03  0.71932579393E+02 -0.44944502043E+03  0.86224557811E+03  0.00000000000E+00 0. -1.
</event>
<event>
 5    1  0.4881333E-005  0.4868063E+03  0.7818608E-02  0.9507368E-01
         -4   -1    0    0    0  501 -0.00000000000E+00  0.00000000000E+00  0.24910587829E+04  0.24910587829E+04  0.00000000000E+00 0. -1.
         21   -1    0    0  501  502  0.00000000000E+00 -0.00000000000E+00 -0.30846471111E+03  0.30846471111E+03  0.00000000000E+00 0. -1.
        -13    1    1    2    0    0  0.41347938099E+03  0.18960316626E+03  0.14101760177E+04  0.14817256734E+04  0.10566000000E+00 0.  1.
         13    1    1    2    0    0 -0.39551288603E+03 -0.53070301917E+03  0.70983918784E+03  0.97053996380E+03  0.10566000000E+00 0. -1.
         -4    1    1    2    0  502 -0.17966494960E+02  0.34109985291E+03  0.62578866217E+02  0.34725785678E+03  0.00000000000E+00 0. -1.
</event>
<event>
 5    1  0.4881333E-005  0.4981224E+03  0.7818608E-02  0.9492116E-01
         21   -1    0    0  501  502  0.00000000000E+00  0.00000000000E+00  0.15162194872E+04  0.15162194872E+04  0.00000000000E+00 0.  1.
         -4   -1    0    0    0  501 -0.00000000000E+00 -0.00000000000E+00 -0.50739212190E+03  0.50739212190E+03  0.00000000000E+00 0. -1.
        -13    1    1    2    0    0  0.50389031825E+03 -0.58688062450E+02 -0.28249884032E+01  0.50730437926E+03  0.10566000000E+00 0.  1.
         13    1    1    2    0    0  0.26980019493E+03  0.18878411037E+03  0.18967336751E+03  0.38000997753E+03  0.10566000000E+00 0. -1.
         -4    1    1    2    0  502 -0.77369051318E+03 -0.13009604792E+03  0.82197898618E+03  0.11362972523E+04  0.00000000000E+00 0. -1.
</event>
<event>
 5    1  0.4881333E-005  0.3577587E+03  0.7818608E-02  0.9859662E-01
         21   -1    0    0  501  502  0.00000000000E+00  0.00000000000E+00  0.27623546493E+03  0.27623546493E+03  0.00000000000E+00 0.  1.
         -4   -1    0    0    0  501 -0.00000000000E+00 -0.00000000000E+00 -0.12767133071E+04  0.12767133071E+04  0.00000000000E+00 0. -1.
        -13    1    1    2    0    0 -0.27743872656E+03 -0.24553951480E+03 -0.56753701011E+03  0.67776114475E+03  0.10566000000E+00 0.  1.
         13    1    1    2    0    0  0.40493178205E+03 -0.18253114479E+02 -0.74319577402E+02  0.41209990907E+03  0.10566000000E+00 0. -1.
         -4    1    1    2    0  502 -0.12749305549E+03  0.26379262928E+03 -0.35862125461E+03  0.46308771817E+03  0.00000000000E+00 0. -1.
</event>
<event>
 5    1  0.4881333E-005  0.5048611E+03  0.7818608E-02  0.9738444E-01
         21   -1    0    0  501  502  0.00000000000E+00  0.00000000000E+00  0.42102963258E+03  0.42102963258E+03  0.00000000000E+00 0. -1.
         -4   -1    0    0    0  501 -0.00000000000E+00 -0.00000000000E+00 -0.95503198459E+03  0.95503198459E+03  0.00000000000E+00 0. -1.
        -13    1    1    2    0    0 -0.13728357681E+03 -0.13505184258E+03 -0.23333985312E+03  0.30254467251E+03  0.10566000000E+00 0.  1.
         13    1    1    2    0    0  0.54441376969E+03 -0.91501066847E+02 -0.79408525835E+02  0.55773158687E+03  0.10566000000E+00 0. -1.
         -4    1    1    2    0  502 -0.40713019288E+03  0.22655290943E+03 -0.22125397305E+03  0.51578535779E+03  0.00000000000E+00 0. -1.
</event>
<event>
 5    1  0.4881333E-005  0.4715593E+03  0.7818608E-02  0.1011858E+00
         21   -1    0    0  501  502  0.00000000000E+00  0.00000000000E+00  0.21326712381E+04  0.21326712381E+04  0.00000000000E+00 0. -1.
         -4   -1    0    0    0  501 -0.00000000000E+00 -0.00000000000E+00 -0.27152111474E+03  0.27152111474E+03  0.00000000000E+00 0. -1.
        -13    1    1    2    0    0 -0.49071918578E+02 -0.45211607203E+02 -0.14727502997E+03  0.16168515156E+03  0.10566000000E+00 0.  1.
         13    1    1    2    0    0  0.36127790447E+02  0.50137340856E+03  0.74083785701E+03  0.89527719373E+03  0.10566000000E+00 0. -1.
         -4    1    1    2    0  502  0.12944128131E+02 -0.45616180136E+03  0.12675872964E+04  0.13472300076E+04  0.00000000000E+00 0. -1.
</event>
<event>
 5    1  0.4881333E-005  0.7499248E+02  0.7818608E-02  0.1270871E+00
         -4   -1    0    0    0  501 -0.00000000000E+00  0.00000000000E+00  0.14949216546E+03  0.14949216546E+03  0.00000000000E+00 0. -1.
         21   -1    0    0  501  502  0.00000000000E+00 -0.00000000000E+00 -0.70383271733E+02  0.70383271733E+02  0.00000000000E+00 0.  1.
        -13    1    1    2    0    0 -0.14240947396E+02 -0.17422144750E+02  0.12200450407E+01  0.22535203225E+02  0.10566000000E+00 0.  1.
         13    1    1    2    0    0 -0.61150075456E+00  0.87602009259E+02  0.88847977860E+02  0.12477363621E+03  0.10566000000E+00 0. -1.
         -4    1    1    2    0  502  0.14852448151E+02 -0.70179864509E+02 -0.10959129169E+02  0.72566597762E+02  0.00000000000E+00 0. -1.
</event>
<event>
 5    1  0.4881333E-005  0.4638626E+03  0.7818608E-02  0.9953118E-01
         21   -1    0    0  501  502  0.00000000000E+00  0.00000000000E+00  0.25262126693E+03  0.25262126693E+03  0.00000000000E+00 0.  1.
          4   -1    0    0  502    0 -0.00000000000E+00 -0.00000000000E+00 -0.11870292662E+04  0.11870292662E+04  0.00000000000E+00 0.  1.
        -13    1    1    2    0    0  0.19431928349E+03  0.42018819030E+03 -0.53439139174E+03  0.70703060042E+03  0.10566000000E+00 0.  1.
         13    1    1    2    0    0  0.10530250512E+03 -0.57778208243E+02 -0.17261589872E+03  0.21029312539E+03  0.10566000000E+00 0. -1.
          4    1    1    2  501    0 -0.29962178861E+03 -0.36240998206E+03 -0.22740070885E+03  0.52232680736E+03  0.00000000000E+00 0.  1.
</event>
<event>
 5    1  0.4881333E-005  0.4548467E+03  0.7818608E-02  0.9680134E-01
         -4   -1    0    0    0  501 -0.00000000000E+00  0.00000000000E+00  0.25748745551E+04  0.25748745551E+04  0.00000000000E+00 0. -1.
         21   -1    0    0  501  502  0.00000000000E+00 -0.00000000000E+00 -0.37094867660E+03  0.37094867660E+03  0.00000000000E+00 0. -1.
        -13    1    1    2    0    0  0.17664144797E+03  0.26984597039E+03  0.18251367023E+04  0.18534138885E+04  0.10566000000E+00 0.  1.
         13    1    1    2    0    0 -0.51192970219E+03 -0.87718094922E+02 -0.45989667210E+02  0.52142261633E+03  0.10566000000E+00 0. -1.
         -4    1    1    2    0  502  0.33528825423E+03 -0.18212787547E+03  0.42477884340E+03  0.57098672685E+03  0.00000000000E+00 0. -1.
</event>
<event>
 5    1  0.4881333E-005  0.4711721E+03  0.7818608E-02  0.1016816E+00
         21   -1    0    0  501  502  0.00000000000E+00  0.00000000000E+00  0.20526510391E+03  0.20526510391E+03  0.00000000000E+00 0.  1.
          4   -1    0    0  502    0 -0.00000000000E+00 -0.00000000000E+00 -0.13437493551E+04  0.13437493551E+04  0.00000000000E+00 0.  1.
        -13    1    1    2    0    0  0.42484160636E+02 -0.46515905369E+03 -0.73805749914E+03  0.87344532304E+03  0.10566000000E+00 0.  1.
         13    1    1    2    0    0  0.57101666079E+02  0.11676243793E+01 -0.96171648843E+02  0.11185240642E+03  0.10566000000E+00 0. -1.
          4    1    1    2  501    0 -0.99585826715E+02  0.46399142931E+03 -0.30425510322E+03  0.56371672957E+03  0.00000000000E+00 0.  1.
</event>
<event>
 5    1  0.4881333E-005  0.3585627E+03  0.7818608E-02  0.1024854E+00
         -4   -1    0    0    0  501 -0.00000000000E+00  0.00000000000E+00  0.17627880691E+04  0.17627880691E+04  0.00000000000E+00 0. -1.
         21   -1    0    0  501  502  0.00000000000E+00 -0.00000000000E+00 -0.17621903121E+03  0.17621903121E+03  0.00000000000E+00 0. -1.
        -13    1    1    2    0    0  0.76186459688E+02  0.65746191119E+02  0.32485587968E+03  0.34008571275E+03  0.10566000000E+00 0.  1.
         13    1    1    2    0    0  0.28535327546E+02  0.34569053606E+03  0.98393434779E+02  0.36055164791E+03  0.10566000000E+00 0. -1.
         -4    1    1    2    0  502 -0.10472178723E+03 -0.41143672718E+03  0.11633197235E+04  0.12383697397E+04  0.00000000000E+00 0. -1.
</event>
<event>
 5    1  0.4881333E-005  0.5205027E+02  0.7818608E-02  0.1283659E+00
         -4   -1    0    0    0  501 -0.00000000000E+00  0.00000000000E+00  0.36810971068E+02  0.36810971068E+02  0.00000000000E+00 0. -1.
         21   -1    0    0  501  502  0.00000000000E+00 -0.00000000000E+00 -0.44529873996E+03  0.44529873996E+03  0.00000000000E+00 0.  1.
        -13    1    1    2    0    0  0.42508081191E+02 -0.93949434861E+01 -0.19712955374E+03  0.20187935518E+03  0.10566000000E+00 0.  1.
         13    1    1    2    0    0 -0.51476299062E+02 -0.14424947652E+02  0.12523398686E+02  0.54906603961E+02  0.10566000000E+00 0. -1.
         -4    1    1    2    0  502  0.89682178709E+01  0.23819891139E+02 -0.22388161384E+03  0.22532375188E+03  0.00000000000E+00 0. -1.
</event>
<event>
 5    1  0.4881333E-005  0.3108311E+03  0.7818608E-02  0.1002932E+00
          4   -1    0    0  502    0 -0.00000000000E+00  0.00000000000E+00  0.78472858510E+03  0.78472858510E+03  0.00000000000E+00 0.  1.
         21   -1    0    0  501  502  0.00000000000E+00 -0.00000000000E+00 -0.24426134945E+03  0.24426134945E+03  0.00000000000E+00 0.  1.
        -13    1    1    2    0    0 -0.45118213015E+02 -0.32556630145E+03  0.39656669694E+03  0.51506720539E+03  0.10566000000E+00 0.  1.
         13    1    1    2    0    0  0.88308259784E+02  0.27935676957E+03  0.25346895386E+03  0.38740815065E+03  0.10566000000E+00 0. -1.
          4    1    1    2  501    0 -0.43190046769E+02  0.46209531881E+02 -0.10956841515E+03  0.12651457851E+03  0.00000000000E+00 0.  1.
</event>
<event>
 5    1  0.4881333E-005  0.2933523E+02  0.7818608E-02  0.1410328E+00
         -4   -1    0    0    0  501 -0.00000000000E+00  0.00000000000E+00  0.58161106248E+02  0.58161106248E+02  0.00000000000E+00 0. -1.
         21   -1    0    0  501  502  0.00000000000E+00 -0.00000000000E+00 -0.98964464947E+02  0.98964464947E+02  0.00000000000E+00 0.  1.
        -13    1    1    2    0    0  0.20226554862E+02  0.15539904041E+02 -0.61247920697E+02  0.66346975009E+02  0.10566000000E+00 0.  1.
         13    1    1    2    0    0 -0.29572615411E+02 -0.36693657303E+01  0.49644536524E+02  0.57901597541E+02  0.10566000000E+00 0. -1.
         -4    1    1    2    0  502  0.93460605490E+01 -0.11870538311E+02 -0.29199974526E+02  0.32876998645E+02  0.00000000000E+00 0. -1.
</event>
<event>
 5    1  0.4881333E-005  0.5065625E+03  0.7818608E-02  0.9738674E-01
          4   -1    0    0  502    0 -0.00000000000E+00  0.00000000000E+00  0.21298759515E+04  0.21298759515E+04  0.00000000000E+00 0.  1.
         21   -1    0    0  501  502  0.00000000000E+00 -0.00000000000E+00 -0.18568448632E+03  0.18568448632E+03  0.00000000000E+00 0.  1.
        -13    1    1    2    0    0  0.54504239149E+03 -0.28164013262E+02  0.70854368537E+03  0.89437049672E+03  0.10566000000E+00 0.  1.
         13    1    1    2    0    0 -0.82175088693E+02  0.17185569003E+03  0.54598310284E+03  0.57826004802E+03  0.10566000000E+00 0. -1.
          4    1    1    2  501    0 -0.46286730280E+03 -0.14369167676E+03  0.68966467697E+03  0.84292989307E+03  0.00000000000E+00 0.  1.
</event>
<event>
 5    1  0.4881333E-005  0.3675976E+02  0.7818608E-02  0.1357616E+00
         21   -1    0    0  501  502  0.00000000000E+00  0.00000000000E+00  0.22232393606E+02  0.22232393606E+02  0.00000000000E+00 0. -1.
          4   -1    0    0  502    0 -0.00000000000E+00 -0.00000000000E+00 -0.21382427085E+03  0.21382427085E+03  0.00000000000E+00 0.  1.
        -13    1    1    2    0    0  0.23396016742E+02  0.26366785041E+02 -0.12219999010E+03  0.12718266272E+03  0.10566000000E+00 0.  1.
         13    1    1    2    0    0 -0.12859346880E+02 -0.40357350776E+02 -0.78451121134E+02  0.89155303460E+02  0.10566000000E+00 0. -1.
          4    1    1    2  501    0 -0.10536669862E+02  0.13990565735E+02  0.90592339852E+01  0.19718698278E+02  0.00000000000E+00 0.  1.
</event>
<event>
 5    1  0.4881333E-005  0.1957585E+02  0.7818608E-02  0.1518975E+00
         -4   -1    0    0    0  501 -0.00000000000E+00  0.00000000000E+00  0.32096149788E+02  0.32096149788E+02  0.00000000000E+00 0. -1.
         21   -1    0    0  501  502  0.00000000000E+00 -0.00000000000E+00 -0.18033836258E+03  0.18033836258E+03  0.00000000000E+00 0.  1.
        -13    1    1    2    0    0 -0.13576798182E+02  0.32175784947E+02 -0.11454879017E+03  0.11975411090E+03  0.10566000000E+00 0.  1.
         13    1    1    2    0    0 -0.30516641510E+00 -0.18373434970E+02  0.24875282589E+02  0.30926802082E+02  0.10566000000E+00 0. -1.
         -4    1    1    2    0  502  0.13881964597E+02 -0.13802349977E+02 -0.58568705216E+02  0.61753599382E+02  0.00000000000E+00 0. -1.
</event>
<event>
 5    1  0.4881333E-005  0.4584650E+03  0.7818608E-02  0.9846262E-01
         21   -1    0    0  501  502  0.00000000000E+00  0.00000000000E+00  0.27886048683E+03  0.27886048683E+03  0.00000000000E+00 0.  1.
          4   -1    0    0  502    0 -0.00000000000E+00 -0.00000000000E+00 -0.14299247979E+04  0.14299247979E+04  0.00000000000E+00 0.  1.
        -13    1    1    2    0    0  0.56433692446E+03 -0.13282149955E+03 -0.54003739809E+03  0.79231188149E+03  0.10566000000E+00 0.  1.
         13    1    1    2    0    0 -0.17690751122E+03  0.18467103247E+02 -0.44591114960E+03  0.48007714581E+03  0.10566000000E+00 0. -1.
          4    1    1    2  501    0 -0.38742941324E+03  0.11435439630E+03 -0.16511576339E+03  0.43639625745E+03  0.00000000000E+00 0.  1.
</event>
<event>
 5    1  0.4881333E-005  0.2456992E+03  0.7818608E-02  0.1058804E+00
         21   -1    0    0  501  502  0.00000000000E+00  0.00000000000E+00  0.59670728242E+02  0.59670728242E+02  0.00000000000E+00 0.  1.
          4   -1    0    0  502    0 -0.00000000000E+00 -0.00000000000E+00 -0.19329957123E+04  0.19329957123E+04  0.00000000000E+00 0.  1.
        -13    1    1    2    0    0 -0.27498472574E+03  0.12500996618E+03 -0.97489619294E+03  0.10206207372E+04  0.10566000000E+00 0.  1.
         13    1    1    2    0    0  0.10853762133E+03  0.28243627419E+02 -0.51299253449E+03  0.52510900711E+03  0.10566000000E+00 0. -1.
          4    1    1    2  501    0  0.16644710440E+03 -0.15325359360E+03 -0.38543625659E+03  0.44693669620E+03  0.00000000000E+00 0.  1.
</event>
<event>
 5    1  0.4881333E-005  0.4068728E+03  0.7818608E-02  0.9799053E-01
         21   -1    0    0  501  502  0.00000000000E+00  0.00000000000E+00  0.48633737532E+03  0.48633737532E+03  0.00000000000E+00 0.  1.
          4   -1    0    0  502    0 -0.00000000000E+00 -0.00000000000E+00 -0.16943389219E+04  0.16943389219E+04  0.00000000000E+00 0.  1.
        -13    1    1    2    0    0 -0.41470552961E+03  0.61850410569E+02 -0.37275847000E+03  0.56103033581E+03  0.10566000000E+00 0.  1.
         13    1    1    2    0    0  0.57206071336E+02 -0.29322883882E+03 -0.10853980661E+04  0.11257640337E+04  0.10566000000E+00 0. -1.
          4    1    1    2  501    0  0.35749945828E+03  0.23137842825E+03  0.25015498953E+03  0.49388192771E+03  0.00000000000E+00 0.  1.
</event>
<event>
 5    1  0.4881333E-005  0.4703026E+03  0.7818608E-02  0.9635083E-01
         -4   -1    0    0    0  501 -0.00000000000E+00  0.00000000000E+00  0.16567814417E+04  0.16567814417E+04  0.00000000000E+00 0. -1.
         21   -1    0    0  501  502  0.00000000000E+00 -0.00000000000E+00 -0.36959927921E+03  0.36959927921E+03  0.00000000000E+00 0. -1.
        -13    1    1    2    0    0 -0.82172006171E+02  0.33177377014E+03  0.73356790501E+03  0.80928854902E+03  0.10566000000E+00 0.  1.
         13    1    1    2    0    0 -0.13287264030E+02 -0.69792969856E+03  0.42590640634E+03  0.81772776255E+03  0.10566000000E+00 0. -1.
         -4    1    1    2    0  502  0.95459270201E+02  0.36615592842E+03  0.12770785111E+03  0.39936440930E+03  0.00000000000E+00 0. -1.
</event>
<event>
 5    1  0.4881333E-005  0.1618661E+03  0.7818608E-02  0.1092688E+00
         -4   -1    0    0    0  501 -0.00000000000E+00  0.00000000000E+00  0.21151626675E+03  0.21151626675E+03  0.00000000000E+00 0. -1.
         21   -1    0    0  501  502  0.00000000000E+00 -0.00000000000E+00 -0.98559668385E+03  0.98559668385E+03  0.00000000000E+00 0.  1.
        -13    1    1    2    0    0 -0.22528642961E+03 -0.17027538383E+03 -0.36414045945E+03  0.46081012041E+03  0.10566000000E+00 0.  1.
         13    1    1    2    0    0  0.13679631110E+03  0.34738958835E+02  0.11808676345E+03  0.18402315305E+03  0.10566000000E+00 0. -1.
         -4    1    1    2    0  502  0.88490118504E+02  0.13553642499E+03 -0.52802672110E+03  0.55227967713E+03  0.00000000000E+00 0. -1.
</event>
<event>
 5    1  0.4881333E-005  0.9000540E+02  0.7818608E-02  0.1182243E+00
         21   -1    0    0  501  502  0.00000000000E+00  0.00000000000E+00  0.53918347494E+03  0.53918347494E+03  0.00000000000E+00 0. -1.
         -4   -1    0    0    0  501 -0.00000000000E+00 -0.00000000000E+00 -0.14425586917E+03  0.14425586917E+03  0.00000000000E+00 0. -1.
        -13    1    1    2    0    0 -0.79369592894E+02 -0.12434005729E+02 -0.29075258037E+02  0.85437220042E+02  0.10566000000E+00 0.  1.
         13    1    1    2    0    0  0.10091766873E+03 -0.43556742910E+01 -0.57160964464E+02  0.11606349462E+03  0.10566000000E+00 0. -1.
         -4    1    1    2    0  502 -0.21548075836E+02  0.16789680020E+02  0.48116382827E+03  0.48193862945E+03  0.00000000000E+00 0. -1.
</event>
<event>
 5    1  0.4881333E-005  0.4317324E+03  0.7818608E-02  0.9641638E-01
         21   -1    0    0  501  502  0.00000000000E+00  0.00000000000E+00  0.10875988724E+04  0.10875988724E+04  0.00000000000E+00 0. -1.
         -4   -1    0    0    0  501 -0.00000000000E+00 -0.00000000000E+00 -0.60157738927E+03  0.60157738927E+03  0.00000000000E+00 0. -1.
        -13    1    1    2    0    0  0.19054763466E+03  0.31957259036E+03 -0.18378562690E+03  0.41498458936E+03  0.10566000000E+00 0.  1.
         13    1    1    2    0    0 -0.36941974022E+03 -0.47305940180E+03  0.39792089029E+02  0.60153101633E+03  0.10566000000E+00 0. -1.
         -4    1    1    2    0  502  0.17887210556E+03  0.15348681144E+03  0.63001502104E+03  0.67266065603E+03  0.00000000000E+00 0. -1.
</event>
<event>
 5    1  0.4881333E-005  0.3104978E+03  0.7818608E-02  0.1003064E+00
          4   -1    0    0  502    0 -0.00000000000E+00  0.00000000000E+00  0.26284009530E+04  0.26284009530E+04  0.00000000000E+00 0.  1.
         21   -1    0    0  501  502  0.00000000000E+00 -0.00000000000E+00 -0.51046370216E+02  0.51046370216E+02  0.00000000000E+00 0. -1.
        -13    1    1    2    0    0  0.25079119492E+03 -0.18965968041E+03  0.15716777901E+04  0.16028219193E+04  0.10566000000E+00 0.  1.
         13    1    1    2    0    0 -0.23603618300E+03  0.19310883358E+03  0.10143248472E+04  0.10591784591E+04  0.10566000000E+00 0. -1.
          4    1    1    2  501    0 -0.14755011923E+02 -0.34491531738E+01 -0.86480546160E+01  0.17446944807E+02  0.00000000000E+00 0.  1.
</event>
<event>
 5    1  0.4881333E-005  0.5568387E+02  0.7818608E-02  0.1270231E+00
         21   -1    0    0  501  502  0.00000000000E+00  0.00000000000E+00  0.13022932792E+03  0.13022932792E+03  0.00000000000E+00 0. -1.
          4   -1    0    0  502    0 -0.00000000000E+00 -0.00000000000E+00 -0.67814702147E+02  0.67814702147E+02  0.00000000000E+00 0.  1.
        -13    1    1    2    0    0  0.54648675446E+02  0.66671317801E+01 -0.42784053130E+02  0.69723846282E+02  0.10566000000E+00 0.  1.
         13    1    1    2    0    0 -0.61143024152E+02  0.34203827298E+01  0.91608595065E+02  0.11019216975E+03  0.10566000000E+00 0. -1.
          4    1    1    2  501    0  0.64943487059E+01 -0.10087514510E+02  0.13590083835E+02  0.18128014032E+02  0.00000000000E+00 0.  1.
</event>
<event>
 5    1  0.4881333E-005  0.3966691E+03  0.7818608E-02  0.1020160E+00
         -4   -1    0    0    0  501 -0.00000000000E+00  0.00000000000E+00  0.45813865164E+04  0.45813865164E+04  0.00000000000E+00 0. -1.
         21   -1    0    0  501  502  0.00000000000E+00 -0.00000000000E+00 -0.62279040600E+02  0.62279040600E+02  0.00000000000E+00 0. -1.
        -13    1    1    2    0    0 -0.51496712616E+02 -0.69024371606E+02  0.18476132124E+03  0.20384560892E+03  0.10566000000E+00 0.  1.
         13    1    1    2    0    0 -0.37356290198E+03 -0.80853545263E+02  0.92565673576E+03  0.10014624013E+04  0.10566000000E+00 0. -1.
         -4    1    1    2    0  502  0.42505961460E+03  0.14987791687E+03  0.34086894188E+04  0.34383575468E+04  0.00000000000E+00 0. -1.
</event>
<event>
 5    1  0.4881333E-005  0.1249106E+03  0.7818608E-02  0.1128875E+00
         -4   -1    0    0    0  501 -0.00000000000E+00  0.00000000000E+00  0.94803729302E+02  0.94803729302E+02  0.00000000000E+00 0. -1.
         21   -1    0    0  501  502  0.00000000000E+00 -0.00000000000E+00 -0.45560156977E+03  0.45560156977E+03  0.00000000000E+00 0.  1.
        -13    1    1    2    0    0  0.11069433085E+03 -0.50589696481E+02 -0.34294457185E+03  0.36390045726E+03  0.10566000000E+00 0.  1.
         13    1    1    2    0    0 -0.11815679823E+03  0.41973451091E+02  0.36797126084E+02  0.13067838083E+03  0.10566000000E+00 0. -1.
         -4    1    1    2    0  502  0.74624673795E+01  0.86162453905E+01 -0.54650394706E+02  0.55826460980E+02  0.00000000000E+00 0. -1.
</event>
<event>
 5    1  0.4881333E-005  0.3525124E+03  0.7818608E-02  0.1013901E+00
         21   -1    0    0  501  502  0.00000000000E+00  0.00000000000E+00  0.23795998837E+03  0.23795998837E+03  0.00000000000E+00 0. -1.
         -4   -1    0    0    0  501 -0.00000000000E+00 -0.00000000000E+00 -0.14295116198E+04  0.14295116198E+04  0.00000000000E+00 0. -1.
        -13    1    1    2    0    0  0.21643360833E+00  0.14963212203E+03 -0.12037193309E+03  0.19203966316E+03  0.10566000000E+00 0.  1.
         13    1    1    2    0    0  0.34594962770E+03 -0.89117280779E+02 -0.97880607864E+01  0.35737774404E+03  0.10566000000E+00 0. -1.
         -4    1    1    2    0  502 -0.34616606131E+03 -0.60514841253E+02 -0.10613916376E+04  0.11180542010E+04  0.00000000000E+00 0. -1.
</event>
<event>
 5    1  0.4881333E-005  0.4914842E+03  0.7818608E-02  0.9643778E-01
         21   -1    0    0  501  502  0.00000000000E+00  0.00000000000E+00  0.47623200363E+03  0.47623200363E+03  0.00000000000E+00 0. -1.
         -4   -1    0    0    0  501 -0.00000000000E+00 -0.00000000000E+00 -0.10751706297E+04  0.10751706297E+04  0.00000000000E+00 0. -1.
        -13    1    1    2    0    0 -0.21023137125E+02  0.28967573798E+03 -0.37567210368E+03  0.47485107782E+03  0.10566000000E+00 0.  1.
         13    1    1    2    0    0 -0.43752347818E+03  0.16923055485E+02 -0.28357632972E+03  0.52165959179E+03  0.10566000000E+00 0. -1.
         -4    1    1    2    0  502  0.45854661530E+03 -0.30659879346E+03  0.60309807305E+02  0.55489196373E+03  0.00000000000E+00 0. -1.
</event>
<event>
 5    1  0.4881333E-005  0.4903796E+03  0.7818608E-02  0.9688285E-01
         21   -1    0    0  501  502  0.00000000000E+00  0.00000000000E+00  0.20523406245E+03  0.20523406245E+03  0.00000000000E+00 0. -1.
         -4   -1    0    0    0  501 -0.00000000000E+00 -0.00000000000E+00 -0.22547592831E+04  0.22547592831E+04  0.00000000000E+00 0. -1.
        -13    1    1    2    0    0  0.15101703529E+03  0.19941061662E+03 -0.84151513604E+03  0.87790573202E+03  0.10566000000E+00 0.  1.
         13    1    1    2    0    0 -0.42246818274E+03  0.24314581425E+03 -0.72054157488E+03  0.86993070110E+03  0.10566000000E+00 0. -1.
         -4    1    1    2    0  502  0.27145114746E+03 -0.44255643086E+03 -0.48746850973E+03  0.71215691243E+03  0.00000000000E+00 0. -1.
</event>
<event>
 5    1  0.4881333E-005  0.4492713E+03  0.7818608E-02  0.9713006E-01
         21   -1    0    0  501  502  0.00000000000E+00  0.00000000000E+00  0.74975782084E+03  0.74975782084E+03  0.00000000000E+00 0.  1.
          4   -1    0    0  502    0 -0.00000000000E+00 -0.00000000000E+00 -0.61090625172E+03  0.61090625172E+03  0.00000000000E+00 0.  1.
        -13    1    1    2    0    0 -0.69131581154E+02  0.41247302614E+03 -0.14088423914E+03  0.44131797245E+03  0.10566000000E+00 0.  1.
         13    1    1    2    0    0 -0.28816391088E+03 -0.77680641655E+02 -0.83238724372E+02  0.30984095601E+03  0.10566000000E+00 0. -1.
          4    1    1    2  501    0  0.35729549203E+03 -0.33479238449E+03  0.36297453264E+03  0.60950514410E+03  0.00000000000E+00 0.  1.
</event>
<event>
 5    1  0.4881333E-005  0.4480890E+03  0.7818608E-02  0.1005679E+00
         21   -1    0    0  501  502  0.00000000000E+00  0.00000000000E+00  0.57690776317E+03  0.57690776317E+03  0.00000000000E+00 0. -1.
         -4   -1    0    0    0  501 -0.00000000000E+00 -0.00000000000E+00 -0.61019221227E+03  0.61019221227E+03  0.00000000000E+00 0. -1.
        -13    1    1    2    0    0  0.93836268402E+02  0.14131656485E+02 -0.16781484318E+03  0.19278688166E+03  0.10566000000E+00 0.  1.
         13    1    1    2    0    0 -0.51404556955E+03 -0.76924813962E+01 -0.83537790339E+02  0.52084603812E+03  0.10566000000E+00 0. -1.
         -4    1    1    2    0  502  0.42020930115E+03 -0.64391750883E+01  0.21806818442E+03  0.47346705567E+03  0.00000000000E+00 0. -1.
</event>
<event>
 5    1  0.4881333E-005  0.1441714E+03  0.7818608E-02  0.1115732E+00
         -4   -1    0    0    0  501 -0.00000000000E+00  0.00000000000E+00  0.22468201324E+04  0.22468201324E+04  0.00000000000E+00 0. -1.
         21   -1    0    0  501  502  0.00000000000E+00 -0.00000000000E+00 -0.53310101143E+02  0.53310101143E+02  0.00000000000E+00 0. -1.
        -13    1    1    2    0    0 -0.10676541511E+03  0.41027434548E+02  0.64226178047E+03  0.65236669908E+03  0.10566000000E+00 0.  1.
         13    1    1    2    0    0  0.23355911691E+03 -0.88726031619E+02  0.14672421288E+04  0.14883620680E+04  0.10566000000E+00 0. -1.
         -4    1    1    2    0  502 -0.12679370180E+03  0.47698597071E+02  0.84006121986E+02  0.15940146646E+03  0.00000000000E+00 0. -1.
</event>
<event>
 5    1  0.4881333E-005  0.1113364E+03  0.7818608E-02  0.1147050E+00
          4   -1    0    0  502    0 -0.00000000000E+00  0.00000000000E+00  0.33440868755E+03  0.33440868755E+03  0.00000000000E+00 0.  1.
         21   -1    0    0  501  502  0.00000000000E+00 -0.00000000000E+00 -0.34979470861E+03  0.34979470861E+03  0.00000000000E+00 0. -1.
        -13    1    1    2    0    0 -0.85708984246E+02 -0.70676486538E+02  0.31136741004E+03  0.33059169821E+03  0.10566000000E+00 0.  1.
         13    1    1    2    0    0  0.96659572635E+02  0.70939041983E+02 -0.31710422888E+03  0.33901404661E+03  0.10566000000E+00 0. -1.
          4    1    1    2  501    0 -0.10950588389E+02 -0.26255544477E+00 -0.96492022095E+01  0.14597651342E+02  0.00000000000E+00 0.  1.
</event>
<event>
 5    1  0.4881333E-005  0.8589838E+02  0.7818608E-02  0.1190264E+00
         21   -1    0    0  501  502  0.00000000000E+00  0.00000000000E+00  0.31134603662E+02  0.31134603662E+02  0.00000000000E+00 0.  1.
          4   -1    0    0  502    0 -0.00000000000E+00 -0.00000000000E+00 -0.44927113803E+03  0.44927113803E+03  0.00000000000E+00 0.  1.
        -13    1    1    2    0    0 -0.44763718599E+02 -0.75190583754E+02 -0.27449541296E+03  0.28810615628E+03  0.10566000000E+00 0.  1.
         13    1    1    2    0    0  0.52480795827E+02  0.65437900119E+02 -0.15449135423E+03  0.17579517172E+03  0.10566000000E+00 0. -1.
          4    1    1    2  501    0 -0.77170772272E+01  0.97526836356E+01  0.10850232823E+02  0.16504413693E+02  0.00000000000E+00 0.  1.
</event>
<event>
 5    1  0.4881333E-005  0.4769760E+03  0.7818608E-02  0.9776834E-01
         21   -1    0    0  501  502  0.00000000000E+00  0.00000000000E+00  0.19825078559E+03  0.19825078559E+03  0.00000000000E+00 0. -1.
         -4   -1    0    0    0  501 -0.00000000000E+00 -0.00000000000E+00 -0.22117600735E+04  0.22117600735E+04  0.00000000000E+00 0. -1.
        -13    1    1    2    0    0  0.71130557413E+01  0.19996410890E+03 -0.84302426401E+03  0.86644455176E+03  0.10566000000E+00 0.  1.
         13    1    1    2    0    0  0.28938838817E+03 -0.50104149148E+03 -0.75211509514E+03  0.94892852360E+03  0.10566000000E+00 0. -1.
         -4    1    1    2    0  502 -0.29650144391E+03  0.30107738258E+03 -0.41836992878E+03  0.59463778374E+03  0.00000000000E+00 0. -1.
</event>
<event>
 5    1  0.4881333E-005  0.3554540E+03  0.7818608E-02  0.9879948E-01
         21   -1    0    0  501  502  0.00000000000E+00  0.00000000000E+00  0.33244385060E+03  0.33244385060E+03  0.00000000000E+00 0.  1.
          4   -1    0    0  502    0 -0.00000000000E+00 -0.00000000000E+00 -0.18766075169E+04  0.18766075169E+04  0.00000000000E+00 0.  1.
        -13    1    1    2    0    0  0.33514700309E+03  0.21972787076E+03 -0.14094356211E+04  0.14653029148E+04  0.10566000000E+00 0.  1.
         13    1    1    2    0    0  0.76927951925E+00 -0.36307457010E+03 -0.32718141803E+02  0.36454659950E+03  0.10566000000E+00 0. -1.
          4    1    1    2  501    0 -0.33591628261E+03  0.14334669933E+03 -0.10200990346E+03  0.37920185329E+03  0.00000000000E+00 0.  1.
</event>
<event>
 5    1  0.4881333E-005  0.4041329E+03  0.7818608E-02  0.9902344E-01
         -4   -1    0    0    0  501 -0.00000000000E+00  0.00000000000E+00  0.15669443314E+04  0.15669443314E+04  0.00000000000E+00 0. -1.
         21   -1    0    0  501  502  0.00000000000E+00 -0.00000000000E+00 -0.23790883459E+03  0.23790883459E+03  0.00000000000E+00 0. -1.
        -13    1    1    2    0    0 -0.20404289903E+02 -0.21407750238E+03  0.26389271748E+03  0.34041869745E+03  0.10566000000E+00 0.  1.
         13    1    1    2    0    0  0.40786601339E+03  0.69685300627E+02  0.11692135853E+03  0.42997830323E+03  0.10566000000E+00 0. -1.
         -4    1    1    2    0  502 -0.38746172349E+03  0.14439220175E+03  0.94822142078E+03  0.10344561653E+04  0.00000000000E+00 0. -1.
</event>
<event>
 5    1  0.4881333E-005  0.5097931E+03  0.7818608E-02  0.9634439E-01
         -4   -1    0    0    0  501 -0.00000000000E+00  0.00000000000E+00  0.61020537621E+03  0.61020537621E+03  0.00000000000E+00 0. -1.
         21   -1    0    0  501  502  0.00000000000E+00 -0.00000000000E+00 -0.79351598708E+03  0.79351598708E+03  0.00000000000E+00 0. -1.
        -13    1    1    2    0    0 -0.12492940081E+03  0.23819899356E+03  0.13167897563E+03  0.29947534040E+03  0.10566000000E+00 0.  1.
         13    1    1    2    0    0  0.19955367583E+03  0.36286731021E+03  0.15222701649E+02  0.41439847510E+03  0.10566000000E+00 0. -1.
         -4    1    1    2    0  502 -0.74624275015E+02 -0.60106630377E+03 -0.33021228815E+03  0.68984754779E+03  0.00000000000E+00 0. -1.
</event>
<event>
 5    1  0.4881333E-005  0.4664350E+03  0.7818608E-02  0.9748917E-01
         -4   -1    0    0    0  501 -0.00000000000E+00  0.00000000000E+00  0.53486555517E+03  0.53486555517E+03  0.00000000000E+00 0. -1.
         21   -1    0    0  501  502  0.00000000000E+00 -0.00000000000E+00 -0.23407430325E+04  0.23407430325E+04  0.00000000000E+00 0. -1.
        -13    1    1    2    0    0 -0.16874859549E+03  0.16430976741E+03  0.38821845990E+03  0.45407859663E+03  0.10566000000E+00 0.  1.
         13    1    1    2    0    0  0.47906973073E+03 -0.24643769455E+03 -0.19362188191E+04  0.20097717957E+04  0.10566000000E+00 0. -1.
         -4    1    1    2    0  502 -0.31032113523E+03  0.82127927132E+02 -0.25787711816E+03  0.41175819537E+03  0.00000000000E+00 0. -1.
</event>
<event>
 5    1  0.4881333E-005  0.4827554E+03  0.7818608E-02  0.9597057E-01
         21   -1    0    0  501  502  0.00000000000E+00  0.00000000000E+00  0.38412128990E+03  0.38412128990E+03  0.00000000000E+00 0. -1.
         -4   -1    0    0    0  501 -0.00000000000E+00 -0.00000000000E+00 -0.22772214008E+04  0.22772214008E+04  0.00000000000E+00 0. -1.
        -13    1    1    2    0    0 -0.43958011055E+02 -0.35895166094E+03 -0.14839907783E+04  0.15274184898E+04  0.10566000000E+00 0.  1.
         13    1    1    2    0    0  0.49241947825E+03  0.54422508222E+02 -0.85933491785E+02  0.50281540165E+03  0.10566000000E+00 0. -1.
         -4    1    1    2    0  502 -0.44846146719E+03  0.30452915272E+03 -0.32317584076E+03  0.63110879923E+03  0.00000000000E+00 0. -1.
</event>
<event>
 5    1  0.4881333E-005  0.3643060E+03  0.7818608E-02  0.1005050E+00
          4   -1    0    0  502    0 -0.00000000000E+00  0.00000000000E+00  0.37537854890E+04  0.37537854890E+04  0.00000000000E+00 0.  1.
         21   -1    0    0  501  502  0.00000000000E+00 -0.00000000000E+00 -0.99959178977E+02  0.99959178977E+02  0.00000000000E+00 0.  1.
        -13    1    1    2    0    0 -0.21206384573E+03  0.46294686687E+03  0.23492593317E+04  0.24038116180E+04  0.10566000000E+00 0.  1.
         13    1    1    2    0    0  0.11375435660E+03 -0.13978302139E+03  0.92258008219E+03  0.94001774767E+03  0.10566000000E+00 0. -1.
          4    1    1    2  501    0  0.98309489125E+02 -0.32316384548E+03  0.38198689610E+03  0.50991530226E+03  0.00000000000E+00 0.  1.
</event>
<event>
 5    1  0.4881333E-005  0.1493389E+02  0.7818608E-02  0.1617885E+00
          4   -1    0    0  502    0 -0.00000000000E+00  0.00000000000E+00  0.81452745970E+01  0.81452745970E+01  0.00000000000E+00 0.  1.
         21   -1    0    0  501  502  0.00000000000E+00 -0.00000000000E+00 -0.92653607029E+02  0.92653607029E+02  0.00000000000E+00 0.  1.
        -13    1    1    2    0    0  0.18415759904E+02  0.12474767742E+02 -0.17581643382E+02  0.28352872713E+02  0.10566000000E+00 0.  1.
         13    1    1    2    0    0 -0.11260110867E+02 -0.49290581721E+00 -0.15536000207E+02  0.19194049061E+02  0.10566000000E+00 0. -1.
          4    1    1    2  501    0 -0.71556490367E+01 -0.11981861925E+02 -0.51390688843E+02  0.53251959852E+02  0.00000000000E+00 0.  1.
</event>
<event>
 5    1  0.4881333E-005  0.6731956E+03  0.7818608E-02  0.9162795E-01
         21   -1    0    0  501  502  0.00000000000E+00  0.00000000000E+00  0.48319018922E+03  0.48319018922E+03  0.00000000000E+00 0.  1.
         -4   -1    0    0    0  501 -0.00000000000E+00 -0.00000000000E+00 -0.15925153394E+04  0.15925153394E+04  0.00000000000E+00 0. -1.
        -13    1    1    2    0    0 -0.49144397623E+03 -0.43512884054E+03 -0.40117570596E+03  0.76928294396E+03  0.10566000000E+00 0.  1.
         13    1    1    2    0    0  0.24597019919E+03  0.69070936874E+03 -0.55879514258E+03  0.92186376081E+03  0.10566000000E+00 0. -1.
         -4    1    1    2    0  502  0.24547377704E+03 -0.25558052820E+03 -0.14935430166E+03  0.38455882389E+03  0.00000000000E+00 0. -1.
</event>
<event>
 5    1  0.4881333E-005  0.4620479E+03  0.7818608E-02  0.9862823E-01
          4   -1    0    0  502    0 -0.00000000000E+00  0.00000000000E+00  0.79789118908E+03  0.79789118908E+03  0.00000000000E+00 0.  1.
         21   -1    0    0  501  502  0.00000000000E+00 -0.00000000000E+00 -0.11362156869E+04  0.11362156869E+04  0.00000000000E+00 0.  1.
        -13    1    1    2    0    0 -0.25797434970E+03 -0.39618838776E+03 -0.73553016337E+03  0.87436870717E+03  0.10566000000E+00 0.  1.
         13    1    1    2    0    0  0.15670462600E+03 -0.49420471652E+02  0.55303469550E+03  0.57692816573E+03  0.10566000000E+00 0. -1.
          4    1    1    2  501    0  0.10126972370E+03  0.44560885941E+03 -0.15582902998E+03  0.48281000311E+03  0.00000000000E+00 0.  1.
</event>
<event>
 5    1  0.4881333E-005  0.3246655E+02  0.7818608E-02  0.1402434E+00
          4   -1    0    0  502    0 -0.00000000000E+00  0.00000000000E+00  0.30290702063E+03  0.30290702063E+03  0.00000000000E+00 0.  1.
         21   -1    0    0  501  502  0.00000000000E+00 -0.00000000000E+00 -0.23346425584E+02  0.23346425584E+02  0.00000000000E+00 0. -1.
        -13    1    1    2    0    0  0.87116491827E+01 -0.15789936632E+02  0.60829588407E+02  0.63446551680E+02  0.10566000000E+00 0.  1.
         13    1    1    2    0    0 -0.27636853856E+02  0.47874469370E+02  0.21867787778E+03  0.22555661352E+03  0.10566000000E+00 0. -1.
          4    1    1    2  501    0  0.18925204674E+02 -0.32084532738E+02  0.53128859848E-01  0.37250281014E+02  0.00000000000E+00 0.  1.
</event>
<event>
 5    1  0.4881333E-005  0.8859741E+03  0.7818608E-02  0.8889805E-01
          4   -1    0    0  502    0 -0.00000000000E+00  0.00000000000E+00  0.21878297149E+04  0.21878297149E+04  0.00000000000E+00 0.  1.
         21   -1    0    0  501  502  0.00000000000E+00 -0.00000000000E+00 -0.53092731024E+03  0.53092731024E+03  0.00000000000E+00 0. -1.
        -13    1    1    2    0    0 -0.61384032229E+03 -0.74147716634E+03  0.86290607099E+03  0.12927471632E+04  0.10566000000E+00 0.  1.
         13    1    1    2    0    0  0.33002799471E+03  0.73375802379E+03  0.30473821219E+03  0.86033987697E+03  0.10566000000E+00 0. -1.
          4    1    1    2  501    0  0.28381232758E+03  0.77191425511E+01  0.48925812145E+03  0.56566998494E+03  0.00000000000E+00 0.  1.
</event>
<event>
 5    1  0.4881333E-005  0.3375650E+03  0.7818608E-02  0.9980985E-01
         21   -1    0    0  501  502  0.00000000000E+00  0.00000000000E+00  0.11580089964E+04  0.11580089964E+04  0.00000000000E+00 0. -1.
          4   -1    0    0  502    0 -0.00000000000E+00 -0.00000000000E+00 -0.30845894508E+03  0.30845894508E+03  0.00000000000E+00 0.  1.
        -13    1    1    2    0    0 -0.29829875679E+03 -0.12468558921E+03  0.56426878564E+03  0.65032908444E+03  0.10566000000E+00 0.  1.
         13    1    1    2    0    0 -0.13099230773E+03  0.25230341379E+03 -0.15817169420E+01  0.28428596569E+03  0.10566000000E+00 0. -1.
          4    1    1    2  501    0  0.42929106453E+03 -0.12761782458E+03  0.28686298260E+03  0.53185289134E+03  0.00000000000E+00 0.  1.
</event>
<event>
 5    1  0.4881333E-005  0.4405664E+03  0.7818608E-02  0.9728766E-01
         21   -1    0    0  501  502  0.00000000000E+00  0.00000000000E+00  0.44738929670E+03  0.44738929670E+03  0.00000000000E+00 0. -1.
         -4   -1    0    0    0  501 -0.00000000000E+00 -0.00000000000E+00 -0.10326194825E+04  0.10326194825E+04  0.00000000000E+00 0. -1.
        -13    1    1    2    0    0 -0.13094887132E+03 -0.26953277981E+03 -0.28436754147E+03  0.41311068262E+03  0.10566000000E+00 0.  1.
         13    1    1    2    0    0  0.26181896008E+03  0.60078030201E+03 -0.27203792391E+03  0.70957084378E+03  0.10566000000E+00 0. -1.
         -4    1    1    2    0  502 -0.13087008877E+03 -0.33124752219E+03 -0.28824720444E+02  0.35732725281E+03  0.00000000000E+00 0. -1.
</event>
<event>
 5    1  0.4881333E-005  0.1133964E+03  0.7818608E-02  0.1144114E+00
         -4   -1    0    0    0  501 -0.00000000000E+00  0.00000000000E+00  0.19170497278E+03  0.19170497278E+03  0.00000000000E+00 0. -1.
         21   -1    0    0  501  502  0.00000000000E+00 -0.00000000000E+00 -0.11305276041E+03  0.11305276041E+03  0.00000000000E+00 0. -1.
        -13    1    1    2    0    0  0.10536483330E+03  0.23888759499E+02  0.87146482329E+02  0.13880540866E+03  0.10566000000E+00 0.  1.
         13    1    1    2    0    0 -0.11941773737E+03 -0.32683505967E+02  0.27051766632E+02  0.12673048884E+03  0.10566000000E+00 0. -1.
         -4    1    1    2    0  502  0.14052904067E+02  0.87947464676E+01 -0.35546036592E+02  0.39221835699E+02  0.00000000000E+00 0. -1.
</event>
<event>
 5    1  0.4881333E-005  0.6686870E+03  0.7818608E-02  0.9169683E-01
          4   -1    0    0  502    0 -0.00000000000E+00  0.00000000000E+00  0.18048187384E+04  0.18048187384E+04  0.00000000000E+00 0.  1.
         21   -1    0    0  501  502  0.00000000000E+00 -0.00000000000E+00 -0.43211364105E+03  0.43211364105E+03  0.00000000000E+00 0. -1.
        -13    1    1    2    0    0 -0.74337308174E+03  0.25922121196E+03  0.65911362092E+03  0.10267570072E+04  0.10566000000E+00 0.  1.
         13    1    1    2    0    0  0.43860120161E+03 -0.33617696856E+03  0.16296991782E+03  0.57614683330E+03  0.10566000000E+00 0. -1.
          4    1    1    2  501    0  0.30477188013E+03  0.76955756592E+02  0.55062155858E+03  0.63402853892E+03  0.00000000000E+00 0.  1.
</event>
<event>
 5    1  0.4881333E-005  0.7740231E+02  0.7818608E-02  0.1208544E+00
          4   -1    0    0  502    0 -0.00000000000E+00  0.00000000000E+00  0.95461508957E+02  0.95461508957E+02  0.00000000000E+00 0.  1.
         21   -1    0    0  501  502  0.00000000000E+00 -0.00000000000E+00 -0.11442482325E+03  0.11442482325E+03  0.00000000000E+00 0.  1.
        -13    1    1    2    0    0 -0.29520269072E+02  0.85822092932E+02  0.28689404151E+02  0.95183879916E+02  0.10566000000E+00 0.  1.
         13    1    1    2    0    0  0.40881264185E+02 -0.48207376316E+02 -0.18769378363E+02  0.65935799235E+02  0.10566000000E+00 0. -1.
          4    1    1    2  501    0 -0.11360995113E+02 -0.37614716617E+02 -0.28883340085E+02  0.48766653059E+02  0.00000000000E+00 0.  1.
</event>
<event>
 5    1  0.4881333E-005  0.3370196E+03  0.7818608E-02  0.9930997E-01
         -4   -1    0    0    0  501 -0.00000000000E+00  0.00000000000E+00  0.25639650907E+03  0.25639650907E+03  0.00000000000E+00 0. -1.
         21   -1    0    0  501  502  0.00000000000E+00 -0.00000000000E+00 -0.12011684776E+04  0.12011684776E+04  0.00000000000E+00 0.  1.
        -13    1    1    2    0    0 -0.29059779220E+03 -0.16536159305E+03 -0.82891229293E+03  0.89380486339E+03  0.10566000000E+00 0.  1.
         13    1    1    2    0    0  0.28353651593E+03  0.18303173775E+03  0.96140059903E+02  0.35090810075E+03  0.10566000000E+00 0. -1.
         -4    1    1    2    0  502  0.70612762769E+01 -0.17670144701E+02 -0.21199973550E+03  0.21285202252E+03  0.00000000000E+00 0. -1.
</event>
<event>
 5    1  0.4881333E-005  0.2006677E+02  0.7818608E-02  0.1510705E+00
         21   -1    0    0  501  502  0.00000000000E+00  0.00000000000E+00  0.56129008064E+02  0.56129008064E+02  0.00000000000E+00 0. -1.
         -4   -1    0    0    0  501 -0.00000000000E+00 -0.00000000000E+00 -0.20378079299E+02  0.20378079299E+02  0.00000000000E+00 0. -1.
        -13    1    1    2    0    0 -0.11121503463E+02  0.16091159838E+02  0.61815043544E+01  0.20514273673E+02  0.10566000000E+00 0.  1.
         13    1    1    2    0    0 -0.11059922044E+02 -0.18310326892E+02  0.34736135230E+01  0.21671804297E+02  0.10566000000E+00 0. -1.
         -4    1    1    2    0  502  0.22181425507E+02  0.22191670546E+01  0.26095810887E+02  0.34321009394E+02  0.00000000000E+00 0. -1.
</event>
<event>
 5    1  0.4881333E-005  0.4469692E+03  0.7818608E-02  0.1007806E+00
         21   -1    0    0  501  502  0.00000000000E+00  0.00000000000E+00  0.36200698995E+03  0.36200698995E+03  0.00000000000E+00 0.  1.
          4   -1    0    0  502    0 -0.00000000000E+00 -0.00000000000E+00 -0.84882015040E+03  0.84882015040E+03  0.00000000000E+00 0.  1.
        -13    1    1    2    0    0  0.14944829172E+03 -0.48890681757E+03 -0.40556281663E+03  0.65256867650E+03  0.10566000000E+00 0.  1.
         13    1    1    2    0    0 -0.17300736617E+02  0.87561781554E+02 -0.10158895435E+03  0.13522835460E+03  0.10566000000E+00 0. -1.
          4    1    1    2  501    0 -0.13214755510E+03  0.40134503601E+03  0.20338610528E+02  0.42303010925E+03  0.00000000000E+00 0.  1.
</event>
<event>
 5    1  0.4881333E-005  0.5605729E+03  0.7818608E-02  0.9354253E-01
         21   -1    0    0  501  502  0.00000000000E+00  0.00000000000E+00  0.11199201460E+03  0.11199201460E+03  0.00000000000E+00 0. -1.
          4   -1    0    0  502    0 -0.00000000000E+00 -0.00000000000E+00 -0.54447921181E+04  0.54447921181E+04  0.00000000000E+00 0.  1.
        -13    1    1    2    0    0 -0.72046414163E+03 -0.22636605771E+03 -0.21216203937E+04  0.22520176015E+04  0.10566000000E+00 0.  1.
         13    1    1    2    0    0  0.46679466653E+03  0.58889306237E+02 -0.17382806838E+04  0.18008289641E+04  0.10566000000E+00 0. -1.
          4    1    1    2  501    0  0.25366947509E+03  0.16747675147E+03 -0.14728990260E+04  0.15039375671E+04  0.00000000000E+00 0.  1.
</event>
<event>
 5    1  0.4881333E-005  0.4381268E+03  0.7818608E-02  0.9624988E-01
         21   -1    0    0  501  502  0.00000000000E+00  0.00000000000E+00  0.16365515572E+04  0.16365515572E+04  0.00000000000E+00 0.  1.
         -4   -1    0    0    0  501 -0.00000000000E+00 -0.00000000000E+00 -0.19154357534E+03  0.19154357534E+03  0.00000000000E+00 0. -1.
        -13    1    1    2    0    0 -0.44106336904E+03  0.65885829397E+02  0.51580108099E+03  0.68185673300E+03  0.10566000000E+00 0.  1.
         13    1    1    2    0    0  0.42751685539E+03 -0.65391413138E+02  0.32278163348E+03  0.53966164644E+03  0.10566000000E+00 0. -1.
         -4    1    1    2    0  502  0.13546513655E+02 -0.49441625929E+00  0.60642526738E+03  0.60657675310E+03  0.00000000000E+00 0. -1.
</event>
<event>
 5    1  0.4881333E-005  0.4936488E+03  0.7818608E-02  0.9740125E-01
         21   -1    0    0  501  502  0.00000000000E+00  0.00000000000E+00  0.30677073956E+03  0.30677073956E+03  0.00000000000E+00 0.  1.
          4   -1    0    0  502    0 -0.00000000000E+00 -0.00000000000E+00 -0.14976738592E+04  0.14976738592E+04  0.00000000000E+00 0.  1.
        -13    1    1    2    0    0  0.50245315978E+02  0.37273772004E+03 -0.45762948777E+03  0.59235357597E+03  0.10566000000E+00 0.  1.
         13    1    1    2    0    0  0.65215293919E+02  0.19414592669E+03 -0.57782557169E+03  0.61304818560E+03  0.10566000000E+00 0. -1.
          4    1    1    2  501    0 -0.11546060990E+03 -0.56688364672E+03 -0.15544806015E+03  0.59904283717E+03  0.00000000000E+00 0.  1.
</event>
<event>
 5    1  0.6140534E-005  0.3423326E+03  0.7818608E-02  0.1008672E+00
         21   -1    0    0  501  502  0.00000000000E+00  0.00000000000E+00  0.39969227486E+03  0.39969227486E+03  0.00000000000E+00 0. -1.
         -4   -1    0    0    0  501 -0.00000000000E+00 -0.00000000000E+00 -0.17680739299E+04  0.17680739299E+04  0.00000000000E+00 0. -1.
        -13    1    1    2    0    0  0.79305343116E+02  0.17616981547E+03 -0.11072118820E+04  0.11239409700E+04  0.10566000000E+00 0.  1.
         13    1    1    2    0    0  0.28481033859E+01  0.18302256601E+03 -0.54743377852E+03  0.57722536707E+03  0.10566000000E+00 0. -1.
         -4    1    1    2    0  502 -0.82153446502E+02 -0.35919238148E+03  0.28626400546E+03  0.46659986767E+03  0.00000000000E+00 0. -1.
</event>
<event>
 5    1  0.4881333E-005  0.1869571E+02  0.7818608E-02  0.1551994E+00
         -4   -1    0    0    0  501 -0.00000000000E+00  0.00000000000E+00  0.27996833352E+02  0.27996833352E+02  0.00000000000E+00 0. -1.
         21   -1    0    0  501  502  0.00000000000E+00 -0.00000000000E+00 -0.15828562670E+03  0.15828562670E+03  0.00000000000E+00 0. -1.
        -13    1    1    2    0    0  0.29422889402E+02 -0.18695250523E+01 -0.61690539637E+01  0.30120921890E+02  0.10566000000E+00 0.  1.
         13    1    1    2    0    0 -0.95058204020E+01  0.11064103467E+02  0.11626783728E+02  0.18653907658E+02  0.10566000000E+00 0. -1.
         -4    1    1    2    0  502 -0.19917069000E+02 -0.91945784145E+01 -0.13574652311E+03  0.13750763051E+03  0.00000000000E+00 0. -1.
</event>
<event>
 5    1  0.4881333E-005  0.9033943E+02  0.7818608E-02  0.1181611E+00
         -4   -1    0    0    0  501 -0.00000000000E+00  0.00000000000E+00  0.14044852606E+03  0.14044852606E+03  0.00000000000E+00 0. -1.
         21   -1    0    0  501  502  0.00000000000E+00 -0.00000000000E+00 -0.14085225634E+03  0.14085225634E+03  0.00000000000E+00 0.  1.
        -13    1    1    2    0    0  0.56344468902E+02 -0.60250538777E+02 -0.28633155053E+02  0.87319501436E+02  0.10566000000E+00 0.  1.
         13    1    1    2    0    0 -0.68162958453E+02  0.63331074036E+02  0.90932995363E+02  0.13009932611E+03  0.10566000000E+00 0. -1.
         -4    1    1    2    0  502  0.11818489551E+02 -0.30805352587E+01 -0.62703570590E+02  0.63881954865E+02  0.00000000000E+00 0. -1.
</event>
<event>
 5    1  0.4881333E-005  0.2355492E+03  0.7818608E-02  0.1038166E+00
         21   -1    0    0  501  502  0.00000000000E+00  0.00000000000E+00  0.88008297780E+03  0.88008297780E+03  0.00000000000E+00 0. -1.
         -4   -1    0    0    0  501 -0.00000000000E+00 -0.00000000000E+00 -0.19367216833E+03  0.19367216833E+03  0.00000000000E+00 0. -1.
        -13    1    1    2    0    0 -0.27589395850E+03  0.54006397554E+02  0.10220848968E+03  0.29913333790E+03  0.10566000000E+00 0.  1.
         13    1    1    2    0    0  0.11126148376E+03  0.37657337335E+02  0.57402160158E+03  0.58591637891E+03  0.10566000000E+00 0. -1.
         -4    1    1    2    0  502  0.16463247474E+03 -0.91663734889E+02  0.10180718216E+02  0.18870542933E+03  0.00000000000E+00 0. -1.
</event>
<event>
 5    1  0.4881333E-005  0.7235949E+02  0.7818608E-02  0.1220669E+00
          4   -1    0    0  502    0 -0.00000000000E+00  0.00000000000E+00  0.16196625491E+03  0.16196625491E+03  0.00000000000E+00 0.  1.
         21   -1    0    0  501  502  0.00000000000E+00 -0.00000000000E+00 -0.92570389817E+02  0.92570389817E+02  0.00000000000E+00 0.  1.
        -13    1    1    2    0    0  0.74434578073E+02 -0.33324175935E+01  0.13128307337E+03  0.15095319784E+03  0.10566000000E+00 0.  1.
         13    1    1    2    0    0 -0.59166416153E+02  0.17067562336E+02 -0.39278176887E+02  0.73039392304E+02  0.10566000000E+00 0. -1.
          4    1    1    2  501    0 -0.15268161920E+02 -0.13735144743E+02 -0.22609031396E+02  0.30544054580E+02  0.00000000000E+00 0.  1.
</event>
<event>
 5    1  0.4881333E-005  0.2403106E+03  0.7818608E-02  0.1035540E+00
          4   -1    0    0  502    0 -0.00000000000E+00  0.00000000000E+00  0.13637397026E+04  0.13637397026E+04  0.00000000000E+00 0.  1.
         21   -1    0    0  501  502  0.00000000000E+00 -0.00000000000E+00 -0.27473686622E+03  0.27473686622E+03  0.00000000000E+00 0.  1.
        -13    1    1    2    0    0 -0.13382193894E+03 -0.20936140185E+03  0.98106700286E+03  0.10120439631E+04  0.10566000000E+00 0.  1.
         13    1    1    2    0    0  0.64152089204E+02  0.21870513491E+03  0.32574345782E+03  0.39756287309E+03  0.10566000000E+00 0. -1.
          4    1    1    2  501    0  0.69669849739E+02 -0.93437330574E+01 -0.21780762431E+03  0.22886973264E+03  0.00000000000E+00 0.  1.
</event>
<event>
 5    1  0.4881333E-005  0.5934369E+03  0.7818608E-02  0.9363750E-01
         21   -1    0    0  501  502  0.00000000000E+00  0.00000000000E+00  0.68154916068E+03  0.68154916068E+03  0.00000000000E+00 0. -1.
          4   -1    0    0  502    0 -0.00000000000E+00 -0.00000000000E+00 -0.14253806218E+04  0.14253806218E+04  0.00000000000E+00 0.  1.
        -13    1    1    2    0    0  0.10812171258E+03 -0.30639581579E+03 -0.26419250939E+03  0.41876770870E+03  0.10566000000E+00 0.  1.
         13    1    1    2    0    0 -0.50822487687E+03 -0.44721956653E+03 -0.48858821275E+03  0.83487503195E+03  0.10566000000E+00 0. -1.
          4    1    1    2  501    0  0.40010316429E+03  0.75361538233E+03  0.89492609787E+01  0.85328704187E+03  0.00000000000E+00 0.  1.
</event>
<event>
 5    1  0.4881333E-005  0.2498072E+03  0.7818608E-02  0.1071483E+00
         21   -1    0    0  501  502  0.00000000000E+00  0.00000000000E+00  0.41165241176E+03  0.41165241176E+03  0.00000000000E+00 0. -1.
         -4   -1    0    0    0  501 -0.00000000000E+00 -0.00000000000E+00 -0.89011132419E+03  0.89011132419E+03  0.00000000000E+00 0. -1.
        -13    1    1    2    0    0 -0.36550907558E+02 -0.64314552479E+02 -0.28563695369E+03  0.29506069033E+03  0.10566000000E+00 0.  1.
         13    1    1    2    0    0  0.13748581175E+03 -0.20577058259E+03  0.32830491852E+03  0.41113016403E+03  0.10566000000E+00 0. -1.
         -4    1    1    2    0  502 -0.10093490420E+03  0.27008513507E+03 -0.52112687727E+03  0.59557288158E+03  0.00000000000E+00 0. -1.
</event>
<event>
 5    1  0.4881333E-005  0.4734487E+03  0.7818608E-02  0.9717910E-01
          4   -1    0    0  502    0 -0.00000000000E+00  0.00000000000E+00  0.11776865550E+04  0.11776865550E+04  0.00000000000E+00 0.  1.
         21   -1    0    0  501  502  0.00000000000E+00 -0.00000000000E+00 -0.92904006902E+03  0.92904006902E+03  0.00000000000E+00 0.  1.
        -13    1    1    2    0    0  0.34025204372E+03  0.13922943063E+03  0.88204795876E+02  0.37806928570E+03  0.10566000000E+00 0.  1.
         13    1    1    2    0    0  0.18429124247E+03 -0.16998953540E+03  0.83601490180E+03  0.87280045336E+03  0.10566000000E+00 0. -1.
          4    1    1    2  501    0 -0.52454328619E+03  0.30760104775E+02 -0.67557321171E+03  0.85585688495E+03  0.00000000000E+00 0.  1.
</event>
<event>
 5    1  0.4881333E-005  0.3999857E+03  0.7818608E-02  0.9872187E-01
         21   -1    0    0  501  502  0.00000000000E+00  0.00000000000E+00  0.29512967090E+03  0.29512967090E+03  0.00000000000E+00 0. -1.
         -4   -1    0    0    0  501 -0.00000000000E+00 -0.00000000000E+00 -0.13854735757E+04  0.13854735757E+04  0.00000000000E+00 0. -1.
        -13    1    1    2    0    0 -0.20476636177E+03 -0.13527686705E+03 -0.12618683697E+03  0.27595692174E+03  0.10566000000E+00 0.  1.
         13    1    1    2    0    0 -0.13816874544E+03  0.37096585651E+03 -0.90052349142E+03  0.98369143469E+03  0.10566000000E+00 0. -1.
         -4    1    1    2    0  502  0.34293510720E+03 -0.23568898946E+03 -0.63633576408E+02  0.42095489016E+03  0.00000000000E+00 0. -1.
</event>
<event>
 5    1  0.4881333E-005  0.1261150E+03  0.7818608E-02  0.1127385E+00
         21   -1    0    0  501  502  0.00000000000E+00  0.00000000000E+00  0.17071956367E+03  0.17071956367E+03  0.00000000000E+00 0. -1.
         -4   -1    0    0    0  501 -0.00000000000E+00 -0.00000000000E+00 -0.76883004927E+03  0.76883004927E+03  0.00000000000E+00 0. -1.
        -13    1    1    2    0    0 -0.80914859117E+02  0.39187808518E+02  0.52606291530E+01  0.90058781612E+02  0.10566000000E+00 0.  1.
         13    1    1    2    0    0  0.10624930698E+03 -0.76223697898E+02 -0.71621419045E+03  0.72805339441E+03  0.10566000000E+00 0. -1.
         -4    1    1    2    0  502 -0.25334447865E+02  0.37035889380E+02  0.11284307570E+03  0.12143743691E+03  0.00000000000E+00 0. -1.
</event>
<event>
 5    1  0.4881333E-005  0.4089926E+03  0.7818608E-02  0.9703428E-01
         21   -1    0    0  501  502  0.00000000000E+00  0.00000000000E+00  0.90565389712E+02  0.90565389712E+02  0.00000000000E+00 0.  1.
         -4   -1    0    0    0  501 -0.00000000000E+00 -0.00000000000E+00 -0.28962502246E+04  0.28962502246E+04  0.00000000000E+00 0. -1.
        -13    1    1    2    0    0  0.36750177104E+03  0.24812504486E+03 -0.11232304423E+04  0.12075886002E+04  0.10566000000E+00 0.  1.
         13    1    1    2    0    0 -0.23812434024E+03 -0.31694112983E+03 -0.14598494248E+04  0.15127178307E+04  0.10566000000E+00 0. -1.
         -4    1    1    2    0  502 -0.12937743080E+03  0.68816084967E+02 -0.22260496779E+03  0.26650918340E+03  0.00000000000E+00 0. -1.
</event>
<event>
 5    1  0.4881333E-005  0.4623302E+03  0.7818608E-02  0.9629933E-01
         -4   -1    0    0    0  501 -0.00000000000E+00  0.00000000000E+00  0.73648019701E+03  0.73648019701E+03  0.00000000000E+00 0. -1.
         21   -1    0    0  501  502  0.00000000000E+00 -0.00000000000E+00 -0.88742841275E+03  0.88742841275E+03  0.00000000000E+00 0. -1.
        -13    1    1    2    0    0 -0.18233861737E+03  0.31780017117E+03  0.30306082189E+03  0.47548942481E+03  0.10566000000E+00 0.  1.
         13    1    1    2    0    0 -0.20075178347E+03 -0.54485453077E+03 -0.12298743531E+03  0.59354330817E+03  0.10566000000E+00 0. -1.
         -4    1    1    2    0  502  0.38309040084E+03  0.22705435960E+03 -0.33102160231E+03  0.55487587677E+03  0.00000000000E+00 0. -1.
</event>
<event>
 5    1  0.4881333E-005  0.1616471E+03  0.7818608E-02  0.1090161E+00
         21   -1    0    0  501  502  0.00000000000E+00  0.00000000000E+00  0.21373467724E+03  0.21373467724E+03  0.00000000000E+00 0. -1.
          4   -1    0    0  502    0 -0.00000000000E+00 -0.00000000000E+00 -0.18741924646E+03  0.18741924646E+03  0.00000000000E+00 0.  1.
        -13    1    1    2    0    0  0.15771466418E+03  0.30631540136E+02 -0.88501682282E+02  0.18342509501E+03  0.10566000000E+00 0.  1.
         13    1    1    2    0    0 -0.15820329564E+03 -0.47390933531E+02  0.90877485199E+02  0.18850175546E+03  0.10566000000E+00 0. -1.
          4    1    1    2  501    0  0.48863146602E+00  0.16759393394E+02  0.23939627865E+02  0.29227073236E+02  0.00000000000E+00 0.  1.
</event>
<event>
 5    1  0.4881333E-005  0.2790529E+03  0.7818608E-02  0.1016347E+00
         21   -1    0    0  501  502  0.00000000000E+00  0.00000000000E+00  0.36272339264E+02  0.36272339264E+02  0.00000000000E+00 0. -1.
          4   -1    0    0  502    0 -0.00000000000E+00 -0.00000000000E+00 -0.31661661431E+04  0.31661661431E+04  0.00000000000E+00 0.  1.
        -13    1    1    2    0    0  0.12279656795E+03 -0.26128307379E+03 -0.16179517579E+04  0.16435071475E+04  0.10566000000E+00 0.  1.
         13    1    1    2    0    0 -0.93617152770E+02  0.25372395319E+03 -0.15034988869E+04  0.15276285314E+04  0.10566000000E+00 0. -1.
          4    1    1    2  501    0 -0.29179415175E+02  0.75591206012E+01 -0.84431590202E+01  0.31302803524E+02  0.00000000000E+00 0.  1.
</event>
<event>
 5    1  0.4881333E-005  0.2077951E+02  0.7818608E-02  0.1503666E+00
         -4   -1    0    0    0  501 -0.00000000000E+00  0.00000000000E+00  0.41547315214E+01  0.41547315214E+01  0.00000000000E+00 0. -1.
         21   -1    0    0  501  502  0.00000000000E+00 -0.00000000000E+00 -0.29935850669E+03  0.29935850669E+03  0.00000000000E+00 0. -1.
        -13    1    1    2    0    0 -0.19186558328E+02 -0.34791863866E+01 -0.49647462708E+02  0.53339577011E+02  0.10566000000E+00 0.  1.
         13    1    1    2    0    0  0.22560799168E+02 -0.15933937737E+02 -0.12476261965E+03  0.12778342012E+03  0.10566000000E+00 0. -1.
         -4    1    1    2    0  502 -0.33742408403E+01  0.19413124124E+02 -0.12079369281E+03  0.12239024109E+03  0.00000000000E+00 0. -1.
</event>
<event>
 5    1  0.4881333E-005  0.4716991E+03  0.7818608E-02  0.9813914E-01
         21   -1    0    0  501  502  0.00000000000E+00  0.00000000000E+00  0.57630560403E+03  0.57630560403E+03  0.00000000000E+00 0. -1.
         -4   -1    0    0    0  501 -0.00000000000E+00 -0.00000000000E+00 -0.68514155791E+03  0.68514155791E+03  0.00000000000E+00 0. -1.
        -13    1    1    2    0    0  0.15700976974E+03  0.92558326289E+02 -0.11591305310E+03  0.21599758934E+03  0.10566000000E+00 0.  1.
         13    1    1    2    0    0  0.11505670322E+03  0.41519459545E+03  0.14231516657E+03  0.45373804650E+03  0.10566000000E+00 0. -1.
         -4    1    1    2    0  502 -0.27206647296E+03 -0.50775292174E+03 -0.13523806736E+03  0.59171152609E+03  0.00000000000E+00 0. -1.
</event>
<event>
 5    1  0.4881333E-005  0.4961845E+03  0.7818608E-02  0.9700440E-01
         21   -1    0    0  501  502  0.00000000000E+00  0.00000000000E+00  0.25829335463E+03  0.25829335463E+03  0.00000000000E+00 0. -1.
         -4   -1    0    0    0  501 -0.00000000000E+00 -0.00000000000E+00 -0.22445081963E+04  0.22445081963E+04  0.00000000000E+00 0. -1.
        -13    1    1    2    0    0  0.15426393933E+03 -0.17253949751E+03 -0.10702836798E+04  0.10950225603E+04  0.10566000000E+00 0.  1.
         13    1    1    2    0    0 -0.59658924808E+03  0.13784094327E+03 -0.63771319262E+03  0.88407973835E+03  0.10566000000E+00 0. -1.
         -4    1    1    2    0  502  0.44232530875E+03  0.34698554236E+02 -0.27821796927E+03  0.52369925229E+03  0.00000000000E+00 0. -1.
</event>
<event>
 5    1  0.4881333E-005  0.8085591E+02  0.7818608E-02  0.1200816E+00
         21   -1    0    0  501  502  0.00000000000E+00  0.00000000000E+00  0.77054924620E+02  0.77054924620E+02  0.00000000000E+00 0. -1.
         -4   -1    0    0    0  501 -0.00000000000E+00 -0.00000000000E+00 -0.17711697117E+03  0.17711697117E+03  0.00000000000E+00 0. -1.
        -13    1    1    2    0    0  0.55752144576E+02  0.69234242398E+00  0.36720255395E+02  0.66762034744E+02  0.10566000000E+00 0.  1.
         13    1    1    2    0    0 -0.86023660814E+02 -0.23319375061E+02 -0.10722262235E+03  0.13942942796E+03  0.10566000000E+00 0. -1.
         -4    1    1    2    0  502  0.30271516238E+02  0.22627032637E+02 -0.29559679589E+02  0.47980433082E+02  0.00000000000E+00 0. -1.
</event>
<event>
 5    1  0.4881333E-005  0.4567419E+03  0.7818608E-02  0.9697638E-01
         -4   -1    0    0    0  501 -0.00000000000E+00  0.00000000000E+00  0.57019540850E+03  0.57019540850E+03  0.00000000000E+00 0. -1.
         21   -1    0    0  501  502  0.00000000000E+00 -0.00000000000E+00 -0.87848993875E+03  0.87848993875E+03  0.00000000000E+00 0.  1.
        -13    1    1    2    0    0  0.21185572546E+03  0.21190391729E+03 -0.26656587395E+03  0.40105298265E+03  0.10566000000E+00 0.  1.
         13    1    1    2    0    0  0.11375177675E+03  0.22341912812E+03  0.31109916891E+03  0.39954759114E+03  0.10566000000E+00 0. -1.
         -4    1    1    2    0  502 -0.32560750221E+03 -0.43532304541E+03 -0.35282782520E+03  0.64808477346E+03  0.00000000000E+00 0. -1.
</event>
<event>
 5    1  0.4881333E-005  0.3442235E+02  0.7818608E-02  0.1390540E+00
         -4   -1    0    0    0  501 -0.00000000000E+00  0.00000000000E+00  0.55184053326E+02  0.55184053326E+02  0.00000000000E+00 0. -1.
         21   -1    0    0  501  502  0.00000000000E+00 -0.00000000000E+00 -0.20915366013E+03  0.20915366013E+03  0.00000000000E+00 0. -1.
        -13    1    1    2    0    0 -0.40775927952E+01 -0.24942089803E+02 -0.74308524767E+02  0.78488869426E+02  0.10566000000E+00 0.  1.
         13    1    1    2    0    0  0.64035756155E+01 -0.10511589911E+02  0.49956118892E+02  0.51450211679E+02  0.10566000000E+00 0. -1.
         -4    1    1    2    0  502 -0.23259828202E+01  0.35453679714E+02 -0.12961720093E+03  0.13439863235E+03  0.00000000000E+00 0. -1.
</event>
<event>
 5    1  0.4881333E-005  0.1150992E+03  0.7818608E-02  0.1155449E+00
         21   -1    0    0  501  502  0.00000000000E+00  0.00000000000E+00  0.23581172887E+03  0.23581172887E+03  0.00000000000E+00 0.  1.
          4   -1    0    0  502    0 -0.00000000000E+00 -0.00000000000E+00 -0.41627221415E+03  0.41627221415E+03  0.00000000000E+00 0.  1.
        -13    1    1    2    0    0 -0.13672001289E+03  0.13534498389E+03 -0.32152651128E+03  0.37468644919E+03  0.10566000000E+00 0.  1.
         13    1    1    2    0    0  0.52112610294E+02 -0.63146962232E+02 -0.17489188624E+02  0.83720641860E+02  0.10566000000E+00 0. -1.
          4    1    1    2  501    0  0.84607402599E+02 -0.72198021659E+02  0.15855521462E+03  0.19367685197E+03  0.00000000000E+00 0.  1.
</event>
<event>
 5    1  0.4881333E-005  0.6820823E+02  0.7818608E-02  0.1231509E+00
         -4   -1    0    0    0  501 -0.00000000000E+00  0.00000000000E+00  0.61610979856E+02  0.61610979856E+02  0.00000000000E+00 0. -1.
         21   -1    0    0  501  502  0.00000000000E+00 -0.00000000000E+00 -0.13539429007E+03  0.13539429007E+03  0.00000000000E+00 0.  1.
        -13    1    1    2    0    0 -0.19951937451E+02  0.52411281770E+02 -0.57687263533E+02  0.80454047772E+02  0.10566000000E+00 0.  1.
         13    1    1    2    0    0  0.27100081004E+02 -0.67842210291E+02  0.20771607728E+02  0.75950317572E+02  0.10566000000E+00 0. -1.
         -4    1    1    2    0  502 -0.71481435530E+01  0.15430928521E+02 -0.36867654405E+02  0.40600904578E+02  0.00000000000E+00 0. -1.
</event>
<event>
 5    1  0.4881333E-005  0.3075262E+02  0.7818608E-02  0.1398965E+00
         -4   -1    0    0    0  501 -0.00000000000E+00  0.00000000000E+00  0.17175977561E+03  0.17175977561E+03  0.00000000000E+00 0. -1.
         21   -1    0    0  501  502  0.00000000000E+00 -0.00000000000E+00 -0.15442277364E+02  0.15442277364E+02  0.00000000000E+00 0.  1.
        -13    1    1    2    0    0 -0.11483839288E+01  0.32944684504E+02  0.28782038394E+02  0.43761717526E+02  0.10566000000E+00 0.  1.
         13    1    1    2    0    0 -0.21985945906E+02 -0.23843306793E+02  0.10496924503E+03  0.10986554811E+03  0.10566000000E+00 0. -1.
         -4    1    1    2    0  502  0.23134329835E+02 -0.91013777108E+01  0.22566214822E+02  0.33574787334E+02  0.00000000000E+00 0. -1.
</event>
<event>
 5    1  0.4881333E-005  0.4200866E+03  0.7818608E-02  0.9853688E-01
          4   -1    0    0  502    0 -0.00000000000E+00  0.00000000000E+00  0.19681316032E+04  0.19681316032E+04  0.00000000000E+00 0.  1.
         21   -1    0    0  501  502  0.00000000000E+00 -0.00000000000E+00 -0.23171263184E+03  0.23171263184E+03  0.00000000000E+00 0.  1.
        -13    1    1    2    0    0 -0.32942551389E+03  0.25951251163E+03  0.13274559572E+03  0.43987420616E+03  0.10566000000E+00 0.  1.
         13    1    1    2    0    0  0.14889413353E+03  0.16932320032E+03  0.80160984288E+03  0.83271733531E+03  0.10566000000E+00 0. -1.
          4    1    1    2  501    0  0.18053138036E+03 -0.42883571195E+03  0.80206353273E+03  0.92725269354E+03  0.00000000000E+00 0.  1.
</event>
<event>
 5    1  0.4881333E-005  0.6976681E+02  0.7818608E-02  0.1227340E+00
         21   -1    0    0  501  502  0.00000000000E+00  0.00000000000E+00  0.50204984425E+03  0.50204984425E+03  0.00000000000E+00 0. -1.
          4   -1    0    0  502    0 -0.00000000000E+00 -0.00000000000E+00 -0.40255813766E+02  0.40255813766E+02  0.00000000000E+00 0.  1.
        -13    1    1    2    0    0  0.32791562634E+02 -0.60129919368E+02 -0.84676168585E+00  0.68495415559E+02  0.10566000000E+00 0.  1.
         13    1    1    2    0    0 -0.42907258872E+02  0.73494761893E+02  0.40100505401E+03  0.40993606501E+03  0.10566000000E+00 0. -1.
          4    1    1    2  501    0  0.10115696238E+02 -0.13364842524E+02  0.61635738158E+02  0.63874177446E+02  0.00000000000E+00 0.  1.
</event>
<event>
 5    1  0.4881333E-005  0.3719484E+03  0.7818608E-02  0.9813750E-01
         21   -1    0    0  501  502  0.00000000000E+00  0.00000000000E+00  0.61304530595E+03  0.61304530595E+03  0.00000000000E+00 0. -1.
         -4   -1    0    0    0  501 -0.00000000000E+00 -0.00000000000E+00 -0.18253594252E+04  0.18253594252E+04  0.00000000000E+00 0. -1.
        -13    1    1    2    0    0  0.30675277316E+03  0.18306961577E+03 -0.13265271973E+04  0.13737853414E+04  0.10566000000E+00 0.  1.
         13    1    1    2    0    0 -0.64657854101E+03 -0.20075331715E+03  0.21393319270E+03  0.71002332789E+03  0.10566000000E+00 0. -1.
         -4    1    1    2    0  502  0.33982576785E+03  0.17683701377E+02 -0.99720114667E+02  0.35459606182E+03  0.00000000000E+00 0. -1.
</event>
<event>
 5    1  0.4881333E-005  0.5530465E+02  0.7818608E-02  0.1271578E+00
         21   -1    0    0  501  502  0.00000000000E+00  0.00000000000E+00  0.14045850675E+03  0.14045850675E+03  0.00000000000E+00 0.  1.
         -4   -1    0    0    0  501 -0.00000000000E+00 -0.00000000000E+00 -0.38761760996E+02  0.38761760996E+02  0.00000000000E+00 0. -1.
        -13    1    1    2    0    0  0.53231728142E+01 -0.60164638008E+02  0.62997582026E+02  0.87274431196E+02  0.10566000000E+00 0.  1.
         13    1    1    2    0    0 -0.12150853398E+02  0.52184008510E+02  0.18315191575E+01  0.53611375742E+02  0.10566000000E+00 0. -1.
         -4    1    1    2    0  502  0.68276805835E+01  0.79806294979E+01  0.36867644575E+02  0.38334460813E+02  0.00000000000E+00 0. -1.
</event>
<event>
 5    1  0.4881333E-005  0.3482979E+02  0.7818608E-02  0.1369856E+00
         21   -1    0    0  501  502  0.00000000000E+00  0.00000000000E+00  0.27985050772E+03  0.27985050772E+03  0.00000000000E+00 0. -1.
          4   -1    0    0  502    0 -0.00000000000E+00 -0.00000000000E+00 -0.37431501507E+02  0.37431501507E+02  0.00000000000E+00 0.  1.
        -13    1    1    2    0    0 -0.32608267049E+02  0.11197600433E+02 -0.24489058897E+02  0.42289602802E+02  0.10566000000E+00 0.  1.
         13    1    1    2    0    0  0.45936464448E+02 -0.15428459147E+01  0.23049327015E+03  0.23503127002E+03  0.10566000000E+00 0. -1.
          4    1    1    2  501    0 -0.13328197398E+02 -0.96547545184E+01  0.36414794956E+02  0.39961136400E+02  0.00000000000E+00 0.  1.
</event>
<event>
 5    1  0.4881333E-005  0.1982804E+03  0.7818608E-02  0.1095573E+00
         -4   -1    0    0    0  501 -0.00000000000E+00  0.00000000000E+00  0.17923637164E+04  0.17923637164E+04  0.00000000000E+00 0. -1.
         21   -1    0    0  501  502  0.00000000000E+00 -0.00000000000E+00 -0.15839341445E+03  0.15839341445E+03  0.00000000000E+00 0. -1.
        -13    1    1    2    0    0  0.25058919671E+02  0.71211580932E+02  0.11001760728E+03  0.13342759756E+03  0.10566000000E+00 0.  1.
         13    1    1    2    0    0 -0.13811879445E+03 -0.23036311589E+03  0.15890110982E+04  0.16115521238E+04  0.10566000000E+00 0. -1.
         -4    1    1    2    0  502  0.11305987478E+03  0.15915153496E+03 -0.65058403531E+02  0.20577740944E+03  0.00000000000E+00 0. -1.
</event>
<event>
 5    1  0.4881333E-005  0.4830632E+03  0.7818608E-02  0.9930613E-01
         -4   -1    0    0    0  501 -0.00000000000E+00  0.00000000000E+00  0.60219387095E+03  0.60219387095E+03  0.00000000000E+00 0. -1.
         21   -1    0    0  501  502  0.00000000000E+00 -0.00000000000E+00 -0.23756716450E+04  0.23756716450E+04  0.00000000000E+00 0. -1.
        -13    1    1    2    0    0 -0.10853855412E+03  0.36758449751E+02  0.48754477524E+03  0.50083102978E+03  0.10566000000E+00 0.  1.
         13    1    1    2    0    0  0.18356838530E+03  0.44770733987E+03 -0.14579563903E+04  0.15361562621E+04  0.10566000000E+00 0. -1.
         -4    1    1    2    0  502 -0.75029831173E+02 -0.48446578962E+03 -0.80306615894E+03  0.94087822406E+03  0.00000000000E+00 0. -1.
</event>
<event>
 5    1  0.4881333E-005  0.7149985E+02  0.7818608E-02  0.1222846E+00
         -4   -1    0    0    0  501 -0.00000000000E+00  0.00000000000E+00  0.12330948202E+03  0.12330948202E+03  0.00000000000E+00 0. -1.
         21   -1    0    0  501  502  0.00000000000E+00 -0.00000000000E+00 -0.16315182313E+03  0.16315182313E+03  0.00000000000E+00 0. -1.
        -13    1    1    2    0    0 -0.52795129797E+02 -0.35816873006E+02 -0.70845812376E+02  0.95337896020E+02  0.10566000000E+00 0.  1.
         13    1    1    2    0    0  0.69920551093E+02  0.21024155941E+02  0.96969543898E+02  0.12138369827E+03  0.10566000000E+00 0. -1.
         -4    1    1    2    0  502 -0.17125421296E+02  0.14792717065E+02 -0.65966072634E+02  0.69739710865E+02  0.00000000000E+00 0. -1.
</event>
<event>
 5    1  0.4881333E-005  0.4726196E+03  0.7818608E-02  0.9802004E-01
          4   -1    0    0  502    0 -0.00000000000E+00  0.00000000000E+00  0.51232494974E+03  0.51232494974E+03  0.00000000000E+00 0.  1.
         21   -1    0    0  501  502  0.00000000000E+00 -0.00000000000E+00 -0.80170492195E+03  0.80170492195E+03  0.00000000000E+00 0. -1.
        -13    1    1    2    0    0 -0.37255248528E+03  0.14847671268E+03  0.18860396071E+03  0.44318410808E+03  0.10566000000E+00 0.  1.
         13    1    1    2    0    0 -0.20800686524E+02  0.18755518337E+03 -0.22891758293E+03  0.29666965856E+03  0.10566000000E+00 0. -1.
          4    1    1    2  501    0  0.39335317180E+03 -0.33603189605E+03 -0.24906634999E+03  0.57417610506E+03  0.00000000000E+00 0.  1.
</event>
<event>
 5    1  0.4881333E-005  0.7351599E+02  0.7818608E-02  0.1217793E+00
         21   -1    0    0  501  502  0.00000000000E+00  0.00000000000E+00  0.29987401163E+03  0.29987401163E+03  0.00000000000E+00 0. -1.
          4   -1    0    0  502    0 -0.00000000000E+00 -0.00000000000E+00 -0.14880733361E+03  0.14880733361E+03  0.00000000000E+00 0.  1.
        -13    1    1    2    0    0 -0.35757950308E+02  0.63579241126E+02 -0.11624845792E+03  0.13723944785E+03  0.10566000000E+00 0.  1.
         13    1    1    2    0    0  0.84549800073E+02 -0.43053670750E+02  0.10899306366E+03  0.14450531598E+03  0.10566000000E+00 0. -1.
          4    1    1    2  501    0 -0.48791849765E+02 -0.20525570377E+02  0.15832207228E+03  0.16693658141E+03  0.00000000000E+00 0.  1.
</event>
<event>
 5    1  0.4881333E-005  0.7045000E+02  0.7818608E-02  0.1225551E+00
         21   -1    0    0  501  502  0.00000000000E+00  0.00000000000E+00  0.17000066125E+02  0.17000066125E+02  0.00000000000E+00 0.  1.
         -4   -1    0    0    0  501 -0.00000000000E+00 -0.00000000000E+00 -0.52860083995E+03  0.52860083995E+03  0.00000000000E+00 0. -1.
        -13    1    1    2    0    0  0.53257680289E+02 -0.14280177166E+02 -0.87091860640E+02  0.10307913137E+03  0.10566000000E+00 0.  1.
         13    1    1    2    0    0 -0.66982162757E+02  0.42279629341E+02 -0.38005675429E+03  0.38822329248E+03  0.10566000000E+00 0. -1.
         -4    1    1    2    0  502  0.13724482468E+02 -0.27999452175E+02 -0.44452158903E+02  0.54298482228E+02  0.00000000000E+00 0. -1.
</event>
<event>
 5    1  0.4881333E-005  0.2764135E+02  0.7818608E-02  0.1447342E+00
          4   -1    0    0  502    0 -0.00000000000E+00  0.00000000000E+00  0.15034695123E+03  0.15034695123E+03  0.00000000000E+00 0.  1.
         21   -1    0    0  501  502  0.00000000000E+00 -0.00000000000E+00 -0.30348944528E+02  0.30348944528E+02  0.00000000000E+00 0.  1.
        -13    1    1    2    0    0  0.17135203514E+02  0.36769028436E+02  0.52588977595E+02  0.66416777851E+02  0.10566000000E+00 0.  1.
         13    1    1    2    0    0  0.24465279108E+01 -0.19195180661E+02  0.81959241800E+02  0.84212641212E+02  0.10566000000E+00 0. -1.
          4    1    1    2  501    0 -0.19581731425E+02 -0.17573847775E+02 -0.14550212696E+02  0.30066476693E+02  0.00000000000E+00 0.  1.
</event>
<event>
 5    1  0.4881333E-005  0.4576784E+03  0.7818608E-02  0.9754299E-01
         -4   -1    0    0    0  501 -0.00000000000E+00  0.00000000000E+00  0.12896079773E+04  0.12896079773E+04  0.00000000000E+00 0. -1.
         21   -1    0    0  501  502  0.00000000000E+00 -0.00000000000E+00 -0.36809460266E+03  0.36809460266E+03  0.00000000000E+00 0. -1.
        -13    1    1    2    0    0 -0.29768567810E+01 -0.24470719850E+03  0.44266282779E+03  0.50580714205E+03  0.10566000000E+00 0.  1.
         13    1    1    2    0    0 -0.18511987050E+03 -0.24157345009E+03  0.54710035908E+03  0.62605583801E+03  0.10566000000E+00 0. -1.
         -4    1    1    2    0  502  0.18809672728E+03  0.48628064859E+03 -0.68249812183E+02  0.52583959994E+03  0.00000000000E+00 0. -1.
</event>
<event>
 5    1  0.4881333E-005  0.3596243E+03  0.7818608E-02  0.1008512E+00
         21   -1    0    0  501  502  0.00000000000E+00  0.00000000000E+00  0.31351411637E+03  0.31351411637E+03  0.00000000000E+00 0.  1.
          4   -1    0    0  502    0 -0.00000000000E+00 -0.00000000000E+00 -0.11591822713E+04  0.11591822713E+04  0.00000000000E+00 0.  1.
        -13    1    1    2    0    0  0.37737748252E+03  0.25564625539E+03 -0.84053681861E+03  0.95617515488E+03  0.10566000000E+00 0.  1.
         13    1    1    2    0    0 -0.44760172718E+02 -0.16141426371E+03 -0.28971350915E+02  0.16999231726E+03  0.10566000000E+00 0. -1.
          4    1    1    2  501    0 -0.33261730980E+03 -0.94231991681E+02  0.23840014554E+02  0.34652891557E+03  0.00000000000E+00 0.  1.
</event>
<event>
 5    1  0.4881333E-005  0.3515461E+03  0.7818608E-02  0.1026780E+00
         -4   -1    0    0    0  501 -0.00000000000E+00  0.00000000000E+00  0.18099753568E+04  0.18099753568E+04  0.00000000000E+00 0. -1.
         21   -1    0    0  501  502  0.00000000000E+00 -0.00000000000E+00 -0.19835558788E+03  0.19835558788E+03  0.00000000000E+00 0. -1.
        -13    1    1    2    0    0  0.77925958929E+02 -0.63564282465E+02  0.53134813222E+03  0.54078065966E+03  0.10566000000E+00 0.  1.
         13    1    1    2    0    0 -0.39597485593E+03 -0.68062232798E+02  0.10473477797E+04  0.11217691103E+04  0.10566000000E+00 0. -1.
         -4    1    1    2    0  502  0.31804889700E+03  0.13162651526E+03  0.32923856975E+02  0.34578117468E+03  0.00000000000E+00 0. -1.
</event>
<event>
 5    1  0.4881333E-005  0.1568113E+03  0.7818608E-02  0.1094582E+00
         21   -1    0    0  501  502  0.00000000000E+00  0.00000000000E+00  0.71256902248E+02  0.71256902248E+02  0.00000000000E+00 0.  1.
          4   -1    0    0  502    0 -0.00000000000E+00 -0.00000000000E+00 -0.91674684874E+03  0.91674684874E+03  0.00000000000E+00 0.  1.
        -13    1    1    2    0    0  0.68483944997E+02  0.14580737575E+03 -0.52850989717E+03  0.55251476370E+03  0.10566000000E+00 0.  1.
         13    1    1    2    0    0  0.38834860181E+02 -0.16841120687E+03 -0.25917099479E+03  0.31151259472E+03  0.10566000000E+00 0. -1.
          4    1    1    2  501    0 -0.10731880518E+03  0.22603831118E+02 -0.57809054534E+02  0.12397639256E+03  0.00000000000E+00 0.  1.
</event>
<event>
 5    1  0.4881333E-005  0.8742725E+02  0.7818608E-02  0.1187221E+00
         21   -1    0    0  501  502  0.00000000000E+00  0.00000000000E+00  0.63669318245E+02  0.63669318245E+02  0.00000000000E+00 0.  1.
         -4   -1    0    0    0  501 -0.00000000000E+00 -0.00000000000E+00 -0.50796287779E+03  0.50796287779E+03  0.00000000000E+00 0. -1.
        -13    1    1    2    0    0  0.88913183839E+02  0.50045939904E+02 -0.39659503793E+02  0.10946706247E+03  0.10566000000E+00 0.  1.
         13    1    1    2    0    0 -0.38396115231E+02 -0.78718576108E+02 -0.39336213805E+03  0.40299461374E+03  0.10566000000E+00 0. -1.
         -4    1    1    2    0  502 -0.50517068608E+02  0.28672636204E+02 -0.11271917707E+02  0.59170519825E+02  0.00000000000E+00 0. -1.
</event>
<event>
 5    1  0.4881333E-005  0.3922717E+03  0.7818608E-02  0.9767909E-01
         21   -1    0    0  501  502  0.00000000000E+00  0.00000000000E+00  0.42253587685E+03  0.42253587685E+03  0.00000000000E+00 0.  1.
          4   -1    0    0  502    0 -0.00000000000E+00 -0.00000000000E+00 -0.17436123911E+04  0.17436123911E+04  0.00000000000E+00 0.  1.
        -13    1    1    2    0    0 -0.27461489478E+03  0.70852692512E+02 -0.12641739957E+04  0.12955961358E+04  0.10566000000E+00 0.  1.
         13    1    1    2    0    0  0.18643021643E+03  0.35775061082E+03  0.81584068679E+02  0.41157951427E+03  0.10566000000E+00 0. -1.
          4    1    1    2  501    0  0.88184678347E+02 -0.42860330334E+03 -0.13848658722E+03  0.45897261788E+03  0.00000000000E+00 0.  1.
</event>
<event>
 5    1  0.4881333E-005  0.4613958E+03  0.7818608E-02  0.9886656E-01
         21   -1    0    0  501  502  0.00000000000E+00  0.00000000000E+00  0.42799106385E+03  0.42799106385E+03  0.00000000000E+00 0.  1.
          4   -1    0    0  502    0 -0.00000000000E+00 -0.00000000000E+00 -0.12913506544E+04  0.12913506544E+04  0.00000000000E+00 0.  1.
        -13    1    1    2    0    0 -0.30847165882E+03  0.29716945707E+03  0.69870541758E+02  0.43398888728E+03  0.10566000000E+00 0.  1.
         13    1    1    2    0    0 -0.88770701411E+01  0.15204318290E+03 -0.64825756190E+03  0.66590825912E+03  0.10566000000E+00 0. -1.
          4    1    1    2  501    0  0.31734872897E+03 -0.44921263997E+03 -0.28497257037E+03  0.61944457181E+03  0.00000000000E+00 0.  1.
</event>
<event>
 5    1  0.4881333E-005  0.2935940E+03  0.7818608E-02  0.1009985E+00
          4   -1    0    0  502    0 -0.00000000000E+00  0.00000000000E+00  0.28827569911E+04  0.28827569911E+04  0.00000000000E+00 0.  1.
         21   -1    0    0  501  502  0.00000000000E+00 -0.00000000000E+00 -0.34569332388E+02  0.34569332388E+02  0.00000000000E+00 0. -1.
        -13    1    1    2    0    0 -0.24472832213E+03 -0.17512944865E+03  0.12119872079E+04  0.12487895254E+04  0.10566000000E+00 0.  1.
         13    1    1    2    0    0  0.22741785140E+03  0.17768897261E+03  0.16170221502E+04  0.16425750806E+04  0.10566000000E+00 0. -1.
          4    1    1    2  501    0  0.17310470736E+02 -0.25595239634E+01  0.19178300654E+02  0.25961717509E+02  0.00000000000E+00 0.  1.
</event>
<event>
 5    1  0.4881333E-005  0.2960470E+03  0.7818608E-02  0.1023991E+00
         -4   -1    0    0    0  501 -0.00000000000E+00  0.00000000000E+00  0.80434914596E+03  0.80434914596E+03  0.00000000000E+00 0. -1.
         21   -1    0    0  501  502  0.00000000000E+00 -0.00000000000E+00 -0.58397317550E+03  0.58397317550E+03  0.00000000000E+00 0. -1.
        -13    1    1    2    0    0 -0.53525540373E+02  0.17571219895E+03  0.28137581277E+03  0.33602398651E+03  0.10566000000E+00 0.  1.
         13    1    1    2    0    0 -0.21159678698E+03 -0.21782863636E+03 -0.47208456051E+03  0.56132553703E+03  0.10566000000E+00 0. -1.
         -4    1    1    2    0  502  0.26512232736E+03  0.42116437408E+02  0.41108471821E+03  0.49097279793E+03  0.00000000000E+00 0. -1.
</event>
<event>
 5    1  0.4881333E-005  0.4378147E+03  0.7818608E-02  0.9625794E-01
          4   -1    0    0  502    0 -0.00000000000E+00  0.00000000000E+00  0.10893248764E+04  0.10893248764E+04  0.00000000000E+00 0.  1.
         21   -1    0    0  501  502  0.00000000000E+00 -0.00000000000E+00 -0.86208799961E+03  0.86208799961E+03  0.00000000000E+00 0.  1.
        -13    1    1    2    0    0  0.33372204452E+03  0.49411744655E+03 -0.94487730639E+01  0.59633190797E+03  0.10566000000E+00 0.  1.
         13    1    1    2    0    0 -0.42181445468E+03 -0.91906664780E+02  0.64438926431E+03  0.77563638667E+03  0.10566000000E+00 0. -1.
          4    1    1    2  501    0  0.88092410158E+02 -0.40221078177E+03 -0.40770361442E+03  0.57944458140E+03  0.00000000000E+00 0.  1.
</event>
<event>
 5    1  0.4881333E-005  0.4258318E+03  0.7818608E-02  0.9834805E-01
          4   -1    0    0  502    0 -0.00000000000E+00  0.00000000000E+00  0.57792428733E+03  0.57792428733E+03  0.00000000000E+00 0.  1.
         21   -1    0    0  501  502  0.00000000000E+00 -0.00000000000E+00 -0.83198803661E+03  0.83198803661E+03  0.00000000000E+00 0.  1.
        -13    1    1    2    0    0  0.36427342577E+03  0.80786707732E+02 -0.35535262761E+03  0.51526412837E+03  0.10566000000E+00 0.  1.
         13    1    1    2    0    0  0.21923407669E+03  0.72004108507E+02  0.17134320031E+03  0.28741377051E+03  0.10566000000E+00 0. -1.
          4    1    1    2  501    0 -0.58350750246E+03 -0.15279081624E+03 -0.70054321972E+02  0.60723442506E+03  0.00000000000E+00 0.  1.
</event>
<event>
 5    1  0.4881333E-005  0.4884106E+03  0.7818608E-02  0.9888436E-01
         21   -1    0    0  501  502  0.00000000000E+00  0.00000000000E+00  0.31348917259E+03  0.31348917259E+03  0.00000000000E+00 0. -1.
         -4   -1    0    0    0  501 -0.00000000000E+00 -0.00000000000E+00 -0.13077425555E+04  0.13077425555E+04  0.00000000000E+00 0. -1.
        -13    1    1    2    0    0  0.18089383875E+02  0.12634915766E+03 -0.46441693475E+03  0.48163724513E+03  0.10566000000E+00 0.  1.
         13    1    1    2    0    0 -0.49012051405E+03  0.17948994587E+02 -0.38989780753E+03  0.62654656346E+03  0.10566000000E+00 0. -1.
         -4    1    1    2    0  502  0.47203113017E+03 -0.14429815224E+03 -0.13993864065E+03  0.51304791954E+03  0.00000000000E+00 0. -1.
</event>
<event>
 5    1  0.4881333E-005  0.3756248E+03  0.7818608E-02  0.9822032E-01
         -4   -1    0    0    0  501 -0.00000000000E+00  0.00000000000E+00  0.23631819910E+04  0.23631819910E+04  0.00000000000E+00 0. -1.
         21   -1    0    0  501  502  0.00000000000E+00 -0.00000000000E+00 -0.24701037687E+03  0.24701037687E+03  0.00000000000E+00 0. -1.
        -13    1    1    2    0    0  0.19513539603E+03  0.34243180263E+03  0.10515439258E+04  0.11229790743E+04  0.10566000000E+00 0.  1.
         13    1    1    2    0    0 -0.40133548666E+03 -0.28464427345E+02  0.10349637421E+04  0.11104189998E+04  0.10566000000E+00 0. -1.
         -4    1    1    2    0  502  0.20620009063E+03 -0.31396737529E+03  0.29663946229E+02  0.37679429378E+03  0.00000000000E+00 0. -1.
</event>
<event>
 5    1  0.4881333E-005  0.1377218E+03  0.7818608E-02  0.1113895E+00
         -4   -1    0    0    0  501 -0.00000000000E+00  0.00000000000E+00  0.90457977692E+02  0.90457977692E+02  0.00000000000E+00 0. -1.
         21   -1    0    0  501  502  0.00000000000E+00 -0.00000000000E+00 -0.13468417392E+04  0.13468417392E+04  0.00000000000E+00 0. -1.
        -13    1    1    2    0    0 -0.96501118787E+02  0.45148364827E+02 -0.41423227465E+03  0.42771395734E+03  0.10566000000E+00 0.  1.
         13    1    1    2    0    0  0.13924413227E+03 -0.30704641923E+02  0.21983283519E+02  0.14427397314E+03  0.10566000000E+00 0. -1.
         -4    1    1    2    0  502 -0.42743013486E+02 -0.14443722905E+02 -0.86413477033E+03  0.86531178637E+03  0.00000000000E+00 0. -1.
</event>
<event>
 5    1  0.4881333E-005  0.5014772E+03  0.7818608E-02  0.9484355E-01
         21   -1    0    0  501  502  0.00000000000E+00  0.00000000000E+00  0.35786547474E+03  0.35786547474E+03  0.00000000000E+00 0.  1.
          4   -1    0    0  502    0 -0.00000000000E+00 -0.00000000000E+00 -0.27907086725E+04  0.27907086725E+04  0.00000000000E+00 0.  1.
        -13    1    1    2    0    0  0.11211647951E+03  0.57857337901E+03 -0.23007190043E+03  0.63265342045E+03  0.10566000000E+00 0.  1.
         13    1    1    2    0    0  0.34297061305E+03 -0.34177556927E+03 -0.17991582039E+04  0.18631719285E+04  0.10566000000E+00 0. -1.
          4    1    1    2  501    0 -0.45508709256E+03 -0.23679780974E+03 -0.40361309336E+03  0.65274879827E+03  0.00000000000E+00 0.  1.
</event>
<event>
 5    1  0.4881333E-005  0.4651461E+03  0.7818608E-02  0.9557821E-01
          4   -1    0    0  502    0 -0.00000000000E+00  0.00000000000E+00  0.23272058541E+04  0.23272058541E+04  0.00000000000E+00 0.  1.
         21   -1    0    0  501  502  0.00000000000E+00 -0.00000000000E+00 -0.28207908987E+03  0.28207908987E+03  0.00000000000E+00 0. -1.
        -13    1    1    2    0    0  0.21110423923E+03 -0.36167741853E+03  0.35627539436E+02  0.42029143178E+03  0.10566000000E+00 0.  1.
         13    1    1    2    0    0 -0.46310180576E+03  0.20273168889E+03  0.82473940607E+03  0.96734612175E+03  0.10566000000E+00 0. -1.
          4    1    1    2  501    0  0.25199756653E+03  0.15894572964E+03  0.11847598187E+04  0.12216473905E+04  0.00000000000E+00 0.  1.
</event>
<event>
 5    1  0.4881333E-005  0.9169423E+03  0.7818608E-02  0.8856807E-01
         21   -1    0    0  501  502  0.00000000000E+00  0.00000000000E+00  0.85470106372E+03  0.85470106372E+03  0.00000000000E+00 0. -1.
         -4   -1    0    0    0  501 -0.00000000000E+00 -0.00000000000E+00 -0.19368056801E+04  0.19368056801E+04  0.00000000000E+00 0. -1.
        -13    1    1    2    0    0 -0.88543850426E+03  0.79826399363E+02 -0.11319217590E+04  0.14393125020E+04  0.10566000000E+00 0.  1.
         13    1    1    2    0    0  0.10352817504E+04  0.16633515593E+03  0.12053153473E+03  0.10554636654E+04  0.10566000000E+00 0. -1.
         -4    1    1    2    0  502 -0.14984324618E+03 -0.24616155530E+03 -0.70714392115E+02  0.29673057642E+03  0.00000000000E+00 0. -1.
</event>
<event>
 5    1  0.4881333E-005  0.3663572E+03  0.7818608E-02  0.9831578E-01
         21   -1    0    0  501  502  0.00000000000E+00  0.00000000000E+00  0.57808123098E+03  0.57808123098E+03  0.00000000000E+00 0.  1.
          4   -1    0    0  502    0 -0.00000000000E+00 -0.00000000000E+00 -0.13956541046E+04  0.13956541046E+04  0.00000000000E+00 0.  1.
        -13    1    1    2    0    0  0.52087913123E+03 -0.22372351628E+03 -0.25619749366E+03  0.62209681563E+03  0.10566000000E+00 0.  1.
         13    1    1    2    0    0 -0.33063466186E+03  0.53215466670E+02 -0.88097571776E+03  0.94248044647E+03  0.10566000000E+00 0. -1.
          4    1    1    2  501    0 -0.19024446937E+03  0.17050804961E+03  0.31960033785E+03  0.40915807344E+03  0.00000000000E+00 0.  1.
</event>
<event>
 5    1  0.4881333E-005  0.1122324E+03  0.7818608E-02  0.1197366E+00
          4   -1    0    0  502    0 -0.00000000000E+00  0.00000000000E+00  0.22098013753E+03  0.22098013753E+03  0.00000000000E+00 0.  1.
         21   -1    0    0  501  502  0.00000000000E+00 -0.00000000000E+00 -0.13392812420E+03  0.13392812420E+03  0.00000000000E+00 0.  1.
        -13    1    1    2    0    0 -0.48395606239E+02  0.10048974272E+03 -0.60924619476E+02  0.12709108355E+03  0.10566000000E+00 0.  1.
         13    1    1    2    0    0  0.27723292330E+02  0.17355092515E+02 -0.55508685831E+01  0.33175344458E+02  0.10566000000E+00 0. -1.
          4    1    1    2  501    0  0.20672313908E+02 -0.11784483524E+03  0.15352750138E+03  0.19464183373E+03  0.00000000000E+00 0.  1.
</event>
<event>
 5    1  0.4881333E-005  0.2153771E+03  0.7818608E-02  0.1050076E+00
         21   -1    0    0  501  502  0.00000000000E+00  0.00000000000E+00  0.25760733193E+03  0.25760733193E+03  0.00000000000E+00 0.  1.
         -4   -1    0    0    0  501 -0.00000000000E+00 -0.00000000000E+00 -0.47798560458E+03  0.47798560458E+03  0.00000000000E+00 0. -1.
        -13    1    1    2    0    0 -0.12646169938E+03  0.21628600484E+03  0.93997412792E+02  0.26759619219E+03  0.10566000000E+00 0.  1.
         13    1    1    2    0    0  0.13583624550E+03 -0.16035267856E+03 -0.34468048523E+03  0.40369433384E+03  0.10566000000E+00 0. -1.
         -4    1    1    2    0  502 -0.93745461275E+01 -0.55933326279E+02  0.30304799778E+02  0.64302410478E+02  0.00000000000E+00 0. -1.
</event>
<event>
 5    1  0.4881333E-005  0.3595597E+03  0.7818608E-02  0.9926555E-01
         21   -1    0    0  501  502  0.00000000000E+00  0.00000000000E+00  0.90126679556E+03  0.90126679556E+03  0.00000000000E+00 0. -1.
         -4   -1    0    0    0  501 -0.00000000000E+00 -0.00000000000E+00 -0.35587752212E+03  0.35587752212E+03  0.00000000000E+00 0. -1.
        -13    1    1    2    0    0 -0.46126340754E+02  0.27785542100E+03  0.20412589929E+03  0.34784862830E+03  0.10566000000E+00 0.  1.
         13    1    1    2    0    0 -0.15655053290E+03 -0.50357435765E+03  0.14126169482E+03  0.54593963093E+03  0.10566000000E+00 0. -1.
         -4    1    1    2    0  502  0.20267687365E+03  0.22571893665E+03  0.20000167934E+03  0.36335605845E+03  0.00000000000E+00 0. -1.
</event>
<event>
 5    1  0.4881333E-005  0.4409293E+03  0.7818608E-02  0.9630221E-01
         -4   -1    0    0    0  501 -0.00000000000E+00  0.00000000000E+00  0.15616245792E+04  0.15616245792E+04  0.00000000000E+00 0. -1.
         21   -1    0    0  501  502  0.00000000000E+00 -0.00000000000E+00 -0.36633503467E+03  0.36633503467E+03  0.00000000000E+00 0. -1.
        -13    1    1    2    0    0  0.30162977478E+03 -0.29505292224E+03  0.42340774502E+03  0.59775486419E+03  0.10566000000E+00 0.  1.
         13    1    1    2    0    0  0.35927876781E+03  0.11356222097E+03  0.15272619958E+03  0.40657461090E+03  0.10566000000E+00 0. -1.
         -4    1    1    2    0  502 -0.66090854259E+03  0.18149070126E+03  0.61915559989E+03  0.92363013874E+03  0.00000000000E+00 0. -1.
</event>
<event>
 5    1  0.4881333E-005  0.3382384E+03  0.7818608E-02  0.1006320E+00
         21   -1    0    0  501  502  0.00000000000E+00  0.00000000000E+00  0.11338697868E+04  0.11338697868E+04  0.00000000000E+00 0. -1.
         -4   -1    0    0    0  501 -0.00000000000E+00 -0.00000000000E+00 -0.11501512240E+04  0.11501512240E+04  0.00000000000E+00 0. -1.
        -13    1    1    2    0    0 -0.74471454124E+02  0.50033811983E+03 -0.78320082629E+03  0.93235603559E+03  0.10566000000E+00 0.  1.
         13    1    1    2    0    0 -0.14199376549E+03 -0.13673304741E+03 -0.20939875623E+03  0.28758651910E+03  0.10566000000E+00 0. -1.
         -4    1    1    2    0  502  0.21646521962E+03 -0.36360507241E+03  0.97631814524E+03  0.10640784561E+04  0.00000000000E+00 0. -1.
</event>
<event>
 5    1  0.4881333E-005  0.4947355E+03  0.7818608E-02  0.9662792E-01
         21   -1    0    0  501  502  0.00000000000E+00  0.00000000000E+00  0.23901900489E+03  0.23901900489E+03  0.00000000000E+00 0. -1.
         -4   -1    0    0    0  501 -0.00000000000E+00 -0.00000000000E+00 -0.18386286673E+04  0.18386286673E+04  0.00000000000E+00 0. -1.
        -13    1    1    2    0    0  0.23882576783E+03  0.11787226404E+03 -0.52866290148E+03  0.59195953627E+03  0.10566000000E+00 0.  1.
         13    1    1    2    0    0 -0.43124213177E+02  0.43766332151E+03 -0.48948642258E+03  0.65803180000E+03  0.10566000000E+00 0. -1.
         -4    1    1    2    0  502 -0.19570155466E+03 -0.55553558555E+03 -0.58146033829E+03  0.82765633587E+03  0.00000000000E+00 0. -1.
</event>
<event>
 5    1  0.4881333E-005  0.9410233E+02  0.7818608E-02  0.1174700E+00
         21   -1    0    0  501  502  0.00000000000E+00  0.00000000000E+00  0.78019045919E+02  0.78019045919E+02  0.00000000000E+00 0. -1.
         -4   -1    0    0    0  501 -0.00000000000E+00 -0.00000000000E+00 -0.42749140754E+03  0.42749140754E+03  0.00000000000E+00 0. -1.
        -13    1    1    2    0    0 -0.69844612139E+02 -0.54295348414E+02 -0.17646865686E+03  0.19740175461E+03  0.10566000000E+00 0.  1.
         13    1    1    2    0    0  0.85883985944E+02  0.51384451193E+02 -0.22893232381E+03  0.24985283851E+03  0.10566000000E+00 0. -1.
         -4    1    1    2    0  502 -0.16039373805E+02  0.29108972213E+01  0.55928619048E+02  0.58255860335E+02  0.00000000000E+00 0. -1.
</event>
<event>
 5    1  0.4881333E-005  0.1647799E+03  0.7818608E-02  0.1087385E+00
         -4   -1    0    0    0  501 -0.00000000000E+00  0.00000000000E+00  0.10843841721E+04  0.10843841721E+04  0.00000000000E+00 0. -1.
         21   -1    0    0  501  502  0.00000000000E+00 -0.00000000000E+00 -0.44466878358E+02  0.44466878358E+02  0.00000000000E+00 0. -1.
        -13    1    1    2    0    0 -0.99230204364E+02 -0.12532384173E+03  0.35216001841E+03  0.38674201801E+03  0.10566000000E+00 0.  1.
         13    1    1    2    0    0  0.50219429055E+02  0.16515312555E+03  0.64016570148E+03  0.66303067987E+03  0.10566000000E+00 0. -1.
         -4    1    1    2    0  502  0.49010775308E+02 -0.39829283816E+02  0.47591573873E+02  0.79078352596E+02  0.00000000000E+00 0. -1.
</event>
<event>
 5    1  0.4881333E-005  0.5180039E+03  0.7818608E-02  0.9439361E-01
         21   -1    0    0  501  502  0.00000000000E+00  0.00000000000E+00  0.30670968694E+03  0.30670968694E+03  0.00000000000E+00 0.  1.
         -4   -1    0    0    0  501 -0.00000000000E+00 -0.00000000000E+00 -0.20379997015E+04  0.20379997015E+04  0.00000000000E+00 0. -1.
        -13    1    1    2    0    0 -0.21171903719E+03  0.33492878973E+03 -0.18070366005E+03  0.43549519954E+03  0.10566000000E+00 0.  1.
         13    1    1    2    0    0  0.55486832006E+03 -0.23864489501E+03 -0.13953524090E+04  0.15204731484E+04  0.10566000000E+00 0. -1.
         -4    1    1    2    0  502 -0.34314928287E+03 -0.96283894721E+02 -0.15523394546E+03  0.38874104046E+03  0.00000000000E+00 0. -1.
</event>
<event>
 5    1  0.4881333E-005  0.1769014E+03  0.7818608E-02  0.1077239E+00
          4   -1    0    0  502    0 -0.00000000000E+00  0.00000000000E+00  0.36250566902E+03  0.36250566902E+03  0.00000000000E+00 0.  1.
         21   -1    0    0  501  502  0.00000000000E+00 -0.00000000000E+00 -0.22132599028E+03  0.22132599028E+03  0.00000000000E+00 0. -1.
        -13    1    1    2    0    0 -0.13057002829E+03  0.11594704896E+03  0.27648497514E+03  0.32701101372E+03  0.10566000000E+00 0.  1.
         13    1    1    2    0    0  0.13891096799E+03 -0.13098124284E+03 -0.95534897461E+02  0.21349302284E+03  0.10566000000E+00 0. -1.
          4    1    1    2  501    0 -0.83409397020E+01  0.15034193875E+02 -0.39770398938E+02  0.43327622740E+02  0.00000000000E+00 0.  1.
</event>
<event>
 5    1  0.4881333E-005  0.2009076E+03  0.7818608E-02  0.1059515E+00
         21   -1    0    0  501  502  0.00000000000E+00  0.00000000000E+00  0.60414024027E+03  0.60414024027E+03  0.00000000000E+00 0.  1.
         -4   -1    0    0    0  501 -0.00000000000E+00 -0.00000000000E+00 -0.22354111230E+03  0.22354111230E+03  0.00000000000E+00 0. -1.
        -13    1    1    2    0    0  0.20647958311E+03  0.68319941912E+02  0.39258581438E+03  0.44880403911E+03  0.10566000000E+00 0.  1.
         13    1    1    2    0    0 -0.17856291056E+03 -0.88093073484E+02 -0.14192216224E+03  0.24451383176E+03  0.10566000000E+00 0. -1.
         -4    1    1    2    0  502 -0.27916672549E+02  0.19773131572E+02  0.12993547583E+03  0.13436348171E+03  0.00000000000E+00 0. -1.
</event>
<event>
 5    1  0.4881333E-005  0.1571648E+03  0.7818608E-02  0.1095980E+00
         -4   -1    0    0    0  501 -0.00000000000E+00  0.00000000000E+00  0.21303748771E+03  0.21303748771E+03  0.00000000000E+00 0. -1.
         21   -1    0    0  501  502  0.00000000000E+00 -0.00000000000E+00 -0.42921228695E+03  0.42921228695E+03  0.00000000000E+00 0. -1.
        -13    1    1    2    0    0  0.53416835723E+02 -0.15179623509E+03  0.12634655252E+02  0.16141592549E+03  0.10566000000E+00 0.  1.
         13    1    1    2    0    0  0.10787523886E+03  0.14976647214E+03  0.18576457629E+02  0.18550514623E+03  0.10566000000E+00 0. -1.
         -4    1    1    2    0  502 -0.16129207458E+03  0.20297629480E+01 -0.24738591213E+03  0.29532870294E+03  0.00000000000E+00 0. -1.
</event>
<event>
 5    1  0.4881333E-005  0.5014737E+03  0.7818608E-02  0.9840109E-01
         21   -1    0    0  501  502  0.00000000000E+00  0.00000000000E+00  0.48160341040E+03  0.48160341040E+03  0.00000000000E+00 0.  1.
          4   -1    0    0  502    0 -0.00000000000E+00 -0.00000000000E+00 -0.91554557122E+03  0.91554557122E+03  0.00000000000E+00 0.  1.
        -13    1    1    2    0    0  0.45608223246E+03  0.23417485613E+03 -0.26316473310E+03  0.57628513248E+03  0.10566000000E+00 0.  1.
         13    1    1    2    0    0  0.36067396042E+02 -0.13400815875E+03 -0.27490122258E+03  0.30794437324E+03  0.10566000000E+00 0. -1.
          4    1    1    2  501    0 -0.49214962850E+03 -0.10016669739E+03  0.10412379487E+03  0.51291947590E+03  0.00000000000E+00 0.  1.
</event>
<event>
 5    1  0.4881333E-005  0.8289990E+02  0.7818608E-02  0.1196439E+00
         21   -1    0    0  501  502  0.00000000000E+00  0.00000000000E+00  0.23566768764E+03  0.23566768764E+03  0.00000000000E+00 0.  1.
          4   -1    0    0  502    0 -0.00000000000E+00 -0.00000000000E+00 -0.14588803622E+03  0.14588803622E+03  0.00000000000E+00 0.  1.
        -13    1    1    2    0    0 -0.85269984918E+02 -0.45639337339E+02 -0.93766048271E+02  0.13470709860E+03  0.10566000000E+00 0.  1.
         13    1    1    2    0    0  0.56232578611E+02  0.25174887591E+02  0.17720671975E+01  0.61636265693E+02  0.10566000000E+00 0. -1.
          4    1    1    2  501    0  0.29037406308E+02  0.20464449748E+02  0.18177363249E+03  0.18521235957E+03  0.00000000000E+00 0.  1.
</event>
<event>
 5    1  0.4881333E-005  0.1380731E+03  0.7818608E-02  0.1113509E+00
          4   -1    0    0  502    0 -0.00000000000E+00  0.00000000000E+00  0.17221894503E+03  0.17221894503E+03  0.00000000000E+00 0.  1.
         21   -1    0    0  501  502  0.00000000000E+00 -0.00000000000E+00 -0.17740916219E+03  0.17740916219E+03  0.00000000000E+00 0.  1.
        -13    1    1    2    0    0  0.12603189857E+03 -0.78349653991E+02  0.79814113634E+02  0.16850226003E+03  0.10566000000E+00 0.  1.
         13    1    1    2    0    0 -0.10795790767E+03  0.50523312044E+02 -0.41076288706E+02  0.12607453171E+03  0.10566000000E+00 0. -1.
          4    1    1    2  501    0 -0.18073990901E+02  0.27826341947E+02 -0.43928042087E+02  0.55051315468E+02  0.00000000000E+00 0.  1.
</event>
<event>
 5    1  0.4881333E-005  0.6261772E+02  0.7818608E-02  0.1247540E+00
         21   -1    0    0  501  502  0.00000000000E+00  0.00000000000E+00  0.31842197494E+03  0.31842197494E+03  0.00000000000E+00 0. -1.
         -4   -1    0    0    0  501 -0.00000000000E+00 -0.00000000000E+00 -0.50723055346E+02  0.50723055346E+02  0.00000000000E+00 0. -1.
        -13    1    1    2    0    0 -0.59446759763E+02 -0.59957637354E+02  0.14279744367E+03  0.16589140003E+03  0.10566000000E+00 0.  1.
         13    1    1    2    0    0  0.56286870441E+02  0.21148864839E+02 -0.11660435124E+02  0.61249189214E+02  0.10566000000E+00 0. -1.
         -4    1    1    2    0  502  0.31598893225E+01  0.38808772515E+02  0.13656191105E+03  0.14200444104E+03  0.00000000000E+00 0. -1.
</event>
<event>
 5    1  0.4881333E-005  0.4932264E+03  0.7818608E-02  0.9830618E-01
         21   -1    0    0  501  502  0.00000000000E+00  0.00000000000E+00  0.46584404860E+03  0.46584404860E+03  0.00000000000E+00 0. -1.
         -4   -1    0    0    0  501 -0.00000000000E+00 -0.00000000000E+00 -0.76295550732E+03  0.76295550732E+03  0.00000000000E+00 0. -1.
        -13    1    1    2    0    0  0.10487356456E+03  0.10811588723E+03  0.32985085854E+02  0.15419317971E+03  0.10566000000E+00 0.  1.
         13    1    1    2    0    0  0.29043832888E+03  0.32330989304E+03 -0.10086587400E+03  0.44615876717E+03  0.10566000000E+00 0. -1.
         -4    1    1    2    0  502 -0.39531189344E+03 -0.43142578027E+03 -0.22923067057E+03  0.62844760904E+03  0.00000000000E+00 0. -1.
</event>
<event>
 5    1  0.4881333E-005  0.4987471E+03  0.7818608E-02  0.9717333E-01
          4   -1    0    0  502    0 -0.00000000000E+00  0.00000000000E+00  0.31288566913E+04  0.31288566913E+04  0.00000000000E+00 0.  1.
         21   -1    0    0  501  502  0.00000000000E+00 -0.00000000000E+00 -0.12988937198E+03  0.12988937198E+03  0.00000000000E+00 0.  1.
        -13    1    1    2    0    0 -0.26293459949E+03 -0.49268148969E+03  0.13390843997E+04  0.14508675662E+04  0.10566000000E+00 0.  1.
         13    1    1    2    0    0  0.21383909806E+03  0.21314228773E+02  0.77298646392E+03  0.80230264911E+03  0.10566000000E+00 0. -1.
          4    1    1    2  501    0  0.49095501433E+02  0.47136726091E+03  0.88689645568E+03  0.10055758480E+04  0.00000000000E+00 0.  1.
</event>
<event>
 5    1  0.4881333E-005  0.1759654E+03  0.7818608E-02  0.1077991E+00
         21   -1    0    0  501  502  0.00000000000E+00  0.00000000000E+00  0.74317028311E+02  0.74317028311E+02  0.00000000000E+00 0.  1.
         -4   -1    0    0    0  501 -0.00000000000E+00 -0.00000000000E+00 -0.86568690020E+03  0.86568690020E+03  0.00000000000E+00 0. -1.
        -13    1    1    2    0    0  0.89164869768E+02  0.17256857973E+03 -0.37768811943E+03  0.42471003688E+03  0.10566000000E+00 0.  1.
         13    1    1    2    0    0 -0.14513516586E+03 -0.93016244858E+02 -0.37095903139E+03  0.40905605033E+03  0.10566000000E+00 0. -1.
         -4    1    1    2    0  502  0.55970296094E+02 -0.79552334869E+02 -0.42722721072E+02  0.10623784130E+03  0.00000000000E+00 0. -1.
</event>
<event>
 5    1  0.4881333E-005  0.2805789E+03  0.7818608E-02  0.1015660E+00
         -4   -1    0    0    0  501 -0.00000000000E+00  0.00000000000E+00  0.33324644467E+03  0.33324644467E+03  0.00000000000E+00 0. -1.
         21   -1    0    0  501  502  0.00000000000E+00 -0.00000000000E+00 -0.28212676038E+03  0.28212676038E+03  0.00000000000E+00 0.  1.
        -13    1    1    2    0    0  0.26318909603E+03  0.87839125031E+02 -0.54465227814E+02  0.28275552048E+03  0.10566000000E+00 0.  1.
         13    1    1    2    0    0 -0.25971028393E+03 -0.11161058223E+03  0.11710503752E+03  0.30597378094E+03  0.10566000000E+00 0. -1.
         -4    1    1    2    0  502 -0.34788121028E+01  0.23771457201E+02 -0.11520125413E+02  0.26643903630E+02  0.00000000000E+00 0. -1.
</event>
<event>
 5    1  0.4881333E-005  0.5972402E+02  0.7818608E-02  0.1256589E+00
          4   -1    0    0  502    0 -0.00000000000E+00  0.00000000000E+00  0.22253726387E+02  0.22253726387E+02  0.00000000000E+00 0.  1.
         21   -1    0    0  501  502  0.00000000000E+00 -0.00000000000E+00 -0.47540818487E+03  0.47540818487E+03  0.00000000000E+00 0. -1.
        -13    1    1    2    0    0 -0.48949668391E+02 -0.32199566474E+02 -0.35496293137E+02  0.68504599168E+02  0.10566000000E+00 0.  1.
         13    1    1    2    0    0  0.42809550348E+02  0.50739202083E+02 -0.20227187956E+03  0.21288740839E+03  0.10566000000E+00 0. -1.
          4    1    1    2  501    0  0.61401180430E+01 -0.18539635609E+02 -0.21538628579E+03  0.21626990370E+03  0.00000000000E+00 0.  1.
</event>
<event>
 5    1  0.4881333E-005  0.4184095E+03  0.7818608E-02  0.9704756E-01
         21   -1    0    0  501  502  0.00000000000E+00  0.00000000000E+00  0.30854235875E+03  0.30854235875E+03  0.00000000000E+00 0. -1.
         -4   -1    0    0    0  501 -0.00000000000E+00 -0.00000000000E+00 -0.17557067373E+04  0.17557067373E+04  0.00000000000E+00 0. -1.
        -13    1    1    2    0    0 -0.82226044344E+02  0.37123566588E+03 -0.53915187290E+03  0.65974373450E+03  0.10566000000E+00 0.  1.
         13    1    1    2    0    0 -0.22035941164E+03  0.19532769715E+02 -0.88230094882E+03  0.90961243112E+03  0.10566000000E+00 0. -1.
         -4    1    1    2    0  502  0.30258545598E+03 -0.39076843560E+03 -0.25711556816E+02  0.49489293043E+03  0.00000000000E+00 0. -1.
</event>
<event>
 5    1  0.4881333E-005  0.2264977E+03  0.7818608E-02  0.1043347E+00
         21   -1    0    0  501  502  0.00000000000E+00  0.00000000000E+00  0.28135346142E+03  0.28135346142E+03  0.00000000000E+00 0.  1.
          4   -1    0    0  502    0 -0.00000000000E+00 -0.00000000000E+00 -0.76615162350E+03  0.76615162350E+03  0.00000000000E+00 0.  1.
        -13    1    1    2    0    0 -0.22583960635E+03 -0.77805786288E+02 -0.62944673013E+03  0.67324621456E+03  0.10566000000E+00 0.  1.
         13    1    1    2    0    0  0.18710921521E+03  0.21684915041E+01 -0.20789214960E+02  0.18827310852E+03  0.10566000000E+00 0. -1.
          4    1    1    2  501    0  0.38730391142E+02  0.75637294784E+02  0.16543778301E+03  0.18598576184E+03  0.00000000000E+00 0.  1.
</event>
<event>
 5    1  0.4881333E-005  0.9300584E+02  0.7818608E-02  0.1176677E+00
         -4   -1    0    0    0  501 -0.00000000000E+00  0.00000000000E+00  0.33246691920E+02  0.33246691920E+02  0.00000000000E+00 0. -1.
         21   -1    0    0  501  502  0.00000000000E+00 -0.00000000000E+00 -0.46582033317E+03  0.46582033317E+03  0.00000000000E+00 0.  1.
        -13    1    1    2    0    0 -0.72602897309E+02  0.53631872626E+02 -0.99818936190E+02  0.13457856310E+03  0.10566000000E+00 0.  1.
         13    1    1    2    0    0  0.80138771003E+02 -0.61623245115E+02 -0.33765299289E+03  0.35246163157E+03  0.10566000000E+00 0. -1.
         -4    1    1    2    0  502 -0.75358736946E+01  0.79913724884E+01  0.48982878242E+01  0.12026830430E+02  0.00000000000E+00 0. -1.
</event>
<event>
 5    1  0.4881333E-005  0.4368185E+03  0.7818608E-02  0.9628370E-01
          4   -1    0    0  502    0 -0.00000000000E+00  0.00000000000E+00  0.16525450926E+04  0.16525450926E+04  0.00000000000E+00 0.  1.
         21   -1    0    0  501  502  0.00000000000E+00 -0.00000000000E+00 -0.40671453221E+03  0.40671453221E+03  0.00000000000E+00 0.  1.
        -13    1    1    2    0    0  0.17464964039E+03  0.50198932202E+03  0.61489415914E+03  0.81276725722E+03  0.10566000000E+00 0.  1.
         13    1    1    2    0    0  0.11001013080E+03 -0.40276413514E+03  0.79888381944E+03  0.90140809047E+03  0.10566000000E+00 0. -1.
          4    1    1    2  501    0 -0.28465977119E+03 -0.99225186880E+02 -0.16794741818E+03  0.34508427713E+03  0.00000000000E+00 0.  1.
</event>
<event>
 5    1  0.4881333E-005  0.2296056E+03  0.7818608E-02  0.1041539E+00
         21   -1    0    0  501  502  0.00000000000E+00  0.00000000000E+00  0.12963627692E+04  0.12963627692E+04  0.00000000000E+00 0.  1.
         -4   -1    0    0    0  501 -0.00000000000E+00 -0.00000000000E+00 -0.13255978970E+03  0.13255978970E+03  0.00000000000E+00 0. -1.
        -13    1    1    2    0    0 -0.23518180545E+03  0.37312712239E+02  0.74340519997E+03  0.78061131341E+03  0.10566000000E+00 0.  1.
         13    1    1    2    0    0  0.22446591547E+03 -0.41868678625E+02  0.58608909216E+00  0.22833810046E+03  0.10566000000E+00 0. -1.
         -4    1    1    2    0  502  0.10715889982E+02  0.45559663860E+01  0.41981169048E+03  0.41997314508E+03  0.00000000000E+00 0. -1.
</event>
<event>
 5    1  0.4881333E-005  0.4820156E+03  0.7818608E-02  0.9759366E-01
         21   -1    0    0  501  502  0.00000000000E+00  0.00000000000E+00  0.10266620872E+04  0.10266620872E+04  0.00000000000E+00 0. -1.
         -4   -1    0    0    0  501 -0.00000000000E+00 -0.00000000000E+00 -0.64752865599E+03  0.64752865599E+03  0.00000000000E+00 0. -1.
        -13    1    1    2    0    0 -0.14804522321E+03 -0.14305948015E+03 -0.36173361765E+03  0.41621463727E+03  0.10566000000E+00 0.  1.
         13    1    1    2    0    0  0.36913833777E+03  0.41969992511E+03  0.70840259008E+03  0.90235546230E+03  0.10566000000E+00 0. -1.
         -4    1    1    2    0  502 -0.22109311455E+03 -0.27664044496E+03  0.32464458779E+02  0.35562064363E+03  0.00000000000E+00 0. -1.
</event>
<event>
 5    1  0.5416785E-005  0.3489883E+03  0.7818608E-02  0.9889185E-01
         -4   -1    0    0    0  501 -0.00000000000E+00  0.00000000000E+00  0.15734576697E+04  0.15734576697E+04  0.00000000000E+00 0. -1.
         21   -1    0    0  501  502  0.00000000000E+00 -0.00000000000E+00 -0.49206285247E+03  0.49206285247E+03  0.00000000000E+00 0.  1.
        -13    1    1    2    0    0  0.13469354094E+03 -0.56299778297E+03  0.19088742484E+03  0.60954644919E+03  0.10566000000E+00 0.  1.
         13    1    1    2    0    0 -0.79855381276E+02  0.31314295780E+03  0.10866134821E+04  0.11336508566E+04  0.10566000000E+00 0. -1.
         -4    1    1    2    0  502 -0.54838159667E+02  0.24985482517E+03 -0.19610608971E+03  0.32232321641E+03  0.00000000000E+00 0. -1.
</event>
<event>
 5    1  0.4881333E-005  0.4038370E+03  0.7818608E-02  0.1016827E+00
         -4   -1    0    0    0  501 -0.00000000000E+00  0.00000000000E+00  0.21987362000E+04  0.21987362000E+04  0.00000000000E+00 0. -1.
         21   -1    0    0  501  502  0.00000000000E+00 -0.00000000000E+00 -0.14607628765E+03  0.14607628765E+03  0.00000000000E+00 0. -1.
        -13    1    1    2    0    0 -0.81359620023E+02  0.40045388865E+02  0.40040238467E+03  0.41054244818E+03  0.10566000000E+00 0.  1.
         13    1    1    2    0    0 -0.26204387914E+03 -0.30046475735E+03  0.25789700614E+03  0.47482306383E+03  0.10566000000E+00 0. -1.
         -4    1    1    2    0  502  0.34340349916E+03  0.26041936848E+03  0.13943605216E+04  0.14594469757E+04  0.00000000000E+00 0. -1.
</event>
<event>
 5    1  0.4881333E-005  0.4203651E+03  0.7818608E-02  0.9924947E-01
         21   -1    0    0  501  502  0.00000000000E+00  0.00000000000E+00  0.50904509838E+03  0.50904509838E+03  0.00000000000E+00 0. -1.
         -4   -1    0    0    0  501 -0.00000000000E+00 -0.00000000000E+00 -0.74284454756E+03  0.74284454756E+03  0.00000000000E+00 0. -1.
        -13    1    1    2    0    0  0.17635334503E+03 -0.17368049256E+02  0.66672684186E+02  0.18933412112E+03  0.10566000000E+00 0.  1.
         13    1    1    2    0    0 -0.17763117780E+03 -0.40490482465E+03 -0.43411013903E+03  0.61963890801E+03  0.10566000000E+00 0. -1.
         -4    1    1    2    0  502  0.12778327675E+01  0.42227287391E+03  0.13363800565E+03  0.44291661681E+03  0.00000000000E+00 0. -1.
</event>
<event>
 5    1  0.4881333E-005  0.4659979E+03  0.7818608E-02  0.1000717E+00
         -4   -1    0    0    0  501 -0.00000000000E+00  0.00000000000E+00  0.76944695974E+03  0.76944695974E+03  0.00000000000E+00 0. -1.
         21   -1    0    0  501  502  0.00000000000E+00 -0.00000000000E+00 -0.58286263634E+03  0.58286263634E+03  0.00000000000E+00 0. -1.
        -13    1    1    2    0    0 -0.98155026187E+02 -0.14117368085E+02  0.31994720519E+03  0.33496258675E+03  0.10566000000E+00 0.  1.
         13    1    1    2    0    0  0.35260487132E+03  0.37812199422E+03  0.82477822206E+02  0.52355423798E+03  0.10566000000E+00 0. -1.
         -4    1    1    2    0  502 -0.25444984513E+03 -0.36400462614E+03 -0.21584070400E+03  0.49379277135E+03  0.00000000000E+00 0. -1.
</event>
<event>
 5    1  0.1253546E-004  0.2807824E+03  0.7818608E-02  0.1054687E+00
         21   -1    0    0  501  502  0.00000000000E+00  0.00000000000E+00  0.53741075396E+03  0.53741075396E+03  0.00000000000E+00 0. -1.
         -4   -1    0    0    0  501 -0.00000000000E+00 -0.00000000000E+00 -0.77154439091E+03  0.77154439091E+03  0.00000000000E+00 0. -1.
        -13    1    1    2    0    0  0.41786376669E+02  0.73792563988E+02 -0.29938279985E+03  0.31116155898E+03  0.10566000000E+00 0.  1.
         13    1    1    2    0    0  0.10240542583E+03  0.17577704224E+03 -0.40099813847E+03  0.44964870514E+03  0.10566000000E+00 0. -1.
         -4    1    1    2    0  502 -0.14419180250E+03 -0.24956960623E+03  0.46624730137E+03  0.54814488075E+03  0.00000000000E+00 0. -1.
</event>
<event>
 5    1  0.4881333E-005  0.3606591E+03  0.7818608E-02  0.1004101E+00
         -4   -1    0    0    0  501 -0.00000000000E+00  0.00000000000E+00  0.12849887492E+04  0.12849887492E+04  0.00000000000E+00 0. -1.
         21   -1    0    0  501  502  0.00000000000E+00 -0.00000000000E+00 -0.33680455902E+03  0.33680455902E+03  0.00000000000E+00 0. -1.
        -13    1    1    2    0    0  0.18413758049E+03  0.52787332265E+02  0.44303086523E+03  0.48266915139E+03  0.10566000000E+00 0.  1.
         13    1    1    2    0    0 -0.51668632080E+03 -0.42743253790E+02  0.60019824703E+03  0.79311391789E+03  0.10566000000E+00 0. -1.
         -4    1    1    2    0  502  0.33254874032E+03 -0.10044078475E+02 -0.95044922125E+02  0.34601023890E+03  0.00000000000E+00 0. -1.
</event>
<event>
 5    1  0.4881333E-005  0.7965815E+02  0.7818608E-02  0.1226565E+00
         21   -1    0    0  501  502  0.00000000000E+00  0.00000000000E+00  0.64289061448E+03  0.64289061448E+03  0.00000000000E+00 0.  1.
          4   -1    0    0  502    0 -0.00000000000E+00 -0.00000000000E+00 -0.71195716644E+02  0.71195716644E+02  0.00000000000E+00 0.  1.
        -13    1    1    2    0    0 -0.38708227863E+02 -0.68212053352E+01 -0.58554673798E+02  0.70523164522E+02  0.10566000000E+00 0.  1.
         13    1    1    2    0    0 -0.42451800410E+02  0.21683031480E+02  0.23930298547E+03  0.24400458855E+03  0.10566000000E+00 0. -1.
          4    1    1    2  501    0  0.81160028273E+02 -0.14861826145E+02  0.39094658616E+03  0.39955857805E+03  0.00000000000E+00 0.  1.
</event>
<event>
 5    1  0.4881333E-005  0.4954111E+03  0.7818608E-02  0.9835705E-01
         -4   -1    0    0    0  501 -0.00000000000E+00  0.00000000000E+00  0.22136478151E+04  0.22136478151E+04  0.00000000000E+00 0. -1.
         21   -1    0    0  501  502  0.00000000000E+00 -0.00000000000E+00 -0.15559150694E+03  0.15559150694E+03  0.00000000000E+00 0. -1.
        -13    1    1    2    0    0  0.38999156952E+02  0.14079647065E+03  0.46198469314E+03  0.48453529103E+03  0.10566000000E+00 0.  1.
         13    1    1    2    0    0 -0.50610930321E+03 -0.15632658801E+03  0.75118548568E+03  0.91916498735E+03  0.10566000000E+00 0. -1.
         -4    1    1    2    0  502  0.46711014626E+03  0.15530117368E+02  0.84488612938E+03  0.96553904370E+03  0.00000000000E+00 0. -1.
</event>
<event>
 5    1  0.4881333E-005  0.2278327E+03  0.7818608E-02  0.1057649E+00
         21   -1    0    0  501  502  0.00000000000E+00  0.00000000000E+00  0.15574397457E+04  0.15574397457E+04  0.00000000000E+00 0. -1.
         -4   -1    0    0    0  501 -0.00000000000E+00 -0.00000000000E+00 -0.22622381999E+03  0.22622381999E+03  0.00000000000E+00 0. -1.
        -13    1    1    2    0    0 -0.77699733599E+02  0.12301128660E+03  0.33729928659E+03  0.36734159188E+03  0.10566000000E+00 0.  1.
         13    1    1    2    0    0  0.22840921686E+03 -0.28322240703E+03 -0.33721289039E+02  0.36540777043E+03  0.10566000000E+00 0. -1.
         -4    1    1    2    0  502 -0.15070948326E+03  0.16021112042E+03  0.10276379282E+04  0.10509142034E+04  0.00000000000E+00 0. -1.
</event>
<event>
 5    1  0.4881333E-005  0.3221963E+03  0.7818608E-02  0.9999315E-01
          4   -1    0    0  502    0 -0.00000000000E+00  0.00000000000E+00  0.21943868885E+04  0.21943868885E+04  0.00000000000E+00 0.  1.
         21   -1    0    0  501  502  0.00000000000E+00 -0.00000000000E+00 -0.26044285016E+03  0.26044285016E+03  0.00000000000E+00 0.  1.
        -13    1    1    2    0    0 -0.22483090245E+03 -0.20962607176E+03 -0.45301901501E+02  0.31071578348E+03  0.10566000000E+00 0.  1.
         13    1    1    2    0    0  0.18778113702E+03 -0.27090988880E+03  0.99541115879E+03  0.10485691725E+04  0.10566000000E+00 0. -1.
          4    1    1    2  501    0  0.37049765434E+02  0.48053596056E+03  0.98383478102E+03  0.10955447827E+04  0.00000000000E+00 0.  1.
</event>
<event>
 5    1  0.4881333E-005  0.4714682E+03  0.7818608E-02  0.1045671E+00
         21   -1    0    0  501  502  0.00000000000E+00  0.00000000000E+00  0.27615979339E+03  0.27615979339E+03  0.00000000000E+00 0.  1.
          4   -1    0    0  502    0 -0.00000000000E+00 -0.00000000000E+00 -0.93138788799E+03  0.93138788799E+03  0.00000000000E+00 0.  1.
        -13    1    1    2    0    0 -0.40891888163E+03 -0.24047910633E+03 -0.13584582391E+03  0.49345612913E+03  0.10566000000E+00 0.  1.
         13    1    1    2    0    0  0.18448090726E+02 -0.14425518746E+02 -0.19449635773E+02  0.30442193388E+02  0.10566000000E+00 0. -1.
          4    1    1    2  501    0  0.39047079090E+03  0.25490462507E+03 -0.49993263492E+03  0.68364935887E+03  0.00000000000E+00 0.  1.
</event>
<event>
 5    1  0.4881333E-005  0.4042244E+03  0.7818608E-02  0.1018436E+00
         21   -1    0    0  501  502  0.00000000000E+00  0.00000000000E+00  0.37277407109E+03  0.37277407109E+03  0.00000000000E+00 0.  1.
          4   -1    0    0  502    0 -0.00000000000E+00 -0.00000000000E+00 -0.86416169102E+03  0.86416169102E+03  0.00000000000E+00 0.  1.
        -13    1    1    2    0    0 -0.34858747825E+03 -0.10162903368E+02 -0.36334768618E+03  0.50362492672E+03  0.10566000000E+00 0.  1.
         13    1    1    2    0    0 -0.74355367592E+02  0.43067895473E+02 -0.27206179963E+03  0.28530895235E+03  0.10566000000E+00 0. -1.
          4    1    1    2  501    0  0.42294284585E+03 -0.32904992105E+02  0.14402186588E+03  0.44800188304E+03  0.00000000000E+00 0.  1.
</event>
<event>
 5    1  0.4881333E-005  0.5875334E+03  0.7818608E-02  0.9304353E-01
         21   -1    0    0  501  502  0.00000000000E+00  0.00000000000E+00  0.51930737685E+03  0.51930737685E+03  0.00000000000E+00 0.  1.
         -4   -1    0    0    0  501 -0.00000000000E+00 -0.00000000000E+00 -0.11434781601E+04  0.11434781601E+04  0.00000000000E+00 0. -1.
        -13    1    1    2    0    0  0.54269480759E+03  0.20366539985E+03 -0.63552865214E+03  0.86017087147E+03  0.10566000000E+00 0.  1.
         13    1    1    2    0    0 -0.56408603893E+03 -0.21517779431E+03 -0.16397607759E+03  0.62560587247E+03  0.10566000000E+00 0. -1.
         -4    1    1    2    0  502  0.21391231346E+02  0.11512394457E+02  0.17533394650E+03  0.17700879300E+03  0.00000000000E+00 0. -1.
</event>
<event>
 5    1  0.4881333E-005  0.3465471E+03  0.7818608E-02  0.1020083E+00
         21   -1    0    0  501  502  0.00000000000E+00  0.00000000000E+00  0.86530507333E+03  0.86530507333E+03  0.00000000000E+00 0. -1.
          4   -1    0    0  502    0 -0.00000000000E+00 -0.00000000000E+00 -0.36790746725E+03  0.36790746725E+03  0.00000000000E+00 0.  1.
        -13    1    1    2    0    0 -0.28988594151E+03 -0.15808480725E+03  0.55202850003E+03  0.64324189958E+03  0.10566000000E+00 0.  1.
         13    1    1    2    0    0 -0.12945658149E+03  0.10934369158E+01  0.33248123540E+02  0.13366245164E+03  0.10566000000E+00 0. -1.
          4    1    1    2  501    0  0.41934252300E+03  0.15699137034E+03 -0.87879017485E+02  0.45630818935E+03  0.00000000000E+00 0.  1.
</event>
<event>
 5    1  0.4881333E-005  0.4825620E+02  0.7818608E-02  0.1299056E+00
         21   -1    0    0  501  502  0.00000000000E+00  0.00000000000E+00  0.13312253752E+03  0.13312253752E+03  0.00000000000E+00 0.  1.
         -4   -1    0    0    0  501 -0.00000000000E+00 -0.00000000000E+00 -0.14165939134E+03  0.14165939134E+03  0.00000000000E+00 0. -1.
        -13    1    1    2    0    0  0.31788244550E+02  0.67539636059E+02  0.88271869165E+02  0.11560289348E+03  0.10566000000E+00 0.  1.
         13    1    1    2    0    0 -0.33087230906E+02 -0.33671218217E+02 -0.11237059969E+03  0.12188387351E+03  0.10566000000E+00 0. -1.
         -4    1    1    2    0  502  0.12989863568E+01 -0.33868417843E+02  0.15561876695E+02  0.37295161871E+02  0.00000000000E+00 0. -1.
</event>
<event>
 5    1  0.4881333E-005  0.4442204E+03  0.7818608E-02  0.9609400E-01
         21   -1    0    0  501  502  0.00000000000E+00  0.00000000000E+00  0.24771299499E+03  0.24771299499E+03  0.00000000000E+00 0.  1.
          4   -1    0    0  502    0 -0.00000000000E+00 -0.00000000000E+00 -0.21310550720E+04  0.21310550720E+04  0.00000000000E+00 0.  1.
        -13    1    1    2    0    0 -0.51467360120E+03 -0.34540596302E+02 -0.13874717438E+04  0.14802566735E+04  0.10566000000E+00 0.  1.
         13    1    1    2    0    0  0.30205281675E+03  0.23591388446E+03 -0.46716250982E+03  0.60426160455E+03  0.10566000000E+00 0. -1.
          4    1    1    2  501    0  0.21262078446E+03 -0.20137328815E+03 -0.28707823443E+02  0.29424978894E+03  0.00000000000E+00 0.  1.
</event>
<event>
 5    1  0.4881333E-005  0.4422257E+03  0.7818608E-02  0.9635453E-01
         21   -1    0    0  501  502  0.00000000000E+00  0.00000000000E+00  0.32280405082E+03  0.32280405082E+03  0.00000000000E+00 0.  1.
          4   -1    0    0  502    0 -0.00000000000E+00 -0.00000000000E+00 -0.19550120876E+04  0.19550120876E+04  0.00000000000E+00 0.  1.
        -13    1    1    2    0    0  0.32539872019E+03 -0.14793279750E+03 -0.17223697947E+03  0.39677957097E+03  0.10566000000E+00 0.  1.
         13    1    1    2    0    0  0.69716675299E+02 -0.45362303699E+03 -0.67295130203E+03  0.81455370638E+03  0.10566000000E+00 0. -1.
          4    1    1    2  501    0 -0.39511539549E+03  0.60155583449E+03 -0.78701975525E+03  0.10664828611E+04  0.00000000000E+00 0.  1.
</event>
<event>
 5    1  0.4881333E-005  0.5241437E+03  0.7818608E-02  0.9846140E-01
         -4   -1    0    0    0  501 -0.00000000000E+00  0.00000000000E+00  0.44131978297E+03  0.44131978297E+03  0.00000000000E+00 0. -1.
         21   -1    0    0  501  502  0.00000000000E+00 -0.00000000000E+00 -0.21246690960E+04  0.21246690960E+04  0.00000000000E+00 0. -1.
        -13    1    1    2    0    0  0.44060149316E+02  0.11063106295E+03  0.26671286790E+03  0.29208953065E+03  0.10566000000E+00 0.  1.
         13    1    1    2    0    0 -0.49279072592E+03  0.16972108986E+03 -0.46894853035E+03  0.70111388745E+03  0.10566000000E+00 0. -1.
         -4    1    1    2    0  502  0.44873057660E+03 -0.28035215281E+03 -0.14811136506E+04  0.15727854608E+04  0.00000000000E+00 0. -1.
</event>
<event>
 5    1  0.4881333E-005  0.2618139E+03  0.7818608E-02  0.1024446E+00
         21   -1    0    0  501  502  0.00000000000E+00  0.00000000000E+00  0.20059711548E+03  0.20059711548E+03  0.00000000000E+00 0.  1.
          4   -1    0    0  502    0 -0.00000000000E+00 -0.00000000000E+00 -0.20297688622E+04  0.20297688622E+04  0.00000000000E+00 0.  1.
        -13    1    1    2    0    0 -0.19802344314E+03 -0.24803092447E+03 -0.14291815307E+04  0.14639987986E+04  0.10566000000E+00 0.  1.
         13    1    1    2    0    0  0.17298655325E+03  0.11332164032E+03 -0.53526485137E+03  0.57382454988E+03  0.10566000000E+00 0. -1.
          4    1    1    2  501    0  0.25036889891E+02  0.13470928415E+03  0.13527463533E+03  0.19254262919E+03  0.00000000000E+00 0.  1.
</event>
<event>
 5    1  0.4881333E-005  0.3306108E+03  0.7818608E-02  0.9954153E-01
         21   -1    0    0  501  502  0.00000000000E+00  0.00000000000E+00  0.77329219269E+02  0.77329219269E+02  0.00000000000E+00 0. -1.
         -4   -1    0    0    0  501 -0.00000000000E+00 -0.00000000000E+00 -0.24198860924E+04  0.24198860924E+04  0.00000000000E+00 0. -1.
        -13    1    1    2    0    0  0.53713281734E+02 -0.27326817503E+03 -0.87354057724E+03  0.91686082007E+03  0.10566000000E+00 0.  1.
         13    1    1    2    0    0 -0.11931943243E+03  0.38588698602E+03 -0.13291827435E+04  0.13891985710E+04  0.10566000000E+00 0. -1.
         -4    1    1    2    0  502  0.65606150698E+02 -0.11261881099E+03 -0.13983355236E+03  0.19115592056E+03  0.00000000000E+00 0. -1.
</event>
<event>
 5    1  0.4881333E-005  0.8707302E+03  0.7818608E-02  0.8906568E-01
         -4   -1    0    0    0  501 -0.00000000000E+00  0.00000000000E+00  0.18051038680E+04  0.18051038680E+04  0.00000000000E+00 0. -1.
         21   -1    0    0  501  502  0.00000000000E+00 -0.00000000000E+00 -0.76020742471E+03  0.76020742471E+03  0.00000000000E+00 0. -1.
        -13    1    1    2    0    0 -0.47557108627E+02  0.81433924975E+03  0.93898766822E+03  0.12438279401E+04  0.10566000000E+00 0.  1.
         13    1    1    2    0    0  0.88686646976E+02 -0.10029087141E+04  0.29717243024E+03  0.10497631517E+04  0.10566000000E+00 0. -1.
         -4    1    1    2    0  502 -0.41129538349E+02  0.18856946436E+03 -0.19126365517E+03  0.27172020095E+03  0.00000000000E+00 0. -1.
</event>
<event>
 5    1  0.4881333E-005  0.3110582E+03  0.7818608E-02  0.1002842E+00
         21   -1    0    0  501  502  0.00000000000E+00  0.00000000000E+00  0.20569822918E+03  0.20569822918E+03  0.00000000000E+00 0. -1.
          4   -1    0    0  502    0 -0.00000000000E+00 -0.00000000000E+00 -0.11535256513E+04  0.11535256513E+04  0.00000000000E+00 0.  1.
        -13    1    1    2    0    0 -0.24169925411E+03  0.19401773660E+03 -0.39764873256E+03  0.50416856033E+03  0.10566000000E+00 0.  1.
         13    1    1    2    0    0  0.23630251808E+03 -0.20351303049E+03 -0.66774635592E+03  0.73698143846E+03  0.10566000000E+00 0. -1.
          4    1    1    2  501    0  0.53967360375E+01  0.94952938943E+01  0.11756766635E+03  0.11807388169E+03  0.00000000000E+00 0.  1.
</event>
<event>
 5    1  0.4881333E-005  0.4614021E+03  0.7818608E-02  0.9738380E-01
          4   -1    0    0  502    0 -0.00000000000E+00  0.00000000000E+00  0.59470419581E+03  0.59470419581E+03  0.00000000000E+00 0.  1.
         21   -1    0    0  501  502  0.00000000000E+00 -0.00000000000E+00 -0.81004080632E+03  0.81004080632E+03  0.00000000000E+00 0. -1.
        -13    1    1    2    0    0 -0.27424287283E+03  0.27573274331E+03  0.28805845109E+03  0.48395803686E+03  0.10566000000E+00 0.  1.
         13    1    1    2    0    0  0.13757790288E+03  0.21153047957E+03 -0.24849515310E+03  0.35415063946E+03  0.10566000000E+00 0. -1.
          4    1    1    2  501    0  0.13666496995E+03 -0.48726322288E+03 -0.25489990850E+03  0.56663632581E+03  0.00000000000E+00 0.  1.
</event>
<event>
 5    1  0.4881333E-005  0.3510735E+03  0.7818608E-02  0.1007198E+00
          4   -1    0    0  502    0 -0.00000000000E+00  0.00000000000E+00  0.16410140436E+04  0.16410140436E+04  0.00000000000E+00 0.  1.
         21   -1    0    0  501  502  0.00000000000E+00 -0.00000000000E+00 -0.23125815713E+03  0.23125815713E+03  0.00000000000E+00 0.  1.
        -13    1    1    2    0    0  0.11662343510E+03  0.31156732744E+03  0.12201642621E+04  0.12647039428E+04  0.10566000000E+00 0.  1.
         13    1    1    2    0    0  0.16612074420E+03 -0.87685127814E+02  0.15814763959E+03  0.24555135994E+03  0.10566000000E+00 0. -1.
          4    1    1    2  501    0 -0.28274417930E+03 -0.22388219963E+03  0.31443984696E+02  0.36201689797E+03  0.00000000000E+00 0.  1.
</event>
<event>
 5    1  0.4881333E-005  0.5010122E+03  0.7818608E-02  0.1002389E+00
         -4   -1    0    0    0  501 -0.00000000000E+00  0.00000000000E+00  0.18748929016E+04  0.18748929016E+04  0.00000000000E+00 0. -1.
         21   -1    0    0  501  502  0.00000000000E+00 -0.00000000000E+00 -0.17803844501E+03  0.17803844501E+03  0.00000000000E+00 0. -1.
        -13    1    1    2    0    0 -0.52114604004E+02  0.54699920858E+02  0.38966209932E+03  0.39691885330E+03  0.10566000000E+00 0.  1.
         13    1    1    2    0    0  0.16177428625E+01  0.47741106877E+03  0.53717841600E+03  0.71866863537E+03  0.10566000000E+00 0. -1.
         -4    1    1    2    0  502  0.50496861142E+02 -0.53211098963E+03  0.77001394123E+03  0.93734385791E+03  0.00000000000E+00 0. -1.
</event>
<event>
 5    1  0.4881333E-005  0.4874550E+03  0.7818608E-02  0.9813099E-01
          4   -1    0    0  502    0 -0.00000000000E+00  0.00000000000E+00  0.77209644861E+03  0.77209644861E+03  0.00000000000E+00 0.  1.
         21   -1    0    0  501  502  0.00000000000E+00 -0.00000000000E+00 -0.45490441837E+03  0.45490441837E+03  0.00000000000E+00 0.  1.
        -13    1    1    2    0    0  0.44174858516E+03  0.28573563382E+03 -0.32142442596E+02  0.52708615302E+03  0.10566000000E+00 0.  1.
         13    1    1    2    0    0 -0.15749418840E+03  0.51212556890E+02  0.99711868945E+02  0.19331221724E+03  0.10566000000E+00 0. -1.
          4    1    1    2  501    0 -0.28425439676E+03 -0.33694819071E+03  0.24962260389E+03  0.50660249671E+03  0.00000000000E+00 0.  1.
</event>
<event>
 5    1  0.4881333E-005  0.1089698E+03  0.7818608E-02  0.1150511E+00
         -4   -1    0    0    0  501 -0.00000000000E+00  0.00000000000E+00  0.81465937941E+02  0.81465937941E+02  0.00000000000E+00 0. -1.
         21   -1    0    0  501  502  0.00000000000E+00 -0.00000000000E+00 -0.24365193067E+03  0.24365193067E+03  0.00000000000E+00 0.  1.
        -13    1    1    2    0    0  0.13199354774E+01  0.97898111725E+02 -0.28766307003E+02  0.10204554910E+03  0.10566000000E+00 0.  1.
         13    1    1    2    0    0  0.68143001362E+01 -0.12430199847E+03 -0.48213875309E+02  0.13349910279E+03  0.10566000000E+00 0. -1.
         -4    1    1    2    0  502 -0.81342356136E+01  0.26403886744E+02 -0.85205810413E+02  0.89573216713E+02  0.00000000000E+00 0. -1.
</event>
<event>
 5    1  0.4881333E-005  0.4828064E+03  0.7818608E-02  0.9766919E-01
         21   -1    0    0  501  502  0.00000000000E+00  0.00000000000E+00  0.46177564407E+03  0.46177564407E+03  0.00000000000E+00 0. -1.
         -4   -1    0    0    0  501 -0.00000000000E+00 -0.00000000000E+00 -0.79577375099E+03  0.79577375099E+03  0.00000000000E+00 0. -1.
        -13    1    1    2    0    0 -0.19762136434E+03 -0.28103209297E+02 -0.11328375545E+03  0.22951517255E+03  0.10566000000E+00 0.  1.
         13    1    1    2    0    0 -0.42512879558E+02  0.47215888584E+03 -0.22136937234E+03  0.52320719469E+03  0.10566000000E+00 0. -1.
         -4    1    1    2    0  502  0.24013424390E+03 -0.44405567654E+03  0.65502086735E+00  0.50482702782E+03  0.00000000000E+00 0. -1.
</event>
<event>
 5    1  0.4881333E-005  0.8049634E+03  0.7818608E-02  0.8983232E-01
          4   -1    0    0  502    0 -0.00000000000E+00  0.00000000000E+00  0.10802186362E+04  0.10802186362E+04  0.00000000000E+00 0.  1.
         21   -1    0    0  501  502  0.00000000000E+00 -0.00000000000E+00 -0.12969416064E+04  0.12969416064E+04  0.00000000000E+00 0. -1.
        -13    1    1    2    0    0 -0.52739471421E+03 -0.82589207706E+03 -0.50615021734E+03  0.11029192904E+04  0.10566000000E+00 0.  1.
         13    1    1    2    0    0  0.27744802157E+03  0.71212794454E+03  0.51270346768E+03  0.92030889978E+03  0.10566000000E+00 0. -1.
          4    1    1    2  501    0  0.24994669264E+03  0.11376413251E+03 -0.22327622054E+03  0.35393205233E+03  0.00000000000E+00 0.  1.
</event>
<event>
 5    1  0.4881333E-005  0.5406825E+02  0.7818608E-02  0.1276056E+00
          4   -1    0    0  502    0 -0.00000000000E+00  0.00000000000E+00  0.97596750731E+01  0.97596750731E+01  0.00000000000E+00 0.  1.
         21   -1    0    0  501  502  0.00000000000E+00 -0.00000000000E+00 -0.59629982945E+03  0.59629982945E+03  0.00000000000E+00 0. -1.
        -13    1    1    2    0    0  0.58821159873E+02  0.77262516171E+01 -0.35362405109E+03  0.35856603922E+03  0.10566000000E+00 0.  1.
         13    1    1    2    0    0 -0.52641586629E+02  0.54065208174E+01 -0.94414336657E+02  0.10823329081E+03  0.10566000000E+00 0. -1.
          4    1    1    2  501    0 -0.61795732434E+01 -0.13132772434E+02 -0.13850176664E+03  0.13926017449E+03  0.00000000000E+00 0.  1.
</event>
<event>
 5    1  0.4881333E-005  0.6252476E+03  0.7818608E-02  0.9351335E-01
          4   -1    0    0  502    0 -0.00000000000E+00  0.00000000000E+00  0.16456962598E+04  0.16456962598E+04  0.00000000000E+00 0.  1.
         21   -1    0    0  501  502  0.00000000000E+00 -0.00000000000E+00 -0.68750367942E+03  0.68750367942E+03  0.00000000000E+00 0.  1.
        -13    1    1    2    0    0 -0.32592614693E+03 -0.15538571013E+03  0.41956035792E+03  0.55353724108E+03  0.10566000000E+00 0.  1.
         13    1    1    2    0    0  0.55997477718E+03 -0.42440369190E+03  0.83201222519E+03  0.10890062437E+04  0.10566000000E+00 0. -1.
          4    1    1    2  501    0 -0.23404863025E+03  0.57978940203E+03 -0.29338000275E+03  0.69065645443E+03  0.00000000000E+00 0.  1.
</event>
<event>
 5    1  0.4881333E-005  0.3572608E+03  0.7818608E-02  0.9861314E-01
         21   -1    0    0  501  502  0.00000000000E+00  0.00000000000E+00  0.11794374713E+04  0.11794374713E+04  0.00000000000E+00 0. -1.
          4   -1    0    0  502    0 -0.00000000000E+00 -0.00000000000E+00 -0.30224337579E+03  0.30224337579E+03  0.00000000000E+00 0.  1.
        -13    1    1    2    0    0  0.72663677260E+01  0.35818053141E+03 -0.14788372237E+03  0.38757670168E+03  0.10566000000E+00 0.  1.
         13    1    1    2    0    0 -0.24889580596E+02 -0.34927610750E+03  0.87076813882E+03  0.93853633560E+03  0.10566000000E+00 0. -1.
          4    1    1    2  501    0  0.17623212870E+02 -0.89044239121E+01  0.15430967911E+03  0.15556780986E+03  0.00000000000E+00 0.  1.
</event>
<event>
 5    1  0.4881333E-005  0.8385167E+03  0.7818608E-02  0.8943201E-01
         21   -1    0    0  501  502  0.00000000000E+00  0.00000000000E+00  0.54846358544E+03  0.54846358544E+03  0.00000000000E+00 0. -1.
          4   -1    0    0  502    0 -0.00000000000E+00 -0.00000000000E+00 -0.23122075197E+04  0.23122075197E+04  0.00000000000E+00 0.  1.
        -13    1    1    2    0    0 -0.70807217585E+03  0.44530531476E+03 -0.96941844499E+03  0.12804042964E+04  0.10566000000E+00 0.  1.
         13    1    1    2    0    0  0.89997132319E+03 -0.65217549865E+02 -0.70530628489E+03  0.11452766819E+04  0.10566000000E+00 0. -1.
          4    1    1    2  501    0 -0.19189914734E+03 -0.38008776489E+03 -0.89019204426E+02  0.43499012693E+03  0.00000000000E+00 0.  1.
</event>
<event>
 5    1  0.4881333E-005  0.4534312E+03  0.7818608E-02  0.9970076E-01
         21   -1    0    0  501  502  0.00000000000E+00  0.00000000000E+00  0.11744633847E+03  0.11744633847E+03  0.00000000000E+00 0. -1.
         -4   -1    0    0    0  501 -0.00000000000E+00 -0.00000000000E+00 -0.25024763323E+04  0.25024763323E+04  0.00000000000E+00 0. -1.
        -13    1    1    2    0    0  0.70090473719E+02 -0.99353232800E+02 -0.61444961135E+03  0.62636417157E+03  0.10566000000E+00 0.  1.
         13    1    1    2    0    0 -0.30792871955E+03 -0.31362600537E+03 -0.83903977794E+03  0.94719012226E+03  0.10566000000E+00 0. -1.
         -4    1    1    2    0  502  0.23783824583E+03  0.41297923817E+03 -0.93154060452E+03  0.10463683769E+04  0.00000000000E+00 0. -1.
</event>
<event>
 5    1  0.4881333E-005  0.4243848E+03  0.7818608E-02  0.9661152E-01
          4   -1    0    0  502    0 -0.00000000000E+00  0.00000000000E+00  0.19386970027E+04  0.19386970027E+04  0.00000000000E+00 0.  1.
         21   -1    0    0  501  502  0.00000000000E+00 -0.00000000000E+00 -0.16790888912E+03  0.16790888912E+03  0.00000000000E+00 0. -1.
        -13    1    1    2    0    0 -0.42804908787E+03  0.48995961641E+02  0.57875247045E+03  0.72151303461E+03  0.10566000000E+00 0.  1.
         13    1    1    2    0    0  0.41963895294E+03 -0.37481568322E+02  0.12532855658E+04  0.13222051427E+04  0.10566000000E+00 0. -1.
          4    1    1    2  501    0  0.84101349312E+01 -0.11514393320E+02 -0.61249922618E+02  0.62887714570E+02  0.00000000000E+00 0.  1.
</event>
<event>
 5    1  0.4881333E-005  0.2764558E+03  0.7818608E-02  0.1017527E+00
          4   -1    0    0  502    0 -0.00000000000E+00  0.00000000000E+00  0.17405851237E+04  0.17405851237E+04  0.00000000000E+00 0.  1.
         21   -1    0    0  501  502  0.00000000000E+00 -0.00000000000E+00 -0.71515093829E+02  0.71515093829E+02  0.00000000000E+00 0.  1.
        -13    1    1    2    0    0  0.61166480917E+02 -0.27022742740E+03  0.75227295980E+03  0.80167251301E+03  0.10566000000E+00 0.  1.
         13    1    1    2    0    0 -0.13264845599E+02  0.27755674012E+03  0.92078985213E+03  0.96180437879E+03  0.10566000000E+00 0. -1.
          4    1    1    2  501    0 -0.47901635318E+02 -0.73293127267E+01 -0.39927821055E+01  0.48623325680E+02  0.00000000000E+00 0.  1.
</event>
<event>
 5    1  0.4881333E-005  0.5405762E+03  0.7818608E-02  0.9490762E-01
         -4   -1    0    0    0  501 -0.00000000000E+00  0.00000000000E+00  0.23650605971E+04  0.23650605971E+04  0.00000000000E+00 0. -1.
         21   -1    0    0  501  502  0.00000000000E+00 -0.00000000000E+00 -0.37583543920E+03  0.37583543920E+03  0.00000000000E+00 0. -1.
        -13    1    1    2    0    0 -0.62119215393E+03 -0.18011093353E+03  0.90955406355E+03  0.11160682086E+04  0.10566000000E+00 0.  1.
         13    1    1    2    0    0  0.74928848750E+02 -0.39604258788E+03  0.23943809295E+03  0.46882264804E+03  0.10566000000E+00 0. -1.
         -4    1    1    2    0  502  0.54626330518E+03  0.57615352141E+03  0.84023300136E+03  0.11560051797E+04  0.00000000000E+00 0. -1.
</event>
<event>
 5    1  0.4881333E-005  0.5808182E+03  0.7818608E-02  0.9316514E-01
         21   -1    0    0  501  502  0.00000000000E+00  0.00000000000E+00  0.42693993302E+03  0.42693993302E+03  0.00000000000E+00 0. -1.
         -4   -1    0    0    0  501 -0.00000000000E+00 -0.00000000000E+00 -0.15808440060E+04  0.15808440060E+04  0.00000000000E+00 0. -1.
        -13    1    1    2    0    0 -0.49874683061E+03  0.28822411034E+02 -0.43046193700E+03  0.65945175926E+03  0.10566000000E+00 0.  1.
         13    1    1    2    0    0  0.65600395421E+03 -0.35073788122E+02 -0.89842462265E+03  0.11129861510E+04  0.10566000000E+00 0. -1.
         -4    1    1    2    0  502 -0.15725712361E+03  0.62513770876E+01  0.17498248665E+03  0.23534602880E+03  0.00000000000E+00 0. -1.
</event>
<event>
 5    1  0.4881333E-005  0.9800499E+02  0.7818608E-02  0.1167899E+00
          4   -1    0    0  502    0 -0.00000000000E+00  0.00000000000E+00  0.41004753505E+02  0.41004753505E+02  0.00000000000E+00 0.  1.
         21   -1    0    0  501  502  0.00000000000E+00 -0.00000000000E+00 -0.29166652477E+03  0.29166652477E+03  0.00000000000E+00 0. -1.
        -13    1    1    2    0    0  0.90128506853E+02 -0.51126378226E+02 -0.76672318379E+02  0.12890193896E+03  0.10566000000E+00 0.  1.
         13    1    1    2    0    0 -0.75352914953E+02  0.49034365498E+02 -0.13679342778E+03  0.16369142873E+03  0.10566000000E+00 0. -1.
          4    1    1    2  501    0 -0.14775591899E+02  0.20920127282E+01 -0.37196025100E+02  0.40077910580E+02  0.00000000000E+00 0.  1.
</event>
<event>
 5    1  0.4881333E-005  0.1121401E+03  0.7818608E-02  0.1145896E+00
         -4   -1    0    0    0  501 -0.00000000000E+00  0.00000000000E+00  0.81951688836E+03  0.81951688836E+03  0.00000000000E+00 0. -1.
         21   -1    0    0  501  502  0.00000000000E+00 -0.00000000000E+00 -0.47134993960E+03  0.47134993960E+03  0.00000000000E+00 0. -1.
        -13    1    1    2    0    0  0.92858852996E+02 -0.60396425090E+02  0.25184627390E+03  0.27513097169E+03  0.10566000000E+00 0.  1.
         13    1    1    2    0    0 -0.11826958710E+03  0.12215416253E+03 -0.44185131225E+03  0.47343629767E+03  0.10566000000E+00 0. -1.
         -4    1    1    2    0  502  0.25410734104E+02 -0.61757737440E+02  0.53817198711E+03  0.54229955859E+03  0.00000000000E+00 0. -1.
</event>
<event>
 5    1  0.4881333E-005  0.1259960E+03  0.7818608E-02  0.1127532E+00
         21   -1    0    0  501  502  0.00000000000E+00  0.00000000000E+00  0.17228258232E+02  0.17228258232E+02  0.00000000000E+00 0.  1.
         -4   -1    0    0    0  501 -0.00000000000E+00 -0.00000000000E+00 -0.12681933917E+04  0.12681933917E+04  0.00000000000E+00 0. -1.
        -13    1    1    2    0    0  0.10081525619E+03  0.53406404516E+02 -0.57063304870E+03  0.58192615284E+03  0.10566000000E+00 0.  1.
         13    1    1    2    0    0 -0.12777327789E+03 -0.64546179591E+02 -0.62220652360E+03  0.63846157990E+03  0.10566000000E+00 0. -1.
         -4    1    1    2    0  502  0.26958021702E+02  0.11139775075E+02 -0.58125561123E+02  0.65033917141E+02  0.00000000000E+00 0. -1.
</event>
<event>
 5    1  0.4881333E-005  0.1654632E+03  0.7818608E-02  0.1141273E+00
         21   -1    0    0  501  502  0.00000000000E+00  0.00000000000E+00  0.54603978644E+03  0.54603978644E+03  0.00000000000E+00 0. -1.
         -4   -1    0    0    0  501 -0.00000000000E+00 -0.00000000000E+00 -0.82852107307E+02  0.82852107307E+02  0.00000000000E+00 0. -1.
        -13    1    1    2    0    0  0.26081815981E+02  0.29260939506E+02 -0.15066630659E+02  0.41993787982E+02  0.10566000000E+00 0.  1.
         13    1    1    2    0    0 -0.12883127079E+03 -0.12722453306E+03  0.35661681705E+03  0.39994892613E+03  0.10566000000E+00 0. -1.
         -4    1    1    2    0  502  0.10274945481E+03  0.97963593554E+02  0.12163749274E+03  0.18694917963E+03  0.00000000000E+00 0. -1.
</event>
<event>
 5    1  0.4881333E-005  0.2950988E+03  0.7818608E-02  0.1009349E+00
         -4   -1    0    0    0  501 -0.00000000000E+00  0.00000000000E+00  0.17934611319E+04  0.17934611319E+04  0.00000000000E+00 0. -1.
         21   -1    0    0  501  502  0.00000000000E+00 -0.00000000000E+00 -0.25739335778E+03  0.25739335778E+03  0.00000000000E+00 0. -1.
        -13    1    1    2    0    0  0.10825856255E+03 -0.25525536799E+03  0.54159133037E+03  0.60843767104E+03  0.10566000000E+00 0.  1.
         13    1    1    2    0    0 -0.15166036168E+03  0.38342451912E+03 -0.25866896251E+02  0.41313960673E+03  0.10566000000E+00 0. -1.
         -4    1    1    2    0  502  0.43401799131E+02 -0.12816915113E+03  0.10203433400E+04  0.10292772119E+04  0.00000000000E+00 0. -1.
</event>
<event>
 5    1  0.4881333E-005  0.4215206E+03  0.7818608E-02  0.9668873E-01
         -4   -1    0    0    0  501 -0.00000000000E+00  0.00000000000E+00  0.17365830644E+04  0.17365830644E+04  0.00000000000E+00 0. -1.
         21   -1    0    0  501  502  0.00000000000E+00 -0.00000000000E+00 -0.31581597648E+03  0.31581597648E+03  0.00000000000E+00 0. -1.
        -13    1    1    2    0    0  0.38158541353E+03  0.14820233489E+03  0.84873368934E+03  0.94229520134E+03  0.10566000000E+00 0.  1.
         13    1    1    2    0    0 -0.53982715425E+03  0.12672847885E+03  0.13608460888E+03  0.57095752535E+03  0.10566000000E+00 0. -1.
         -4    1    1    2    0  502  0.15824174071E+03 -0.27493081375E+03  0.43594878969E+03  0.53914631417E+03  0.00000000000E+00 0. -1.
</event>
<event>
 5    1  0.5805666E-005  0.6069402E+03  0.7818608E-02  0.9270152E-01
         21   -1    0    0  501  502  0.00000000000E+00  0.00000000000E+00  0.49841643655E+03  0.49841643655E+03  0.00000000000E+00 0.  1.
          4   -1    0    0  502    0 -0.00000000000E+00 -0.00000000000E+00 -0.21665512570E+04  0.21665512570E+04  0.00000000000E+00 0.  1.
        -13    1    1    2    0    0 -0.24057595572E+03 -0.48146334831E+03 -0.81065620333E+03  0.97306075730E+03  0.10566000000E+00 0.  1.
         13    1    1    2    0    0  0.21969433129E+03  0.65502981170E+03 -0.11555585092E+04  0.13463451017E+04  0.10566000000E+00 0. -1.
          4    1    1    2  501    0  0.20881624428E+02 -0.17356646338E+03  0.29807989209E+03  0.34556183458E+03  0.00000000000E+00 0.  1.
</event>
<event>
 5    1  0.4881333E-005  0.1587187E+03  0.7818608E-02  0.1092818E+00
         21   -1    0    0  501  502  0.00000000000E+00  0.00000000000E+00  0.57394299667E+02  0.57394299667E+02  0.00000000000E+00 0.  1.
         -4   -1    0    0    0  501 -0.00000000000E+00 -0.00000000000E+00 -0.64454006239E+03  0.64454006239E+03  0.00000000000E+00 0. -1.
        -13    1    1    2    0    0  0.12801364424E+03  0.80318835514E+02 -0.25461680830E+03  0.29608839674E+03  0.10566000000E+00 0.  1.
         13    1    1    2    0    0 -0.14334759201E+03 -0.82979878792E+02 -0.34705726654E+03  0.38455552244E+03  0.10566000000E+00 0. -1.
         -4    1    1    2    0  502  0.15333947771E+02  0.26610432782E+01  0.14528312108E+02  0.21290442886E+02  0.00000000000E+00 0. -1.
</event>
<event>
 5    1  0.4881333E-005  0.4584065E+03  0.7818608E-02  0.9886025E-01
         -4   -1    0    0    0  501 -0.00000000000E+00  0.00000000000E+00  0.46659063200E+03  0.46659063200E+03  0.00000000000E+00 0. -1.
         21   -1    0    0  501  502  0.00000000000E+00 -0.00000000000E+00 -0.89712600478E+03  0.89712600478E+03  0.00000000000E+00 0. -1.
        -13    1    1    2    0    0 -0.88255823684E+02  0.12818595177E+03  0.14047376801E+03  0.20965118485E+03  0.10566000000E+00 0.  1.
         13    1    1    2    0    0  0.48196660295E+03 -0.99007212811E+02 -0.57819109782E+03  0.75920958326E+03  0.10566000000E+00 0. -1.
         -4    1    1    2    0  502 -0.39371077927E+03 -0.29178738962E+02  0.71819570270E+01  0.39485586867E+03  0.00000000000E+00 0. -1.
</event>
<event>
 5    1  0.4881333E-005  0.1341898E+03  0.7818608E-02  0.1117843E+00
          4   -1    0    0  502    0 -0.00000000000E+00  0.00000000000E+00  0.75324121683E+03  0.75324121683E+03  0.00000000000E+00 0.  1.
         21   -1    0    0  501  502  0.00000000000E+00 -0.00000000000E+00 -0.29736369917E+02  0.29736369917E+02  0.00000000000E+00 0. -1.
        -13    1    1    2    0    0 -0.31167222148E+02 -0.12708132208E+03  0.28571604717E+03  0.31425265143E+03  0.10566000000E+00 0.  1.
         13    1    1    2    0    0  0.54226500813E+02  0.12648025799E+03  0.41071712204E+03  0.43315855591E+03  0.10566000000E+00 0. -1.
          4    1    1    2  501    0 -0.23059278665E+02  0.60106409019E+00  0.27071677701E+02  0.35566379407E+02  0.00000000000E+00 0.  1.
</event>
<event>
 5    1  0.4881333E-005  0.1259568E+03  0.7818608E-02  0.1127580E+00
         21   -1    0    0  501  502  0.00000000000E+00  0.00000000000E+00  0.23807581874E+02  0.23807581874E+02  0.00000000000E+00 0. -1.
          4   -1    0    0  502    0 -0.00000000000E+00 -0.00000000000E+00 -0.82806844977E+03  0.82806844977E+03  0.00000000000E+00 0.  1.
        -13    1    1    2    0    0  0.10173422816E+03  0.64369512927E+02 -0.33648743036E+03  0.35737527801E+03  0.10566000000E+00 0.  1.
         13    1    1    2    0    0 -0.10436792099E+03 -0.79289972558E+02 -0.45820062179E+03  0.47657883257E+03  0.10566000000E+00 0. -1.
          4    1    1    2  501    0  0.26336928262E+01  0.14920459631E+02 -0.95728157449E+01  0.17921921068E+02  0.00000000000E+00 0.  1.
</event>
<event>
 5    1  0.4881333E-005  0.5154967E+03  0.7818608E-02  0.9481679E-01
         21   -1    0    0  501  502  0.00000000000E+00  0.00000000000E+00  0.58928613044E+03  0.58928613044E+03  0.00000000000E+00 0. -1.
         -4   -1    0    0    0  501 -0.00000000000E+00 -0.00000000000E+00 -0.13427856257E+04  0.13427856257E+04  0.00000000000E+00 0. -1.
        -13    1    1    2    0    0  0.55125241589E+03  0.21297614726E+02 -0.52668118381E+03  0.76270957446E+03  0.10566000000E+00 0.  1.
         13    1    1    2    0    0 -0.10622507370E+02  0.32329786715E+03 -0.39109826650E+03  0.50753543107E+03  0.10566000000E+00 0. -1.
         -4    1    1    2    0  502 -0.54062990852E+03 -0.34459548188E+03  0.16427995510E+03  0.66182675057E+03  0.00000000000E+00 0. -1.
</event>
<event>
 5    1  0.4881333E-005  0.1652923E+03  0.7818608E-02  0.1086937E+00
         -4   -1    0    0    0  501 -0.00000000000E+00  0.00000000000E+00  0.58497567375E+02  0.58497567375E+02  0.00000000000E+00 0. -1.
         21   -1    0    0  501  502  0.00000000000E+00 -0.00000000000E+00 -0.70696130258E+03  0.70696130258E+03  0.00000000000E+00 0.  1.
        -13    1    1    2    0    0  0.81801345091E+02 -0.13414193381E+03 -0.24477735632E+03  0.29086334213E+03  0.10566000000E+00 0.  1.
         13    1    1    2    0    0 -0.91658564550E+02  0.14517506204E+03 -0.17403964867E+03  0.24447270107E+03  0.10566000000E+00 0. -1.
         -4    1    1    2    0  502  0.98572194590E+01 -0.11033128227E+02 -0.22964673022E+03  0.23012282676E+03  0.00000000000E+00 0. -1.
</event>
<event>
 5    1  0.4881333E-005  0.2017314E+03  0.7818608E-02  0.1058955E+00
         -4   -1    0    0    0  501 -0.00000000000E+00  0.00000000000E+00  0.51427825402E+03  0.51427825402E+03  0.00000000000E+00 0. -1.
         21   -1    0    0  501  502  0.00000000000E+00 -0.00000000000E+00 -0.80235652151E+03  0.80235652151E+03  0.00000000000E+00 0. -1.
        -13    1    1    2    0    0 -0.12446737456E+03  0.15789253417E+03  0.33385532246E+03  0.38971985731E+03  0.10566000000E+00 0.  1.
         13    1    1    2    0    0  0.25814472338E+03 -0.72911763683E+02 -0.70049645730E+03  0.75010007422E+03  0.10566000000E+00 0. -1.
         -4    1    1    2    0  502 -0.13367734881E+03 -0.84980770487E+02  0.78562867344E+02  0.17681484401E+03  0.00000000000E+00 0. -1.
</event>
<event>
 5    1  0.4881333E-005  0.4716690E+03  0.7818608E-02  0.9688426E-01
         21   -1    0    0  501  502  0.00000000000E+00  0.00000000000E+00  0.36175321004E+03  0.36175321004E+03  0.00000000000E+00 0. -1.
         -4   -1    0    0    0  501 -0.00000000000E+00 -0.00000000000E+00 -0.23840517104E+04  0.23840517104E+04  0.00000000000E+00 0. -1.
        -13    1    1    2    0    0  0.56900825671E+02  0.27514672581E+03 -0.15840756633E+04  0.16088005293E+04  0.10566000000E+00 0.  1.
         13    1    1    2    0    0 -0.14185540784E+03 -0.64724780473E+03 -0.33025201190E+03  0.74035064665E+03  0.10566000000E+00 0. -1.
         -4    1    1    2    0  502  0.84954582168E+02  0.37210107892E+03 -0.10797082514E+03  0.39665374453E+03  0.00000000000E+00 0. -1.
</event>
<event>
 5    1  0.4881333E-005  0.4264649E+03  0.7818608E-02  0.9838495E-01
         -4   -1    0    0    0  501 -0.00000000000E+00  0.00000000000E+00  0.19930305687E+04  0.19930305687E+04  0.00000000000E+00 0. -1.
         21   -1    0    0  501  502  0.00000000000E+00 -0.00000000000E+00 -0.20978045218E+03  0.20978045218E+03  0.00000000000E+00 0. -1.
        -13    1    1    2    0    0 -0.53901666804E+02 -0.22037800169E+03  0.55497817383E+03  0.59956037053E+03  0.10566000000E+00 0.  1.
         13    1    1    2    0    0 -0.17177069618E+03 -0.33261630332E+03  0.22826260805E+03  0.43845479436E+03  0.10566000000E+00 0. -1.
         -4    1    1    2    0  502  0.22567236299E+03  0.55299430500E+03  0.10000093346E+04  0.11647958560E+04  0.00000000000E+00 0. -1.
</event>
<event>
 5    1  0.4881333E-005  0.1675492E+03  0.7818608E-02  0.1084986E+00
         -4   -1    0    0    0  501 -0.00000000000E+00  0.00000000000E+00  0.47104590900E+03  0.47104590900E+03  0.00000000000E+00 0. -1.
         21   -1    0    0  501  502  0.00000000000E+00 -0.00000000000E+00 -0.15333908888E+03  0.15333908888E+03  0.00000000000E+00 0. -1.
        -13    1    1    2    0    0  0.66070161626E+02 -0.13664514457E+03  0.21247594630E+03  0.26111913127E+03  0.10566000000E+00 0.  1.
         13    1    1    2    0    0 -0.11324508256E+03  0.16098174287E+03  0.18323472027E+03  0.26891363695E+03  0.10566000000E+00 0. -1.
         -4    1    1    2    0  502  0.47174920934E+02 -0.24336598303E+02 -0.78003846449E+02  0.94352229666E+02  0.00000000000E+00 0. -1.
</event>
<event>
 5    1  0.4881333E-005  0.3601388E+03  0.7818608E-02  0.9851805E-01
          4   -1    0    0  502    0 -0.00000000000E+00  0.00000000000E+00  0.25992995399E+04  0.25992995399E+04  0.00000000000E+00 0.  1.
         21   -1    0    0  501  502  0.00000000000E+00 -0.00000000000E+00 -0.21829207897E+03  0.21829207897E+03  0.00000000000E+00 0.  1.
        -13    1    1    2    0    0  0.22015297831E+03 -0.31385998397E+03  0.20291850666E+02  0.38391039809E+03  0.10566000000E+00 0.  1.
         13    1    1    2    0    0 -0.11873380718E+02  0.36451861253E+03  0.12344450723E+04  0.12871944079E+04  0.10566000000E+00 0. -1.
          4    1    1    2  501    0 -0.20827959759E+03 -0.50658628561E+02  0.11262705380E+04  0.11464868129E+04  0.00000000000E+00 0.  1.
</event>
<event>
 5    1  0.4881333E-005  0.4877064E+03  0.7818608E-02  0.9781620E-01
         21   -1    0    0  501  502  0.00000000000E+00  0.00000000000E+00  0.27889112921E+03  0.27889112921E+03  0.00000000000E+00 0. -1.
         -4   -1    0    0    0  501 -0.00000000000E+00 -0.00000000000E+00 -0.14749036943E+04  0.14749036943E+04  0.00000000000E+00 0. -1.
        -13    1    1    2    0    0 -0.12757604614E+03 -0.13276605368E+03 -0.45553638839E+03  0.49134090495E+03  0.10566000000E+00 0.  1.
         13    1    1    2    0    0  0.61784436234E+02  0.56996086470E+03 -0.49091119814E+03  0.75476255834E+03  0.10566000000E+00 0. -1.
         -4    1    1    2    0  502  0.65791609907E+02 -0.43719481102E+03 -0.24956497853E+03  0.50769136021E+03  0.00000000000E+00 0. -1.
</event>
<event>
 5    1  0.4881333E-005  0.1455809E+03  0.7818608E-02  0.1105553E+00
         21   -1    0    0  501  502  0.00000000000E+00  0.00000000000E+00  0.63427953345E+02  0.63427953345E+02  0.00000000000E+00 0. -1.
          4   -1    0    0  502    0 -0.00000000000E+00 -0.00000000000E+00 -0.77000733792E+03  0.77000733792E+03  0.00000000000E+00 0.  1.
        -13    1    1    2    0    0 -0.13727834970E+03 -0.43977799881E+02 -0.58268338937E+03  0.60024939449E+03  0.10566000000E+00 0.  1.
         13    1    1    2    0    0  0.14751663876E+03  0.33645596656E+02 -0.14366301216E+03  0.20864385232E+03  0.10566000000E+00 0. -1.
          4    1    1    2  501    0 -0.10238289068E+02  0.10332203226E+02  0.19767016951E+02  0.24542044448E+02  0.00000000000E+00 0.  1.
</event>
<event>
 5    1  0.4881333E-005  0.4453690E+03  0.7818608E-02  0.9979873E-01
          4   -1    0    0  502    0 -0.00000000000E+00  0.00000000000E+00  0.16599910211E+04  0.16599910211E+04  0.00000000000E+00 0.  1.
         21   -1    0    0  501  502  0.00000000000E+00 -0.00000000000E+00 -0.19266761390E+03  0.19266761390E+03  0.00000000000E+00 0.  1.
        -13    1    1    2    0    0 -0.10530221346E+03  0.36456995270E+03  0.10510802496E+04  0.11174835609E+04  0.10566000000E+00 0.  1.
         13    1    1    2    0    0 -0.11132007312E+03  0.55159522702E+02  0.14327978390E+03  0.18964134376E+03  0.10566000000E+00 0. -1.
          4    1    1    2  501    0  0.21662228658E+03 -0.41972947540E+03  0.27296337368E+03  0.54553373034E+03  0.00000000000E+00 0.  1.
</event>
<event>
 5    1  0.4881333E-005  0.4981873E+03  0.7818608E-02  0.9491109E-01
          4   -1    0    0  502    0 -0.00000000000E+00  0.00000000000E+00  0.22642316072E+04  0.22642316072E+04  0.00000000000E+00 0.  1.
         21   -1    0    0  501  502  0.00000000000E+00 -0.00000000000E+00 -0.30506193892E+03  0.30506193892E+03  0.00000000000E+00 0.  1.
        -13    1    1    2    0    0 -0.24280348330E+03  0.90229575692E+02  0.76072901793E+03  0.80361903767E+03  0.10566000000E+00 0.  1.
         13    1    1    2    0    0 -0.40174589543E+03 -0.30855919826E+03  0.87761055833E+03  0.10133157684E+04  0.10566000000E+00 0. -1.
          4    1    1    2  501    0  0.64454937873E+03  0.21832962256E+03  0.32083009203E+03  0.75235874000E+03  0.00000000000E+00 0.  1.
</event>
<event>
 5    1  0.4881333E-005  0.4800095E+03  0.7818608E-02  0.9638791E-01
         21   -1    0    0  501  502  0.00000000000E+00  0.00000000000E+00  0.38901712780E+03  0.38901712780E+03  0.00000000000E+00 0.  1.
          4   -1    0    0  502    0 -0.00000000000E+00 -0.00000000000E+00 -0.11559567144E+04  0.11559567144E+04  0.00000000000E+00 0.  1.
        -13    1    1    2    0    0 -0.18667997403E+02 -0.51236589579E+03 -0.39381267550E+03  0.64649496505E+03  0.10566000000E+00 0.  1.
         13    1    1    2    0    0 -0.29279437988E+03  0.12227024868E+03 -0.16512861601E+03  0.35769544810E+03  0.10566000000E+00 0. -1.
          4    1    1    2  501    0  0.31146237729E+03  0.39009564711E+03 -0.20799829507E+03  0.54078342903E+03  0.00000000000E+00 0.  1.
</event>
<event>
 5    1  0.4881333E-005  0.1961122E+03  0.7818608E-02  0.1075072E+00
         -4   -1    0    0    0  501 -0.00000000000E+00  0.00000000000E+00  0.47520643050E+03  0.47520643050E+03  0.00000000000E+00 0. -1.
         21   -1    0    0  501  502  0.00000000000E+00 -0.00000000000E+00 -0.92491869387E+03  0.92491869387E+03  0.00000000000E+00 0. -1.
        -13    1    1    2    0    0 -0.98783263465E+02  0.21184160000E+03  0.92547928110E+02  0.25139635397E+03  0.10566000000E+00 0.  1.
         13    1    1    2    0    0 -0.16167420859E+03 -0.29105982124E+01 -0.74215429159E+03  0.75956568182E+03  0.10566000000E+00 0. -1.
         -4    1    1    2    0  502  0.26045747206E+03 -0.20893100179E+03  0.19989410011E+03  0.38916308859E+03  0.00000000000E+00 0. -1.
</event>
<event>
 5    1  0.4881333E-005  0.4555385E+03  0.7818608E-02  0.9581138E-01
         21   -1    0    0  501  502  0.00000000000E+00  0.00000000000E+00  0.15153181498E+04  0.15153181498E+04  0.00000000000E+00 0.  1.
          4   -1    0    0  502    0 -0.00000000000E+00 -0.00000000000E+00 -0.52909735082E+03  0.52909735082E+03  0.00000000000E+00 0.  1.
        -13    1    1    2    0    0 -0.87307186847E+02 -0.61974038239E+03  0.10962687413E+04  0.12623414161E+04  0.10566000000E+00 0.  1.
         13    1    1    2    0    0  0.26101493790E+03  0.35546583444E+03 -0.14420526427E+03  0.46398267927E+03  0.10566000000E+00 0. -1.
          4    1    1    2  501    0 -0.17370775105E+03  0.26427454796E+03  0.34157321970E+02  0.31809140529E+03  0.00000000000E+00 0.  1.
</event>
<event>
 5    1  0.4881333E-005  0.4556286E+03  0.7818608E-02  0.9751007E-01
         21   -1    0    0  501  502  0.00000000000E+00  0.00000000000E+00  0.23955810474E+03  0.23955810474E+03  0.00000000000E+00 0. -1.
          4   -1    0    0  502    0 -0.00000000000E+00 -0.00000000000E+00 -0.18075222570E+04  0.18075222570E+04  0.00000000000E+00 0.  1.
        -13    1    1    2    0    0  0.32155359809E+03 -0.23979780835E+03 -0.99036207929E+03  0.10685114714E+04  0.10566000000E+00 0.  1.
         13    1    1    2    0    0  0.16683458277E+03  0.18735911266E+03 -0.36601762014E+03  0.44374105571E+03  0.10566000000E+00 0. -1.
          4    1    1    2  501    0 -0.48838818086E+03  0.52438695693E+02 -0.21158445287E+03  0.53482783464E+03  0.00000000000E+00 0.  1.
</event>
<event>
 5    1  0.4881333E-005  0.6069604E+03  0.7818608E-02  0.9437978E-01
          4   -1    0    0  502    0 -0.00000000000E+00  0.00000000000E+00  0.13268946964E+04  0.13268946964E+04  0.00000000000E+00 0.  1.
         21   -1    0    0  501  502  0.00000000000E+00 -0.00000000000E+00 -0.97502079699E+03  0.97502079699E+03  0.00000000000E+00 0. -1.
        -13    1    1    2    0    0 -0.29614220071E+03  0.10142466634E+02  0.71912084484E+03  0.77777752173E+03  0.10566000000E+00 0.  1.
         13    1    1    2    0    0  0.78290890947E+03 -0.37271527261E+03 -0.15313092927E+03  0.88051810182E+03  0.10566000000E+00 0. -1.
          4    1    1    2  501    0 -0.48676670876E+03  0.36257280598E+03 -0.21411601621E+03  0.64361986979E+03  0.00000000000E+00 0.  1.
</event>
<event>
 5    1  0.4881333E-005  0.9447930E+02  0.7818608E-02  0.1174027E+00
         21   -1    0    0  501  502  0.00000000000E+00  0.00000000000E+00  0.42748836978E+02  0.42748836978E+02  0.00000000000E+00 0. -1.
          4   -1    0    0  502    0 -0.00000000000E+00 -0.00000000000E+00 -0.70723380459E+03  0.70723380459E+03  0.00000000000E+00 0.  1.
        -13    1    1    2    0    0  0.60984304708E+02  0.74604736381E+02 -0.54011265831E+03  0.54864072665E+03  0.10566000000E+00 0.  1.
         13    1    1    2    0    0 -0.70448120967E+01 -0.98523682670E+02 -0.69598438554E+02  0.12083252558E+03  0.10566000000E+00 0. -1.
          4    1    1    2  501    0 -0.53939492611E+02  0.23918946289E+02 -0.54773870747E+02  0.80509389337E+02  0.00000000000E+00 0.  1.
</event>
<event>
 5    1  0.4881333E-005  0.5539897E+02  0.7818608E-02  0.1271242E+00
         -4   -1    0    0    0  501 -0.00000000000E+00  0.00000000000E+00  0.65184066671E+02  0.65184066671E+02  0.00000000000E+00 0. -1.
         21   -1    0    0  501  502  0.00000000000E+00 -0.00000000000E+00 -0.33931428070E+03  0.33931428070E+03  0.00000000000E+00 0.  1.
        -13    1    1    2    0    0 -0.24819045554E+02  0.34675285571E+02 -0.39313519244E+02  0.57999348367E+02  0.10566000000E+00 0.  1.
         13    1    1    2    0    0  0.45841928301E+02 -0.38727715374E+02  0.39178966705E+02  0.71668130466E+02  0.10566000000E+00 0. -1.
         -4    1    1    2    0  502 -0.21022882747E+02  0.40524298026E+01 -0.27399566149E+03  0.27483086854E+03  0.00000000000E+00 0. -1.
</event>
<event>
 5    1  0.4881333E-005  0.4865359E+03  0.7818608E-02  0.9722829E-01
         21   -1    0    0  501  502  0.00000000000E+00  0.00000000000E+00  0.72747248507E+03  0.72747248507E+03  0.00000000000E+00 0. -1.
         -4   -1    0    0    0  501 -0.00000000000E+00 -0.00000000000E+00 -0.52214252356E+03  0.52214252356E+03  0.00000000000E+00 0. -1.
        -13    1    1    2    0    0  0.12407229567E+02 -0.22677777217E+03  0.45022273494E+02  0.23153641954E+03  0.10566000000E+00 0.  1.
         13    1    1    2    0    0 -0.30142164312E+03  0.48672614467E+03  0.24085403476E+03  0.62110226539E+03  0.10566000000E+00 0. -1.
         -4    1    1    2    0  502  0.28901441355E+03 -0.25994837250E+03 -0.80546346741E+02  0.39697632370E+03  0.00000000000E+00 0. -1.
</event>
<event>
 5    1  0.4881333E-005  0.4946266E+03  0.7818608E-02  0.9664888E-01
         21   -1    0    0  501  502  0.00000000000E+00  0.00000000000E+00  0.79088145344E+03  0.79088145344E+03  0.00000000000E+00 0. -1.
         -4   -1    0    0    0  501 -0.00000000000E+00 -0.00000000000E+00 -0.58399256861E+03  0.58399256861E+03  0.00000000000E+00 0. -1.
        -13    1    1    2    0    0 -0.22354188957E+03  0.14148206122E+03  0.21643326137E+03  0.34180625774E+03  0.10566000000E+00 0.  1.
         13    1    1    2    0    0 -0.51265883746E+02  0.38099915153E+03 -0.17143901439E+03  0.42092741788E+03  0.10566000000E+00 0. -1.
         -4    1    1    2    0  502  0.27480777332E+03 -0.52248121275E+03  0.16189463785E+03  0.61214034642E+03  0.00000000000E+00 0. -1.
</event>
<event>
 5    1  0.4881333E-005  0.4306108E+03  0.7818608E-02  0.1000467E+00
         21   -1    0    0  501  502  0.00000000000E+00  0.00000000000E+00  0.35643782660E+03  0.35643782660E+03  0.00000000000E+00 0. -1.
         -4   -1    0    0    0  501 -0.00000000000E+00 -0.00000000000E+00 -0.96117209446E+03  0.96117209446E+03  0.00000000000E+00 0. -1.
        -13    1    1    2    0    0 -0.28379491793E+02  0.12348772126E+03 -0.23205628162E+03  0.26439504885E+03  0.10566000000E+00 0.  1.
         13    1    1    2    0    0  0.40676891079E+03  0.10021749416E+03 -0.44111574584E+03  0.60834825989E+03  0.10566000000E+00 0. -1.
         -4    1    1    2    0  502 -0.37838941900E+03 -0.22370521541E+03  0.68437759591E+02  0.44486661231E+03  0.00000000000E+00 0. -1.
</event>
<event>
 5    1  0.4881333E-005  0.2332529E+03  0.7818608E-02  0.1039456E+00
          4   -1    0    0  502    0 -0.00000000000E+00  0.00000000000E+00  0.21707044980E+03  0.21707044980E+03  0.00000000000E+00 0.  1.
         21   -1    0    0  501  502  0.00000000000E+00 -0.00000000000E+00 -0.37076056328E+03  0.37076056328E+03  0.00000000000E+00 0. -1.
        -13    1    1    2    0    0  0.21895054875E+03 -0.52433954137E+02 -0.26884536465E+02  0.22674093546E+03  0.10566000000E+00 0.  1.
         13    1    1    2    0    0 -0.24608728392E+03 -0.37181026779E+01 -0.32818751128E+02  0.24829389276E+03  0.10566000000E+00 0. -1.
          4    1    1    2  501    0  0.27136735166E+02  0.56152056815E+02 -0.93986825886E+02  0.11279618487E+03  0.00000000000E+00 0.  1.
</event>
<event>
 5    1  0.4881333E-005  0.1267845E+03  0.7818608E-02  0.1126565E+00
         21   -1    0    0  501  502  0.00000000000E+00  0.00000000000E+00  0.72210673430E+03  0.72210673430E+03  0.00000000000E+00 0.  1.
         -4   -1    0    0    0  501 -0.00000000000E+00 -0.00000000000E+00 -0.28495530822E+02  0.28495530822E+02  0.00000000000E+00 0. -1.
        -13    1    1    2    0    0  0.36993046780E+02 -0.11933938684E+03  0.25408445917E+03  0.28314183427E+03  0.10566000000E+00 0.  1.
         13    1    1    2    0    0 -0.26958400149E+02  0.12630010300E+03  0.29024643852E+03  0.31768140895E+03  0.10566000000E+00 0. -1.
         -4    1    1    2    0  502 -0.10034646631E+02 -0.69607161601E+01  0.14928030579E+03  0.14977902189E+03  0.00000000000E+00 0. -1.
</event>
<event>
 5    1  0.4881333E-005  0.4529134E+03  0.7818608E-02  0.9587615E-01
          4   -1    0    0  502    0 -0.00000000000E+00  0.00000000000E+00  0.45550662675E+03  0.45550662675E+03  0.00000000000E+00 0.  1.
         21   -1    0    0  501  502  0.00000000000E+00 -0.00000000000E+00 -0.12871204324E+04  0.12871204324E+04  0.00000000000E+00 0.  1.
        -13    1    1    2    0    0 -0.53494086979E+03  0.10829625625E+03 -0.48505732887E+02  0.54794400314E+03  0.10566000000E+00 0.  1.
         13    1    1    2    0    0  0.34874923474E+03 -0.19120495062E+03 -0.12868582344E+02  0.39793337815E+03  0.10566000000E+00 0. -1.
          4    1    1    2  501    0  0.18619163505E+03  0.82908694378E+02 -0.77023949044E+03  0.79674967788E+03  0.00000000000E+00 0.  1.
</event>
<event>
 5    1  0.4881333E-005  0.2386660E+03  0.7818608E-02  0.1063785E+00
         21   -1    0    0  501  502  0.00000000000E+00  0.00000000000E+00  0.10727156911E+04  0.10727156911E+04  0.00000000000E+00 0. -1.
         -4   -1    0    0    0  501 -0.00000000000E+00 -0.00000000000E+00 -0.83778014934E+02  0.83778014934E+02  0.00000000000E+00 0. -1.
        -13    1    1    2    0    0  0.10097121791E+03 -0.31749521584E+02  0.17023587760E+03  0.20045818555E+03  0.10566000000E+00 0.  1.
         13    1    1    2    0    0 -0.20482226833E+03 -0.16975992483E+03  0.41207482611E+03  0.49048574613E+03  0.10566000000E+00 0. -1.
         -4    1    1    2    0  502  0.10385105042E+03  0.20150944641E+03  0.40662697242E+03  0.46554977431E+03  0.00000000000E+00 0. -1.
</event>
<event>
 5    1  0.4881333E-005  0.8509840E+02  0.7818608E-02  0.1191884E+00
          4   -1    0    0  502    0 -0.00000000000E+00  0.00000000000E+00  0.58448029247E+02  0.58448029247E+02  0.00000000000E+00 0.  1.
         21   -1    0    0  501  502  0.00000000000E+00 -0.00000000000E+00 -0.43153529008E+03  0.43153529008E+03  0.00000000000E+00 0.  1.
        -13    1    1    2    0    0  0.63108759382E+00  0.97093643114E+02 -0.26520880649E+03  0.28242396500E+03  0.10566000000E+00 0.  1.
         13    1    1    2    0    0 -0.61684323640E+02 -0.61684869910E+02 -0.11334789643E+02  0.87968560173E+02  0.10566000000E+00 0. -1.
          4    1    1    2  501    0  0.61053236046E+02 -0.35408773205E+02 -0.96543664701E+02  0.11959079415E+03  0.00000000000E+00 0.  1.
</event>
<event>
 5    1  0.4881333E-005  0.3279398E+02  0.7818608E-02  0.1383784E+00
         21   -1    0    0  501  502  0.00000000000E+00  0.00000000000E+00  0.23826091862E+02  0.23826091862E+02  0.00000000000E+00 0.  1.
         -4   -1    0    0    0  501 -0.00000000000E+00 -0.00000000000E+00 -0.79384399618E+02  0.79384399618E+02  0.00000000000E+00 0. -1.
        -13    1    1    2    0    0 -0.30632105002E+02  0.76158416684E+01 -0.36915494161E+02  0.48570482542E+02  0.10566000000E+00 0.  1.
         13    1    1    2    0    0  0.35743899506E+02  0.20537586139E+01 -0.23337406347E+02  0.42737454011E+02  0.10566000000E+00 0. -1.
         -4    1    1    2    0  502 -0.51117945036E+01 -0.96696002823E+01  0.46945927518E+01  0.11902554926E+02  0.00000000000E+00 0. -1.
</event>
<event>
 5    1  0.4881333E-005  0.4873344E+03  0.7818608E-02  0.9717181E-01
         21   -1    0    0  501  502  0.00000000000E+00  0.00000000000E+00  0.65909446657E+03  0.65909446657E+03  0.00000000000E+00 0.  1.
          4   -1    0    0  502    0 -0.00000000000E+00 -0.00000000000E+00 -0.95449492880E+03  0.95449492880E+03  0.00000000000E+00 0.  1.
        -13    1    1    2    0    0 -0.13129117389E+03  0.38812264997E+03  0.80719991567E+02  0.41760303156E+03  0.10566000000E+00 0.  1.
         13    1    1    2    0    0  0.81633795427E+02  0.21553258789E+03 -0.52404784327E+03  0.57248976078E+03  0.10566000000E+00 0. -1.
          4    1    1    2  501    0  0.49657378464E+02 -0.60365523786E+03  0.14792738948E+03  0.62349660303E+03  0.00000000000E+00 0.  1.
</event>
<event>
 5    1  0.4881333E-005  0.4691302E+03  0.7818608E-02  0.9548326E-01
          4   -1    0    0  502    0 -0.00000000000E+00  0.00000000000E+00  0.54838456886E+03  0.54838456886E+03  0.00000000000E+00 0.  1.
         21   -1    0    0  501  502  0.00000000000E+00 -0.00000000000E+00 -0.10095804737E+04  0.10095804737E+04  0.00000000000E+00 0.  1.
        -13    1    1    2    0    0 -0.65364470875E+03 -0.30381718471E+03 -0.26271844484E+03  0.76718790360E+03  0.10566000000E+00 0.  1.
         13    1    1    2    0    0  0.29554577222E+03  0.23778713744E+03 -0.70585100475E+01  0.37939406945E+03  0.10566000000E+00 0. -1.
          4    1    1    2  501    0  0.35809893653E+03  0.66030047269E+02 -0.19141894998E+03  0.41138306954E+03  0.00000000000E+00 0.  1.
</event>
<event>
 5    1  0.4881333E-005  0.3885811E+03  0.7818608E-02  0.9904574E-01
         21   -1    0    0  501  502  0.00000000000E+00  0.00000000000E+00  0.13554494020E+03  0.13554494020E+03  0.00000000000E+00 0.  1.
          4   -1    0    0  502    0 -0.00000000000E+00 -0.00000000000E+00 -0.26296985229E+04  0.26296985229E+04  0.00000000000E+00 0.  1.
        -13    1    1    2    0    0 -0.55774583273E+01  0.40315315615E+03 -0.37239840062E+03  0.54885713561E+03  0.10566000000E+00 0.  1.
         13    1    1    2    0    0  0.22936155206E+03 -0.71062887583E+02 -0.81860549650E+03  0.85309532036E+03  0.10566000000E+00 0. -1.
          4    1    1    2  501    0 -0.22378409374E+03 -0.33209026857E+03 -0.13031496856E+04  0.13632910071E+04  0.00000000000E+00 0.  1.
</event>
<event>
 5    1  0.4881333E-005  0.1255164E+03  0.7818608E-02  0.1128123E+00
         21   -1    0    0  501  502  0.00000000000E+00  0.00000000000E+00  0.51898771161E+03  0.51898771161E+03  0.00000000000E+00 0. -1.
          4   -1    0    0  502    0 -0.00000000000E+00 -0.00000000000E+00 -0.10851731692E+03  0.10851731692E+03  0.00000000000E+00 0.  1.
        -13    1    1    2    0    0 -0.54214018490E+02  0.10423149585E+03 -0.25140319488E+02  0.12014745671E+03  0.10566000000E+00 0.  1.
         13    1    1    2    0    0  0.51433523596E+02 -0.17850602914E+03  0.31322934626E+03  0.36417364582E+03  0.10566000000E+00 0. -1.
          4    1    1    2  501    0  0.27804948945E+01  0.74274533296E+02  0.12238136792E+03  0.14318392599E+03  0.00000000000E+00 0.  1.
</event>
<event>
 5    1  0.4881333E-005  0.4845918E+03  0.7818608E-02  0.9737593E-01
         -4   -1    0    0    0  501 -0.00000000000E+00  0.00000000000E+00  0.11113739622E+04  0.11113739622E+04  0.00000000000E+00 0. -1.
         21   -1    0    0  501  502  0.00000000000E+00 -0.00000000000E+00 -0.37655167806E+03  0.37655167806E+03  0.00000000000E+00 0. -1.
        -13    1    1    2    0    0 -0.20130820380E+03 -0.84719145821E+02  0.25413623809E+03  0.33509336797E+03  0.10566000000E+00 0.  1.
         13    1    1    2    0    0 -0.30167244871E+03  0.26959568421E+03  0.46548283292E+03  0.61673525776E+03  0.10566000000E+00 0. -1.
         -4    1    1    2    0  502  0.50298065251E+03 -0.18487653838E+03  0.15203213089E+02  0.53609701448E+03  0.00000000000E+00 0. -1.
</event>
<event>
 5    1  0.4881333E-005  0.1161522E+03  0.7818608E-02  0.1140291E+00
         21   -1    0    0  501  502  0.00000000000E+00  0.00000000000E+00  0.84314290976E+02  0.84314290976E+02  0.00000000000E+00 0.  1.
         -4   -1    0    0    0  501 -0.00000000000E+00 -0.00000000000E+00 -0.24721314643E+03  0.24721314643E+03  0.00000000000E+00 0. -1.
        -13    1    1    2    0    0 -0.56763394610E+02  0.72754748168E+02  0.11390643175E+02  0.92978999052E+02  0.10566000000E+00 0.  1.
         13    1    1    2    0    0  0.74358411789E+02 -0.10300452223E+03 -0.14612612574E+03  0.19362840905E+03  0.10566000000E+00 0. -1.
         -4    1    1    2    0  502 -0.17595017179E+02  0.30249774060E+02 -0.28163372891E+02  0.44920029305E+02  0.00000000000E+00 0. -1.
</event>
<event>
 5    1  0.4881333E-005  0.6218528E+02  0.7818608E-02  0.1248857E+00
         -4   -1    0    0    0  501 -0.00000000000E+00  0.00000000000E+00  0.87780485481E+02  0.87780485481E+02  0.00000000000E+00 0. -1.
         21   -1    0    0  501  502  0.00000000000E+00 -0.00000000000E+00 -0.74867661312E+03  0.74867661312E+03  0.00000000000E+00 0. -1.
        -13    1    1    2    0    0  0.13699292383E+02  0.32579540127E+02 -0.51710329047E+02  0.62634386250E+02  0.10566000000E+00 0.  1.
         13    1    1    2    0    0 -0.36929895047E+02 -0.58462125067E+02  0.67270691323E+02  0.96472764501E+02  0.10566000000E+00 0. -1.
         -4    1    1    2    0  502  0.23230602664E+02  0.25882584939E+02 -0.67645648991E+03  0.67734994785E+03  0.00000000000E+00 0. -1.
</event>
<event>
 5    1  0.4881333E-005  0.4264982E+03  0.7818608E-02  0.9732865E-01
          4   -1    0    0  502    0 -0.00000000000E+00  0.00000000000E+00  0.17071886842E+04  0.17071886842E+04  0.00000000000E+00 0.  1.
         21   -1    0    0  501  502  0.00000000000E+00 -0.00000000000E+00 -0.29656784953E+03  0.29656784953E+03  0.00000000000E+00 0. -1.
        -13    1    1    2    0    0  0.43704353004E+03 -0.39711903120E+03  0.84738209903E+03  0.10328441339E+04  0.10566000000E+00 0.  1.
         13    1    1    2    0    0 -0.45947545905E+02  0.32238918893E+03  0.45274258630E+03  0.55769330884E+03  0.10566000000E+00 0. -1.
          4    1    1    2  501    0 -0.39109598413E+03  0.74729842277E+02  0.11049614937E+03  0.41321909099E+03  0.00000000000E+00 0.  1.
</event>
<event>
 5    1  0.4881333E-005  0.3524040E+03  0.7818608E-02  0.9877579E-01
          4   -1    0    0  502    0 -0.00000000000E+00  0.00000000000E+00  0.16822224244E+04  0.16822224244E+04  0.00000000000E+00 0.  1.
         21   -1    0    0  501  502  0.00000000000E+00 -0.00000000000E+00 -0.29927555847E+03  0.29927555847E+03  0.00000000000E+00 0.  1.
        -13    1    1    2    0    0 -0.37487185884E+03  0.22137195820E+03  0.28788864307E+03  0.52193326815E+03  0.10566000000E+00 0.  1.
         13    1    1    2    0    0  0.14766357096E+03 -0.31451901680E+03  0.11555545833E+04  0.12066619859E+04  0.10566000000E+00 0. -1.
          4    1    1    2  501    0  0.22720828788E+03  0.93147058600E+02 -0.60496360444E+02  0.25290272880E+03  0.00000000000E+00 0.  1.
</event>
<event>
 5    1  0.4881333E-005  0.3597008E+03  0.7818608E-02  0.9853246E-01
         21   -1    0    0  501  502  0.00000000000E+00  0.00000000000E+00  0.70193209069E+03  0.70193209069E+03  0.00000000000E+00 0.  1.
          4   -1    0    0  502    0 -0.00000000000E+00 -0.00000000000E+00 -0.31382208075E+03  0.31382208075E+03  0.00000000000E+00 0.  1.
        -13    1    1    2    0    0  0.37699093985E+03 -0.13195186877E+03 -0.51823735077E+00  0.39941675495E+03  0.10566000000E+00 0.  1.
         13    1    1    2    0    0 -0.23583467709E+03  0.20827059299E+03  0.22245130438E+03  0.38533002583E+03  0.10566000000E+00 0. -1.
          4    1    1    2  501    0 -0.14115626277E+03 -0.76318724221E+02  0.16617694290E+03  0.23100739065E+03  0.00000000000E+00 0.  1.
</event>
<event>
 5    1  0.4881333E-005  0.4216767E+03  0.7818608E-02  0.1018468E+00
         21   -1    0    0  501  502  0.00000000000E+00  0.00000000000E+00  0.11314578308E+03  0.11314578308E+03  0.00000000000E+00 0.  1.
          4   -1    0    0  502    0 -0.00000000000E+00 -0.00000000000E+00 -0.26382707520E+04  0.26382707520E+04  0.00000000000E+00 0.  1.
        -13    1    1    2    0    0 -0.37627863672E+03  0.66308779565E+02 -0.18085917333E+04  0.18485092739E+04  0.10566000000E+00 0.  1.
         13    1    1    2    0    0 -0.57463982613E+02 -0.49154627466E+02 -0.26904928382E+03  0.27947417589E+03  0.10566000000E+00 0. -1.
          4    1    1    2  501    0  0.43374261933E+03 -0.17154152099E+02 -0.44748395180E+03  0.62343308533E+03  0.00000000000E+00 0.  1.
</event>
<event>
 5    1  0.4881333E-005  0.7328386E+02  0.7818608E-02  0.1218366E+00
         21   -1    0    0  501  502  0.00000000000E+00  0.00000000000E+00  0.36757306753E+02  0.36757306753E+02  0.00000000000E+00 0.  1.
         -4   -1    0    0    0  501 -0.00000000000E+00 -0.00000000000E+00 -0.25987119137E+03  0.25987119137E+03  0.00000000000E+00 0. -1.
        -13    1    1    2    0    0  0.41350766006E+02  0.57127319292E+02 -0.78074204201E+02  0.10520935787E+03  0.10566000000E+00 0.  1.
         13    1    1    2    0    0 -0.24389542816E+02 -0.72506260930E+02 -0.14964578077E+03  0.16806510208E+03  0.10566000000E+00 0. -1.
         -4    1    1    2    0  502 -0.16961223190E+02  0.15378941637E+02  0.46061003539E+01  0.23354038162E+02  0.00000000000E+00 0. -1.
</event>
<event>
 5    1  0.4881333E-005  0.6240787E+03  0.7818608E-02  0.9241049E-01
          4   -1    0    0  502    0 -0.00000000000E+00  0.00000000000E+00  0.70642941359E+03  0.70642941359E+03  0.00000000000E+00 0.  1.
         21   -1    0    0  501  502  0.00000000000E+00 -0.00000000000E+00 -0.94510297493E+03  0.94510297493E+03  0.00000000000E+00 0.  1.
        -13    1    1    2    0    0 -0.18826108118E+02  0.62733982522E+03  0.28681729020E+03  0.69005351080E+03  0.10566000000E+00 0.  1.
         13    1    1    2    0    0  0.57165840113E+02 -0.61453706449E+03 -0.22291105381E+03  0.65621115960E+03  0.10566000000E+00 0. -1.
          4    1    1    2  501    0 -0.38339731995E+02 -0.12802760728E+02 -0.30257979773E+03  0.30526771811E+03  0.00000000000E+00 0.  1.
</event>
<event>
 5    1  0.4881333E-005  0.3605953E+02  0.7818608E-02  0.1378104E+00
         21   -1    0    0  501  502  0.00000000000E+00  0.00000000000E+00  0.50359595800E+02  0.50359595800E+02  0.00000000000E+00 0. -1.
          4   -1    0    0  502    0 -0.00000000000E+00 -0.00000000000E+00 -0.72362576035E+02  0.72362576035E+02  0.00000000000E+00 0.  1.
        -13    1    1    2    0    0 -0.14262594491E+02  0.90003543224E+01 -0.45625439349E+02  0.48642778081E+02  0.10566000000E+00 0.  1.
         13    1    1    2    0    0 -0.84472533274E+01  0.25852568076E+02  0.21950849582E+01  0.27286277264E+02  0.10566000000E+00 0. -1.
          4    1    1    2  501    0  0.22709847818E+02 -0.34852922399E+02  0.21427374156E+02  0.46793116491E+02  0.00000000000E+00 0.  1.
</event>
<event>
 5    1  0.4881333E-005  0.1309805E+03  0.7818608E-02  0.1121546E+00
         -4   -1    0    0    0  501 -0.00000000000E+00  0.00000000000E+00  0.96329382159E+02  0.96329382159E+02  0.00000000000E+00 0. -1.
         21   -1    0    0  501  502  0.00000000000E+00 -0.00000000000E+00 -0.59582001960E+03  0.59582001960E+03  0.00000000000E+00 0. -1.
        -13    1    1    2    0    0 -0.34738850050E+02 -0.13737273877E+03 -0.20126436081E+02  0.14311932662E+03  0.10566000000E+00 0.  1.
         13    1    1    2    0    0 -0.80424584313E+02  0.99380115818E+02 -0.34554776313E+03  0.36843966799E+03  0.10566000000E+00 0. -1.
         -4    1    1    2    0  502  0.11516343436E+03  0.37992622949E+02 -0.13381643823E+03  0.18059040715E+03  0.00000000000E+00 0. -1.
</event>
<event>
 5    1  0.4881333E-005  0.4940622E+03  0.7818608E-02  0.9654223E-01
         21   -1    0    0  501  502  0.00000000000E+00  0.00000000000E+00  0.18405017894E+03  0.18405017894E+03  0.00000000000E+00 0. -1.
          4   -1    0    0  502    0 -0.00000000000E+00 -0.00000000000E+00 -0.23461840356E+04  0.23461840356E+04  0.00000000000E+00 0.  1.
        -13    1    1    2    0    0  0.35383988968E+03  0.61676646740E+02 -0.10542091361E+04  0.11137161173E+04  0.10566000000E+00 0.  1.
         13    1    1    2    0    0  0.19702751617E+03  0.19269535133E+03 -0.36241298443E+03  0.45529608278E+03  0.10566000000E+00 0. -1.
          4    1    1    2  501    0 -0.55086740585E+03 -0.25437199807E+03 -0.74551173611E+03  0.96122201437E+03  0.00000000000E+00 0.  1.
</event>
<event>
 5    1  0.4881333E-005  0.3586435E+03  0.7818608E-02  0.1047608E+00
          4   -1    0    0  502    0 -0.00000000000E+00  0.00000000000E+00  0.51652768882E+03  0.51652768882E+03  0.00000000000E+00 0.  1.
         21   -1    0    0  501  502  0.00000000000E+00 -0.00000000000E+00 -0.55028641187E+03  0.55028641187E+03  0.00000000000E+00 0.  1.
        -13    1    1    2    0    0 -0.18521874479E+03 -0.30695553109E+03 -0.38043661344E+03  0.52274248871E+03  0.10566000000E+00 0.  1.
         13    1    1    2    0    0 -0.43194388780E+02  0.25590766739E+02  0.13995971929E+02  0.52120446647E+02  0.10566000000E+00 0. -1.
          4    1    1    2  501    0  0.22841313357E+03  0.28136476435E+03  0.33268191846E+03  0.49195116534E+03  0.00000000000E+00 0.  1.
</event>
<event>
 5    1  0.4881333E-005  0.5162228E+03  0.7818608E-02  0.9645129E-01
         21   -1    0    0  501  502  0.00000000000E+00  0.00000000000E+00  0.26331712695E+03  0.26331712695E+03  0.00000000000E+00 0. -1.
         -4   -1    0    0    0  501 -0.00000000000E+00 -0.00000000000E+00 -0.20554752740E+04  0.20554752740E+04  0.00000000000E+00 0. -1.
        -13    1    1    2    0    0 -0.13678268106E+03  0.20861711920E+03 -0.89229370993E+03  0.92650886678E+03  0.10566000000E+00 0.  1.
         13    1    1    2    0    0 -0.23008022974E+03  0.31349377763E+03 -0.52118514666E+03  0.65026858219E+03  0.10566000000E+00 0. -1.
         -4    1    1    2    0  502  0.36686291080E+03 -0.52211089683E+03 -0.37867929043E+03  0.74201495195E+03  0.00000000000E+00 0. -1.
</event>
<event>
 5    1  0.4881333E-005  0.3101847E+02  0.7818608E-02  0.1432333E+00
          4   -1    0    0  502    0 -0.00000000000E+00  0.00000000000E+00  0.97673146792E+02  0.97673146792E+02  0.00000000000E+00 0.  1.
         21   -1    0    0  501  502  0.00000000000E+00 -0.00000000000E+00 -0.55872051100E+02  0.55872051100E+02  0.00000000000E+00 0.  1.
        -13    1    1    2    0    0  0.23105138702E+02  0.39419301306E+00  0.59063736744E+02  0.63423489220E+02  0.10566000000E+00 0.  1.
         13    1    1    2    0    0 -0.20814929198E+02 -0.41791507196E+02 -0.54136894709E+01  0.47001176038E+02  0.10566000000E+00 0. -1.
          4    1    1    2  501    0 -0.22902095044E+01  0.41397314182E+02 -0.11848951581E+02  0.43120532634E+02  0.00000000000E+00 0.  1.
</event>
<event>
 5    1  0.4881333E-005  0.3871806E+03  0.7818608E-02  0.1000324E+00
         -4   -1    0    0    0  501 -0.00000000000E+00  0.00000000000E+00  0.25230784750E+04  0.25230784750E+04  0.00000000000E+00 0. -1.
         21   -1    0    0  501  502  0.00000000000E+00 -0.00000000000E+00 -0.18010937941E+03  0.18010937941E+03  0.00000000000E+00 0. -1.
        -13    1    1    2    0    0  0.16790068574E+03  0.49777708582E+02  0.10146353656E+04  0.10296375075E+04  0.10566000000E+00 0.  1.
         13    1    1    2    0    0 -0.33245939572E+03 -0.25155136679E+03  0.11482819308E+03  0.43242671637E+03  0.10566000000E+00 0. -1.
         -4    1    1    2    0  502  0.16455870999E+03  0.20177365821E+03  0.12135055369E+04  0.12411236305E+04  0.00000000000E+00 0. -1.
</event>
<event>
 5    1  0.4881333E-005  0.4393794E+03  0.7818608E-02  0.9742239E-01
         21   -1    0    0  501  502  0.00000000000E+00  0.00000000000E+00  0.35565780105E+03  0.35565780105E+03  0.00000000000E+00 0. -1.
         -4   -1    0    0    0  501 -0.00000000000E+00 -0.00000000000E+00 -0.20443845182E+04  0.20443845182E+04  0.00000000000E+00 0. -1.
        -13    1    1    2    0    0  0.28680547854E+03 -0.29719572624E+02 -0.12432600426E+04  0.12762586651E+04  0.10566000000E+00 0.  1.
         13    1    1    2    0    0  0.19405031984E+03 -0.15184006546E+03 -0.54693438249E+03  0.59987345501E+03  0.10566000000E+00 0. -1.
         -4    1    1    2    0  502 -0.48085579838E+03  0.18155963808E+03  0.10146770795E+03  0.52391019914E+03  0.00000000000E+00 0. -1.
</event>
<event>
 5    1  0.4881333E-005  0.2999197E+03  0.7818608E-02  0.1007339E+00
         21   -1    0    0  501  502  0.00000000000E+00  0.00000000000E+00  0.17124064930E+03  0.17124064930E+03  0.00000000000E+00 0. -1.
         -4   -1    0    0    0  501 -0.00000000000E+00 -0.00000000000E+00 -0.23242644219E+04  0.23242644219E+04  0.00000000000E+00 0. -1.
        -13    1    1    2    0    0 -0.20468316553E+03  0.13079214658E+03 -0.48679505502E+03  0.54403237093E+03  0.10566000000E+00 0.  1.
         13    1    1    2    0    0  0.31539483269E+03 -0.10883431203E+03 -0.17681759835E+04  0.17993790950E+04  0.10566000000E+00 0. -1.
         -4    1    1    2    0  502 -0.11071166716E+03 -0.21957834546E+02  0.10194726587E+03  0.15209360526E+03  0.00000000000E+00 0. -1.
</event>
<event>
 5    1  0.4881333E-005  0.4785818E+03  0.7818608E-02  0.9917689E-01
         -4   -1    0    0    0  501 -0.00000000000E+00  0.00000000000E+00  0.23188468251E+04  0.23188468251E+04  0.00000000000E+00 0. -1.
         21   -1    0    0  501  502  0.00000000000E+00 -0.00000000000E+00 -0.15627825097E+03  0.15627825097E+03  0.00000000000E+00 0. -1.
        -13    1    1    2    0    0 -0.94447903431E+02  0.78831913441E+02  0.69137980000E+03  0.70223992770E+03  0.10566000000E+00 0.  1.
         13    1    1    2    0    0 -0.15729780295E+03  0.40680675588E+03  0.55572680684E+03  0.70644648095E+03  0.10566000000E+00 0. -1.
         -4    1    1    2    0  502  0.25174570638E+03 -0.48563866932E+03  0.91546196733E+03  0.10664386675E+04  0.00000000000E+00 0. -1.
</event>
<event>
 5    1  0.4881333E-005  0.5716137E+02  0.7818608E-02  0.1295647E+00
         21   -1    0    0  501  502  0.00000000000E+00  0.00000000000E+00  0.28353090407E+03  0.28353090407E+03  0.00000000000E+00 0. -1.
          4   -1    0    0  502    0 -0.00000000000E+00 -0.00000000000E+00 -0.43084312187E+02  0.43084312187E+02  0.00000000000E+00 0.  1.
        -13    1    1    2    0    0 -0.43747795597E+02  0.66039855951E+02  0.12996256503E+02  0.80274815732E+02  0.10566000000E+00 0.  1.
         13    1    1    2    0    0  0.51036153689E+01 -0.30604886270E+02  0.14752356621E+03  0.15075118476E+03  0.10566000000E+00 0. -1.
          4    1    1    2  501    0  0.38644180228E+02 -0.35434969681E+02  0.79926769166E+02  0.95589215768E+02  0.00000000000E+00 0.  1.
</event>
<event>
 5    1  0.4881333E-005  0.4418650E+03  0.7818608E-02  0.9615394E-01
         21   -1    0    0  501  502  0.00000000000E+00  0.00000000000E+00  0.29519412991E+03  0.29519412991E+03  0.00000000000E+00 0. -1.
         -4   -1    0    0    0  501 -0.00000000000E+00 -0.00000000000E+00 -0.15327164249E+04  0.15327164249E+04  0.00000000000E+00 0. -1.
        -13    1    1    2    0    0 -0.22264755853E+03 -0.36989540173E+03 -0.86393822990E+03  0.96580734093E+03  0.10566000000E+00 0.  1.
         13    1    1    2    0    0  0.23520342267E+03  0.39397435380E+03 -0.53133318185E+03  0.70203376185E+03  0.10566000000E+00 0. -1.
         -4    1    1    2    0  502 -0.12555864139E+02 -0.24078952066E+02  0.15774911672E+03  0.16006945206E+03  0.00000000000E+00 0. -1.
</event>
<event>
 5    1  0.4881333E-005  0.5088328E+03  0.7818608E-02  0.9458820E-01
         21   -1    0    0  501  502  0.00000000000E+00  0.00000000000E+00  0.34410100155E+03  0.34410100155E+03  0.00000000000E+00 0. -1.
         -4   -1    0    0    0  501 -0.00000000000E+00 -0.00000000000E+00 -0.11814985347E+04  0.11814985347E+04  0.00000000000E+00 0. -1.
        -13    1    1    2    0    0  0.13477759882E+03  0.47287121765E+03 -0.81439838848E+02  0.49840209484E+03  0.10566000000E+00 0.  1.
         13    1    1    2    0    0 -0.13398071557E+03 -0.49723855330E+03 -0.81457838190E+03  0.96370896149E+03  0.10566000000E+00 0. -1.
         -4    1    1    2    0  502 -0.79688324946E+00  0.24367335648E+02  0.58620687595E+02  0.63488479929E+02  0.00000000000E+00 0. -1.
</event>
<event>
 5    1  0.4881333E-005  0.6931368E+03  0.7818608E-02  0.9132994E-01
         21   -1    0    0  501  502  0.00000000000E+00  0.00000000000E+00  0.32459913206E+03  0.32459913206E+03  0.00000000000E+00 0.  1.
          4   -1    0    0  502    0 -0.00000000000E+00 -0.00000000000E+00 -0.23108508400E+04  0.23108508400E+04  0.00000000000E+00 0.  1.
        -13    1    1    2    0    0  0.83951397843E+03 -0.61002538867E+02 -0.11161966058E+04  0.13979985349E+04  0.10566000000E+00 0.  1.
         13    1    1    2    0    0 -0.56018237176E+03  0.15293675766E+03 -0.63928332914E+03  0.86364178196E+03  0.10566000000E+00 0. -1.
          4    1    1    2  501    0 -0.27933160667E+03 -0.91934218792E+02 -0.23077177297E+03  0.37380965513E+03  0.00000000000E+00 0.  1.
</event>
<event>
 5    1  0.4881333E-005  0.7960470E+03  0.7818608E-02  0.8994215E-01
         21   -1    0    0  501  502  0.00000000000E+00  0.00000000000E+00  0.13069645455E+04  0.13069645455E+04  0.00000000000E+00 0. -1.
          4   -1    0    0  502    0 -0.00000000000E+00 -0.00000000000E+00 -0.16770583781E+04  0.16770583781E+04  0.00000000000E+00 0.  1.
        -13    1    1    2    0    0  0.66849889853E+03 -0.42864828084E+03 -0.13196409625E+04  0.15401566177E+04  0.10566000000E+00 0.  1.
         13    1    1    2    0    0 -0.68228862366E+03  0.43204425685E+03  0.41286016775E+03  0.90699147467E+03  0.10566000000E+00 0. -1.
          4    1    1    2  501    0  0.13789725132E+02 -0.33959760025E+01  0.53668696204E+03  0.53687483122E+03  0.00000000000E+00 0.  1.
</event>
<event>
 5    1  0.4881333E-005  0.4619362E+03  0.7818608E-02  0.9593571E-01
         21   -1    0    0  501  502  0.00000000000E+00  0.00000000000E+00  0.35213191860E+03  0.35213191860E+03  0.00000000000E+00 0. -1.
         -4   -1    0    0    0  501 -0.00000000000E+00 -0.00000000000E+00 -0.20435136391E+04  0.20435136391E+04  0.00000000000E+00 0. -1.
        -13    1    1    2    0    0  0.24773413312E+03 -0.33658082013E+03 -0.11435656789E+04  0.12175390434E+04  0.10566000000E+00 0.  1.
         13    1    1    2    0    0  0.20681070381E+03 -0.22680885480E+03 -0.24789201234E+03  0.39454199368E+03  0.10566000000E+00 0. -1.
         -4    1    1    2    0  502 -0.45454483694E+03  0.56338967493E+03 -0.29992402929E+03  0.78356452060E+03  0.00000000000E+00 0. -1.
</event>
<event>
 5    1  0.4881333E-005  0.2018968E+03  0.7818608E-02  0.1099176E+00
          4   -1    0    0  502    0 -0.00000000000E+00  0.00000000000E+00  0.30712430069E+03  0.30712430069E+03  0.00000000000E+00 0.  1.
         21   -1    0    0  501  502  0.00000000000E+00 -0.00000000000E+00 -0.94610556310E+03  0.94610556310E+03  0.00000000000E+00 0.  1.
        -13    1    1    2    0    0  0.45510017969E+02  0.19469938334E+03 -0.84095181545E+03  0.86439515193E+03  0.10566000000E+00 0.  1.
         13    1    1    2    0    0 -0.34270860949E+02  0.55026180684E+02 -0.39753250666E+01  0.64947569964E+02  0.10566000000E+00 0. -1.
          4    1    1    2  501    0 -0.11239157020E+02 -0.24972556402E+03  0.20594587811E+03  0.32388714190E+03  0.00000000000E+00 0.  1.
</event>
<event>
 5    1  0.4881333E-005  0.1720689E+03  0.7818608E-02  0.1111118E+00
         21   -1    0    0  501  502  0.00000000000E+00  0.00000000000E+00  0.94377211889E+03  0.94377211889E+03  0.00000000000E+00 0.  1.
          4   -1    0    0  502    0 -0.00000000000E+00 -0.00000000000E+00 -0.34934166439E+03  0.34934166439E+03  0.00000000000E+00 0.  1.
        -13    1    1    2    0    0 -0.80048102489E+02 -0.76984557356E+02 -0.23292681047E+03  0.25804889262E+03  0.10566000000E+00 0.  1.
         13    1    1    2    0    0 -0.75999758251E+02 -0.66082911374E+00 -0.80451821580E+02  0.11067477901E+03  0.10566000000E+00 0. -1.
          4    1    1    2  501    0  0.15604786074E+03  0.77645386470E+02  0.90780908655E+03  0.92439011165E+03  0.00000000000E+00 0.  1.
</event>
<event>
 5    1  0.4881333E-005  0.3714621E+03  0.7818608E-02  0.9815288E-01
          4   -1    0    0  502    0 -0.00000000000E+00  0.00000000000E+00  0.45855761282E+03  0.45855761282E+03  0.00000000000E+00 0.  1.
         21   -1    0    0  501  502  0.00000000000E+00 -0.00000000000E+00 -0.94341689397E+03  0.94341689397E+03  0.00000000000E+00 0.  1.
        -13    1    1    2    0    0  0.45019009065E+02  0.51764950754E+03 -0.23480237396E+03  0.57019285318E+03  0.10566000000E+00 0.  1.
         13    1    1    2    0    0 -0.18828585972E+03 -0.28433229259E+03  0.12863857125E+03  0.36447813481E+03  0.10566000000E+00 0. -1.
          4    1    1    2  501    0  0.14326685065E+03 -0.23331721495E+03 -0.37869547845E+03  0.46730351880E+03  0.00000000000E+00 0.  1.
</event>
<event>
 5    1  0.4881333E-005  0.4307510E+03  0.7818608E-02  0.9759399E-01
         21   -1    0    0  501  502  0.00000000000E+00  0.00000000000E+00  0.32297219414E+03  0.32297219414E+03  0.00000000000E+00 0. -1.
         -4   -1    0    0    0  501 -0.00000000000E+00 -0.00000000000E+00 -0.16309249209E+04  0.16309249209E+04  0.00000000000E+00 0. -1.
        -13    1    1    2    0    0  0.25740881374E+03  0.13014441775E+03 -0.81225366500E+01  0.28855303434E+03  0.10566000000E+00 0.  1.
         13    1    1    2    0    0 -0.10462676263E+03 -0.51949555079E+03 -0.10552272205E+04  0.11808161943E+04  0.10566000000E+00 0. -1.
         -4    1    1    2    0  502 -0.15278205111E+03  0.38935113304E+03 -0.24460296964E+03  0.48452788640E+03  0.00000000000E+00 0. -1.
</event>
<event>
 5    1  0.4881333E-005  0.6267810E+02  0.7818608E-02  0.1247357E+00
         -4   -1    0    0    0  501 -0.00000000000E+00  0.00000000000E+00  0.35876973870E+03  0.35876973870E+03  0.00000000000E+00 0. -1.
         21   -1    0    0  501  502  0.00000000000E+00 -0.00000000000E+00 -0.13721295664E+03  0.13721295664E+03  0.00000000000E+00 0. -1.
        -13    1    1    2    0    0  0.58672581936E+02 -0.22707424400E+02  0.31771620537E+03  0.32388531506E+03  0.10566000000E+00 0.  1.
         13    1    1    2    0    0 -0.43435342118E+02  0.52386875584E+02  0.23496488205E+01  0.68092185249E+02  0.10566000000E+00 0. -1.
         -4    1    1    2    0  502 -0.15237239818E+02 -0.29679451184E+02 -0.98509072139E+02  0.10400519503E+03  0.00000000000E+00 0. -1.
</event>
<event>
 5    1  0.4881333E-005  0.7528321E+03  0.7818608E-02  0.9049669E-01
         -4   -1    0    0    0  501 -0.00000000000E+00  0.00000000000E+00  0.13224036700E+04  0.13224036700E+04  0.00000000000E+00 0. -1.
         21   -1    0    0  501  502  0.00000000000E+00 -0.00000000000E+00 -0.67188159876E+03  0.67188159876E+03  0.00000000000E+00 0.  1.
        -13    1    1    2    0    0 -0.29073553679E+03 -0.61401401346E+03  0.17946794742E+03  0.70267283739E+03  0.10566000000E+00 0.  1.
         13    1    1    2    0    0  0.28059475437E+03  0.75699688095E+03  0.66811734173E+03  0.10479305738E+04  0.10566000000E+00 0. -1.
         -4    1    1    2    0  502  0.10140782424E+02 -0.14298286749E+03 -0.19706321793E+03  0.24368185760E+03  0.00000000000E+00 0. -1.
</event>
<event>
 5    1  0.1141533E-004  0.6025861E+03  0.7818608E-02  0.9277707E-01
         21   -1    0    0  501  502  0.00000000000E+00  0.00000000000E+00  0.71616216575E+03  0.71616216575E+03  0.00000000000E+00 0.  1.
          4   -1    0    0  502    0 -0.00000000000E+00 -0.00000000000E+00 -0.14842374565E+04  0.14842374565E+04  0.00000000000E+00 0.  1.
        -13    1    1    2    0    0 -0.51415437495E+03 -0.13796389656E+03 -0.55089526682E+03  0.76607725734E+03  0.10566000000E+00 0.  1.
         13    1    1    2    0    0  0.62719577246E+03  0.36119785058E+03 -0.62472200898E+03  0.95609415013E+03  0.10566000000E+00 0. -1.
          4    1    1    2  501    0 -0.11304139750E+03 -0.22323395402E+03  0.40754198509E+03  0.47822821475E+03  0.00000000000E+00 0.  1.
</event>
<event>
 5    1  0.4881333E-005  0.8740452E+02  0.7818608E-02  0.1264727E+00
          4   -1    0    0  502    0 -0.00000000000E+00  0.00000000000E+00  0.11120059656E+03  0.11120059656E+03  0.00000000000E+00 0.  1.
         21   -1    0    0  501  502  0.00000000000E+00 -0.00000000000E+00 -0.21720331368E+03  0.21720331368E+03  0.00000000000E+00 0.  1.
        -13    1    1    2    0    0  0.76698452509E+02  0.61992319384E+02  0.68660453310E+02  0.12016642332E+03  0.10566000000E+00 0.  1.
         13    1    1    2    0    0 -0.49536531208E+01 -0.15328636622E+02 -0.75720617031E+02  0.77415300732E+02  0.10566000000E+00 0. -1.
          4    1    1    2  501    0 -0.71744799388E+02 -0.46663682762E+02 -0.98942553400E+02  0.13082218620E+03  0.00000000000E+00 0.  1.
</event>
<event>
 5    1  0.4881333E-005  0.4255631E+03  0.7818608E-02  0.1008175E+00
         21   -1    0    0  501  502  0.00000000000E+00  0.00000000000E+00  0.49786946049E+03  0.49786946049E+03  0.00000000000E+00 0.  1.
          4   -1    0    0  502    0 -0.00000000000E+00 -0.00000000000E+00 -0.11115624643E+04  0.11115624643E+04  0.00000000000E+00 0.  1.
        -13    1    1    2    0    0 -0.38205283397E+03 -0.20171919080E+03  0.26575447826E+03  0.50722820679E+03  0.10566000000E+00 0.  1.
         13    1    1    2    0    0 -0.18597884734E+02  0.10048133976E+03 -0.58729164105E+03  0.59611564630E+03  0.10566000000E+00 0. -1.
          4    1    1    2  501    0  0.40065071870E+03  0.10123785105E+03 -0.29215584106E+03  0.50608807173E+03  0.00000000000E+00 0.  1.
</event>
<event>
 5    1  0.4881333E-005  0.5393342E+02  0.7818608E-02  0.1310349E+00
         21   -1    0    0  501  502  0.00000000000E+00  0.00000000000E+00  0.14951779510E+03  0.14951779510E+03  0.00000000000E+00 0.  1.
          4   -1    0    0  502    0 -0.00000000000E+00 -0.00000000000E+00 -0.51018042117E+02  0.51018042117E+02  0.00000000000E+00 0.  1.
        -13    1    1    2    0    0  0.13089735538E+02 -0.48645534379E+02 -0.16009970352E+02  0.52858864027E+02  0.10566000000E+00 0.  1.
         13    1    1    2    0    0 -0.26929559292E+02 -0.69376021484E+01  0.69407596405E+02  0.74771365442E+02  0.10566000000E+00 0. -1.
          4    1    1    2  501    0  0.13839823754E+02  0.55583136528E+02  0.45102126930E+02  0.72905607750E+02  0.00000000000E+00 0.  1.
</event>
<event>
 5    1  0.4881333E-005  0.5139128E+03  0.7818608E-02  0.9447989E-01
          4   -1    0    0  502    0 -0.00000000000E+00  0.00000000000E+00  0.25126432916E+04  0.25126432916E+04  0.00000000000E+00 0.  1.
         21   -1    0    0  501  502  0.00000000000E+00 -0.00000000000E+00 -0.28186675436E+03  0.28186675436E+03  0.00000000000E+00 0. -1.
        -13    1    1    2    0    0 -0.78274617028E+02  0.49998466130E+03  0.18622709060E+04  0.19298094507E+04  0.10566000000E+00 0.  1.
         13    1    1    2    0    0  0.20619516983E+03 -0.51607837304E+03  0.44747997659E+03  0.71350660529E+03  0.10566000000E+00 0. -1.
          4    1    1    2  501    0 -0.12792055281E+03  0.16093711740E+02 -0.78974345382E+02  0.15119399001E+03  0.00000000000E+00 0.  1.
</event>
<event>
 5    1  0.4881333E-005  0.3349768E+03  0.7818608E-02  0.9938317E-01
          4   -1    0    0  502    0 -0.00000000000E+00  0.00000000000E+00  0.84700926313E+02  0.84700926313E+02  0.00000000000E+00 0.  1.
         21   -1    0    0  501  502  0.00000000000E+00 -0.00000000000E+00 -0.16466665664E+04  0.16466665664E+04  0.00000000000E+00 0. -1.
        -13    1    1    2    0    0  0.17646510582E+02 -0.34229927911E+03 -0.10661180031E+04  0.11198606179E+04  0.10566000000E+00 0.  1.
         13    1    1    2    0    0 -0.34930385775E+02  0.32979305716E+03 -0.43481168539E+03  0.54684989285E+03  0.10566000000E+00 0. -1.
          4    1    1    2  501    0  0.17283875193E+02  0.12506221947E+02 -0.61035951570E+02  0.64656981937E+02  0.00000000000E+00 0.  1.
</event>
<event>
 5    1  0.4881333E-005  0.4828330E+03  0.7818608E-02  0.9665056E-01
         21   -1    0    0  501  502  0.00000000000E+00  0.00000000000E+00  0.28307232534E+03  0.28307232534E+03  0.00000000000E+00 0.  1.
          4   -1    0    0  502    0 -0.00000000000E+00 -0.00000000000E+00 -0.21474519265E+04  0.21474519265E+04  0.00000000000E+00 0.  1.
        -13    1    1    2    0    0  0.11446471905E+03 -0.46660020447E+03 -0.28135973030E+03  0.55675958161E+03  0.10566000000E+00 0.  1.
         13    1    1    2    0    0  0.26709445461E+03  0.97249802158E+02 -0.11614643194E+04  0.11957409201E+04  0.10566000000E+00 0. -1.
          4    1    1    2  501    0 -0.38155917367E+03  0.36935040231E+03 -0.42155555144E+03  0.67802375006E+03  0.00000000000E+00 0.  1.
</event>
<event>
 5    1  0.4881333E-005  0.4768187E+03  0.7818608E-02  0.9666004E-01
         -4   -1    0    0    0  501 -0.00000000000E+00  0.00000000000E+00  0.34976199971E+04  0.34976199971E+04  0.00000000000E+00 0. -1.
         21   -1    0    0  501  502  0.00000000000E+00 -0.00000000000E+00 -0.13155193670E+03  0.13155193670E+03  0.00000000000E+00 0. -1.
        -13    1    1    2    0    0 -0.37409856055E+02  0.29177152895E+03  0.10617480892E+04  0.11017436809E+04  0.10566000000E+00 0.  1.
         13    1    1    2    0    0  0.23846274523E+03 -0.61376191520E+03  0.14857385089E+04  0.16251114108E+04  0.10566000000E+00 0. -1.
         -4    1    1    2    0  502 -0.20105288917E+03  0.32199038625E+03  0.81858146226E+03  0.90231684205E+03  0.00000000000E+00 0. -1.
</event>
<event>
 5    1  0.4881333E-005  0.4219408E+03  0.7818608E-02  0.9667736E-01
         21   -1    0    0  501  502  0.00000000000E+00  0.00000000000E+00  0.68450801829E+03  0.68450801829E+03  0.00000000000E+00 0. -1.
         -4   -1    0    0    0  501 -0.00000000000E+00 -0.00000000000E+00 -0.22314616472E+04  0.22314616472E+04  0.00000000000E+00 0. -1.
        -13    1    1    2    0    0 -0.41016505670E+03  0.11484098618E+03 -0.65086428837E+03  0.77784841639E+03  0.10566000000E+00 0.  1.
         13    1    1    2    0    0  0.40136764587E+03 -0.12424514220E+03 -0.14879435032E+04  0.15461270072E+04  0.10566000000E+00 0. -1.
         -4    1    1    2    0  502  0.87974108275E+01  0.94041560127E+01  0.59185416266E+03  0.59199424190E+03  0.00000000000E+00 0. -1.
</event>
<event>
 5    1  0.4881333E-005  0.6195488E+03  0.7818608E-02  0.9248645E-01
         21   -1    0    0  501  502  0.00000000000E+00  0.00000000000E+00  0.86381173175E+03  0.86381173175E+03  0.00000000000E+00 0. -1.
         -4   -1    0    0    0  501 -0.00000000000E+00 -0.00000000000E+00 -0.15800009268E+04  0.15800009268E+04  0.00000000000E+00 0. -1.
        -13    1    1    2    0    0  0.81192999988E+03 -0.20239783086E+03 -0.76416697825E+03  0.11332018304E+04  0.10566000000E+00 0.  1.
         13    1    1    2    0    0 -0.48357580750E+03 -0.18238169881E+03 -0.38524682610E+03  0.64461133549E+03  0.10566000000E+00 0. -1.
         -4    1    1    2    0  502 -0.32835419238E+03  0.38477952966E+03  0.43322460931E+03  0.66599949265E+03  0.00000000000E+00 0. -1.
</event>
<event>
 5    1  0.4881333E-005  0.2458730E+03  0.7818608E-02  0.1032554E+00
         21   -1    0    0  501  502  0.00000000000E+00  0.00000000000E+00  0.24361227497E+03  0.24361227497E+03  0.00000000000E+00 0.  1.
          4   -1    0    0  502    0 -0.00000000000E+00 -0.00000000000E+00 -0.39356596738E+03  0.39356596738E+03  0.00000000000E+00 0.  1.
        -13    1    1    2    0    0  0.18302210003E+03 -0.17985287235E+03 -0.19678202039E+03  0.32336870521E+03  0.10566000000E+00 0.  1.
         13    1    1    2    0    0 -0.14987486077E+03  0.17343379877E+03 -0.28766092317E+02  0.23101786874E+03  0.10566000000E+00 0. -1.
          4    1    1    2  501    0 -0.33147239257E+02  0.64190735848E+01  0.75594420303E+02  0.82791668403E+02  0.00000000000E+00 0.  1.
</event>
<event>
 5    1  0.4881333E-005  0.8870443E+02  0.7818608E-02  0.1184731E+00
         21   -1    0    0  501  502  0.00000000000E+00  0.00000000000E+00  0.62648402098E+02  0.62648402098E+02  0.00000000000E+00 0.  1.
         -4   -1    0    0    0  501 -0.00000000000E+00 -0.00000000000E+00 -0.19635736335E+03  0.19635736335E+03  0.00000000000E+00 0. -1.
        -13    1    1    2    0    0 -0.84062407753E+02 -0.58711216320E+02 -0.51098124128E+02  0.11456231829E+03  0.10566000000E+00 0.  1.
         13    1    1    2    0    0  0.55843799169E+02  0.60117006154E+02 -0.82261673410E+02  0.11618768614E+03  0.10566000000E+00 0. -1.
         -4    1    1    2    0  502  0.28218608584E+02 -0.14057898339E+01 -0.34916371790E+00  0.28255761019E+02  0.00000000000E+00 0. -1.
</event>
<event>
 5    1  0.4881333E-005  0.1002271E+03  0.7818608E-02  0.1176023E+00
         21   -1    0    0  501  502  0.00000000000E+00  0.00000000000E+00  0.98776790285E+03  0.98776790285E+03  0.00000000000E+00 0.  1.
          4   -1    0    0  502    0 -0.00000000000E+00 -0.00000000000E+00 -0.52426174929E+02  0.52426174929E+02  0.00000000000E+00 0.  1.
        -13    1    1    2    0    0 -0.13091025609E+03  0.49235950024E+02  0.68017703291E+02  0.15552521676E+03  0.10566000000E+00 0.  1.
         13    1    1    2    0    0  0.70214141741E+02  0.27689702130E+02  0.33449294951E+03  0.34290274094E+03  0.10566000000E+00 0. -1.
          4    1    1    2  501    0  0.60696114347E+02 -0.76925652154E+02  0.53283107511E+03  0.54176612007E+03  0.00000000000E+00 0.  1.
</event>
<event>
 5    1  0.4881333E-005  0.2452312E+03  0.7818608E-02  0.1035043E+00
          4   -1    0    0  502    0 -0.00000000000E+00  0.00000000000E+00  0.10372503235E+04  0.10372503235E+04  0.00000000000E+00 0.  1.
         21   -1    0    0  501  502  0.00000000000E+00 -0.00000000000E+00 -0.42110029455E+03  0.42110029455E+03  0.00000000000E+00 0.  1.
        -13    1    1    2    0    0  0.13388389112E+03 -0.43447769681E+03  0.82686727543E+03  0.94361288019E+03  0.10566000000E+00 0.  1.
         13    1    1    2    0    0 -0.31274715956E+02  0.22745497013E+03 -0.54949462074E+02  0.23607906693E+03  0.10566000000E+00 0. -1.
          4    1    1    2  501    0 -0.10260917516E+03  0.20702272668E+03 -0.15576778444E+03  0.27865867088E+03  0.00000000000E+00 0.  1.
</event>
<event>
 5    1  0.4881333E-005  0.4858040E+03  0.7818608E-02  0.9784044E-01
         -4   -1    0    0    0  501 -0.00000000000E+00  0.00000000000E+00  0.37442248186E+04  0.37442248186E+04  0.00000000000E+00 0. -1.
         21   -1    0    0  501  502  0.00000000000E+00 -0.00000000000E+00 -0.10356011466E+03  0.10356011466E+03  0.00000000000E+00 0. -1.
        -13    1    1    2    0    0  0.13893237195E+03  0.12179110845E+03  0.47353763645E+03  0.50830422226E+03  0.10566000000E+00 0.  1.
         13    1    1    2    0    0  0.36035344736E+03 -0.25314011733E+03  0.21952746314E+04  0.22390098804E+04  0.10566000000E+00 0. -1.
         -4    1    1    2    0  502 -0.49928581931E+03  0.13134900888E+03  0.97185243605E+03  0.11004708306E+04  0.00000000000E+00 0. -1.
</event>
<event>
 5    1  0.4881333E-005  0.7945383E+02  0.7818608E-02  0.1203901E+00
         21   -1    0    0  501  502  0.00000000000E+00  0.00000000000E+00  0.16827286503E+03  0.16827286503E+03  0.00000000000E+00 0.  1.
         -4   -1    0    0    0  501 -0.00000000000E+00 -0.00000000000E+00 -0.29133368209E+03  0.29133368209E+03  0.00000000000E+00 0. -1.
        -13    1    1    2    0    0  0.56889760773E+02  0.73524631617E+02  0.44489301650E+02  0.10306127042E+03  0.10566000000E+00 0.  1.
         13    1    1    2    0    0 -0.56786388867E+02 -0.54128491414E+02 -0.25509062853E+03  0.26688167316E+03  0.10566000000E+00 0. -1.
         -4    1    1    2    0  502 -0.10337190577E+00 -0.19396140203E+02  0.87540509821E+02  0.89663603543E+02  0.00000000000E+00 0. -1.
</event>
<event>
 5    1  0.4881333E-005  0.7730447E+02  0.7818608E-02  0.1208770E+00
         21   -1    0    0  501  502  0.00000000000E+00  0.00000000000E+00  0.61813419384E+02  0.61813419384E+02  0.00000000000E+00 0.  1.
         -4   -1    0    0    0  501 -0.00000000000E+00 -0.00000000000E+00 -0.25738815088E+03  0.25738815088E+03  0.00000000000E+00 0. -1.
        -13    1    1    2    0    0 -0.79156360518E+02  0.31799841236E+02  0.10493103602E+02  0.85948098876E+02  0.10566000000E+00 0.  1.
         13    1    1    2    0    0  0.67599596570E+02 -0.35232071773E+02 -0.20755064986E+03  0.22110696000E+03  0.10566000000E+00 0. -1.
         -4    1    1    2    0  502  0.11556763948E+02  0.34322305368E+01  0.14828147601E+01  0.12146511393E+02  0.00000000000E+00 0. -1.
</event>
<event>
 5    1  0.4881333E-005  0.4132245E+03  0.7818608E-02  0.9721493E-01
          4   -1    0    0  502    0 -0.00000000000E+00  0.00000000000E+00  0.42883276926E+03  0.42883276926E+03  0.00000000000E+00 0.  1.
         21   -1    0    0  501  502  0.00000000000E+00 -0.00000000000E+00 -0.13204919871E+04  0.13204919871E+04  0.00000000000E+00 0.  1.
        -13    1    1    2    0    0  0.42042716706E+03 -0.31653402695E+02 -0.71357334691E+03  0.82882318578E+03  0.10566000000E+00 0.  1.
         13    1    1    2    0    0 -0.20654521768E+03 -0.38313895659E+03 -0.10921509614E+03  0.44875866052E+03  0.10566000000E+00 0. -1.
          4    1    1    2  501    0 -0.21388194938E+03  0.41479235929E+03 -0.68870774817E+02  0.47174291009E+03  0.00000000000E+00 0.  1.
</event>
<event>
 5    1  0.4881333E-005  0.5049595E+03  0.7818608E-02  0.9665631E-01
          4   -1    0    0  502    0 -0.00000000000E+00  0.00000000000E+00  0.80225419183E+03  0.80225419183E+03  0.00000000000E+00 0.  1.
         21   -1    0    0  501  502  0.00000000000E+00 -0.00000000000E+00 -0.51827758474E+03  0.51827758474E+03  0.00000000000E+00 0.  1.
        -13    1    1    2    0    0  0.55932772692E+03 -0.43072344779E+02  0.77194111784E+02  0.56626996657E+03  0.10566000000E+00 0.  1.
         13    1    1    2    0    0 -0.11981257242E+03  0.21713228708E+03  0.31063104750E+02  0.24993281145E+03  0.10566000000E+00 0. -1.
          4    1    1    2  501    0 -0.43951515450E+03 -0.17405994230E+03  0.17571939056E+03  0.50432899854E+03  0.00000000000E+00 0.  1.
</event>
<event>
 5    1  0.4881333E-005  0.4767731E+03  0.7818608E-02  0.9830208E-01
         21   -1    0    0  501  502  0.00000000000E+00  0.00000000000E+00  0.11326572591E+03  0.11326572591E+03  0.00000000000E+00 0. -1.
          4   -1    0    0  502    0 -0.00000000000E+00 -0.00000000000E+00 -0.30325896011E+04  0.30325896011E+04  0.00000000000E+00 0.  1.
        -13    1    1    2    0    0  0.36749022532E+03 -0.59873564985E+02 -0.16657281610E+04  0.17068345635E+04  0.10566000000E+00 0.  1.
         13    1    1    2    0    0  0.16690974662E+03 -0.53188692421E+01 -0.33419974017E+03  0.37359956020E+03  0.10566000000E+00 0. -1.
          4    1    1    2  501    0 -0.53439997194E+03  0.65192434227E+02 -0.91939597399E+03  0.10654212033E+04  0.00000000000E+00 0.  1.
</event>
<event>
 5    1  0.4881333E-005  0.5904665E+03  0.7818608E-02  0.9299096E-01
          4   -1    0    0  502    0 -0.00000000000E+00  0.00000000000E+00  0.15858419357E+04  0.15858419357E+04  0.00000000000E+00 0.  1.
         21   -1    0    0  501  502  0.00000000000E+00 -0.00000000000E+00 -0.54771620248E+03  0.54771620248E+03  0.00000000000E+00 0.  1.
        -13    1    1    2    0    0 -0.24025581927E+03  0.58208058212E+03  0.52169631540E+03  0.81774551019E+03  0.10566000000E+00 0.  1.
         13    1    1    2    0    0 -0.26112178492E+03 -0.59980268509E+03  0.48270529580E+03  0.81298970557E+03  0.10566000000E+00 0. -1.
          4    1    1    2  501    0  0.50137760419E+03  0.17722102975E+02  0.33724122034E+02  0.50282292243E+03  0.00000000000E+00 0.  1.
</event>
<event>
 5    1  0.4881333E-005  0.6813579E+02  0.7818608E-02  0.1231706E+00
         21   -1    0    0  501  502  0.00000000000E+00  0.00000000000E+00  0.43515338686E+02  0.43515338686E+02  0.00000000000E+00 0.  1.
         -4   -1    0    0    0  501 -0.00000000000E+00 -0.00000000000E+00 -0.14720347067E+03  0.14720347067E+03  0.00000000000E+00 0. -1.
        -13    1    1    2    0    0  0.45615658866E+02  0.35483111399E+02 -0.24822573344E+02  0.62896826945E+02  0.10566000000E+00 0.  1.
         13    1    1    2    0    0 -0.55354655189E+02 -0.54923271588E+02 -0.68239402125E+02  0.10362109235E+03  0.10566000000E+00 0. -1.
         -4    1    1    2    0  502  0.97389963232E+01  0.19440160190E+02 -0.10626156516E+02  0.24200890064E+02  0.00000000000E+00 0. -1.
</event>
<event>
 5    1  0.4881333E-005  0.2999812E+03  0.7818608E-02  0.1007313E+00
          4   -1    0    0  502    0 -0.00000000000E+00  0.00000000000E+00  0.61788935259E+03  0.61788935259E+03  0.00000000000E+00 0.  1.
         21   -1    0    0  501  502  0.00000000000E+00 -0.00000000000E+00 -0.31653056102E+03  0.31653056102E+03  0.00000000000E+00 0. -1.
        -13    1    1    2    0    0 -0.31445649816E+03  0.25132674132E+02  0.38765647854E+03  0.49979205383E+03  0.10566000000E+00 0.  1.
         13    1    1    2    0    0  0.27057095763E+03 -0.58464384908E+01  0.62960154270E+02  0.27786114544E+03  0.10566000000E+00 0. -1.
          4    1    1    2  501    0  0.43885540532E+02 -0.19286235641E+02 -0.14925784124E+03  0.15676671434E+03  0.00000000000E+00 0.  1.
</event>
<event>
 5    1  0.4881333E-005  0.2364285E+03  0.7818608E-02  0.1037676E+00
         21   -1    0    0  501  502  0.00000000000E+00  0.00000000000E+00  0.35471841455E+02  0.35471841455E+02  0.00000000000E+00 0. -1.
          4   -1    0    0  502    0 -0.00000000000E+00 -0.00000000000E+00 -0.18416805236E+04  0.18416805236E+04  0.00000000000E+00 0.  1.
        -13    1    1    2    0    0 -0.62670979851E+02 -0.23697867488E+03 -0.11194515676E+04  0.11459748547E+04  0.10566000000E+00 0.  1.
         13    1    1    2    0    0  0.65007999080E+02  0.21463795132E+03 -0.65460430119E+03  0.69195541214E+03  0.10566000000E+00 0. -1.
          4    1    1    2  501    0 -0.23370192290E+01  0.22340723557E+02 -0.32152813362E+02  0.39222098300E+02  0.00000000000E+00 0.  1.
</event>
<event>
 5    1  0.4881333E-005  0.1092628E+03  0.7818608E-02  0.1150077E+00
         21   -1    0    0  501  502  0.00000000000E+00  0.00000000000E+00  0.34554304050E+03  0.34554304050E+03  0.00000000000E+00 0. -1.
          4   -1    0    0  502    0 -0.00000000000E+00 -0.00000000000E+00 -0.23563289345E+03  0.23563289345E+03  0.00000000000E+00 0.  1.
        -13    1    1    2    0    0 -0.72565626329E+02  0.75458509860E+02 -0.17482192933E+03  0.20377064306E+03  0.10566000000E+00 0.  1.
         13    1    1    2    0    0  0.11853987973E+03 -0.12684754612E+03  0.16658300332E+03  0.24060737978E+03  0.10566000000E+00 0. -1.
          4    1    1    2  501    0 -0.45974253398E+02  0.51389036260E+02  0.11814907305E+03  0.13679791112E+03  0.00000000000E+00 0.  1.
</event>
<event>
 5    1  0.4881333E-005  0.2027444E+02  0.7818608E-02  0.1506074E+00
          4   -1    0    0  502    0 -0.00000000000E+00  0.00000000000E+00  0.26036337405E+02  0.26036337405E+02  0.00000000000E+00 0.  1.
         21   -1    0    0  501  502  0.00000000000E+00 -0.00000000000E+00 -0.82944933354E+02  0.82944933354E+02  0.00000000000E+00 0. -1.
        -13    1    1    2    0    0 -0.19666126470E+02  0.38613851497E+01  0.16698022355E+02  0.26086432110E+02  0.10566000000E+00 0.  1.
         13    1    1    2    0    0  0.24163995162E+02  0.76044261093E+01 -0.43064967991E+02  0.49963272418E+02  0.10566000000E+00 0. -1.
          4    1    1    2  501    0 -0.44978686919E+01 -0.11465811259E+02 -0.30541650313E+02  0.32931566231E+02  0.00000000000E+00 0.  1.
</event>
<event>
 5    1  0.4881333E-005  0.4661391E+03  0.7818608E-02  0.9800403E-01
         -4   -1    0    0    0  501 -0.00000000000E+00  0.00000000000E+00  0.60274157518E+03  0.60274157518E+03  0.00000000000E+00 0. -1.
         21   -1    0    0  501  502  0.00000000000E+00 -0.00000000000E+00 -0.80449401771E+03  0.80449401771E+03  0.00000000000E+00 0. -1.
        -13    1    1    2    0    0  0.11107436983E+03  0.16362347016E+03  0.26402237747E+03  0.32987570779E+03  0.10566000000E+00 0.  1.
         13    1    1    2    0    0  0.26614495180E+03 -0.41311456435E+03 -0.36982021572E+03  0.61503152908E+03  0.10566000000E+00 0. -1.
         -4    1    1    2    0  502 -0.37721932164E+03  0.24949109419E+03 -0.95954604288E+02  0.46232835602E+03  0.00000000000E+00 0. -1.
</event>
<event>
 5    1  0.4881333E-005  0.1629956E+03  0.7818608E-02  0.1088958E+00
         21   -1    0    0  501  502  0.00000000000E+00  0.00000000000E+00  0.59100431605E+03  0.59100431605E+03  0.00000000000E+00 0.  1.
         -4   -1    0    0    0  501 -0.00000000000E+00 -0.00000000000E+00 -0.21031269485E+03  0.21031269485E+03  0.00000000000E+00 0. -1.
        -13    1    1    2    0    0  0.52868378883E+02 -0.14416274517E+03  0.52821308531E+03  0.55007911907E+03  0.10566000000E+00 0.  1.
         13    1    1    2    0    0 -0.37647537034E+02  0.15928224270E+03 -0.15788565217E+03  0.22741165363E+03  0.10566000000E+00 0. -1.
         -4    1    1    2    0  502 -0.15220841849E+02 -0.15119497531E+02  0.10364188066E+02  0.23826238193E+02  0.00000000000E+00 0. -1.
</event>
<event>
 5    1  0.4881333E-005  0.9980399E+02  0.7818608E-02  0.1172448E+00
         21   -1    0    0  501  502  0.00000000000E+00  0.00000000000E+00  0.92147912452E+03  0.92147912452E+03  0.00000000000E+00 0. -1.
         -4   -1    0    0    0  501 -0.00000000000E+00 -0.00000000000E+00 -0.43650251448E+02  0.43650251448E+02  0.00000000000E+00 0. -1.
        -13    1    1    2    0    0 -0.32040299506E+01  0.83161563699E+02  0.45861901155E+03  0.46610891474E+03  0.10566000000E+00 0.  1.
         13    1    1    2    0    0  0.13642336907E+02 -0.16705759178E+03  0.18311342511E+03  0.24824361009E+03  0.10566000000E+00 0. -1.
         -4    1    1    2    0  502 -0.10438306957E+02  0.83896028085E+02  0.23609643641E+03  0.25077685114E+03  0.00000000000E+00 0. -1.
</event>
<event>
 5    1  0.4881333E-005  0.7906691E+03  0.7818608E-02  0.9000912E-01
         21   -1    0    0  501  502  0.00000000000E+00  0.00000000000E+00  0.81875208750E+03  0.81875208750E+03  0.00000000000E+00 0. -1.
         -4   -1    0    0    0  501 -0.00000000000E+00 -0.00000000000E+00 -0.12543783131E+04  0.12543783131E+04  0.00000000000E+00 0. -1.
        -13    1    1    2    0    0  0.18766886425E+03  0.68737253801E+03  0.13059039182E+03  0.72439938585E+03  0.10566000000E+00 0.  1.
         13    1    1    2    0    0 -0.53063595318E+03 -0.67249461725E+03 -0.52060730712E+03  0.10024248124E+04  0.10566000000E+00 0. -1.
         -4    1    1    2    0  502  0.34296708893E+03 -0.14877920760E+02 -0.45609310268E+02  0.34630620236E+03  0.00000000000E+00 0. -1.
</event>
<event>
 5    1  0.4881333E-005  0.5386085E+02  0.7818608E-02  0.1276821E+00
          4   -1    0    0  502    0 -0.00000000000E+00  0.00000000000E+00  0.72734046957E+02  0.72734046957E+02  0.00000000000E+00 0.  1.
         21   -1    0    0  501  502  0.00000000000E+00 -0.00000000000E+00 -0.18778745327E+03  0.18778745327E+03  0.00000000000E+00 0.  1.
        -13    1    1    2    0    0 -0.13571364936E+02  0.52222207417E+02  0.34260239211E+02  0.63914912568E+02  0.10566000000E+00 0.  1.
         13    1    1    2    0    0 -0.46106965970E+01 -0.55623224838E+02 -0.10782629163E+02  0.56846089753E+02  0.10566000000E+00 0. -1.
          4    1    1    2  501    0  0.18182061533E+02  0.34010174212E+01 -0.13853101636E+03  0.13976049790E+03  0.00000000000E+00 0.  1.
</event>
<event>
 5    1  0.4881333E-005  0.4981877E+03  0.7818608E-02  0.9993736E-01
         21   -1    0    0  501  502  0.00000000000E+00  0.00000000000E+00  0.33969958813E+03  0.33969958813E+03  0.00000000000E+00 0.  1.
          4   -1    0    0  502    0 -0.00000000000E+00 -0.00000000000E+00 -0.11304955983E+04  0.11304955983E+04  0.00000000000E+00 0.  1.
        -13    1    1    2    0    0 -0.37307501695E+02  0.48091589140E+03 -0.23010485106E+03  0.53443446552E+03  0.10566000000E+00 0.  1.
         13    1    1    2    0    0 -0.82086825503E+02  0.21317165988E+02 -0.37918221485E+03  0.38855093837E+03  0.10566000000E+00 0. -1.
          4    1    1    2  501    0  0.11939432720E+03 -0.50223305739E+03 -0.18150894431E+03  0.54720978260E+03  0.00000000000E+00 0.  1.
</event>
<event>
 5    1  0.4881333E-005  0.7416024E+02  0.7818608E-02  0.1216217E+00
         21   -1    0    0  501  502  0.00000000000E+00  0.00000000000E+00  0.14259360385E+03  0.14259360385E+03  0.00000000000E+00 0. -1.
          4   -1    0    0  502    0 -0.00000000000E+00 -0.00000000000E+00 -0.26955457080E+03  0.26955457080E+03  0.00000000000E+00 0.  1.
        -13    1    1    2    0    0  0.10990290647E+02 -0.73523385263E+02 -0.24916748322E+03  0.26002100016E+03  0.10566000000E+00 0.  1.
         13    1    1    2    0    0 -0.25873343420E+02  0.66944242031E+02  0.11165880352E+03  0.13273530430E+03  0.10566000000E+00 0. -1.
          4    1    1    2  501    0  0.14883052772E+02  0.65791432328E+01  0.10547712748E+02  0.19391870196E+02  0.00000000000E+00 0.  1.
</event>
<event>
 5    1  0.4881333E-005  0.3582275E+03  0.7818608E-02  0.9929102E-01
         21   -1    0    0  501  502  0.00000000000E+00  0.00000000000E+00  0.17067666776E+03  0.17067666776E+03  0.00000000000E+00 0.  1.
          4   -1    0    0  502    0 -0.00000000000E+00 -0.00000000000E+00 -0.40748197246E+04  0.40748197246E+04  0.00000000000E+00 0.  1.
        -13    1    1    2    0    0 -0.24588738085E+03 -0.12123479327E+03 -0.13260521494E+03  0.30453675206E+03  0.10566000000E+00 0.  1.
         13    1    1    2    0    0 -0.39981716096E+03 -0.54081852807E+02 -0.21375151528E+04  0.21752585245E+04  0.10566000000E+00 0. -1.
          4    1    1    2  501    0  0.64570454181E+03  0.17531664608E+03 -0.16340226891E+04  0.17657011158E+04  0.00000000000E+00 0.  1.
</event>
<event>
 5    1  0.4881333E-005  0.6403510E+03  0.7818608E-02  0.9214312E-01
          4   -1    0    0  502    0 -0.00000000000E+00  0.00000000000E+00  0.15380174737E+04  0.15380174737E+04  0.00000000000E+00 0.  1.
         21   -1    0    0  501  502  0.00000000000E+00 -0.00000000000E+00 -0.52660301398E+03  0.52660301398E+03  0.00000000000E+00 0. -1.
        -13    1    1    2    0    0 -0.97311727801E+02 -0.73197972111E+03  0.89732495848E+03  0.11620912085E+04  0.10566000000E+00 0.  1.
         13    1    1    2    0    0  0.10380937852E+03  0.39356081107E+03 -0.18846505838E+03  0.44853716510E+03  0.10566000000E+00 0. -1.
          4    1    1    2  501    0 -0.64976507145E+01  0.33841891004E+03  0.30255455958E+03  0.45399211410E+03  0.00000000000E+00 0.  1.
</event>
<event>
 5    1  0.4881333E-005  0.3017655E+02  0.7818608E-02  0.1403497E+00
          4   -1    0    0  502    0 -0.00000000000E+00  0.00000000000E+00  0.10419377550E+03  0.10419377550E+03  0.00000000000E+00 0.  1.
         21   -1    0    0  501  502  0.00000000000E+00 -0.00000000000E+00 -0.77092479077E+02  0.77092479077E+02  0.00000000000E+00 0. -1.
        -13    1    1    2    0    0 -0.30005464167E+02  0.39706979017E+01  0.95761567120E+02  0.10043098736E+03  0.10566000000E+00 0.  1.
         13    1    1    2    0    0  0.26590296775E+02 -0.14671734465E+02 -0.41176367602E+02  0.51164519813E+02  0.10566000000E+00 0. -1.
          4    1    1    2  501    0  0.34151673928E+01  0.10701036563E+02 -0.27483903094E+02  0.29690747399E+02  0.00000000000E+00 0.  1.
</event>
<event>
 5    1  0.4881333E-005  0.2632158E+03  0.7818608E-02  0.1023763E+00
         21   -1    0    0  501  502  0.00000000000E+00  0.00000000000E+00  0.96960035147E+03  0.96960035147E+03  0.00000000000E+00 0. -1.
          4   -1    0    0  502    0 -0.00000000000E+00 -0.00000000000E+00 -0.84927144569E+02  0.84927144569E+02  0.00000000000E+00 0.  1.
        -13    1    1    2    0    0  0.25746508395E+03 -0.64260539444E+02  0.28026057210E+03  0.38595813999E+03  0.10566000000E+00 0.  1.
         13    1    1    2    0    0 -0.25427332614E+03  0.53771539161E+02  0.49934645971E+03  0.56293267875E+03  0.10566000000E+00 0. -1.
          4    1    1    2  501    0 -0.31917578033E+01  0.10489000283E+02  0.10506617509E+03  0.10563667731E+03  0.00000000000E+00 0.  1.
</event>
<event>
 5    1  0.4881333E-005  0.1675127E+03  0.7818608E-02  0.1085017E+00
         21   -1    0    0  501  502  0.00000000000E+00  0.00000000000E+00  0.40445890292E+03  0.40445890292E+03  0.00000000000E+00 0. -1.
          4   -1    0    0  502    0 -0.00000000000E+00 -0.00000000000E+00 -0.23162247957E+03  0.23162247957E+03  0.00000000000E+00 0.  1.
        -13    1    1    2    0    0  0.97234727449E+02  0.13637780083E+03 -0.17070424958E+03  0.23915151844E+03  0.10566000000E+00 0.  1.
         13    1    1    2    0    0 -0.88110763389E+02 -0.14305554838E+03  0.24109742299E+03  0.29386455228E+03  0.10566000000E+00 0. -1.
          4    1    1    2  501    0 -0.91239640599E+01  0.66777475504E+01  0.10244324994E+03  0.10306531177E+03  0.00000000000E+00 0.  1.
</event>
<event>
 5    1  0.4881333E-005  0.8312883E+02  0.7818608E-02  0.1195958E+00
         21   -1    0    0  501  502  0.00000000000E+00  0.00000000000E+00  0.42601572366E+03  0.42601572366E+03  0.00000000000E+00 0.  1.
          4   -1    0    0  502    0 -0.00000000000E+00 -0.00000000000E+00 -0.62098922944E+02  0.62098922944E+02  0.00000000000E+00 0.  1.
        -13    1    1    2    0    0  0.83664998054E+02 -0.16111836846E+02 -0.16510480167E+02  0.86787270410E+02  0.10566000000E+00 0.  1.
         13    1    1    2    0    0 -0.74499876231E+02  0.99540660597E+01  0.12638957788E+03  0.14704982676E+03  0.10566000000E+00 0. -1.
          4    1    1    2  501    0 -0.91651218231E+01  0.61577707859E+01  0.25403770300E+03  0.25427754944E+03  0.00000000000E+00 0.  1.
</event>
<event>
 5    1  0.4881333E-005  0.4772948E+03  0.7818608E-02  0.9815988E-01
         21   -1    0    0  501  502  0.00000000000E+00  0.00000000000E+00  0.41850424524E+03  0.41850424524E+03  0.00000000000E+00 0. -1.
         -4   -1    0    0    0  501 -0.00000000000E+00 -0.00000000000E+00 -0.11018566939E+04  0.11018566939E+04  0.00000000000E+00 0. -1.
        -13    1    1    2    0    0  0.13885324731E+03 -0.10599861999E+03 -0.45408980044E+03  0.48653210558E+03  0.10566000000E+00 0.  1.
         13    1    1    2    0    0  0.17346631078E+03 -0.33140332727E+03 -0.31568436668E+03  0.48946435706E+03  0.10566000000E+00 0. -1.
         -4    1    1    2    0  502 -0.31231955809E+03  0.43740194726E+03  0.86421718466E+02  0.54436447649E+03  0.00000000000E+00 0. -1.
</event>
<event>
 5    1  0.4881333E-005  0.5097892E+03  0.7818608E-02  0.9456771E-01
         21   -1    0    0  501  502  0.00000000000E+00  0.00000000000E+00  0.19640666010E+03  0.19640666010E+03  0.00000000000E+00 0. -1.
          4   -1    0    0  502    0 -0.00000000000E+00 -0.00000000000E+00 -0.30286478485E+04  0.30286478485E+04  0.00000000000E+00 0.  1.
        -13    1    1    2    0    0  0.42615458742E+03  0.33904725270E+03 -0.21529632791E+04  0.22207682599E+04  0.10566000000E+00 0.  1.
         13    1    1    2    0    0 -0.22650980668E+03 -0.39901992906E+03 -0.64724908296E+03  0.79338199051E+03  0.10566000000E+00 0. -1.
          4    1    1    2  501    0 -0.19964478074E+03  0.59972676364E+02 -0.32028826320E+02  0.21090425814E+03  0.00000000000E+00 0.  1.
</event>
<event>
 5    1  0.4881333E-005  0.7372717E+02  0.7818608E-02  0.1217275E+00
         21   -1    0    0  501  502  0.00000000000E+00  0.00000000000E+00  0.19000461846E+03  0.19000461846E+03  0.00000000000E+00 0.  1.
         -4   -1    0    0    0  501 -0.00000000000E+00 -0.00000000000E+00 -0.90139813616E+02  0.90139813616E+02  0.00000000000E+00 0. -1.
        -13    1    1    2    0    0  0.83684181569E+02  0.18542033022E+02  0.64627615178E+02  0.10734798108E+03  0.10566000000E+00 0.  1.
         13    1    1    2    0    0 -0.68705229997E+02 -0.18498714049E+02 -0.49544149696E+02  0.86702047170E+02  0.10566000000E+00 0. -1.
         -4    1    1    2    0  502 -0.14978951572E+02 -0.43318972906E-01  0.84781339365E+02  0.86094403833E+02  0.00000000000E+00 0. -1.
</event>
<event>
 5    1  0.4881333E-005  0.4799856E+03  0.7818608E-02  0.9745987E-01
         21   -1    0    0  501  502  0.00000000000E+00  0.00000000000E+00  0.13679713894E+03  0.13679713894E+03  0.00000000000E+00 0.  1.
          4   -1    0    0  502    0 -0.00000000000E+00 -0.00000000000E+00 -0.31955697029E+04  0.31955697029E+04  0.00000000000E+00 0.  1.
        -13    1    1    2    0    0  0.17851681318E+03  0.34281340628E+03 -0.82204673083E+03  0.90837774243E+03  0.10566000000E+00 0.  1.
         13    1    1    2    0    0  0.26674513811E+02  0.21669858376E+03 -0.12677722443E+04  0.12864354941E+04  0.10566000000E+00 0. -1.
          4    1    1    2  501    0 -0.20519132699E+03 -0.55951199004E+03 -0.96895358885E+03  0.11375536053E+04  0.00000000000E+00 0.  1.
</event>
<event>
 5    1  0.4881333E-005  0.6627785E+03  0.7818608E-02  0.9178795E-01
          4   -1    0    0  502    0 -0.00000000000E+00  0.00000000000E+00  0.15411458517E+04  0.15411458517E+04  0.00000000000E+00 0.  1.
         21   -1    0    0  501  502  0.00000000000E+00 -0.00000000000E+00 -0.55572444490E+03  0.55572444490E+03  0.00000000000E+00 0.  1.
        -13    1    1    2    0    0  0.30771875312E+03  0.64636974933E+03  0.54563742138E+03  0.90011382094E+03  0.10566000000E+00 0.  1.
         13    1    1    2    0    0  0.53743863274E+02 -0.65704412137E+03  0.50355559001E+03  0.82955628119E+03  0.10566000000E+00 0. -1.
          4    1    1    2  501    0 -0.36146261639E+03  0.10674372040E+02 -0.63771604597E+02  0.36720019447E+03  0.00000000000E+00 0.  1.
</event>
<event>
 5    1  0.4881333E-005  0.1784285E+03  0.7818608E-02  0.1076023E+00
          4   -1    0    0  502    0 -0.00000000000E+00  0.00000000000E+00  0.40142760632E+02  0.40142760632E+02  0.00000000000E+00 0.  1.
         21   -1    0    0  501  502  0.00000000000E+00 -0.00000000000E+00 -0.15497265663E+04  0.15497265663E+04  0.00000000000E+00 0. -1.
        -13    1    1    2    0    0 -0.16105327223E+03 -0.63953917244E+02 -0.29317309188E+03  0.34055650484E+03  0.10566000000E+00 0.  1.
         13    1    1    2    0    0  0.17467177898E+03  0.67069349691E+02 -0.51789770987E+03  0.55066012848E+03  0.10566000000E+00 0. -1.
          4    1    1    2  501    0 -0.13618506752E+02 -0.31154324474E+01 -0.69851300392E+03  0.69865269361E+03  0.00000000000E+00 0.  1.
</event>
<event>
 5    1  0.4881333E-005  0.9961010E+02  0.7818608E-02  0.1165202E+00
         21   -1    0    0  501  502  0.00000000000E+00  0.00000000000E+00  0.22490068448E+03  0.22490068448E+03  0.00000000000E+00 0. -1.
          4   -1    0    0  502    0 -0.00000000000E+00 -0.00000000000E+00 -0.81092973572E+02  0.81092973572E+02  0.00000000000E+00 0.  1.
        -13    1    1    2    0    0 -0.57074744528E+02  0.90029891073E+02  0.95836759920E+01  0.10702693941E+03  0.10566000000E+00 0.  1.
         13    1    1    2    0    0  0.78846646309E+02 -0.46285049742E+02  0.11387284847E+03  0.14603470904E+03  0.10566000000E+00 0. -1.
          4    1    1    2  501    0 -0.21771901781E+02 -0.43744841331E+02  0.20351186449E+02  0.52932009598E+02  0.00000000000E+00 0.  1.
</event>
<event>
 5    1  0.4881333E-005  0.3836588E+02  0.7818608E-02  0.1348065E+00
          4   -1    0    0  502    0 -0.00000000000E+00  0.00000000000E+00  0.11759983946E+03  0.11759983946E+03  0.00000000000E+00 0.  1.
         21   -1    0    0  501  502  0.00000000000E+00 -0.00000000000E+00 -0.37729938641E+02  0.37729938641E+02  0.00000000000E+00 0.  1.
        -13    1    1    2    0    0  0.35192206271E+02  0.50301742234E+01  0.54784184346E+02  0.65307825362E+02  0.10566000000E+00 0.  1.
         13    1    1    2    0    0 -0.39633573475E+02 -0.20933943939E+02  0.45430202342E+02  0.63819782231E+02  0.10566000000E+00 0. -1.
          4    1    1    2  501    0  0.44413672036E+01  0.15903769716E+02 -0.20344485872E+02  0.26202170506E+02  0.00000000000E+00 0.  1.
</event>
<event>
 5    1  0.4881333E-005  0.2392623E+03  0.7818608E-02  0.1063882E+00
         -4   -1    0    0    0  501 -0.00000000000E+00  0.00000000000E+00  0.17206036590E+04  0.17206036590E+04  0.00000000000E+00 0. -1.
         21   -1    0    0  501  502  0.00000000000E+00 -0.00000000000E+00 -0.42163360454E+03  0.42163360454E+03  0.00000000000E+00 0.  1.
        -13    1    1    2    0    0  0.72510107106E+02 -0.48517474900E+03  0.73729549737E+03  0.88558281053E+03  0.10566000000E+00 0.  1.
         13    1    1    2    0    0 -0.51087699670E+02  0.12422313057E+03  0.80803177168E+03  0.81911946286E+03  0.10566000000E+00 0. -1.
         -4    1    1    2    0  502 -0.21422407437E+02  0.36095161842E+03 -0.24635721463E+03  0.43753499012E+03  0.00000000000E+00 0. -1.
</event>
<event>
 5    1  0.4881333E-005  0.1015764E+03  0.7818608E-02  0.1215144E+00
          4   -1    0    0  502    0 -0.00000000000E+00  0.00000000000E+00  0.10275777161E+03  0.10275777161E+03  0.00000000000E+00 0.  1.
         21   -1    0    0  501  502  0.00000000000E+00 -0.00000000000E+00 -0.27458845192E+03  0.27458845192E+03  0.00000000000E+00 0.  1.
        -13    1    1    2    0    0  0.11611955775E+03  0.33377588805E+02  0.40931473648E+02  0.12756649962E+03  0.10566000000E+00 0.  1.
         13    1    1    2    0    0 -0.27864254151E+02  0.98548218376E+01 -0.74506717559E+02  0.80154827043E+02  0.10566000000E+00 0. -1.
          4    1    1    2  501    0 -0.88255303600E+02 -0.43232410642E+02 -0.13825543640E+03  0.16962489687E+03  0.00000000000E+00 0.  1.
</event>
<event>
 5    1  0.4881333E-005  0.2013932E+03  0.7818608E-02  0.1059185E+00
          4   -1    0    0  502    0 -0.00000000000E+00  0.00000000000E+00  0.42015520422E+03  0.42015520422E+03  0.00000000000E+00 0.  1.
         21   -1    0    0  501  502  0.00000000000E+00 -0.00000000000E+00 -0.18906703831E+03  0.18906703831E+03  0.00000000000E+00 0. -1.
        -13    1    1    2    0    0 -0.20517987600E+03  0.14169833938E+02  0.28922595440E+03  0.35489608278E+03  0.10566000000E+00 0.  1.
         13    1    1    2    0    0  0.18893979228E+03  0.32208146626E+02 -0.21163690087E+02  0.19283029523E+03  0.10566000000E+00 0. -1.
          4    1    1    2  501    0  0.16240083719E+02 -0.46377980564E+02 -0.36974098404E+02  0.61495864521E+02  0.00000000000E+00 0.  1.
</event>
<event>
 5    1  0.4881333E-005  0.2605718E+02  0.7818608E-02  0.1439682E+00
         21   -1    0    0  501  502  0.00000000000E+00  0.00000000000E+00  0.12727821009E+03  0.12727821009E+03  0.00000000000E+00 0. -1.
          4   -1    0    0  502    0 -0.00000000000E+00 -0.00000000000E+00 -0.20342942243E+02  0.20342942243E+02  0.00000000000E+00 0.  1.
        -13    1    1    2    0    0  0.11390595686E+02 -0.21731806488E+02 -0.12877092863E+00  0.24536601828E+02  0.10566000000E+00 0.  1.
         13    1    1    2    0    0 -0.16086418686E+01  0.32693586700E+02  0.29257142461E+02  0.43902732136E+02  0.10566000000E+00 0. -1.
          4    1    1    2  501    0 -0.97819538172E+01 -0.10961780213E+02  0.77806896315E+02  0.79181818368E+02  0.00000000000E+00 0.  1.
</event>
<event>
 5    1  0.4881333E-005  0.3145363E+03  0.7818608E-02  0.1001479E+00
         -4   -1    0    0    0  501 -0.00000000000E+00  0.00000000000E+00  0.21980319057E+04  0.21980319057E+04  0.00000000000E+00 0. -1.
         21   -1    0    0  501  502  0.00000000000E+00 -0.00000000000E+00 -0.13760517895E+03  0.13760517895E+03  0.00000000000E+00 0. -1.
        -13    1    1    2    0    0  0.55810253097E+02 -0.31055225227E+03  0.63435230016E+03  0.70849159319E+03  0.10566000000E+00 0.  1.
         13    1    1    2    0    0 -0.87417085652E+02  0.30223027708E+03  0.15071980307E+04  0.15396852932E+04  0.10566000000E+00 0. -1.
         -4    1    1    2    0  502  0.31606832555E+02  0.83219751850E+01 -0.81123604102E+02  0.87460198248E+02  0.00000000000E+00 0. -1.
</event>
<event>
 5    1  0.4881333E-005  0.4976651E+03  0.7818608E-02  0.9845860E-01
          4   -1    0    0  502    0 -0.00000000000E+00  0.00000000000E+00  0.30944358307E+03  0.30944358307E+03  0.00000000000E+00 0.  1.
         21   -1    0    0  501  502  0.00000000000E+00 -0.00000000000E+00 -0.12213920937E+04  0.12213920937E+04  0.00000000000E+00 0.  1.
        -13    1    1    2    0    0  0.21495896538E+03  0.48264889618E+03 -0.31287598757E+03  0.61404292077E+03  0.10566000000E+00 0.  1.
         13    1    1    2    0    0 -0.13923685939E+03 -0.19523129876E+01  0.71328195750E+01  0.13943314820E+03  0.10566000000E+00 0. -1.
          4    1    1    2  501    0 -0.75722105994E+02 -0.48069658319E+03 -0.60620534267E+03  0.77735960784E+03  0.00000000000E+00 0.  1.
</event>
<event>
 5    1  0.4881333E-005  0.3838456E+03  0.7818608E-02  0.9784063E-01
          4   -1    0    0  502    0 -0.00000000000E+00  0.00000000000E+00  0.12642017959E+04  0.12642017959E+04  0.00000000000E+00 0.  1.
         21   -1    0    0  501  502  0.00000000000E+00 -0.00000000000E+00 -0.40478815824E+03  0.40478815824E+03  0.00000000000E+00 0. -1.
        -13    1    1    2    0    0  0.20685829252E+02 -0.53305008454E+03  0.72019498779E+03  0.89624278394E+03  0.10566000000E+00 0.  1.
         13    1    1    2    0    0  0.25369339188E+03  0.27552121156E+03  0.12960378815E+03  0.39631985589E+03  0.10566000000E+00 0. -1.
          4    1    1    2  501    0 -0.27437922113E+03  0.25752887298E+03  0.96148617326E+01  0.37642731433E+03  0.00000000000E+00 0.  1.
</event>
<event>
 5    1  0.4881333E-005  0.4789479E+03  0.7818608E-02  0.9847192E-01
         21   -1    0    0  501  502  0.00000000000E+00  0.00000000000E+00  0.24063963595E+03  0.24063963595E+03  0.00000000000E+00 0. -1.
         -4   -1    0    0    0  501 -0.00000000000E+00 -0.00000000000E+00 -0.14830513727E+04  0.14830513727E+04  0.00000000000E+00 0. -1.
        -13    1    1    2    0    0  0.27931000347E+02  0.15299142667E+03 -0.21711025798E+03  0.26706439804E+03  0.10566000000E+00 0.  1.
         13    1    1    2    0    0 -0.11947302070E+03 -0.57159266799E+03 -0.73644154997E+03  0.93986070694E+03  0.10566000000E+00 0. -1.
         -4    1    1    2    0  502  0.91542020358E+02  0.41860124132E+03 -0.28885992879E+03  0.51676590366E+03  0.00000000000E+00 0. -1.
</event>
<event>
 5    1  0.4881333E-005  0.8473095E+02  0.7818608E-02  0.1192635E+00
         21   -1    0    0  501  502  0.00000000000E+00  0.00000000000E+00  0.40606214443E+03  0.40606214443E+03  0.00000000000E+00 0.  1.
         -4   -1    0    0    0  501 -0.00000000000E+00 -0.00000000000E+00 -0.41160045031E+02  0.41160045031E+02  0.00000000000E+00 0. -1.
        -13    1    1    2    0    0 -0.25169167199E+02  0.84703041637E+02  0.25697582815E+03  0.27174377575E+03  0.10566000000E+00 0.  1.
         13    1    1    2    0    0  0.41327464975E+02 -0.73537314235E+02  0.21779363965E+02  0.87120880418E+02  0.10566000000E+00 0. -1.
         -4    1    1    2    0  502 -0.16158297776E+02 -0.11165727401E+02  0.86146907276E+02  0.88357533287E+02  0.00000000000E+00 0. -1.
</event>
<event>
 5    1  0.4881333E-005  0.4734053E+03  0.7818608E-02  0.9589042E-01
         21   -1    0    0  501  502  0.00000000000E+00  0.00000000000E+00  0.27752084467E+03  0.27752084467E+03  0.00000000000E+00 0.  1.
          4   -1    0    0  502    0 -0.00000000000E+00 -0.00000000000E+00 -0.20507731861E+04  0.20507731861E+04  0.00000000000E+00 0.  1.
        -13    1    1    2    0    0 -0.33143509046E+02  0.36693703197E+03 -0.34978568097E+03  0.50802688059E+03  0.10566000000E+00 0.  1.
         13    1    1    2    0    0 -0.29671935305E+03  0.26012170302E+03 -0.72453752807E+03  0.82502140312E+03  0.10566000000E+00 0. -1.
          4    1    1    2  501    0  0.32986286210E+03 -0.62705873499E+03 -0.69892913235E+03  0.99524574702E+03  0.00000000000E+00 0.  1.
</event>
<event>
 5    1  0.4881333E-005  0.3495225E+03  0.7818608E-02  0.1058040E+00
          4   -1    0    0  502    0 -0.00000000000E+00  0.00000000000E+00  0.17402795007E+04  0.17402795007E+04  0.00000000000E+00 0.  1.
         21   -1    0    0  501  502  0.00000000000E+00 -0.00000000000E+00 -0.16764876944E+03  0.16764876944E+03  0.00000000000E+00 0.  1.
        -13    1    1    2    0    0  0.34750469767E+03 -0.17031120478E+02  0.73975256421E+02  0.35569920395E+03  0.10566000000E+00 0.  1.
         13    1    1    2    0    0  0.91207791712E+01 -0.38780452467E+02  0.22099098544E+03  0.22455319841E+03  0.10566000000E+00 0. -1.
          4    1    1    2  501    0 -0.35662547684E+03  0.55811572945E+02  0.12776644894E+04  0.13276758677E+04  0.00000000000E+00 0.  1.
</event>
<event>
 5    1  0.4881333E-005  0.1178512E+03  0.7818608E-02  0.1137992E+00
         -4   -1    0    0    0  501 -0.00000000000E+00  0.00000000000E+00  0.11712444544E+02  0.11712444544E+02  0.00000000000E+00 0. -1.
         21   -1    0    0  501  502  0.00000000000E+00 -0.00000000000E+00 -0.14297702699E+04  0.14297702699E+04  0.00000000000E+00 0.  1.
        -13    1    1    2    0    0  0.24881036074E+02  0.10968373824E+03 -0.56128855176E+03  0.57244601308E+03  0.10566000000E+00 0.  1.
         13    1    1    2    0    0 -0.33746280239E+02 -0.11942336702E+03 -0.64325323099E+03  0.65511486196E+03  0.10566000000E+00 0. -1.
         -4    1    1    2    0  502  0.88652441650E+01  0.97396287752E+01 -0.21351604262E+03  0.21392183942E+03  0.00000000000E+00 0. -1.
</event>
<event>
 5    1  0.4881333E-005  0.4846895E+03  0.7818608E-02  0.1016115E+00
         -4   -1    0    0    0  501 -0.00000000000E+00  0.00000000000E+00  0.56054024000E+03  0.56054024000E+03  0.00000000000E+00 0. -1.
         21   -1    0    0  501  502  0.00000000000E+00 -0.00000000000E+00 -0.54941737316E+03  0.54941737316E+03  0.00000000000E+00 0. -1.
        -13    1    1    2    0    0 -0.53518148342E+02  0.37261598270E+01  0.67360876154E+02  0.86113734498E+02  0.10566000000E+00 0.  1.
         13    1    1    2    0    0 -0.46420832703E+03  0.43945872201E+02 -0.16134488579E+03  0.49340935733E+03  0.10566000000E+00 0. -1.
         -4    1    1    2    0  502  0.51772647537E+03 -0.47672032028E+02  0.10510687647E+03  0.53043452133E+03  0.00000000000E+00 0. -1.
</event>
<event>
 5    1  0.4881333E-005  0.2734925E+03  0.7818608E-02  0.1044592E+00
         21   -1    0    0  501  502  0.00000000000E+00  0.00000000000E+00  0.23336593376E+03  0.23336593376E+03  0.00000000000E+00 0.  1.
          4   -1    0    0  502    0 -0.00000000000E+00 -0.00000000000E+00 -0.13525192774E+04  0.13525192774E+04  0.00000000000E+00 0.  1.
        -13    1    1    2    0    0 -0.19911923607E+03  0.19775308363E+03  0.10454871301E+03  0.29947486842E+03  0.10566000000E+00 0.  1.
         13    1    1    2    0    0  0.12391031340E+03  0.16989728415E+01 -0.16439781607E+03  0.20587206068E+03  0.10566000000E+00 0. -1.
          4    1    1    2  501    0  0.75208922677E+02 -0.19945205648E+03 -0.10593042406E+04  0.10805382820E+04  0.00000000000E+00 0.  1.
</event>
<event>
 5    1  0.4881333E-005  0.3022330E+03  0.7818608E-02  0.1006388E+00
         21   -1    0    0  501  502  0.00000000000E+00  0.00000000000E+00  0.68567934129E+02  0.68567934129E+02  0.00000000000E+00 0.  1.
          4   -1    0    0  502    0 -0.00000000000E+00 -0.00000000000E+00 -0.23439562312E+04  0.23439562312E+04  0.00000000000E+00 0.  1.
        -13    1    1    2    0    0  0.27542484850E+03 -0.16423759548E+02 -0.11139854048E+04  0.11476463220E+04  0.10566000000E+00 0.  1.
         13    1    1    2    0    0 -0.33688783716E+03  0.86312943840E+02 -0.10992796504E+04  0.11529783606E+04  0.10566000000E+00 0. -1.
          4    1    1    2  501    0  0.61462988666E+02 -0.69889184292E+02 -0.62123241853E+02  0.11189948273E+03  0.00000000000E+00 0.  1.
</event>
<event>
 5    1  0.4881333E-005  0.1728578E+02  0.7818608E-02  0.1576444E+00
          4   -1    0    0  502    0 -0.00000000000E+00  0.00000000000E+00  0.48995355581E+02  0.48995355581E+02  0.00000000000E+00 0.  1.
         21   -1    0    0  501  502  0.00000000000E+00 -0.00000000000E+00 -0.36519857669E+02  0.36519857669E+02  0.00000000000E+00 0. -1.
        -13    1    1    2    0    0 -0.12803205427E+02 -0.20230759368E+02  0.39052978594E+02  0.45807772211E+02  0.10566000000E+00 0.  1.
         13    1    1    2    0    0 -0.21420214666E+01  0.12193529189E+02 -0.92495097309E+01  0.15454287571E+02  0.10566000000E+00 0. -1.
          4    1    1    2  501    0  0.14945226893E+02  0.80372301798E+01 -0.17327970951E+02  0.24253153468E+02  0.00000000000E+00 0.  1.
</event>
<event>
 5    1  0.4881333E-005  0.1051142E+03  0.7818608E-02  0.1156361E+00
         21   -1    0    0  501  502  0.00000000000E+00  0.00000000000E+00  0.31043403264E+02  0.31043403264E+02  0.00000000000E+00 0. -1.
          4   -1    0    0  502    0 -0.00000000000E+00 -0.00000000000E+00 -0.54967425882E+03  0.54967425882E+03  0.00000000000E+00 0.  1.
        -13    1    1    2    0    0  0.92399311261E+02  0.28056193973E+02 -0.22039789929E+03  0.24062424632E+03  0.10566000000E+00 0.  1.
         13    1    1    2    0    0 -0.11712534775E+03 -0.41995594358E+01 -0.27410281582E+03  0.29810794721E+03  0.10566000000E+00 0. -1.
          4    1    1    2  501    0  0.24726036488E+02 -0.23856634537E+02 -0.24130140447E+02  0.41985468555E+02  0.00000000000E+00 0.  1.
</event>
<event>
 5    1  0.4881333E-005  0.4596049E+03  0.7818608E-02  0.9751019E-01
         21   -1    0    0  501  502  0.00000000000E+00  0.00000000000E+00  0.39907361278E+03  0.39907361278E+03  0.00000000000E+00 0.  1.
          4   -1    0    0  502    0 -0.00000000000E+00 -0.00000000000E+00 -0.12128676349E+04  0.12128676349E+04  0.00000000000E+00 0.  1.
        -13    1    1    2    0    0 -0.16789817518E+03  0.46538917912E+03  0.64927881766E+02  0.49899150921E+03  0.10566000000E+00 0.  1.
         13    1    1    2    0    0  0.23858178559E+03 -0.53045154997E+02 -0.46082962837E+03  0.52163110953E+03  0.10566000000E+00 0. -1.
          4    1    1    2  501    0 -0.70683610404E+02 -0.41234402412E+03 -0.41789227555E+03  0.59131862897E+03  0.00000000000E+00 0.  1.
</event>
<event>
 5    1  0.4881333E-005  0.2430672E+03  0.7818608E-02  0.1044859E+00
         21   -1    0    0  501  502  0.00000000000E+00  0.00000000000E+00  0.31545177147E+03  0.31545177147E+03  0.00000000000E+00 0. -1.
         -4   -1    0    0    0  501 -0.00000000000E+00 -0.00000000000E+00 -0.42977922379E+03  0.42977922379E+03  0.00000000000E+00 0. -1.
        -13    1    1    2    0    0 -0.29383208767E+02  0.17263051106E+03 -0.38049053099E+02  0.17919935244E+03  0.10566000000E+00 0.  1.
         13    1    1    2    0    0  0.15982641043E+03 -0.32096833383E+03 -0.84295785741E+02  0.36833536818E+03  0.10566000000E+00 0. -1.
         -4    1    1    2    0  502 -0.13044320166E+03  0.14833782277E+03  0.80173865174E+01  0.19769627465E+03  0.00000000000E+00 0. -1.
</event>
<event>
 5    1  0.4881333E-005  0.3539906E+03  0.7818608E-02  0.9872235E-01
         21   -1    0    0  501  502  0.00000000000E+00  0.00000000000E+00  0.31946583375E+03  0.31946583375E+03  0.00000000000E+00 0.  1.
          4   -1    0    0  502    0 -0.00000000000E+00 -0.00000000000E+00 -0.16101515916E+04  0.16101515916E+04  0.00000000000E+00 0.  1.
        -13    1    1    2    0    0 -0.34414136996E+03  0.35773130772E+03 -0.67382242698E+03  0.83692391847E+03  0.10566000000E+00 0.  1.
         13    1    1    2    0    0  0.28681616427E+03 -0.11817170615E+03 -0.75076549894E+03  0.81232808014E+03  0.10566000000E+00 0. -1.
          4    1    1    2  501    0  0.57325205689E+02 -0.23955960157E+03  0.13390216806E+03  0.28036542676E+03  0.00000000000E+00 0.  1.
</event>
<event>
 5    1  0.4881333E-005  0.1508690E+03  0.7818608E-02  0.1100258E+00
         21   -1    0    0  501  502  0.00000000000E+00  0.00000000000E+00  0.43728897869E+03  0.43728897869E+03  0.00000000000E+00 0. -1.
          4   -1    0    0  502    0 -0.00000000000E+00 -0.00000000000E+00 -0.61483729802E+02  0.61483729802E+02  0.00000000000E+00 0.  1.
        -13    1    1    2    0    0  0.15295296632E+03  0.38779706352E+02  0.13895883259E+03  0.21025708989E+03  0.10566000000E+00 0.  1.
         13    1    1    2    0    0 -0.14096049674E+03 -0.19854781383E+02  0.20494580463E+03  0.24953330035E+03  0.10566000000E+00 0. -1.
          4    1    1    2  501    0 -0.11992469578E+02 -0.18924924969E+02  0.31900611662E+02  0.38982318249E+02  0.00000000000E+00 0.  1.
</event>
<event>
 5    1  0.4881333E-005  0.3518123E+03  0.7818608E-02  0.1009606E+00
         21   -1    0    0  501  502  0.00000000000E+00  0.00000000000E+00  0.62851780507E+03  0.62851780507E+03  0.00000000000E+00 0.  1.
          4   -1    0    0  502    0 -0.00000000000E+00 -0.00000000000E+00 -0.87841143468E+03  0.87841143468E+03  0.00000000000E+00 0.  1.
        -13    1    1    2    0    0  0.56095993136E+02  0.48280959105E+03 -0.22886011334E+03  0.53724186760E+03  0.10566000000E+00 0.  1.
         13    1    1    2    0    0 -0.82113302311E+02 -0.15195736377E+03 -0.41799279605E+03  0.45227383689E+03  0.10566000000E+00 0. -1.
          4    1    1    2  501    0  0.26017309175E+02 -0.33085222728E+03  0.39695927978E+03  0.51741353527E+03  0.00000000000E+00 0.  1.
</event>
<event>
 5    1  0.4881333E-005  0.4564566E+03  0.7818608E-02  0.9637116E-01
          4   -1    0    0  502    0 -0.00000000000E+00  0.00000000000E+00  0.15950616384E+04  0.15950616384E+04  0.00000000000E+00 0.  1.
         21   -1    0    0  501  502  0.00000000000E+00 -0.00000000000E+00 -0.31861849962E+03  0.31861849962E+03  0.00000000000E+00 0.  1.
        -13    1    1    2    0    0 -0.67505436113E+03 -0.50398329327E+02  0.64444234887E+03  0.93463593675E+03  0.10566000000E+00 0.  1.
         13    1    1    2    0    0  0.32583775241E+03  0.17777983206E+03  0.37130258374E+03  0.52501574209E+03  0.10566000000E+00 0. -1.
          4    1    1    2  501    0  0.34921660872E+03 -0.12738150274E+03  0.26069820613E+03  0.45402845916E+03  0.00000000000E+00 0.  1.
</event>
<event>
 5    1  0.4881333E-005  0.4450473E+02  0.7818608E-02  0.1352815E+00
         21   -1    0    0  501  502  0.00000000000E+00  0.00000000000E+00  0.47742204350E+03  0.47742204350E+03  0.00000000000E+00 0.  1.
          4   -1    0    0  502    0 -0.00000000000E+00 -0.00000000000E+00 -0.13186895747E+02  0.13186895747E+02  0.00000000000E+00 0.  1.
        -13    1    1    2    0    0  0.44669290936E+02 -0.44064877647E+02  0.13544475618E+03  0.14927274412E+03  0.10566000000E+00 0.  1.
         13    1    1    2    0    0 -0.19084269305E+02  0.12044486889E+02  0.20993378797E+02  0.30822266572E+02  0.10566000000E+00 0. -1.
          4    1    1    2  501    0 -0.25585021631E+02  0.32020390759E+02  0.30779701278E+03  0.31051392856E+03  0.00000000000E+00 0.  1.
</event>
<event>
 5    1  0.4881333E-005  0.1163491E+03  0.7818608E-02  0.1140023E+00
          4   -1    0    0  502    0 -0.00000000000E+00  0.00000000000E+00  0.58631735494E+03  0.58631735494E+03  0.00000000000E+00 0.  1.
         21   -1    0    0  501  502  0.00000000000E+00 -0.00000000000E+00 -0.99368995239E+02  0.99368995239E+02  0.00000000000E+00 0.  1.
        -13    1    1    2    0    0  0.12043475174E+03  0.86903888906E+02  0.55549700203E+02  0.15856416900E+03  0.10566000000E+00 0.  1.
         13    1    1    2    0    0 -0.76429149224E+02 -0.82485716331E+02  0.46059762026E+03  0.47412602460E+03  0.10566000000E+00 0. -1.
          4    1    1    2  501    0 -0.44005602520E+02 -0.44181725755E+01 -0.29198960764E+02  0.52996156576E+02  0.00000000000E+00 0.  1.
</event>
<event>
 5    1  0.4881333E-005  0.4391506E+03  0.7818608E-02  0.1007990E+00
         21   -1    0    0  501  502  0.00000000000E+00  0.00000000000E+00  0.15372878042E+03  0.15372878042E+03  0.00000000000E+00 0.  1.
          4   -1    0    0  502    0 -0.00000000000E+00 -0.00000000000E+00 -0.18197338336E+04  0.18197338336E+04  0.00000000000E+00 0.  1.
        -13    1    1    2    0    0  0.46179811959E+03 -0.53541452967E+02 -0.38722651209E+03  0.60503600989E+03  0.10566000000E+00 0.  1.
         13    1    1    2    0    0 -0.83762906914E+02 -0.41663727625E+02 -0.32085998270E+03  0.33422033217E+03  0.10566000000E+00 0. -1.
          4    1    1    2  501    0 -0.37803521267E+03  0.95205180592E+02 -0.95791855839E+03  0.10342062720E+04  0.00000000000E+00 0.  1.
</event>
<event>
 5    1  0.4881333E-005  0.1655092E+03  0.7818608E-02  0.1086748E+00
         21   -1    0    0  501  502  0.00000000000E+00  0.00000000000E+00  0.41185902530E+03  0.41185902530E+03  0.00000000000E+00 0. -1.
          4   -1    0    0  502    0 -0.00000000000E+00 -0.00000000000E+00 -0.88019418112E+02  0.88019418112E+02  0.00000000000E+00 0.  1.
        -13    1    1    2    0    0 -0.27171395866E+02  0.15231874932E+03  0.10867819302E+03  0.18907735705E+03  0.10566000000E+00 0.  1.
         13    1    1    2    0    0  0.54371229895E+02 -0.17095743545E+03  0.13622688538E+03  0.22525641132E+03  0.10566000000E+00 0. -1.
          4    1    1    2  501    0 -0.27199834029E+02  0.18638686130E+02  0.78934528787E+02  0.85544675034E+02  0.00000000000E+00 0.  1.
</event>
<event>
 5    1  0.4881333E-005  0.5440338E+03  0.7818608E-02  0.9386351E-01
         -4   -1    0    0    0  501 -0.00000000000E+00  0.00000000000E+00  0.39089851533E+04  0.39089851533E+04  0.00000000000E+00 0. -1.
         21   -1    0    0  501  502  0.00000000000E+00 -0.00000000000E+00 -0.29959630516E+03  0.29959630516E+03  0.00000000000E+00 0. -1.
        -13    1    1    2    0    0 -0.58553025746E+03 -0.37427024784E+01  0.26028159112E+04  0.26678662577E+04  0.10566000000E+00 0.  1.
         13    1    1    2    0    0  0.48274486069E+03  0.56177827699E+02  0.12116048758E+04  0.13054443440E+04  0.10566000000E+00 0. -1.
         -4    1    1    2    0  502  0.10278539677E+03 -0.52435125220E+02 -0.20503193883E+03  0.23527085686E+03  0.00000000000E+00 0. -1.
</event>
<event>
 5    1  0.4881333E-005  0.1276529E+03  0.7818608E-02  0.1125509E+00
         21   -1    0    0  501  502  0.00000000000E+00  0.00000000000E+00  0.34133478694E+02  0.34133478694E+02  0.00000000000E+00 0. -1.
          4   -1    0    0  502    0 -0.00000000000E+00 -0.00000000000E+00 -0.92455093581E+03  0.92455093581E+03  0.00000000000E+00 0.  1.
        -13    1    1    2    0    0 -0.12161216506E+03 -0.72899811072E+02 -0.51767348041E+03  0.53673992271E+03  0.10566000000E+00 0.  1.
         13    1    1    2    0    0  0.90457958280E+02  0.71437410324E+02 -0.37336240884E+03  0.39074985004E+03  0.10566000000E+00 0. -1.
          4    1    1    2  501    0  0.31154206776E+02  0.14624007485E+01  0.61843213481E+00  0.31194641753E+02  0.00000000000E+00 0.  1.
</event>
<event>
 5    1  0.4881333E-005  0.4803183E+03  0.7818608E-02  0.9582349E-01
         -4   -1    0    0    0  501 -0.00000000000E+00  0.00000000000E+00  0.33622560740E+04  0.33622560740E+04  0.00000000000E+00 0. -1.
         21   -1    0    0  501  502  0.00000000000E+00 -0.00000000000E+00 -0.18089646068E+03  0.18089646068E+03  0.00000000000E+00 0. -1.
        -13    1    1    2    0    0  0.23417335042E+03  0.30802595706E+03  0.15373927338E+04  0.15853370548E+04  0.10566000000E+00 0.  1.
         13    1    1    2    0    0 -0.48100150520E+03  0.15232398391E+03  0.10623245547E+04  0.11760520884E+04  0.10566000000E+00 0. -1.
         -4    1    1    2    0  502  0.24682815477E+03 -0.46034994097E+03  0.58164232483E+03  0.78176339142E+03  0.00000000000E+00 0. -1.
</event>
<event>
 5    1  0.4881333E-005  0.4415220E+03  0.7818608E-02  0.9897477E-01
         21   -1    0    0  501  502  0.00000000000E+00  0.00000000000E+00  0.16761047484E+03  0.16761047484E+03  0.00000000000E+00 0. -1.
         -4   -1    0    0    0  501 -0.00000000000E+00 -0.00000000000E+00 -0.24295490127E+04  0.24295490127E+04  0.00000000000E+00 0. -1.
        -13    1    1    2    0    0  0.10602494429E+03  0.12982586070E+03 -0.86777738840E+03  0.88381765647E+03  0.10566000000E+00 0.  1.
         13    1    1    2    0    0  0.21358502657E+03 -0.42641306883E+03 -0.10653820213E+04  0.11672555553E+04  0.10566000000E+00 0. -1.
         -4    1    1    2    0  502 -0.31960997086E+03  0.29658720813E+03 -0.32877912816E+03  0.54608627580E+03  0.00000000000E+00 0. -1.
</event>
<event>
 5    1  0.4881333E-005  0.7305798E+02  0.7818608E-02  0.1218925E+00
         -4   -1    0    0    0  501 -0.00000000000E+00  0.00000000000E+00  0.56003191284E+02  0.56003191284E+02  0.00000000000E+00 0. -1.
         21   -1    0    0  501  502  0.00000000000E+00 -0.00000000000E+00 -0.21148997140E+03  0.21148997140E+03  0.00000000000E+00 0.  1.
        -13    1    1    2    0    0 -0.35999119117E+02  0.68850173736E+02 -0.55492083280E+02  0.95475994216E+02  0.10566000000E+00 0.  1.
         13    1    1    2    0    0  0.43910558410E+02 -0.56125059123E+02 -0.36013702742E+00  0.71262193792E+02  0.10566000000E+00 0. -1.
         -4    1    1    2    0  502 -0.79114392930E+01 -0.12725114614E+02 -0.99634559813E+02  0.10075497468E+03  0.00000000000E+00 0. -1.
</event>
<event>
 5    1  0.4881333E-005  0.4526061E+03  0.7818608E-02  0.9664233E-01
         21   -1    0    0  501  502  0.00000000000E+00  0.00000000000E+00  0.18171741216E+03  0.18171741216E+03  0.00000000000E+00 0. -1.
         -4   -1    0    0    0  501 -0.00000000000E+00 -0.00000000000E+00 -0.30748062414E+04  0.30748062414E+04  0.00000000000E+00 0. -1.
        -13    1    1    2    0    0  0.29995920976E+03  0.17262123416E+03 -0.76822581440E+03  0.84258206193E+03  0.10566000000E+00 0.  1.
         13    1    1    2    0    0  0.17451534645E+03 -0.32973705136E+03 -0.17496033216E+04  0.17889365341E+04  0.10566000000E+00 0. -1.
         -4    1    1    2    0  502 -0.47447455621E+03  0.15711581719E+03 -0.37525969328E+03  0.62500505750E+03  0.00000000000E+00 0. -1.
</event>
<event>
 5    1  0.4881333E-005  0.4776993E+03  0.7818608E-02  0.9730517E-01
         21   -1    0    0  501  502  0.00000000000E+00  0.00000000000E+00  0.14422705419E+03  0.14422705419E+03  0.00000000000E+00 0.  1.
          4   -1    0    0  502    0 -0.00000000000E+00 -0.00000000000E+00 -0.29182347929E+04  0.29182347929E+04  0.00000000000E+00 0.  1.
        -13    1    1    2    0    0  0.65550938668E+02  0.32809105384E+03 -0.13573203926E+04  0.13979482553E+04  0.10566000000E+00 0.  1.
         13    1    1    2    0    0  0.14115314668E+03  0.18619286948E+03 -0.80879087484E+03  0.84186381669E+03  0.10566000000E+00 0. -1.
          4    1    1    2  501    0 -0.20670408535E+03 -0.51428392332E+03 -0.60789647127E+03  0.82264977510E+03  0.00000000000E+00 0.  1.
</event>
<event>
 5    1  0.4881333E-005  0.3911851E+03  0.7818608E-02  0.1002409E+00
          4   -1    0    0  502    0 -0.00000000000E+00  0.00000000000E+00  0.13295129638E+04  0.13295129638E+04  0.00000000000E+00 0.  1.
         21   -1    0    0  501  502  0.00000000000E+00 -0.00000000000E+00 -0.26277067323E+03  0.26277067323E+03  0.00000000000E+00 0.  1.
        -13    1    1    2    0    0 -0.35179705061E+03  0.20983732838E+03  0.16714730952E+02  0.40996617250E+03  0.10566000000E+00 0.  1.
         13    1    1    2    0    0  0.15062388437E+03  0.49722175653E+02  0.12885840093E+03  0.20436327446E+03  0.10566000000E+00 0. -1.
          4    1    1    2  501    0  0.20117316624E+03 -0.25955950404E+03  0.92116915866E+03  0.97795419004E+03  0.00000000000E+00 0.  1.
</event>
<event>
 5    1  0.4881333E-005  0.4549641E+03  0.7818608E-02  0.9652466E-01
          4   -1    0    0  502    0 -0.00000000000E+00  0.00000000000E+00  0.87166737579E+03  0.87166737579E+03  0.00000000000E+00 0.  1.
         21   -1    0    0  501  502  0.00000000000E+00 -0.00000000000E+00 -0.55767525543E+03  0.55767525543E+03  0.00000000000E+00 0.  1.
        -13    1    1    2    0    0  0.31204498314E+03 -0.37413597611E+02  0.37647342303E+03  0.49041217175E+03  0.10566000000E+00 0.  1.
         13    1    1    2    0    0  0.15544220941E+03  0.31928437426E+03  0.10080512796E+03  0.36914289523E+03  0.10566000000E+00 0. -1.
          4    1    1    2  501    0 -0.46748719255E+03 -0.28187077665E+03 -0.16328643063E+03  0.56978756423E+03  0.00000000000E+00 0.  1.
</event>
<event>
 5    1  0.4881333E-005  0.4946791E+03  0.7818608E-02  0.9600813E-01
         -4   -1    0    0    0  501 -0.00000000000E+00  0.00000000000E+00  0.15687853398E+04  0.15687853398E+04  0.00000000000E+00 0. -1.
         21   -1    0    0  501  502  0.00000000000E+00 -0.00000000000E+00 -0.58805668998E+03  0.58805668998E+03  0.00000000000E+00 0. -1.
        -13    1    1    2    0    0 -0.30871122871E+03  0.12118749182E+03  0.10487653012E+04  0.10999534986E+04  0.10566000000E+00 0.  1.
         13    1    1    2    0    0 -0.23372744826E+03 -0.38583005763E+03 -0.33747498977E+02  0.45236297184E+03  0.10566000000E+00 0. -1.
         -4    1    1    2    0  502  0.54243867697E+03  0.26464256581E+03 -0.34289152414E+02  0.60452555933E+03  0.00000000000E+00 0. -1.
</event>
<event>
 5    1  0.4881333E-005  0.9104027E+02  0.7818608E-02  0.1180296E+00
         -4   -1    0    0    0  501 -0.00000000000E+00  0.00000000000E+00  0.17655634148E+03  0.17655634148E+03  0.00000000000E+00 0. -1.
         21   -1    0    0  501  502  0.00000000000E+00 -0.00000000000E+00 -0.11050496245E+03  0.11050496245E+03  0.00000000000E+00 0. -1.
        -13    1    1    2    0    0 -0.88509858237E+02 -0.87684254076E+00 -0.58620357652E+00  0.88516205616E+02  0.10566000000E+00 0.  1.
         13    1    1    2    0    0  0.90891010130E+02  0.15938856791E+02  0.11522481107E+03  0.14762110665E+03  0.10566000000E+00 0. -1.
         -4    1    1    2    0  502 -0.23811518929E+01 -0.15062014250E+02 -0.48587228466E+02  0.50923991670E+02  0.00000000000E+00 0. -1.
</event>
<event>
 5    1  0.4881333E-005  0.3281572E+03  0.7818608E-02  0.1014051E+00
         21   -1    0    0  501  502  0.00000000000E+00  0.00000000000E+00  0.54101196410E+03  0.54101196410E+03  0.00000000000E+00 0.  1.
          4   -1    0    0  502    0 -0.00000000000E+00 -0.00000000000E+00 -0.70756385020E+03  0.70756385020E+03  0.00000000000E+00 0.  1.
        -13    1    1    2    0    0 -0.43459142751E+03 -0.13232331833E+03 -0.34704587845E+03  0.57168174918E+03  0.10566000000E+00 0.  1.
         13    1    1    2    0    0  0.12147755447E+03  0.13899042346E+03 -0.13780020443E+03  0.23035633605E+03  0.10566000000E+00 0. -1.
          4    1    1    2  501    0  0.31311387304E+03 -0.66671051342E+01  0.31829419678E+03  0.44653772907E+03  0.00000000000E+00 0.  1.
</event>
<event>
 5    1  0.4881333E-005  0.5048805E+02  0.7818608E-02  0.1289814E+00
         -4   -1    0    0    0  501 -0.00000000000E+00  0.00000000000E+00  0.18296935610E+03  0.18296935610E+03  0.00000000000E+00 0. -1.
         21   -1    0    0  501  502  0.00000000000E+00 -0.00000000000E+00 -0.23160485812E+02  0.23160485812E+02  0.00000000000E+00 0. -1.
        -13    1    1    2    0    0  0.43962481359E+02 -0.19084318149E+02  0.64917566895E+02  0.80692085251E+02  0.10566000000E+00 0.  1.
         13    1    1    2    0    0 -0.38451626242E+02  0.39300320272E+02  0.87260204075E+02  0.10313775794E+03  0.10566000000E+00 0. -1.
         -4    1    1    2    0  502 -0.55108551173E+01 -0.20216002123E+02  0.76310993142E+01  0.22299998716E+02  0.00000000000E+00 0. -1.
</event>
<event>
 5    1  0.4881333E-005  0.2919205E+03  0.7818608E-02  0.1087686E+00
         -4   -1    0    0    0  501 -0.00000000000E+00  0.00000000000E+00  0.11293008946E+04  0.11293008946E+04  0.00000000000E+00 0. -1.
         21   -1    0    0  501  502  0.00000000000E+00 -0.00000000000E+00 -0.14788792875E+04  0.14788792875E+04  0.00000000000E+00 0.  1.
        -13    1    1    2    0    0 -0.81014385434E+02 -0.99427904455E+03  0.32677891656E+03  0.10497326424E+04  0.10566000000E+00 0.  1.
         13    1    1    2    0    0  0.87808170064E+01  0.77098843566E+02  0.24463982788E+03  0.25665149712E+03  0.10566000000E+00 0. -1.
         -4    1    1    2    0  502  0.72233568427E+02  0.91718020099E+03 -0.92099713731E+03  0.13017960426E+04  0.00000000000E+00 0. -1.
</event>
<event>
 5    1  0.4881333E-005  0.1574411E+03  0.7818608E-02  0.1093996E+00
         21   -1    0    0  501  502  0.00000000000E+00  0.00000000000E+00  0.12243629882E+03  0.12243629882E+03  0.00000000000E+00 0.  1.
         -4   -1    0    0    0  501 -0.00000000000E+00 -0.00000000000E+00 -0.66926428845E+03  0.66926428845E+03  0.00000000000E+00 0. -1.
        -13    1    1    2    0    0 -0.30148391001E+02 -0.16014964659E+03 -0.27441992082E+03  0.31916005215E+03  0.10566000000E+00 0.  1.
         13    1    1    2    0    0  0.24821622418E+02  0.15153067084E+03 -0.35633160379E+03  0.38800757746E+03  0.10566000000E+00 0. -1.
         -4    1    1    2    0  502  0.53267685830E+01  0.86189757410E+01  0.83923534983E+02  0.84532957658E+02  0.00000000000E+00 0. -1.
</event>
<event>
 5    1  0.4881333E-005  0.5913459E+03  0.7818608E-02  0.9407834E-01
          4   -1    0    0  502    0 -0.00000000000E+00  0.00000000000E+00  0.15776400565E+04  0.15776400565E+04  0.00000000000E+00 0.  1.
         21   -1    0    0  501  502  0.00000000000E+00 -0.00000000000E+00 -0.64325535767E+03  0.64325535767E+03  0.00000000000E+00 0. -1.
        -13    1    1    2    0    0  0.28332040678E+03 -0.21938070337E+03  0.34098571475E+03  0.49464089473E+03  0.10566000000E+00 0.  1.
         13    1    1    2    0    0  0.32168588868E+03  0.65205485651E+03  0.65671842686E+03  0.97976346646E+03  0.10566000000E+00 0. -1.
          4    1    1    2  501    0 -0.60500629547E+03 -0.43267415314E+03 -0.63319442765E+02  0.74649105298E+03  0.00000000000E+00 0.  1.
</event>
<event>
 5    1  0.4881333E-005  0.2154774E+03  0.7818608E-02  0.1050014E+00
         -4   -1    0    0    0  501 -0.00000000000E+00  0.00000000000E+00  0.10536725448E+04  0.10536725448E+04  0.00000000000E+00 0. -1.
         21   -1    0    0  501  502  0.00000000000E+00 -0.00000000000E+00 -0.33708919654E+03  0.33708919654E+03  0.00000000000E+00 0. -1.
        -13    1    1    2    0    0  0.17076616051E+03 -0.45418627813E+02  0.27949480299E+03  0.33066794430E+03  0.10566000000E+00 0.  1.
         13    1    1    2    0    0 -0.23845553108E+03  0.61943060517E+02  0.72403771414E+03  0.76480625371E+03  0.10566000000E+00 0. -1.
         -4    1    1    2    0  502  0.67689370577E+02 -0.16524432705E+02 -0.28694916884E+03  0.29528754336E+03  0.00000000000E+00 0. -1.
</event>
<event>
 5    1  0.4881333E-005  0.2894911E+03  0.7818608E-02  0.1012320E+00
         -4   -1    0    0    0  501 -0.00000000000E+00  0.00000000000E+00  0.37283325546E+03  0.37283325546E+03  0.00000000000E+00 0. -1.
         21   -1    0    0  501  502  0.00000000000E+00 -0.00000000000E+00 -0.12752959907E+04  0.12752959907E+04  0.00000000000E+00 0. -1.
        -13    1    1    2    0    0  0.25895135149E+03  0.11703384488E+03 -0.65199894733E+02  0.29155404426E+03  0.10566000000E+00 0.  1.
         13    1    1    2    0    0  0.47968655826E+02 -0.16055738439E+03  0.20754639335E+03  0.26674928712E+03  0.10566000000E+00 0. -1.
         -4    1    1    2    0  502 -0.30692000732E+03  0.43523539515E+02 -0.10448092339E+04  0.10898259148E+04  0.00000000000E+00 0. -1.
</event>
<event>
 5    1  0.4881333E-005  0.8789350E+02  0.7818608E-02  0.1188409E+00
         -4   -1    0    0    0  501 -0.00000000000E+00  0.00000000000E+00  0.87464554511E+03  0.87464554511E+03  0.00000000000E+00 0. -1.
         21   -1    0    0  501  502  0.00000000000E+00 -0.00000000000E+00 -0.23787381942E+03  0.23787381942E+03  0.00000000000E+00 0. -1.
        -13    1    1    2    0    0  0.21730094487E+02  0.80831814828E+02  0.53632084611E+02  0.99410215564E+02  0.10566000000E+00 0.  1.
         13    1    1    2    0    0 -0.87678964234E+02 -0.13772030725E+03  0.78049635503E+03  0.79738889833E+03  0.10566000000E+00 0. -1.
         -4    1    1    2    0  502  0.65948869748E+02  0.56888492421E+02 -0.19735671395E+03  0.21572025063E+03  0.00000000000E+00 0. -1.
</event>
<event>
 5    1  0.4881333E-005  0.3507775E+03  0.7818608E-02  0.9899385E-01
         21   -1    0    0  501  502  0.00000000000E+00  0.00000000000E+00  0.52982181182E+03  0.52982181182E+03  0.00000000000E+00 0. -1.
         -4   -1    0    0    0  501 -0.00000000000E+00 -0.00000000000E+00 -0.17133046769E+04  0.17133046769E+04  0.00000000000E+00 0. -1.
        -13    1    1    2    0    0  0.25429914274E+03 -0.25550815759E+03 -0.11141531560E+04  0.11710208105E+04  0.10566000000E+00 0.  1.
         13    1    1    2    0    0 -0.15524874551E+03 -0.28512112974E+03  0.27335037387E+03  0.42440154295E+03  0.10566000000E+00 0. -1.
         -4    1    1    2    0  502 -0.99050397233E+02  0.54062928732E+03 -0.34268008297E+03  0.64770413521E+03  0.00000000000E+00 0. -1.
</event>
<event>
 5    1  0.4881333E-005  0.4989229E+03  0.7818608E-02  0.9759194E-01
         21   -1    0    0  501  502  0.00000000000E+00  0.00000000000E+00  0.38589280776E+03  0.38589280776E+03  0.00000000000E+00 0.  1.
          4   -1    0    0  502    0 -0.00000000000E+00 -0.00000000000E+00 -0.11771195378E+04  0.11771195378E+04  0.00000000000E+00 0.  1.
        -13    1    1    2    0    0 -0.50087786256E+03 -0.20888717154E+03 -0.42022180568E+02  0.54431457675E+03  0.10566000000E+00 0.  1.
         13    1    1    2    0    0  0.52862949057E+02  0.17807308817E+03 -0.42801268664E+03  0.46658266921E+03  0.10566000000E+00 0. -1.
          4    1    1    2  501    0  0.44801491350E+03  0.30814083369E+02 -0.32119186281E+03  0.55211509958E+03  0.00000000000E+00 0.  1.
</event>
<event>
 5    1  0.4881333E-005  0.3632388E+03  0.7818608E-02  0.9841668E-01
         21   -1    0    0  501  502  0.00000000000E+00  0.00000000000E+00  0.15975396021E+04  0.15975396021E+04  0.00000000000E+00 0. -1.
         -4   -1    0    0    0  501 -0.00000000000E+00 -0.00000000000E+00 -0.41003111343E+03  0.41003111343E+03  0.00000000000E+00 0. -1.
        -13    1    1    2    0    0  0.18711517703E+03  0.25990964333E+03 -0.10800390887E+03  0.33797924147E+03  0.10566000000E+00 0.  1.
         13    1    1    2    0    0 -0.34122796225E+03 -0.35507523246E+03  0.15717242805E+03  0.51693145216E+03  0.10566000000E+00 0. -1.
         -4    1    1    2    0  502  0.15411278522E+03  0.95165589134E+02  0.11383399695E+04  0.11526600219E+04  0.00000000000E+00 0. -1.
</event>
<event>
 5    1  0.4881333E-005  0.5023618E+03  0.7818608E-02  0.9641602E-01
         -4   -1    0    0    0  501 -0.00000000000E+00  0.00000000000E+00  0.19224289596E+04  0.19224289596E+04  0.00000000000E+00 0. -1.
         21   -1    0    0  501  502  0.00000000000E+00 -0.00000000000E+00 -0.26219636121E+03  0.26219636121E+03  0.00000000000E+00 0. -1.
        -13    1    1    2    0    0  0.13658134607E+03 -0.23761404799E+03  0.70745798290E+02  0.28305455134E+03  0.10566000000E+00 0.  1.
         13    1    1    2    0    0  0.33736006253E+03  0.41327146515E+03  0.72435885933E+03  0.89961151835E+03  0.10566000000E+00 0. -1.
         -4    1    1    2    0  502 -0.47394140860E+03 -0.17565741716E+03  0.86512794076E+03  0.10019592511E+04  0.00000000000E+00 0. -1.
</event>
<event>
 5    1  0.4881333E-005  0.4275298E+03  0.7818608E-02  0.1048234E+00
         21   -1    0    0  501  502  0.00000000000E+00  0.00000000000E+00  0.31076500488E+03  0.31076500488E+03  0.00000000000E+00 0.  1.
          4   -1    0    0  502    0 -0.00000000000E+00 -0.00000000000E+00 -0.85615356194E+03  0.85615356194E+03  0.00000000000E+00 0.  1.
        -13    1    1    2    0    0 -0.41531981074E+03  0.97926266351E+02 -0.56571480969E+03  0.70859957374E+03  0.10566000000E+00 0.  1.
         13    1    1    2    0    0  0.63549674774E+01  0.28386686281E+02 -0.51177947444E+01  0.29536292197E+02  0.10566000000E+00 0. -1.
          4    1    1    2  501    0  0.40896484326E+03 -0.12631295263E+03  0.25444047372E+02  0.42878270088E+03  0.00000000000E+00 0.  1.
</event>
<event>
 5    1  0.4881333E-005  0.1394032E+03  0.7818608E-02  0.1112060E+00
         -4   -1    0    0    0  501 -0.00000000000E+00  0.00000000000E+00  0.50919405990E+02  0.50919405990E+02  0.00000000000E+00 0. -1.
         21   -1    0    0  501  502  0.00000000000E+00 -0.00000000000E+00 -0.54301651939E+03  0.54301651939E+03  0.00000000000E+00 0.  1.
        -13    1    1    2    0    0  0.15044896640E+03 -0.17903330491E+02 -0.18490916525E+03  0.23905403425E+03  0.10566000000E+00 0.  1.
         13    1    1    2    0    0 -0.12671553669E+03  0.24962600609E+02 -0.15997695271E+03  0.20560300394E+03  0.10566000000E+00 0. -1.
         -4    1    1    2    0  502 -0.23733429713E+02 -0.70592701175E+01 -0.14721099545E+03  0.14927888719E+03  0.00000000000E+00 0. -1.
</event>
<event>
 5    1  0.4881333E-005  0.4192511E+03  0.7818608E-02  0.9675037E-01
         21   -1    0    0  501  502  0.00000000000E+00  0.00000000000E+00  0.64852039393E+03  0.64852039393E+03  0.00000000000E+00 0. -1.
         -4   -1    0    0    0  501 -0.00000000000E+00 -0.00000000000E+00 -0.16792651459E+04  0.16792651459E+04  0.00000000000E+00 0. -1.
        -13    1    1    2    0    0 -0.28510087981E+03  0.69404543690E+03 -0.63381477425E+03  0.98219283207E+03  0.10566000000E+00 0.  1.
         13    1    1    2    0    0  0.74429561996E+02 -0.33890359233E+03 -0.73444129821E+03  0.81228039265E+03  0.10566000000E+00 0. -1.
         -4    1    1    2    0  502  0.21067131782E+03 -0.35514184456E+03  0.33751132054E+03  0.53331231507E+03  0.00000000000E+00 0. -1.
</event>
<event>
 5    1  0.4881333E-005  0.2559402E+03  0.7818608E-02  0.1036023E+00
         21   -1    0    0  501  502  0.00000000000E+00  0.00000000000E+00  0.38816013335E+03  0.38816013335E+03  0.00000000000E+00 0. -1.
         -4   -1    0    0    0  501 -0.00000000000E+00 -0.00000000000E+00 -0.11686873471E+04  0.11686873471E+04  0.00000000000E+00 0. -1.
        -13    1    1    2    0    0 -0.15433944958E+03  0.12081914072E+03 -0.43572681057E+03  0.47778216278E+03  0.10566000000E+00 0.  1.
         13    1    1    2    0    0  0.10967835102E+03  0.22761643529E+03  0.27075078503E+03  0.37033036745E+03  0.10566000000E+00 0. -1.
         -4    1    1    2    0  502  0.44661098553E+02 -0.34843557600E+03 -0.61555118820E+03  0.70873495021E+03  0.00000000000E+00 0. -1.
</event>
<event>
 5    1  0.4881333E-005  0.4320491E+03  0.7818608E-02  0.9640806E-01
          4   -1    0    0  502    0 -0.00000000000E+00  0.00000000000E+00  0.48495609682E+03  0.48495609682E+03  0.00000000000E+00 0.  1.
         21   -1    0    0  501  502  0.00000000000E+00 -0.00000000000E+00 -0.10001100888E+04  0.10001100888E+04  0.00000000000E+00 0. -1.
        -13    1    1    2    0    0 -0.43516141589E+03  0.81913252495E+02  0.29237866286E+03  0.53062277795E+03  0.10566000000E+00 0.  1.
         13    1    1    2    0    0  0.38665998777E+03  0.15349978858E+02 -0.52874839579E+03  0.65522243948E+03  0.10566000000E+00 0. -1.
          4    1    1    2  501    0  0.48501428121E+02 -0.97263231353E+02 -0.27878425907E+03  0.29922096819E+03  0.00000000000E+00 0.  1.
</event>
<event>
 5    1  0.4881333E-005  0.4829718E+03  0.7818608E-02  0.9837700E-01
         -4   -1    0    0    0  501 -0.00000000000E+00  0.00000000000E+00  0.16342536757E+04  0.16342536757E+04  0.00000000000E+00 0. -1.
         21   -1    0    0  501  502  0.00000000000E+00 -0.00000000000E+00 -0.32404865873E+03  0.32404865873E+03  0.00000000000E+00 0. -1.
        -13    1    1    2    0    0 -0.12461474331E+03  0.94869316200E+02  0.81823581044E+03  0.83308995556E+03  0.10566000000E+00 0.  1.
         13    1    1    2    0    0  0.52652075030E+03 -0.23975151552E+03  0.34404018270E+03  0.67310366822E+03  0.10566000000E+00 0. -1.
         -4    1    1    2    0  502 -0.40190600699E+03  0.14488219932E+03  0.14792902379E+03  0.45210871061E+03  0.00000000000E+00 0. -1.
</event>
<event>
 5    1  0.4881333E-005  0.1894169E+03  0.7818608E-02  0.1067644E+00
         -4   -1    0    0    0  501 -0.00000000000E+00  0.00000000000E+00  0.44998673533E+03  0.44998673533E+03  0.00000000000E+00 0. -1.
         21   -1    0    0  501  502  0.00000000000E+00 -0.00000000000E+00 -0.11028161244E+03  0.11028161244E+03  0.00000000000E+00 0.  1.
        -13    1    1    2    0    0  0.79389472622E+02  0.15331650431E+03  0.22305640182E+02  0.17408673586E+03  0.10566000000E+00 0.  1.
         13    1    1    2    0    0 -0.91415905277E+02 -0.17367071599E+03  0.27989004323E+03  0.34184328689E+03  0.10566000000E+00 0. -1.
         -4    1    1    2    0  502  0.12026432655E+02  0.20354211684E+02  0.37509439469E+02  0.44338325013E+02  0.00000000000E+00 0. -1.
</event>
<event>
 5    1  0.4881333E-005  0.5022258E+03  0.7818608E-02  0.1005268E+00
          4   -1    0    0  502    0 -0.00000000000E+00  0.00000000000E+00  0.20139258619E+04  0.20139258619E+04  0.00000000000E+00 0.  1.
         21   -1    0    0  501  502  0.00000000000E+00 -0.00000000000E+00 -0.15912436097E+03  0.15912436097E+03  0.00000000000E+00 0.  1.
        -13    1    1    2    0    0 -0.50314967325E+03 -0.13507522414E+02  0.78941136998E+03  0.93622239296E+03  0.10566000000E+00 0.  1.
         13    1    1    2    0    0  0.63788797439E+01 -0.68002078859E+02  0.12025811705E+02  0.69351309629E+02  0.10566000000E+00 0. -1.
          4    1    1    2  501    0  0.49677079351E+03  0.81509601273E+02  0.10533643193E+04  0.11674765203E+04  0.00000000000E+00 0.  1.
</event>
<event>
 5    1  0.4881333E-005  0.3303007E+03  0.7818608E-02  0.9955288E-01
         -4   -1    0    0    0  501 -0.00000000000E+00  0.00000000000E+00  0.96028615739E+03  0.96028615739E+03  0.00000000000E+00 0. -1.
         21   -1    0    0  501  502  0.00000000000E+00 -0.00000000000E+00 -0.46132957580E+03  0.46132957580E+03  0.00000000000E+00 0. -1.
        -13    1    1    2    0    0 -0.17537018960E+03  0.23128561964E+03  0.16373170654E+03  0.33325039256E+03  0.10566000000E+00 0.  1.
         13    1    1    2    0    0  0.23840605221E+03 -0.25813356492E+03  0.66468907474E+03  0.75185235274E+03  0.10566000000E+00 0. -1.
         -4    1    1    2    0  502 -0.63035862608E+02  0.26847945275E+02 -0.32946419970E+03  0.33651298789E+03  0.00000000000E+00 0. -1.
</event>
<event>
 5    1  0.4881333E-005  0.4923294E+03  0.7818608E-02  0.9718169E-01
         -4   -1    0    0    0  501 -0.00000000000E+00  0.00000000000E+00  0.50102561744E+03  0.50102561744E+03  0.00000000000E+00 0. -1.
         21   -1    0    0  501  502  0.00000000000E+00 -0.00000000000E+00 -0.77753851992E+03  0.77753851992E+03  0.00000000000E+00 0. -1.
        -13    1    1    2    0    0  0.16076581524E+03  0.15420303080E+03 -0.34614746990E+02  0.22543827078E+03  0.10566000000E+00 0.  1.
         13    1    1    2    0    0 -0.32608595914E+03  0.34376896454E+03  0.35972541809E+01  0.47383763583E+03  0.10566000000E+00 0. -1.
         -4    1    1    2    0  502  0.16532014390E+03 -0.49797199534E+03 -0.24549540967E+03  0.57928823076E+03  0.00000000000E+00 0. -1.
</event>
<event>
 5    1  0.4881333E-005  0.4710393E+03  0.7818608E-02  0.9796336E-01
         21   -1    0    0  501  502  0.00000000000E+00  0.00000000000E+00  0.53705288580E+03  0.53705288580E+03  0.00000000000E+00 0. -1.
         -4   -1    0    0    0  501 -0.00000000000E+00 -0.00000000000E+00 -0.81604442235E+03  0.81604442235E+03  0.00000000000E+00 0. -1.
        -13    1    1    2    0    0  0.17784640182E+03  0.78339196193E+02 -0.27738912028E+03  0.33869028258E+03  0.10566000000E+00 0.  1.
         13    1    1    2    0    0 -0.38542348490E+03  0.33571138901E+03 -0.14188901935E+03  0.53045820231E+03  0.10566000000E+00 0. -1.
         -4    1    1    2    0  502  0.20757708308E+03 -0.41405058520E+03  0.14028660308E+03  0.48394882325E+03  0.00000000000E+00 0. -1.
</event>
<event>
 5    1  0.4881333E-005  0.4845769E+03  0.7818608E-02  0.9791840E-01
         21   -1    0    0  501  502  0.00000000000E+00  0.00000000000E+00  0.12745239827E+03  0.12745239827E+03  0.00000000000E+00 0.  1.
          4   -1    0    0  502    0 -0.00000000000E+00 -0.00000000000E+00 -0.28237639117E+04  0.28237639117E+04  0.00000000000E+00 0.  1.
        -13    1    1    2    0    0  0.43626303900E+03 -0.29369766993E+03 -0.81606980849E+03  0.97085205053E+03  0.10566000000E+00 0.  1.
         13    1    1    2    0    0 -0.21372382002E+02  0.17999864044E+03 -0.40571121496E+03  0.44436234131E+03  0.10566000000E+00 0. -1.
          4    1    1    2  501    0 -0.41489065700E+03  0.11369902949E+03 -0.14745304899E+04  0.15360019181E+04  0.00000000000E+00 0.  1.
</event>
<event>
 5    1  0.4881333E-005  0.5631467E+03  0.7818608E-02  0.9349362E-01
         -4   -1    0    0    0  501 -0.00000000000E+00  0.00000000000E+00  0.20591769352E+03  0.20591769352E+03  0.00000000000E+00 0. -1.
         21   -1    0    0  501  502  0.00000000000E+00 -0.00000000000E+00 -0.23291175252E+04  0.23291175252E+04  0.00000000000E+00 0.  1.
        -13    1    1    2    0    0 -0.18311234104E+03  0.43167040392E+03 -0.13681073740E+04  0.14462320924E+04  0.10566000000E+00 0.  1.
         13    1    1    2    0    0  0.27819921272E+03 -0.53611014920E+03 -0.45193139172E+03  0.75435461689E+03  0.10566000000E+00 0. -1.
         -4    1    1    2    0  502 -0.95086871679E+02  0.10443974528E+03 -0.30316106589E+03  0.33444850939E+03  0.00000000000E+00 0. -1.
</event>
<event>
 5    1  0.4881333E-005  0.5027384E+03  0.7818608E-02  0.9666849E-01
         21   -1    0    0  501  502  0.00000000000E+00  0.00000000000E+00  0.20723796282E+03  0.20723796282E+03  0.00000000000E+00 0.  1.
          4   -1    0    0  502    0 -0.00000000000E+00 -0.00000000000E+00 -0.19994617104E+04  0.19994617104E+04  0.00000000000E+00 0.  1.
        -13    1    1    2    0    0  0.38045683954E+03  0.35166425532E+03 -0.74165365556E+03  0.90469072682E+03  0.10566000000E+00 0.  1.
         13    1    1    2    0    0 -0.20923097061E+03  0.13723993255E+03 -0.37151287348E+03  0.44792211877E+03  0.10566000000E+00 0. -1.
          4    1    1    2  501    0 -0.17122586893E+03 -0.48890418788E+03 -0.67905721856E+03  0.85408682767E+03  0.00000000000E+00 0.  1.
</event>
<event>
 5    1  0.4881333E-005  0.4393300E+03  0.7818608E-02  0.1017677E+00
         21   -1    0    0  501  502  0.00000000000E+00  0.00000000000E+00  0.46078528917E+03  0.46078528917E+03  0.00000000000E+00 0.  1.
          4   -1    0    0  502    0 -0.00000000000E+00 -0.00000000000E+00 -0.62117998040E+03  0.62117998040E+03  0.00000000000E+00 0.  1.
        -13    1    1    2    0    0  0.48703060703E+03  0.35815327035E+02 -0.29019828275E+03  0.56806390865E+03  0.10566000000E+00 0.  1.
         13    1    1    2    0    0 -0.65273773351E+02 -0.20966857616E+02 -0.10098284126E+02  0.69298348552E+02  0.10566000000E+00 0. -1.
          4    1    1    2  501    0 -0.42175683368E+03 -0.14848469419E+02  0.13990187565E+03  0.44460301237E+03  0.00000000000E+00 0.  1.
</event>
<event>
 5    1  0.4881333E-005  0.2317008E+03  0.7818608E-02  0.1040338E+00
         21   -1    0    0  501  502  0.00000000000E+00  0.00000000000E+00  0.12186994022E+03  0.12186994022E+03  0.00000000000E+00 0.  1.
         -4   -1    0    0    0  501 -0.00000000000E+00 -0.00000000000E+00 -0.16039928138E+04  0.16039928138E+04  0.00000000000E+00 0. -1.
        -13    1    1    2    0    0  0.78909641448E+02  0.21419635331E+03 -0.73012897705E+02  0.23966164416E+03  0.10566000000E+00 0.  1.
         13    1    1    2    0    0  0.78044396311E+02 -0.22553222743E+03 -0.12053534677E+04  0.12287525001E+04  0.10566000000E+00 0. -1.
         -4    1    1    2    0  502 -0.15695403776E+03  0.11335874118E+02 -0.20375650818E+03  0.25744860970E+03  0.00000000000E+00 0. -1.
</event>
<event>
 5    1  0.4881333E-005  0.3431693E+03  0.7818608E-02  0.1016195E+00
         -4   -1    0    0    0  501 -0.00000000000E+00  0.00000000000E+00  0.47458664760E+03  0.47458664760E+03  0.00000000000E+00 0. -1.
         21   -1    0    0  501  502  0.00000000000E+00 -0.00000000000E+00 -0.16955846807E+04  0.16955846807E+04  0.00000000000E+00 0.  1.
        -13    1    1    2    0    0 -0.24179513040E+03 -0.47233162300E+03 -0.59158051484E+02  0.53391172809E+03  0.10566000000E+00 0.  1.
         13    1    1    2    0    0  0.21764535315E+03 -0.44836468138E+02  0.12090176251E+03  0.25297639409E+03  0.10566000000E+00 0. -1.
         -4    1    1    2    0  502  0.24149777252E+02  0.51716809114E+03 -0.12827417441E+04  0.13832832061E+04  0.00000000000E+00 0. -1.
</event>
<event>
 5    1  0.4881333E-005  0.4728631E+03  0.7818608E-02  0.9592048E-01
         21   -1    0    0  501  502  0.00000000000E+00  0.00000000000E+00  0.49516457767E+03  0.49516457767E+03  0.00000000000E+00 0.  1.
          4   -1    0    0  502    0 -0.00000000000E+00 -0.00000000000E+00 -0.11986006091E+04  0.11986006091E+04  0.00000000000E+00 0.  1.
        -13    1    1    2    0    0  0.12176728967E+03 -0.29006951751E+03 -0.40392416758E+03  0.51197884931E+03  0.10566000000E+00 0.  1.
         13    1    1    2    0    0  0.39136388147E+03  0.17028671568E+02 -0.43454832606E+03  0.58505377721E+03  0.10566000000E+00 0. -1.
          4    1    1    2  501    0 -0.51313117114E+03  0.27304084594E+03  0.13503646221E+03  0.59673256026E+03  0.00000000000E+00 0.  1.
</event>
<event>
 5    1  0.4881333E-005  0.5897586E+02  0.7818608E-02  0.1259022E+00
         21   -1    0    0  501  502  0.00000000000E+00  0.00000000000E+00  0.11955993156E+03  0.11955993156E+03  0.00000000000E+00 0.  1.
          4   -1    0    0  502    0 -0.00000000000E+00 -0.00000000000E+00 -0.17884923226E+03  0.17884923226E+03  0.00000000000E+00 0.  1.
        -13    1    1    2    0    0  0.42826678446E+02 -0.34610427340E+02 -0.12136585164E+03  0.13327297992E+03  0.10566000000E+00 0.  1.
         13    1    1    2    0    0 -0.77309473748E+02  0.38725086586E+02 -0.80923124690E+01  0.86844019641E+02  0.10566000000E+00 0. -1.
          4    1    1    2  501    0  0.34482795302E+02 -0.41146592463E+01  0.70168863409E+02  0.78292164261E+02  0.00000000000E+00 0.  1.
</event>
<event>
 5    1  0.4881333E-005  0.2781594E+03  0.7818608E-02  0.1016751E+00
          4   -1    0    0  502    0 -0.00000000000E+00  0.00000000000E+00  0.57194375439E+03  0.57194375439E+03  0.00000000000E+00 0.  1.
         21   -1    0    0  501  502  0.00000000000E+00 -0.00000000000E+00 -0.71641649612E+03  0.71641649612E+03  0.00000000000E+00 0. -1.
        -13    1    1    2    0    0 -0.28558355400E+03  0.22187478591E+03 -0.41947215374E+03  0.55384409889E+03  0.10566000000E+00 0.  1.
         13    1    1    2    0    0  0.14914586908E+03 -0.19278451712E+03 -0.15068232881E+03  0.28655808431E+03  0.10566000000E+00 0. -1.
          4    1    1    2  501    0  0.13643768492E+03 -0.29090268799E+02  0.42568174082E+03  0.44795806732E+03  0.00000000000E+00 0.  1.
</event>
<event>
 5    1  0.4881333E-005  0.3408014E+03  0.7818608E-02  0.9917588E-01
         21   -1    0    0  501  502  0.00000000000E+00  0.00000000000E+00  0.32856928287E+03  0.32856928287E+03  0.00000000000E+00 0. -1.
          4   -1    0    0  502    0 -0.00000000000E+00 -0.00000000000E+00 -0.88079517434E+03  0.88079517434E+03  0.00000000000E+00 0.  1.
        -13    1    1    2    0    0  0.43257469728E+02 -0.34053433664E+03 -0.61034128242E+03  0.70025090883E+03  0.10566000000E+00 0.  1.
         13    1    1    2    0    0 -0.59108273038E+02  0.32903644526E+03 -0.10066465804E+03  0.34913056983E+03  0.10566000000E+00 0. -1.
          4    1    1    2  501    0  0.15850803310E+02  0.11497891383E+02  0.15878004898E+03  0.15998297856E+03  0.00000000000E+00 0.  1.
</event>
<event>
 5    1  0.4881333E-005  0.5036740E+03  0.7818608E-02  0.9781210E-01
         21   -1    0    0  501  502  0.00000000000E+00  0.00000000000E+00  0.36493276825E+03  0.36493276825E+03  0.00000000000E+00 0. -1.
         -4   -1    0    0    0  501 -0.00000000000E+00 -0.00000000000E+00 -0.12017415330E+04  0.12017415330E+04  0.00000000000E+00 0. -1.
        -13    1    1    2    0    0  0.37405812167E+02  0.16316597727E+03 -0.43973868952E+03  0.47052359893E+03  0.10566000000E+00 0.  1.
         13    1    1    2    0    0 -0.52299030676E+03 -0.86444629472E+02 -0.20348210892E+03  0.56779971358E+03  0.10566000000E+00 0. -1.
         -4    1    1    2    0  502  0.48558449460E+03 -0.76721347802E+02 -0.19358796630E+03  0.52835098874E+03  0.00000000000E+00 0. -1.
</event>
<event>
 5    1  0.4881333E-005  0.8836563E+02  0.7818608E-02  0.1185387E+00
         21   -1    0    0  501  502  0.00000000000E+00  0.00000000000E+00  0.29632330831E+03  0.29632330831E+03  0.00000000000E+00 0. -1.
          4   -1    0    0  502    0 -0.00000000000E+00 -0.00000000000E+00 -0.11272862775E+03  0.11272862775E+03  0.00000000000E+00 0.  1.
        -13    1    1    2    0    0  0.94719697550E+02 -0.29698151668E+02 -0.51967324830E+02  0.11204648736E+03  0.10566000000E+00 0.  1.
         13    1    1    2    0    0 -0.36993491031E+02  0.73089111854E+02  0.45543564006E+02  0.93727072059E+02  0.10566000000E+00 0. -1.
          4    1    1    2  501    0 -0.57726206519E+02 -0.43390960186E+02  0.19001844138E+03  0.20327837664E+03  0.00000000000E+00 0.  1.
</event>
<event>
 5    1  0.4881333E-005  0.3786380E+02  0.7818608E-02  0.1350992E+00
         -4   -1    0    0    0  501 -0.00000000000E+00  0.00000000000E+00  0.12335122324E+03  0.12335122324E+03  0.00000000000E+00 0. -1.
         21   -1    0    0  501  502  0.00000000000E+00 -0.00000000000E+00 -0.41039613065E+02  0.41039613065E+02  0.00000000000E+00 0.  1.
        -13    1    1    2    0    0 -0.11167601124E+02  0.31469571433E+02 -0.20539547653E+02  0.39203742460E+02  0.10566000000E+00 0.  1.
         13    1    1    2    0    0  0.26072111475E+02 -0.28558637561E+02  0.10297929585E+03  0.11000044234E+03  0.10566000000E+00 0. -1.
         -4    1    1    2    0  502 -0.14904510351E+02 -0.29109338724E+01 -0.12813801975E+00  0.15186651513E+02  0.00000000000E+00 0. -1.
</event>
<event>
 5    1  0.4881333E-005  0.4975551E+03  0.7818608E-02  0.9540839E-01
         21   -1    0    0  501  502  0.00000000000E+00  0.00000000000E+00  0.35476762610E+03  0.35476762610E+03  0.00000000000E+00 0. -1.
         -4   -1    0    0    0  501 -0.00000000000E+00 -0.00000000000E+00 -0.19743876799E+04  0.19743876799E+04  0.00000000000E+00 0. -1.
        -13    1    1    2    0    0 -0.73134535267E+02  0.39729928475E+03 -0.10095722087E+04  0.10873966331E+04  0.10566000000E+00 0.  1.
         13    1    1    2    0    0  0.17662911100E+03  0.25479817544E+03 -0.47594696789E+03  0.56801890855E+03  0.10566000000E+00 0. -1.
         -4    1    1    2    0  502 -0.10349457574E+03 -0.65209746019E+03 -0.13410087718E+03  0.67373976434E+03  0.00000000000E+00 0. -1.
</event>
<event>
 5    1  0.4881333E-005  0.2745571E+03  0.7818608E-02  0.1018398E+00
         21   -1    0    0  501  502  0.00000000000E+00  0.00000000000E+00  0.16962393802E+03  0.16962393802E+03  0.00000000000E+00 0.  1.
         -4   -1    0    0    0  501 -0.00000000000E+00 -0.00000000000E+00 -0.11658096382E+04  0.11658096382E+04  0.00000000000E+00 0. -1.
        -13    1    1    2    0    0 -0.15674168086E+03  0.13764318210E+03 -0.48208263156E+02  0.21409728606E+03  0.10566000000E+00 0.  1.
         13    1    1    2    0    0  0.23284387685E+03 -0.17529177366E+03 -0.98609713312E+03  0.10282660376E+04  0.10566000000E+00 0. -1.
         -4    1    1    2    0  502 -0.76102195986E+02  0.37648591562E+02  0.38119696122E+02  0.93070252568E+02  0.00000000000E+00 0. -1.
</event>
<event>
 5    1  0.4881333E-005  0.4832828E+03  0.7818608E-02  0.9758424E-01
         -4   -1    0    0    0  501 -0.00000000000E+00  0.00000000000E+00  0.26060392283E+04  0.26060392283E+04  0.00000000000E+00 0. -1.
         21   -1    0    0  501  502  0.00000000000E+00 -0.00000000000E+00 -0.19117742138E+03  0.19117742138E+03  0.00000000000E+00 0. -1.
        -13    1    1    2    0    0 -0.43621075354E+02 -0.20022369690E+03  0.11733141467E+04  0.11910744834E+04  0.10566000000E+00 0.  1.
         13    1    1    2    0    0 -0.45602012958E+03  0.12186856390E+03  0.82691871522E+03  0.95215591066E+03  0.10566000000E+00 0. -1.
         -4    1    1    2    0  502  0.49964120493E+03  0.78355132998E+02  0.41462894504E+03  0.65398625567E+03  0.00000000000E+00 0. -1.
</event>
<event>
 5    1  0.4881333E-005  0.4844969E+03  0.7818608E-02  0.9512614E-01
         21   -1    0    0  501  502  0.00000000000E+00  0.00000000000E+00  0.11781403664E+04  0.11781403664E+04  0.00000000000E+00 0.  1.
         -4   -1    0    0    0  501 -0.00000000000E+00 -0.00000000000E+00 -0.10809842809E+04  0.10809842809E+04  0.00000000000E+00 0. -1.
        -13    1    1    2    0    0 -0.41463571014E+03  0.19115838340E+03 -0.73741184396E+03  0.86731801459E+03  0.10566000000E+00 0.  1.
         13    1    1    2    0    0  0.64936562245E+03 -0.39381200428E+03  0.40118573489E+03  0.85890256221E+03  0.10566000000E+00 0. -1.
         -4    1    1    2    0  502 -0.23472991230E+03  0.20265362088E+03  0.43338219451E+03  0.53290407045E+03  0.00000000000E+00 0. -1.
</event>
<event>
 5    1  0.4881333E-005  0.4745822E+03  0.7818608E-02  0.1011724E+00
          4   -1    0    0  502    0 -0.00000000000E+00  0.00000000000E+00  0.73349836179E+03  0.73349836179E+03  0.00000000000E+00 0.  1.
         21   -1    0    0  501  502  0.00000000000E+00 -0.00000000000E+00 -0.57964658785E+03  0.57964658785E+03  0.00000000000E+00 0.  1.
        -13    1    1    2    0    0 -0.23394874912E+03 -0.42136324214E+03  0.75821058140E+02  0.48788097223E+03  0.10566000000E+00 0.  1.
         13    1    1    2    0    0 -0.49261078863E+02  0.43530963290E+02  0.29741712107E+03  0.30459572178E+03  0.10566000000E+00 0. -1.
          4    1    1    2  501    0  0.28320982798E+03  0.37783227885E+03 -0.21938640528E+03  0.52066825564E+03  0.00000000000E+00 0.  1.
</event>
<event>
 5    1  0.4881333E-005  0.2154152E+03  0.7818608E-02  0.1050053E+00
         -4   -1    0    0    0  501 -0.00000000000E+00  0.00000000000E+00  0.11484712073E+04  0.11484712073E+04  0.00000000000E+00 0. -1.
         21   -1    0    0  501  502  0.00000000000E+00 -0.00000000000E+00 -0.60406817186E+02  0.60406817186E+02  0.00000000000E+00 0.  1.
        -13    1    1    2    0    0 -0.54757264097E+02  0.19921250108E+03  0.20552415165E+03  0.29141751257E+03  0.10566000000E+00 0.  1.
         13    1    1    2    0    0  0.45779023977E+02 -0.21341221084E+03  0.86867836747E+03  0.89567996966E+03  0.10566000000E+00 0. -1.
         -4    1    1    2    0  502  0.89782401201E+01  0.14199709761E+02  0.13861870948E+02  0.21780542214E+02  0.00000000000E+00 0. -1.
</event>
<event>
 5    1  0.4881333E-005  0.3270440E+03  0.7818608E-02  0.9967285E-01
         -4   -1    0    0    0  501 -0.00000000000E+00  0.00000000000E+00  0.16669306991E+04  0.16669306991E+04  0.00000000000E+00 0. -1.
         21   -1    0    0  501  502  0.00000000000E+00 -0.00000000000E+00 -0.13550977784E+03  0.13550977784E+03  0.00000000000E+00 0.  1.
        -13    1    1    2    0    0 -0.73342447633E+02  0.40537213013E+03  0.60416847276E+03  0.73124909104E+03  0.10566000000E+00 0.  1.
         13    1    1    2    0    0  0.13653973015E+03 -0.26458270722E+03  0.84583704662E+03  0.89670922125E+03  0.10566000000E+00 0. -1.
         -4    1    1    2    0  502 -0.63197282517E+02 -0.14078942291E+03  0.81415401891E+02  0.17448216466E+03  0.00000000000E+00 0. -1.
</event>
<event>
 5    1  0.4881333E-005  0.2211798E+03  0.7818608E-02  0.1046512E+00
         21   -1    0    0  501  502  0.00000000000E+00  0.00000000000E+00  0.36168319118E+03  0.36168319118E+03  0.00000000000E+00 0. -1.
         -4   -1    0    0    0  501 -0.00000000000E+00 -0.00000000000E+00 -0.34978529379E+03  0.34978529379E+03  0.00000000000E+00 0. -1.
        -13    1    1    2    0    0 -0.19010922985E+03  0.81928838357E+01 -0.11298096866E+03  0.22129923874E+03  0.10566000000E+00 0.  1.
         13    1    1    2    0    0  0.32401864151E+03  0.14895396564E+02  0.32778249689E+02  0.32601284899E+03  0.10566000000E+00 0. -1.
         -4    1    1    2    0  502 -0.13390941166E+03 -0.23088280399E+02  0.92100616362E+02  0.16415639725E+03  0.00000000000E+00 0. -1.
</event>
<event>
 5    1  0.4881333E-005  0.8826093E+03  0.7818608E-02  0.8893475E-01
         21   -1    0    0  501  502  0.00000000000E+00  0.00000000000E+00  0.97675277535E+03  0.97675277535E+03  0.00000000000E+00 0. -1.
          4   -1    0    0  502    0 -0.00000000000E+00 -0.00000000000E+00 -0.21156189634E+04  0.21156189634E+04  0.00000000000E+00 0.  1.
        -13    1    1    2    0    0  0.31872630637E+03 -0.76337666624E+03 -0.10910319707E+04  0.13691899668E+04  0.10566000000E+00 0.  1.
         13    1    1    2    0    0  0.17356521428E+02  0.11839633958E+04 -0.39247503094E+02  0.11847408784E+04  0.10566000000E+00 0. -1.
          4    1    1    2  501    0 -0.33608282780E+03 -0.42058672954E+03 -0.85867143260E+01  0.53844089356E+03  0.00000000000E+00 0.  1.
</event>
<event>
 5    1  0.4881333E-005  0.3178070E+03  0.7818608E-02  0.1016005E+00
         21   -1    0    0  501  502  0.00000000000E+00  0.00000000000E+00  0.55510855025E+03  0.55510855025E+03  0.00000000000E+00 0.  1.
          4   -1    0    0  502    0 -0.00000000000E+00 -0.00000000000E+00 -0.96022074500E+03  0.96022074500E+03  0.00000000000E+00 0.  1.
        -13    1    1    2    0    0 -0.18085651633E+02 -0.20054676495E+03 -0.37363640815E+03  0.42444112947E+03  0.10566000000E+00 0.  1.
         13    1    1    2    0    0 -0.17512841744E+03 -0.76155218855E+02 -0.48749788303E+03  0.52356831176E+03  0.10566000000E+00 0. -1.
          4    1    1    2  501    0  0.19321406908E+03  0.27670198380E+03  0.45602209643E+03  0.56731985401E+03  0.00000000000E+00 0.  1.
</event>
<event>
 5    1  0.4881333E-005  0.4502969E+03  0.7818608E-02  0.9771987E-01
         21   -1    0    0  501  502  0.00000000000E+00  0.00000000000E+00  0.19613277263E+03  0.19613277263E+03  0.00000000000E+00 0. -1.
         -4   -1    0    0    0  501 -0.00000000000E+00 -0.00000000000E+00 -0.28099655926E+04  0.28099655926E+04  0.00000000000E+00 0. -1.
        -13    1    1    2    0    0  0.13455223686E+03 -0.20089679436E+03 -0.13668115676E+04  0.13880337528E+04  0.10566000000E+00 0.  1.
         13    1    1    2    0    0 -0.57463609504E+02 -0.30403780840E+03 -0.10074338874E+04  0.10538804980E+04  0.10566000000E+00 0. -1.
         -4    1    1    2    0  502 -0.77088627357E+02  0.50493460276E+03 -0.23958736495E+03  0.56418411444E+03  0.00000000000E+00 0. -1.
</event>
<event>
 5    1  0.4881333E-005  0.6135716E+03  0.7818608E-02  0.9258773E-01
          4   -1    0    0  502    0 -0.00000000000E+00  0.00000000000E+00  0.18674507865E+04  0.18674507865E+04  0.00000000000E+00 0.  1.
         21   -1    0    0  501  502  0.00000000000E+00 -0.00000000000E+00 -0.35103992885E+03  0.35103992885E+03  0.00000000000E+00 0.  1.
        -13    1    1    2    0    0 -0.72475776435E+03 -0.31484053106E+03  0.61406252637E+03  0.10007353169E+04  0.10566000000E+00 0.  1.
         13    1    1    2    0    0  0.44574534736E+03  0.24312234286E+03  0.43423642955E+03  0.66810079794E+03  0.10566000000E+00 0. -1.
          4    1    1    2  501    0  0.27901241699E+03  0.71718188195E+02  0.46811190171E+03  0.54965460052E+03  0.00000000000E+00 0.  1.
</event>
<event>
 5    1  0.4881333E-005  0.4946124E+03  0.7818608E-02  0.9764622E-01
          4   -1    0    0  502    0 -0.00000000000E+00  0.00000000000E+00  0.14724531455E+04  0.14724531455E+04  0.00000000000E+00 0.  1.
         21   -1    0    0  501  502  0.00000000000E+00 -0.00000000000E+00 -0.55933138235E+03  0.55933138235E+03  0.00000000000E+00 0.  1.
        -13    1    1    2    0    0  0.72674408157E+02  0.45382409375E+03  0.87281141031E+02  0.46782035699E+03  0.10566000000E+00 0.  1.
         13    1    1    2    0    0  0.18684249081E+03  0.10294718399E+02  0.98994072357E+03  0.10074714611E+04  0.10566000000E+00 0. -1.
          4    1    1    2  501    0 -0.25951689897E+03 -0.46411881215E+03 -0.16410010150E+03  0.55649270971E+03  0.00000000000E+00 0.  1.
</event>
<event>
 5    1  0.4881333E-005  0.1806609E+03  0.7818608E-02  0.1074269E+00
         -4   -1    0    0    0  501 -0.00000000000E+00  0.00000000000E+00  0.22917433938E+03  0.22917433938E+03  0.00000000000E+00 0. -1.
         21   -1    0    0  501  502  0.00000000000E+00 -0.00000000000E+00 -0.27156252711E+03  0.27156252711E+03  0.00000000000E+00 0.  1.
        -13    1    1    2    0    0 -0.19219575836E+03  0.31980349859E+02 -0.14564968191E+03  0.24326075169E+03  0.10566000000E+00 0.  1.
         13    1    1    2    0    0  0.17702573335E+03 -0.13465687629E+02  0.13114912355E+03  0.22072502981E+03  0.10566000000E+00 0. -1.
         -4    1    1    2    0  502  0.15170025009E+02 -0.18514662229E+02 -0.27887629367E+02  0.36751084990E+02  0.00000000000E+00 0. -1.
</event>
<event>
 5    1  0.4881333E-005  0.1085008E+03  0.7818608E-02  0.1159835E+00
         21   -1    0    0  501  502  0.00000000000E+00  0.00000000000E+00  0.12117236368E+03  0.12117236368E+03  0.00000000000E+00 0.  1.
         -4   -1    0    0    0  501 -0.00000000000E+00 -0.00000000000E+00 -0.17908025714E+04  0.17908025714E+04  0.00000000000E+00 0. -1.
        -13    1    1    2    0    0 -0.60831368901E+02 -0.10415675020E+03 -0.71305392321E+02  0.14011978515E+03  0.10566000000E+00 0.  1.
         13    1    1    2    0    0 -0.72510021046E+02  0.65933491040E+02  0.55227805319E+02  0.11249466671E+03  0.10566000000E+00 0. -1.
         -4    1    1    2    0  502  0.13334138995E+03  0.38223259155E+02 -0.16535526207E+04  0.16593604833E+04  0.00000000000E+00 0. -1.
</event>
<event>
 5    1  0.4881333E-005  0.3604525E+03  0.7818608E-02  0.1007358E+00
          4   -1    0    0  502    0 -0.00000000000E+00  0.00000000000E+00  0.10671888074E+04  0.10671888074E+04  0.00000000000E+00 0.  1.
         21   -1    0    0  501  502  0.00000000000E+00 -0.00000000000E+00 -0.41356878943E+03  0.41356878943E+03  0.00000000000E+00 0.  1.
        -13    1    1    2    0    0  0.37231228243E+03 -0.12482318064E+02 -0.24835694894E+03  0.44772025771E+03  0.10566000000E+00 0.  1.
         13    1    1    2    0    0 -0.89444878330E+02 -0.14769540964E+03  0.39092368550E+03  0.42735893501E+03  0.10566000000E+00 0. -1.
          4    1    1    2  501    0 -0.28286740410E+03  0.16017772771E+03  0.51105328143E+03  0.60567840412E+03  0.00000000000E+00 0.  1.
</event>
<event>
 5    1  0.4881333E-005  0.3299734E+03  0.7818608E-02  0.9956487E-01
         21   -1    0    0  501  502  0.00000000000E+00  0.00000000000E+00  0.44030588167E+03  0.44030588167E+03  0.00000000000E+00 0.  1.
          4   -1    0    0  502    0 -0.00000000000E+00 -0.00000000000E+00 -0.13461089460E+04  0.13461089460E+04  0.00000000000E+00 0.  1.
        -13    1    1    2    0    0  0.17838497638E+02  0.32655244929E+03 -0.87908431017E+03  0.93794666676E+03  0.10566000000E+00 0.  1.
         13    1    1    2    0    0 -0.14123420842E+02 -0.33614247305E+03 -0.37283889079E+03  0.50219526367E+03  0.10566000000E+00 0. -1.
          4    1    1    2  501    0 -0.37150767958E+01  0.95900237615E+01  0.34612013665E+03  0.34627289722E+03  0.00000000000E+00 0.  1.
</event>
<event>
 5    1  0.4881333E-005  0.3446550E+03  0.7818608E-02  0.1031041E+00
          4   -1    0    0  502    0 -0.00000000000E+00  0.00000000000E+00  0.12772418113E+04  0.12772418113E+04  0.00000000000E+00 0.  1.
         21   -1    0    0  501  502  0.00000000000E+00 -0.00000000000E+00 -0.27712031113E+03  0.27712031113E+03  0.00000000000E+00 0.  1.
        -13    1    1    2    0    0  0.20574558302E+03  0.30601328932E+03  0.78645003782E+03  0.86860753584E+03  0.10566000000E+00 0.  1.
         13    1    1    2    0    0  0.50469951008E+02 -0.78736505256E+02  0.31499733233E+03  0.32858786306E+03  0.10566000000E+00 0. -1.
          4    1    1    2  501    0 -0.25621553403E+03 -0.22727678407E+03 -0.10132586999E+03  0.35716672351E+03  0.00000000000E+00 0.  1.
</event>
<event>
 5    1  0.4881333E-005  0.5038039E+03  0.7818608E-02  0.9667773E-01
         -4   -1    0    0    0  501 -0.00000000000E+00  0.00000000000E+00  0.19861437341E+04  0.19861437341E+04  0.00000000000E+00 0. -1.
         21   -1    0    0  501  502  0.00000000000E+00 -0.00000000000E+00 -0.21206859934E+03  0.21206859934E+03  0.00000000000E+00 0. -1.
        -13    1    1    2    0    0 -0.75839500527E+02  0.23594726057E+03  0.47281436807E+03  0.53383160025E+03  0.10566000000E+00 0.  1.
         13    1    1    2    0    0  0.53790031069E+03 -0.18555079527E+03  0.64377285905E+03  0.85919110044E+03  0.10566000000E+00 0. -1.
         -4    1    1    2    0  502 -0.46206081016E+03 -0.50396465297E+02  0.65748790767E+03  0.80518963278E+03  0.00000000000E+00 0. -1.
</event>
<event>
 5    1  0.4881333E-005  0.1802724E+03  0.7818608E-02  0.1074572E+00
         21   -1    0    0  501  502  0.00000000000E+00  0.00000000000E+00  0.92907507621E+02  0.92907507621E+02  0.00000000000E+00 0.  1.
         -4   -1    0    0    0  501 -0.00000000000E+00 -0.00000000000E+00 -0.53611445476E+03  0.53611445476E+03  0.00000000000E+00 0. -1.
        -13    1    1    2    0    0  0.13258135164E+03  0.14779392303E+03 -0.15009948111E+03  0.24889902346E+03  0.10566000000E+00 0.  1.
         13    1    1    2    0    0 -0.83662968850E+02 -0.15121243877E+03 -0.28054793573E+03  0.32950242700E+03  0.10566000000E+00 0. -1.
         -4    1    1    2    0  502 -0.48918382793E+02  0.34185157422E+01 -0.12559530295E+02  0.50620511911E+02  0.00000000000E+00 0. -1.
</event>
<event>
 5    1  0.4881333E-005  0.7088631E+03  0.7818608E-02  0.9110219E-01
         -4   -1    0    0    0  501 -0.00000000000E+00  0.00000000000E+00  0.16009753175E+04  0.16009753175E+04  0.00000000000E+00 0. -1.
         21   -1    0    0  501  502  0.00000000000E+00 -0.00000000000E+00 -0.59674446662E+03  0.59674446662E+03  0.00000000000E+00 0.  1.
        -13    1    1    2    0    0 -0.64039464906E+03  0.28334007141E+03  0.19590647771E+02  0.70055028888E+03  0.10566000000E+00 0.  1.
         13    1    1    2    0    0  0.65164225647E+03 -0.28548822645E+03  0.11387047244E+04  0.13426800134E+04  0.10566000000E+00 0. -1.
         -4    1    1    2    0  502 -0.11247607414E+02  0.21481550330E+01 -0.15406452134E+03  0.15448948178E+03  0.00000000000E+00 0. -1.
</event>
<event>
 5    1  0.4881333E-005  0.9472182E+02  0.7818608E-02  0.1209098E+00
         21   -1    0    0  501  502  0.00000000000E+00  0.00000000000E+00  0.20867670288E+02  0.20867670288E+02  0.00000000000E+00 0.  1.
         -4   -1    0    0    0  501 -0.00000000000E+00 -0.00000000000E+00 -0.76445911301E+03  0.76445911301E+03  0.00000000000E+00 0. -1.
        -13    1    1    2    0    0  0.36864864530E+02  0.19518246544E+02 -0.97406254013E+02  0.10596211431E+03  0.10566000000E+00 0.  1.
         13    1    1    2    0    0 -0.12007066399E+03 -0.69264366159E+01 -0.45203258335E+03  0.46775892022E+03  0.10566000000E+00 0. -1.
         -4    1    1    2    0  502  0.83205799459E+02 -0.12591809929E+02 -0.19415260536E+03  0.21160574876E+03  0.00000000000E+00 0. -1.
</event>
<event>
 5    1  0.4881333E-005  0.4453476E+03  0.7818608E-02  0.1004666E+00
         -4   -1    0    0    0  501 -0.00000000000E+00  0.00000000000E+00  0.50975851205E+03  0.50975851205E+03  0.00000000000E+00 0. -1.
         21   -1    0    0  501  502  0.00000000000E+00 -0.00000000000E+00 -0.83497086614E+03  0.83497086614E+03  0.00000000000E+00 0. -1.
        -13    1    1    2    0    0 -0.19478469096E+02  0.97968335778E+02  0.19313069015E+03  0.21743201286E+03  0.10566000000E+00 0.  1.
         13    1    1    2    0    0 -0.21969768376E+03 -0.41134137865E+03 -0.56243916766E+03  0.73062071591E+03  0.10566000000E+00 0. -1.
         -4    1    1    2    0  502  0.23917615286E+03  0.31337304287E+03  0.44096123417E+02  0.39667664942E+03  0.00000000000E+00 0. -1.
</event>
<event>
 5    1  0.4881333E-005  0.1031735E+03  0.7818608E-02  0.1164457E+00
         21   -1    0    0  501  502  0.00000000000E+00  0.00000000000E+00  0.38468745079E+02  0.38468745079E+02  0.00000000000E+00 0.  1.
          4   -1    0    0  502    0 -0.00000000000E+00 -0.00000000000E+00 -0.93558843054E+03  0.93558843054E+03  0.00000000000E+00 0.  1.
        -13    1    1    2    0    0  0.26674259144E+02 -0.86990583669E+02 -0.24161554147E+03  0.25818008984E+03  0.10566000000E+00 0.  1.
         13    1    1    2    0    0 -0.10969382418E+03 -0.62561954352E+00 -0.53197971146E+03  0.54317175095E+03  0.10566000000E+00 0. -1.
          4    1    1    2  501    0  0.83019565040E+02  0.87616203212E+02 -0.12352443254E+03  0.17270533483E+03  0.00000000000E+00 0.  1.
</event>
<event>
 5    1  0.4881333E-005  0.4608157E+03  0.7818608E-02  0.9568256E-01
          4   -1    0    0  502    0 -0.00000000000E+00  0.00000000000E+00  0.44398455124E+04  0.44398455124E+04  0.00000000000E+00 0.  1.
         21   -1    0    0  501  502  0.00000000000E+00 -0.00000000000E+00 -0.13558154749E+03  0.13558154749E+03  0.00000000000E+00 0.  1.
        -13    1    1    2    0    0 -0.59017863640E+03  0.39979679372E+03  0.15045727131E+04  0.16648986033E+04  0.10566000000E+00 0.  1.
         13    1    1    2    0    0  0.36537787257E+03 -0.16980982002E+03  0.21280947497E+04  0.21659001915E+04  0.10566000000E+00 0. -1.
          4    1    1    2  501    0  0.22480076382E+03 -0.22998697370E+03  0.67159650219E+03  0.74462826514E+03  0.00000000000E+00 0.  1.
</event>
<event>
 5    1  0.4881333E-005  0.4861736E+03  0.7818608E-02  0.9545629E-01
         21   -1    0    0  501  502  0.00000000000E+00  0.00000000000E+00  0.27293097974E+03  0.27293097974E+03  0.00000000000E+00 0. -1.
          4   -1    0    0  502    0 -0.00000000000E+00 -0.00000000000E+00 -0.44109010772E+04  0.44109010772E+04  0.00000000000E+00 0.  1.
        -13    1    1    2    0    0  0.36515865853E+03 -0.20918603029E+02 -0.16494439577E+04  0.16895099333E+04  0.10566000000E+00 0.  1.
         13    1    1    2    0    0 -0.76263617477E+03 -0.31375939623E+03 -0.22969807149E+04  0.24405284898E+04  0.10566000000E+00 0. -1.
          4    1    1    2  501    0  0.39747751624E+03  0.33467799926E+03 -0.19154542485E+03  0.55379363385E+03  0.00000000000E+00 0.  1.
</event>
<event>
 5    1  0.4881333E-005  0.4791639E+03  0.7818608E-02  0.9535343E-01
         21   -1    0    0  501  502  0.00000000000E+00  0.00000000000E+00  0.65300779092E+03  0.65300779092E+03  0.00000000000E+00 0. -1.
         -4   -1    0    0    0  501 -0.00000000000E+00 -0.00000000000E+00 -0.13453435747E+04  0.13453435747E+04  0.00000000000E+00 0. -1.
        -13    1    1    2    0    0  0.45681006256E+03  0.64547275936E+02 -0.76302360754E+03  0.89165398049E+03  0.10566000000E+00 0.  1.
         13    1    1    2    0    0 -0.54692192674E+02  0.37204271353E+03 -0.23053417228E+03  0.44108166180E+03  0.10566000000E+00 0. -1.
         -4    1    1    2    0  502 -0.40211786989E+03 -0.43658998946E+03  0.30122199607E+03  0.66561572330E+03  0.00000000000E+00 0. -1.
</event>
<event>
 5    1  0.4881333E-005  0.4960659E+03  0.7818608E-02  0.9916964E-01
         21   -1    0    0  501  502  0.00000000000E+00  0.00000000000E+00  0.97686612220E+03  0.97686612220E+03  0.00000000000E+00 0.  1.
          4   -1    0    0  502    0 -0.00000000000E+00 -0.00000000000E+00 -0.31827246222E+03  0.31827246222E+03  0.00000000000E+00 0.  1.
        -13    1    1    2    0    0 -0.39291012622E+03  0.31130453910E+03  0.30142045360E+03  0.58493006793E+03  0.10566000000E+00 0.  1.
         13    1    1    2    0    0 -0.54907255720E+02 -0.96165209717E+02  0.10689706605E+03  0.15391409352E+03  0.10566000000E+00 0. -1.
          4    1    1    2  501    0  0.44781738194E+03 -0.21513932938E+03  0.25027614032E+03  0.55629442297E+03  0.00000000000E+00 0.  1.
</event>
<event>
 5    1  0.4881333E-005  0.2649834E+03  0.7818608E-02  0.1068973E+00
         -4   -1    0    0    0  501 -0.00000000000E+00  0.00000000000E+00  0.28901193558E+03  0.28901193558E+03  0.00000000000E+00 0. -1.
         21   -1    0    0  501  502  0.00000000000E+00 -0.00000000000E+00 -0.14614682902E+04  0.14614682902E+04  0.00000000000E+00 0. -1.
        -13    1    1    2    0    0  0.46360177171E+02  0.47805567083E+02  0.10882475259E+03  0.12758321289E+03  0.10566000000E+00 0.  1.
         13    1    1    2    0    0  0.17938842522E+03 -0.19536434193E+03 -0.13235895176E+04  0.13499024615E+04  0.10566000000E+00 0. -1.
         -4    1    1    2    0  502 -0.22574860239E+03  0.14755877484E+03  0.42308410403E+02  0.27299455143E+03  0.00000000000E+00 0. -1.
</event>
<event>
 5    1  0.4881333E-005  0.5704967E+03  0.7818608E-02  0.9335547E-01
         21   -1    0    0  501  502  0.00000000000E+00  0.00000000000E+00  0.79955367311E+03  0.79955367311E+03  0.00000000000E+00 0. -1.
         -4   -1    0    0    0  501 -0.00000000000E+00 -0.00000000000E+00 -0.81386485405E+03  0.81386485405E+03  0.00000000000E+00 0. -1.
        -13    1    1    2    0    0 -0.35379530474E+03 -0.44109836909E+03 -0.74114271633E+02  0.57029100054E+03  0.10566000000E+00 0.  1.
         13    1    1    2    0    0  0.34922406178E+03  0.45548758288E+03 -0.32395673115E+03  0.65907082950E+03  0.10566000000E+00 0. -1.
         -4    1    1    2    0  502  0.45712429666E+01 -0.14389213782E+02  0.38375982184E+03  0.38405669711E+03  0.00000000000E+00 0. -1.
</event>
<event>
 5    1  0.4881333E-005  0.4159423E+03  0.7818608E-02  0.9871882E-01
         21   -1    0    0  501  502  0.00000000000E+00  0.00000000000E+00  0.18059809634E+03  0.18059809634E+03  0.00000000000E+00 0. -1.
         -4   -1    0    0    0  501 -0.00000000000E+00 -0.00000000000E+00 -0.28420745791E+04  0.28420745791E+04  0.00000000000E+00 0. -1.
        -13    1    1    2    0    0 -0.15847737305E+03  0.15037381208E+03 -0.49986408278E+02  0.22411160903E+03  0.10566000000E+00 0.  1.
         13    1    1    2    0    0 -0.12617135263E+03 -0.44942095813E+03 -0.20449234413E+04  0.20975248032E+04  0.10566000000E+00 0. -1.
         -4    1    1    2    0  502  0.28464872568E+03  0.29904714606E+03 -0.56656663319E+03  0.70103626328E+03  0.00000000000E+00 0. -1.
</event>
<event>
 5    1  0.4881333E-005  0.8538966E+02  0.7818608E-02  0.1191292E+00
          4   -1    0    0  502    0 -0.00000000000E+00  0.00000000000E+00  0.53673711014E+02  0.53673711014E+02  0.00000000000E+00 0.  1.
         21   -1    0    0  501  502  0.00000000000E+00 -0.00000000000E+00 -0.44075284207E+03  0.44075284207E+03  0.00000000000E+00 0.  1.
        -13    1    1    2    0    0  0.10227978636E+03  0.61475093777E+02 -0.28074835750E+03  0.30505736060E+03  0.10566000000E+00 0.  1.
         13    1    1    2    0    0 -0.46887554547E+02 -0.66161570203E+02 -0.15024321345E+02  0.82471434685E+02  0.10566000000E+00 0. -1.
          4    1    1    2  501    0 -0.55392231818E+02  0.46864764260E+01 -0.91306452215E+02  0.10689775780E+03  0.00000000000E+00 0.  1.
</event>
<event>
 5    1  0.4881333E-005  0.7038292E+03  0.7818608E-02  0.9200850E-01
         21   -1    0    0  501  502  0.00000000000E+00  0.00000000000E+00  0.19033605397E+04  0.19033605397E+04  0.00000000000E+00 0.  1.
         -4   -1    0    0    0  501 -0.00000000000E+00 -0.00000000000E+00 -0.52840791355E+03  0.52840791355E+03  0.00000000000E+00 0. -1.
        -13    1    1    2    0    0 -0.31301205992E+03 -0.40013756513E+03  0.37299376464E+03  0.63024676144E+03  0.10566000000E+00 0.  1.
         13    1    1    2    0    0  0.69158990307E+03 -0.25763171987E+03  0.50980313336E+03  0.89697822887E+03  0.10566000000E+00 0. -1.
         -4    1    1    2    0  502 -0.37857784316E+03  0.65776928500E+03  0.49215572818E+03  0.90454346297E+03  0.00000000000E+00 0. -1.
</event>
<event>
 5    1  0.4881333E-005  0.2558882E+03  0.7818608E-02  0.1027386E+00
         21   -1    0    0  501  502  0.00000000000E+00  0.00000000000E+00  0.61163510617E+02  0.61163510617E+02  0.00000000000E+00 0.  1.
         -4   -1    0    0    0  501 -0.00000000000E+00 -0.00000000000E+00 -0.17466451702E+04  0.17466451702E+04  0.00000000000E+00 0. -1.
        -13    1    1    2    0    0 -0.68933780467E+02 -0.19605173548E+03 -0.40331066684E+03  0.45370436876E+03  0.10566000000E+00 0.  1.
         13    1    1    2    0    0  0.74668513705E+02  0.27865372475E+03 -0.12111008938E+04  0.12449854101E+04  0.10566000000E+00 0. -1.
         -4    1    1    2    0  502 -0.57347332380E+01 -0.82601989268E+02 -0.71070098894E+02  0.10911890191E+03  0.00000000000E+00 0. -1.
</event>
<event>
 5    1  0.4881333E-005  0.1821124E+03  0.7818608E-02  0.1073143E+00
         21   -1    0    0  501  502  0.00000000000E+00  0.00000000000E+00  0.68193088873E+03  0.68193088873E+03  0.00000000000E+00 0. -1.
          4   -1    0    0  502    0 -0.00000000000E+00 -0.00000000000E+00 -0.22454285814E+03  0.22454285814E+03  0.00000000000E+00 0.  1.
        -13    1    1    2    0    0  0.15367994716E+03  0.99390362787E+02 -0.16233303136E+03  0.24463849781E+03  0.10566000000E+00 0.  1.
         13    1    1    2    0    0 -0.12004875035E+03 -0.12543222429E+03  0.57265460791E+03  0.59839640413E+03  0.10566000000E+00 0. -1.
          4    1    1    2  501    0 -0.33631196817E+02  0.26041861508E+02  0.47066454044E+02  0.63438844933E+02  0.00000000000E+00 0.  1.
</event>
<event>
 5    1  0.4881333E-005  0.3403377E+03  0.7818608E-02  0.9919222E-01
         21   -1    0    0  501  502  0.00000000000E+00  0.00000000000E+00  0.11292486035E+03  0.11292486035E+03  0.00000000000E+00 0.  1.
         -4   -1    0    0    0  501 -0.00000000000E+00 -0.00000000000E+00 -0.17902973275E+04  0.17902973275E+04  0.00000000000E+00 0. -1.
        -13    1    1    2    0    0  0.28909278956E+03 -0.17413159142E+03 -0.98538525237E+03  0.10415759976E+04  0.10566000000E+00 0.  1.
         13    1    1    2    0    0 -0.28899565671E+03  0.18718448458E+03 -0.73770366969E+03  0.81410271852E+03  0.10566000000E+00 0. -1.
         -4    1    1    2    0  502 -0.97132851198E-01 -0.13052893160E+02  0.45716454895E+02  0.47543471716E+02  0.00000000000E+00 0. -1.
</event>
<event>
 5    1  0.4881333E-005  0.3612843E+03  0.7818608E-02  0.9848047E-01
          4   -1    0    0  502    0 -0.00000000000E+00  0.00000000000E+00  0.30925524070E+03  0.30925524070E+03  0.00000000000E+00 0.  1.
         21   -1    0    0  501  502  0.00000000000E+00 -0.00000000000E+00 -0.77878967425E+03  0.77878967425E+03  0.00000000000E+00 0. -1.
        -13    1    1    2    0    0 -0.28833122743E+03 -0.22908652869E+03  0.10854535449E+03  0.38392400222E+03  0.10566000000E+00 0.  1.
         13    1    1    2    0    0  0.25524440536E+03  0.22151975793E+03 -0.40381102527E+03  0.52657769124E+03  0.10566000000E+00 0. -1.
          4    1    1    2  501    0  0.33086822070E+02  0.75667707574E+01 -0.17426876278E+03  0.17754322148E+03  0.00000000000E+00 0.  1.
</event>
<event>
 5    1  0.4881333E-005  0.1040614E+03  0.7818608E-02  0.1158005E+00
         21   -1    0    0  501  502  0.00000000000E+00  0.00000000000E+00  0.24387825149E+03  0.24387825149E+03  0.00000000000E+00 0.  1.
         -4   -1    0    0    0  501 -0.00000000000E+00 -0.00000000000E+00 -0.14130039432E+03  0.14130039432E+03  0.00000000000E+00 0. -1.
        -13    1    1    2    0    0 -0.77436527495E+01 -0.12507755552E+03  0.75544854134E+02  0.14632633120E+03  0.10566000000E+00 0.  1.
         13    1    1    2    0    0 -0.73524364506E+01  0.99403678958E+02 -0.79964582808E+02  0.12778691396E+03  0.10566000000E+00 0. -1.
         -4    1    1    2    0  502  0.15096089200E+02  0.25673876561E+02  0.10699758584E+03  0.11106540066E+03  0.00000000000E+00 0. -1.
</event>
<event>
 5    1  0.4881333E-005  0.5558906E+03  0.7818608E-02  0.9363221E-01
         21   -1    0    0  501  502  0.00000000000E+00  0.00000000000E+00  0.61339142883E+03  0.61339142883E+03  0.00000000000E+00 0.  1.
          4   -1    0    0  502    0 -0.00000000000E+00 -0.00000000000E+00 -0.12511104099E+04  0.12511104099E+04  0.00000000000E+00 0.  1.
        -13    1    1    2    0    0 -0.67254317192E+03  0.23030193427E+03 -0.14072693592E+03  0.72467743216E+03  0.10566000000E+00 0.  1.
         13    1    1    2    0    0  0.50883271511E+03  0.14357079356E+03 -0.50566524842E+03  0.73158776599E+03  0.10566000000E+00 0. -1.
          4    1    1    2  501    0  0.16371045681E+03 -0.37387272782E+03  0.86732032442E+01  0.40823664061E+03  0.00000000000E+00 0.  1.
</event>
<event>
 5    1  0.4881333E-005  0.9272069E+03  0.7818608E-02  0.8846167E-01
         21   -1    0    0  501  502  0.00000000000E+00  0.00000000000E+00  0.43453214367E+03  0.43453214367E+03  0.00000000000E+00 0.  1.
          4   -1    0    0  502    0 -0.00000000000E+00 -0.00000000000E+00 -0.27320610884E+04  0.27320610884E+04  0.00000000000E+00 0.  1.
        -13    1    1    2    0    0 -0.46969193809E+03 -0.85526310736E+03 -0.16162360150E+04  0.18879365368E+04  0.10566000000E+00 0.  1.
         13    1    1    2    0    0  0.41732910757E+03  0.74941267738E+03 -0.75223327685E+03  0.11408934477E+04  0.10566000000E+00 0. -1.
          4    1    1    2  501    0  0.52362830527E+02  0.10585042999E+03  0.70940347104E+02  0.13776324763E+03  0.00000000000E+00 0.  1.
</event>
<event>
 5    1  0.4881333E-005  0.3157399E+03  0.7818608E-02  0.1061415E+00
          4   -1    0    0  502    0 -0.00000000000E+00  0.00000000000E+00  0.33997653494E+03  0.33997653494E+03  0.00000000000E+00 0.  1.
         21   -1    0    0  501  502  0.00000000000E+00 -0.00000000000E+00 -0.81389852226E+03  0.81389852226E+03  0.00000000000E+00 0.  1.
        -13    1    1    2    0    0 -0.34401109344E+03 -0.66402321126E+02  0.15593253646E+03  0.38349428647E+03  0.10566000000E+00 0.  1.
         13    1    1    2    0    0  0.34253127606E+02  0.34998732435E+02  0.17534107114E+02  0.52015806244E+02  0.10566000000E+00 0. -1.
          4    1    1    2  501    0  0.30975796584E+03  0.31403588691E+02 -0.64738863089E+03  0.71836496448E+03  0.00000000000E+00 0.  1.
</event>
<event>
 5    1  0.4881333E-005  0.2154208E+03  0.7818608E-02  0.1050049E+00
         21   -1    0    0  501  502  0.00000000000E+00  0.00000000000E+00  0.48569741821E+03  0.48569741821E+03  0.00000000000E+00 0.  1.
          4   -1    0    0  502    0 -0.00000000000E+00 -0.00000000000E+00 -0.55686382263E+03  0.55686382263E+03  0.00000000000E+00 0.  1.
        -13    1    1    2    0    0  0.96113404317E+02 -0.19734249338E+03 -0.43062684912E+03  0.48334391537E+03  0.10566000000E+00 0.  1.
         13    1    1    2    0    0  0.67476083332E+02  0.20655735335E+03  0.32631987137E+03  0.39205054733E+03  0.10566000000E+00 0. -1.
          4    1    1    2  501    0 -0.16358948765E+03 -0.92148599699E+01  0.33140573327E+02  0.16716677814E+03  0.00000000000E+00 0.  1.
</event>
<event>
 5    1  0.4881333E-005  0.4447980E+03  0.7818608E-02  0.9873079E-01
         21   -1    0    0  501  502  0.00000000000E+00  0.00000000000E+00  0.16285287682E+03  0.16285287682E+03  0.00000000000E+00 0. -1.
          4   -1    0    0  502    0 -0.00000000000E+00 -0.00000000000E+00 -0.22624306580E+04  0.22624306580E+04  0.00000000000E+00 0.  1.
        -13    1    1    2    0    0 -0.31188732922E+03 -0.57272410068E+02 -0.12829159379E+04  0.13215245552E+04  0.10566000000E+00 0.  1.
         13    1    1    2    0    0 -0.17761946256E+03  0.10485785682E+02 -0.46876844038E+03  0.50140052557E+03  0.10566000000E+00 0. -1.
          4    1    1    2  501    0  0.48950679178E+03  0.46786624386E+02 -0.34789340293E+03  0.60235845409E+03  0.00000000000E+00 0.  1.
</event>
<event>
 5    1  0.4881333E-005  0.9060048E+02  0.7818608E-02  0.1198565E+00
         21   -1    0    0  501  502  0.00000000000E+00  0.00000000000E+00  0.64621328648E+02  0.64621328648E+02  0.00000000000E+00 0. -1.
         -4   -1    0    0    0  501 -0.00000000000E+00 -0.00000000000E+00 -0.30261109797E+03  0.30261109797E+03  0.00000000000E+00 0. -1.
        -13    1    1    2    0    0  0.46230764980E+02  0.39017129976E+02 -0.13558079942E+03  0.14846475810E+03  0.10566000000E+00 0.  1.
         13    1    1    2    0    0 -0.20914832513E+02  0.74227800716E+02 -0.45252868801E+02  0.89414931174E+02  0.10566000000E+00 0. -1.
         -4    1    1    2    0  502 -0.25315932467E+02 -0.11324493069E+03 -0.57156101092E+02  0.12935273734E+03  0.00000000000E+00 0. -1.
</event>
<event>
 5    1  0.4881333E-005  0.7099128E+03  0.7818608E-02  0.9108721E-01
         21   -1    0    0  501  502  0.00000000000E+00  0.00000000000E+00  0.60632246397E+03  0.60632246397E+03  0.00000000000E+00 0.  1.
          4   -1    0    0  502    0 -0.00000000000E+00 -0.00000000000E+00 -0.30990582851E+04  0.30990582851E+04  0.00000000000E+00 0.  1.
        -13    1    1    2    0    0  0.70698088489E+03  0.34232008594E+03 -0.14480260530E+03  0.79873200668E+03  0.10566000000E+00 0.  1.
         13    1    1    2    0    0 -0.36963592749E+03 -0.61242238568E+03 -0.23683432617E+04  0.24740132809E+04  0.10566000000E+00 0. -1.
          4    1    1    2  501    0 -0.33734495739E+03  0.27010229974E+03  0.20410045887E+02  0.43263546153E+03  0.00000000000E+00 0.  1.
</event>
<event>
 5    1  0.4881333E-005  0.4327063E+03  0.7818608E-02  0.9810196E-01
         21   -1    0    0  501  502  0.00000000000E+00  0.00000000000E+00  0.87567508253E+03  0.87567508253E+03  0.00000000000E+00 0.  1.
         -4   -1    0    0    0  501 -0.00000000000E+00 -0.00000000000E+00 -0.44786386702E+03  0.44786386702E+03  0.00000000000E+00 0. -1.
        -13    1    1    2    0    0 -0.68588658647E+02 -0.22906732128E+03  0.31825243753E+02  0.24122416769E+03  0.10566000000E+00 0.  1.
         13    1    1    2    0    0  0.18919831151E+03  0.57778653752E+03  0.11555987917E+03  0.61885974247E+03  0.10566000000E+00 0. -1.
         -4    1    1    2    0  502 -0.12060965286E+03 -0.34871921624E+03  0.28042609259E+03  0.46345503939E+03  0.00000000000E+00 0. -1.
</event>
<event>
 5    1  0.4881333E-005  0.3688830E+03  0.7818608E-02  0.1034931E+00
         -4   -1    0    0    0  501 -0.00000000000E+00  0.00000000000E+00  0.31757225523E+04  0.31757225523E+04  0.00000000000E+00 0. -1.
         21   -1    0    0  501  502  0.00000000000E+00 -0.00000000000E+00 -0.89572067964E+02  0.89572067964E+02  0.00000000000E+00 0. -1.
        -13    1    1    2    0    0 -0.64660899304E+02 -0.20015004244E+02  0.24443094994E+03  0.25362991295E+03  0.10566000000E+00 0.  1.
         13    1    1    2    0    0 -0.33422728801E+03 -0.12764420821E+03  0.41490009992E+03  0.54785310807E+03  0.10566000000E+00 0. -1.
         -4    1    1    2    0  502  0.39888818732E+03  0.14765921245E+03  0.24268194345E+04  0.24638115992E+04  0.00000000000E+00 0. -1.
</event>
<event>
 5    1  0.4881333E-005  0.3556539E+03  0.7818608E-02  0.9866665E-01
          4   -1    0    0  502    0 -0.00000000000E+00  0.00000000000E+00  0.14314954297E+04  0.14314954297E+04  0.00000000000E+00 0.  1.
         21   -1    0    0  501  502  0.00000000000E+00 -0.00000000000E+00 -0.27087389666E+03  0.27087389666E+03  0.00000000000E+00 0.  1.
        -13    1    1    2    0    0  0.23085440493E+03  0.26961939082E+03  0.10295103273E+04  0.10889811281E+04  0.10566000000E+00 0.  1.
         13    1    1    2    0    0 -0.24085534466E+03 -0.26461556869E+03  0.28601578106E+03  0.45808048902E+03  0.10566000000E+00 0. -1.
          4    1    1    2  501    0  0.10000939730E+02 -0.50038221299E+01 -0.15490457542E+03  0.15530770914E+03  0.00000000000E+00 0.  1.
</event>
<event>
 5    1  0.4881333E-005  0.3199443E+03  0.7818608E-02  0.9993966E-01
          4   -1    0    0  502    0 -0.00000000000E+00  0.00000000000E+00  0.15292114387E+04  0.15292114387E+04  0.00000000000E+00 0.  1.
         21   -1    0    0  501  502  0.00000000000E+00 -0.00000000000E+00 -0.34221927493E+03  0.34221927493E+03  0.00000000000E+00 0.  1.
        -13    1    1    2    0    0  0.35769223748E+03  0.40997333140E+03 -0.87647579738E+01  0.54414952114E+03  0.10566000000E+00 0.  1.
         13    1    1    2    0    0 -0.11269243126E+03 -0.27304159557E+03  0.61078229917E+03  0.67845878660E+03  0.10566000000E+00 0. -1.
          4    1    1    2  501    0 -0.24499980622E+03 -0.13693173582E+03  0.58497462259E+03  0.64882240590E+03  0.00000000000E+00 0.  1.
</event>
<event>
 5    1  0.4881333E-005  0.4946637E+03  0.7818608E-02  0.9511675E-01
          4   -1    0    0  502    0 -0.00000000000E+00  0.00000000000E+00  0.12371782226E+04  0.12371782226E+04  0.00000000000E+00 0.  1.
         21   -1    0    0  501  502  0.00000000000E+00 -0.00000000000E+00 -0.58785211409E+03  0.58785211409E+03  0.00000000000E+00 0.  1.
        -13    1    1    2    0    0 -0.44388441490E+03  0.23763725296E+03  0.35323174888E+03  0.61504269557E+03  0.10566000000E+00 0.  1.
         13    1    1    2    0    0  0.46870259800E+03  0.25640349156E+03  0.44293869510E+03  0.69398816607E+03  0.10566000000E+00 0. -1.
          4    1    1    2  501    0 -0.24818183101E+02 -0.49404074451E+03 -0.14684433543E+03  0.51599947510E+03  0.00000000000E+00 0.  1.
</event>
<event>
 5    1  0.4881333E-005  0.2510324E+03  0.7818608E-02  0.1029859E+00
         21   -1    0    0  501  502  0.00000000000E+00  0.00000000000E+00  0.64745976493E+02  0.64745976493E+02  0.00000000000E+00 0.  1.
         -4   -1    0    0    0  501 -0.00000000000E+00 -0.00000000000E+00 -0.13918819014E+04  0.13918819014E+04  0.00000000000E+00 0. -1.
        -13    1    1    2    0    0 -0.17161623538E+03 -0.21266403669E+03 -0.57226994380E+03  0.63416955500E+03  0.10566000000E+00 0.  1.
         13    1    1    2    0    0  0.18908494421E+03  0.14643667420E+03 -0.68076116316E+03  0.72154874271E+03  0.10566000000E+00 0. -1.
         -4    1    1    2    0  502 -0.17468708837E+02  0.66227362496E+02 -0.74104817995E+02  0.10090958023E+03  0.00000000000E+00 0. -1.
</event>
<event>
 5    1  0.4881333E-005  0.4737866E+03  0.7818608E-02  0.1007444E+00
         21   -1    0    0  501  502  0.00000000000E+00  0.00000000000E+00  0.11812335396E+03  0.11812335396E+03  0.00000000000E+00 0.  1.
          4   -1    0    0  502    0 -0.00000000000E+00 -0.00000000000E+00 -0.24329120397E+04  0.24329120397E+04  0.00000000000E+00 0.  1.
        -13    1    1    2    0    0  0.59481217169E+02 -0.44198462067E+03 -0.73266965246E+03  0.85772562683E+03  0.10566000000E+00 0.  1.
         13    1    1    2    0    0  0.25232751928E+02 -0.71499811668E+02 -0.30367585469E+03  0.31299832383E+03  0.10566000000E+00 0. -1.
          4    1    1    2  501    0 -0.84713969098E+02  0.51348443234E+03 -0.12784431786E+04  0.13803114430E+04  0.00000000000E+00 0.  1.
</event>
<event>
 5    1  0.6563240E-005  0.4995650E+03  0.7818608E-02  0.1020962E+00
         -4   -1    0    0    0  501 -0.00000000000E+00  0.00000000000E+00  0.60321075439E+03  0.60321075439E+03  0.00000000000E+00 0. -1.
         21   -1    0    0  501  502  0.00000000000E+00 -0.00000000000E+00 -0.58767504215E+03  0.58767504215E+03  0.00000000000E+00 0. -1.
        -13    1    1    2    0    0 -0.22957451170E+02 -0.35215305565E+02  0.17285028167E+03  0.17788871057E+03  0.10566000000E+00 0.  1.
         13    1    1    2    0    0 -0.47939336961E+03 -0.72233523576E+02 -0.42920742929E+02  0.48670102331E+03  0.10566000000E+00 0. -1.
         -4    1    1    2    0  502  0.50235082078E+03  0.10744882914E+03 -0.11439382650E+03  0.52629606266E+03  0.00000000000E+00 0. -1.
</event>
<event>
 5    1  0.4881333E-005  0.4718612E+03  0.7818608E-02  0.9541875E-01
         21   -1    0    0  501  502  0.00000000000E+00  0.00000000000E+00  0.63989821473E+03  0.63989821473E+03  0.00000000000E+00 0. -1.
         -4   -1    0    0    0  501 -0.00000000000E+00 -0.00000000000E+00 -0.89008300496E+03  0.89008300496E+03  0.00000000000E+00 0. -1.
        -13    1    1    2    0    0 -0.43215469593E+03  0.82361709411E+02 -0.13166639096E+03  0.45921365622E+03  0.10566000000E+00 0.  1.
         13    1    1    2    0    0  0.53350910303E+03  0.33495499323E+03 -0.20501200552E+02  0.63027543257E+03  0.10566000000E+00 0. -1.
         -4    1    1    2    0  502 -0.10135440710E+03 -0.41731670265E+03 -0.98017198719E+02  0.44049213091E+03  0.00000000000E+00 0. -1.
</event>
<event>
 5    1  0.4881333E-005  0.2377822E+03  0.7818608E-02  0.1036926E+00
          4   -1    0    0  502    0 -0.00000000000E+00  0.00000000000E+00  0.84774578396E+03  0.84774578396E+03  0.00000000000E+00 0.  1.
         21   -1    0    0  501  502  0.00000000000E+00 -0.00000000000E+00 -0.97447993906E+02  0.97447993906E+02  0.00000000000E+00 0. -1.
        -13    1    1    2    0    0 -0.13082484925E+03  0.21837600021E+03  0.57220531087E+03  0.62627641469E+03  0.10566000000E+00 0.  1.
         13    1    1    2    0    0  0.90108002055E+02 -0.18692446428E+03  0.16681328069E+03  0.26624591858E+03  0.10566000000E+00 0. -1.
          4    1    1    2  501    0  0.40716847193E+02 -0.31451535929E+02  0.11279198493E+02  0.52671444600E+02  0.00000000000E+00 0.  1.
</event>
<event>
 5    1  0.4881333E-005  0.3343015E+03  0.7818608E-02  0.9940750E-01
          4   -1    0    0  502    0 -0.00000000000E+00  0.00000000000E+00  0.14408828398E+04  0.14408828398E+04  0.00000000000E+00 0.  1.
         21   -1    0    0  501  502  0.00000000000E+00 -0.00000000000E+00 -0.64852344068E+03  0.64852344068E+03  0.00000000000E+00 0.  1.
        -13    1    1    2    0    0  0.29030776381E+03 -0.57518298963E+02  0.62386873777E+03  0.69050645585E+03  0.10566000000E+00 0.  1.
         13    1    1    2    0    0 -0.38552749232E+03  0.63728912875E+02  0.73071477157E+03  0.82863557142E+03  0.10566000000E+00 0. -1.
          4    1    1    2  501    0  0.95219728505E+02 -0.62106139120E+01 -0.56222411019E+03  0.57026425322E+03  0.00000000000E+00 0.  1.
</event>
<event>
 5    1  0.4881333E-005  0.4863091E+03  0.7818608E-02  0.9727441E-01
         -4   -1    0    0    0  501 -0.00000000000E+00  0.00000000000E+00  0.18557469382E+04  0.18557469382E+04  0.00000000000E+00 0. -1.
         21   -1    0    0  501  502  0.00000000000E+00 -0.00000000000E+00 -0.38985068453E+03  0.38985068453E+03  0.00000000000E+00 0. -1.
        -13    1    1    2    0    0  0.58301549075E+02  0.21610308765E+03  0.11567208266E+04  0.11781777018E+04  0.10566000000E+00 0.  1.
         13    1    1    2    0    0  0.43013881919E+03 -0.27187524051E+03  0.26526763854E+03  0.57384883148E+03  0.10566000000E+00 0. -1.
         -4    1    1    2    0  502 -0.48844036827E+03  0.55772152857E+02  0.43907788441E+02  0.49357108938E+03  0.00000000000E+00 0. -1.
</event>
<event>
 5    1  0.4881333E-005  0.4953846E+03  0.7818608E-02  0.9836509E-01
         -4   -1    0    0    0  501 -0.00000000000E+00  0.00000000000E+00  0.33864822244E+03  0.33864822244E+03  0.00000000000E+00 0. -1.
         21   -1    0    0  501  502  0.00000000000E+00 -0.00000000000E+00 -0.12316318354E+04  0.12316318354E+04  0.00000000000E+00 0. -1.
        -13    1    1    2    0    0  0.13681878588E+03  0.50159960684E+02  0.80474131779E+02  0.16646771121E+03  0.10566000000E+00 0.  1.
         13    1    1    2    0    0 -0.30206665663E+03  0.41323610735E+03 -0.41023267920E+03  0.65597195649E+03  0.10566000000E+00 0. -1.
         -4    1    1    2    0  502  0.16524787075E+03 -0.46339606803E+03 -0.56322506550E+03  0.74784039010E+03  0.00000000000E+00 0. -1.
</event>
<event>
 5    1  0.4881333E-005  0.3619437E+03  0.7818608E-02  0.9845890E-01
         -4   -1    0    0    0  501 -0.00000000000E+00  0.00000000000E+00  0.21277667514E+04  0.21277667514E+04  0.00000000000E+00 0. -1.
         21   -1    0    0  501  502  0.00000000000E+00 -0.00000000000E+00 -0.13527671063E+03  0.13527671063E+03  0.00000000000E+00 0.  1.
        -13    1    1    2    0    0 -0.88247195282E+02 -0.32974955373E+03  0.29162332384E+03  0.44896159060E+03  0.10566000000E+00 0.  1.
         13    1    1    2    0    0  0.95268369579E+02  0.35438799360E+03  0.17338830685E+04  0.17722915727E+04  0.10566000000E+00 0. -1.
         -4    1    1    2    0  502 -0.70211742969E+01 -0.24638439866E+02 -0.33016351496E+02  0.41790298798E+02  0.00000000000E+00 0. -1.
</event>
<event>
 5    1  0.4881333E-005  0.2502900E+02  0.7818608E-02  0.1449938E+00
          4   -1    0    0  502    0 -0.00000000000E+00  0.00000000000E+00  0.24345137774E+02  0.24345137774E+02  0.00000000000E+00 0.  1.
         21   -1    0    0  501  502  0.00000000000E+00 -0.00000000000E+00 -0.61505511209E+02  0.61505511209E+02  0.00000000000E+00 0. -1.
        -13    1    1    2    0    0  0.13073959205E+02 -0.18073442866E+02  0.37934953729E+01  0.22626964390E+02  0.10566000000E+00 0.  1.
         13    1    1    2    0    0 -0.22355403346E+02  0.26440194565E+02 -0.23860110392E+02  0.42049541963E+02  0.10566000000E+00 0. -1.
          4    1    1    2  501    0  0.92814441404E+01 -0.83667516992E+01 -0.17093758416E+02  0.21174142630E+02  0.00000000000E+00 0.  1.
</event>
<event>
 5    1  0.4881333E-005  0.4171258E+03  0.7818608E-02  0.9775899E-01
         21   -1    0    0  501  502  0.00000000000E+00  0.00000000000E+00  0.28659450027E+03  0.28659450027E+03  0.00000000000E+00 0.  1.
          4   -1    0    0  502    0 -0.00000000000E+00 -0.00000000000E+00 -0.18251302028E+04  0.18251302028E+04  0.00000000000E+00 0.  1.
        -13    1    1    2    0    0 -0.52820757916E+03  0.27670451533E+03 -0.70983491742E+03  0.92705677099E+03  0.10566000000E+00 0.  1.
         13    1    1    2    0    0  0.29933524526E+03  0.21820947324E+02 -0.73948214131E+03  0.79806741023E+03  0.10566000000E+00 0. -1.
          4    1    1    2  501    0  0.22887233391E+03 -0.29852546266E+03 -0.89218643795E+02  0.38660052184E+03  0.00000000000E+00 0.  1.
</event>
<event>
 5    1  0.4881333E-005  0.1254395E+03  0.7818608E-02  0.1128219E+00
          4   -1    0    0  502    0 -0.00000000000E+00  0.00000000000E+00  0.38188853833E+03  0.38188853833E+03  0.00000000000E+00 0.  1.
         21   -1    0    0  501  502  0.00000000000E+00 -0.00000000000E+00 -0.51477325191E+02  0.51477325191E+02  0.00000000000E+00 0. -1.
        -13    1    1    2    0    0 -0.10642309015E+03 -0.74747105586E+02  0.18458711963E+03  0.22579951242E+03  0.10566000000E+00 0.  1.
         13    1    1    2    0    0  0.10528206749E+03  0.59527631325E+02  0.14906998648E+03  0.19196282103E+03  0.10566000000E+00 0. -1.
          4    1    1    2  501    0  0.11410226634E+01  0.15219474261E+02 -0.32458929710E+01  0.15603530071E+02  0.00000000000E+00 0.  1.
</event>
<event>
 5    1  0.4881333E-005  0.4900406E+03  0.7818608E-02  0.9623551E-01
          4   -1    0    0  502    0 -0.00000000000E+00  0.00000000000E+00  0.53920674263E+03  0.53920674263E+03  0.00000000000E+00 0.  1.
         21   -1    0    0  501  502  0.00000000000E+00 -0.00000000000E+00 -0.84038481624E+03  0.84038481624E+03  0.00000000000E+00 0.  1.
        -13    1    1    2    0    0  0.12376666063E+03 -0.45324551770E+03 -0.55067506865E+02  0.47305615636E+03  0.10566000000E+00 0.  1.
         13    1    1    2    0    0  0.30086353777E+03  0.92324893461E+02 -0.10338648725E+03  0.33125749987E+03  0.10566000000E+00 0. -1.
          4    1    1    2  501    0 -0.42463019840E+03  0.36092062424E+03 -0.14272407949E+03  0.57527790264E+03  0.00000000000E+00 0.  1.
</event>
<event>
 5    1  0.4881333E-005  0.2962198E+02  0.7818608E-02  0.1427251E+00
         -4   -1    0    0    0  501 -0.00000000000E+00  0.00000000000E+00  0.68124861513E+02  0.68124861513E+02  0.00000000000E+00 0. -1.
         21   -1    0    0  501  502  0.00000000000E+00 -0.00000000000E+00 -0.42301557477E+02  0.42301557477E+02  0.00000000000E+00 0. -1.
        -13    1    1    2    0    0 -0.21094053493E+02  0.47727890970E+01  0.10918033795E+02  0.24227117751E+02  0.10566000000E+00 0.  1.
         13    1    1    2    0    0  0.27645389507E+02  0.23916402474E+02  0.34965096563E+02  0.50584889147E+02  0.10566000000E+00 0. -1.
         -4    1    1    2    0  502 -0.65513360143E+01 -0.28689191571E+02 -0.20059826321E+02  0.35614412092E+02  0.00000000000E+00 0. -1.
</event>
<event>
 5    1  0.4881333E-005  0.5619230E+03  0.7818608E-02  0.9411202E-01
          4   -1    0    0  502    0 -0.00000000000E+00  0.00000000000E+00  0.16857901068E+04  0.16857901068E+04  0.00000000000E+00 0.  1.
         21   -1    0    0  501  502  0.00000000000E+00 -0.00000000000E+00 -0.68896648367E+03  0.68896648367E+03  0.00000000000E+00 0.  1.
        -13    1    1    2    0    0 -0.46940044163E+03 -0.23954426245E+03  0.46175465725E+02  0.52900889697E+03  0.10566000000E+00 0.  1.
         13    1    1    2    0    0 -0.59414887415E+02  0.62495182628E+03  0.10094719448E+04  0.11887508286E+04  0.10566000000E+00 0. -1.
          4    1    1    2  501    0  0.52881532904E+03 -0.38540756383E+03 -0.58823787419E+02  0.65699686487E+03  0.00000000000E+00 0.  1.
</event>
<event>
 5    1  0.4881333E-005  0.1168856E+03  0.7818608E-02  0.1139294E+00
         21   -1    0    0  501  502  0.00000000000E+00  0.00000000000E+00  0.68904371432E+02  0.68904371432E+02  0.00000000000E+00 0.  1.
          4   -1    0    0  502    0 -0.00000000000E+00 -0.00000000000E+00 -0.96410342056E+03  0.96410342056E+03  0.00000000000E+00 0.  1.
        -13    1    1    2    0    0  0.23383217777E+02  0.11940889561E+03 -0.29986606097E+03  0.32361230649E+03  0.10566000000E+00 0.  1.
         13    1    1    2    0    0 -0.29582358662E+02 -0.11104898306E+03 -0.64677788512E+03  0.65690839272E+03  0.10566000000E+00 0. -1.
          4    1    1    2  501    0  0.61991408853E+01 -0.83599125484E+01  0.51444896962E+02  0.52487092784E+02  0.00000000000E+00 0.  1.
</event>
<event>
 5    1  0.4881333E-005  0.9143629E+02  0.7818608E-02  0.1179559E+00
         -4   -1    0    0    0  501 -0.00000000000E+00  0.00000000000E+00  0.57542491506E+02  0.57542491506E+02  0.00000000000E+00 0. -1.
         21   -1    0    0  501  502  0.00000000000E+00 -0.00000000000E+00 -0.21005159095E+03  0.21005159095E+03  0.00000000000E+00 0.  1.
        -13    1    1    2    0    0 -0.36427704772E+02 -0.87065706272E+02 -0.57332912435E+02  0.11042865976E+03  0.10566000000E+00 0.  1.
         13    1    1    2    0    0  0.49578249387E+02  0.74854030485E+02 -0.38454293005E+02  0.97672270920E+02  0.10566000000E+00 0. -1.
         -4    1    1    2    0  502 -0.13150544615E+02  0.12211675786E+02 -0.56721894008E+02  0.59493151782E+02  0.00000000000E+00 0. -1.
</event>
<event>
 5    1  0.4881333E-005  0.7883618E+02  0.7818608E-02  0.1205283E+00
         21   -1    0    0  501  502  0.00000000000E+00  0.00000000000E+00  0.44828935875E+03  0.44828935875E+03  0.00000000000E+00 0.  1.
          4   -1    0    0  502    0 -0.00000000000E+00 -0.00000000000E+00 -0.32370703615E+02  0.32370703615E+02  0.00000000000E+00 0.  1.
        -13    1    1    2    0    0 -0.50588943565E+02 -0.68452212856E+02  0.49648742295E+02  0.98539106102E+02  0.10566000000E+00 0.  1.
         13    1    1    2    0    0  0.41345963390E+02  0.52016835576E+02  0.13895317729E+03  0.15402349338E+03  0.10566000000E+00 0. -1.
          4    1    1    2  501    0  0.92429801750E+01  0.16435377280E+02  0.22731673555E+03  0.22809746287E+03  0.00000000000E+00 0.  1.
</event>
<event>
 5    1  0.4881333E-005  0.4913421E+03  0.7818608E-02  0.9658798E-01
         21   -1    0    0  501  502  0.00000000000E+00  0.00000000000E+00  0.91275423771E+03  0.91275423771E+03  0.00000000000E+00 0.  1.
          4   -1    0    0  502    0 -0.00000000000E+00 -0.00000000000E+00 -0.54861251178E+03  0.54861251178E+03  0.00000000000E+00 0.  1.
        -13    1    1    2    0    0 -0.55171606503E+03 -0.78915775908E+02  0.27525253798E+03  0.62159656284E+03  0.10566000000E+00 0.  1.
         13    1    1    2    0    0  0.11646562208E+03  0.24992126773E+03 -0.15081411084E+03  0.31427661126E+03  0.10566000000E+00 0. -1.
          4    1    1    2  501    0  0.43525044295E+03 -0.17100549182E+03  0.23970329879E+03  0.52549357539E+03  0.00000000000E+00 0.  1.
</event>
<event>
 5    1  0.4881333E-005  0.3656865E+03  0.7818608E-02  0.9931684E-01
         -4   -1    0    0    0  501 -0.00000000000E+00  0.00000000000E+00  0.37207246871E+04  0.37207246871E+04  0.00000000000E+00 0. -1.
         21   -1    0    0  501  502  0.00000000000E+00 -0.00000000000E+00 -0.11830907755E+03  0.11830907755E+03  0.00000000000E+00 0. -1.
        -13    1    1    2    0    0  0.10169080056E+03 -0.24277166548E+03  0.94631640290E+03  0.98223920001E+03  0.10566000000E+00 0.  1.
         13    1    1    2    0    0  0.37157839112E+02 -0.32496433620E+03  0.35533915198E+03  0.48295801981E+03  0.10566000000E+00 0. -1.
         -4    1    1    2    0  502 -0.13884863968E+03  0.56773600168E+03  0.23007600547E+04  0.23738365449E+04  0.00000000000E+00 0. -1.
</event>
<event>
 5    1  0.4881333E-005  0.4880479E+03  0.7818608E-02  0.9700148E-01
         -4   -1    0    0    0  501 -0.00000000000E+00  0.00000000000E+00  0.75453315519E+03  0.75453315519E+03  0.00000000000E+00 0. -1.
         21   -1    0    0  501  502  0.00000000000E+00 -0.00000000000E+00 -0.78656288293E+03  0.78656288293E+03  0.00000000000E+00 0. -1.
        -13    1    1    2    0    0  0.20266600782E+03  0.13491095491E+03  0.36758820173E+03  0.44090313414E+03  0.10566000000E+00 0.  1.
         13    1    1    2    0    0  0.22222431546E+03  0.26584038077E+03  0.66646054918E+02  0.35284056205E+03  0.10566000000E+00 0. -1.
         -4    1    1    2    0  502 -0.42489032328E+03 -0.40075133568E+03 -0.46626398438E+03  0.74735234193E+03  0.00000000000E+00 0. -1.
</event>
<event>
 5    1  0.4881333E-005  0.2538668E+03  0.7818608E-02  0.1028408E+00
          4   -1    0    0  502    0 -0.00000000000E+00  0.00000000000E+00  0.12051523257E+04  0.12051523257E+04  0.00000000000E+00 0.  1.
         21   -1    0    0  501  502  0.00000000000E+00 -0.00000000000E+00 -0.27633305060E+03  0.27633305060E+03  0.00000000000E+00 0. -1.
        -13    1    1    2    0    0  0.57781409257E+02  0.24688250788E+03  0.10942303450E+04  0.11232229178E+04  0.10566000000E+00 0.  1.
         13    1    1    2    0    0 -0.88409534038E+02 -0.24387812862E+03 -0.86317565610E+02  0.27339261260E+03  0.10566000000E+00 0. -1.
          4    1    1    2  501    0  0.30628124781E+02 -0.30043792663E+01 -0.79093504300E+02  0.84869845910E+02  0.00000000000E+00 0.  1.
</event>
<event>
 5    1  0.4881333E-005  0.4103811E+03  0.7818608E-02  0.1000673E+00
          4   -1    0    0  502    0 -0.00000000000E+00  0.00000000000E+00  0.20577951485E+04  0.20577951485E+04  0.00000000000E+00 0.  1.
         21   -1    0    0  501  502  0.00000000000E+00 -0.00000000000E+00 -0.16316045957E+03  0.16316045957E+03  0.00000000000E+00 0.  1.
        -13    1    1    2    0    0  0.65131287704E+02  0.32434064772E+03  0.12990622785E+04  0.13405229409E+04  0.10566000000E+00 0.  1.
         13    1    1    2    0    0 -0.95045844398E+02  0.11003823290E+03  0.35354787827E+03  0.38228031421E+03  0.10566000000E+00 0. -1.
          4    1    1    2  501    0  0.29914556695E+02 -0.43437888062E+03  0.24202453217E+03  0.49815235300E+03  0.00000000000E+00 0.  1.
</event>
<event>
 5    1  0.4881333E-005  0.1848291E+03  0.7818608E-02  0.1071065E+00
          4   -1    0    0  502    0 -0.00000000000E+00  0.00000000000E+00  0.16389112409E+03  0.16389112409E+03  0.00000000000E+00 0.  1.
         21   -1    0    0  501  502  0.00000000000E+00 -0.00000000000E+00 -0.45187461522E+03  0.45187461522E+03  0.00000000000E+00 0.  1.
        -13    1    1    2    0    0  0.12144204689E+03 -0.22905507648E+03 -0.63418921451E+02  0.26690142296E+03  0.10566000000E+00 0.  1.
         13    1    1    2    0    0 -0.79149558318E+02  0.10621468523E+03 -0.81100158328E+02  0.15531728425E+03  0.10566000000E+00 0. -1.
          4    1    1    2  501    0 -0.42292488573E+02  0.12284039125E+03 -0.14346441135E+03  0.19354703211E+03  0.00000000000E+00 0.  1.
</event>
<event>
 5    1  0.4881333E-005  0.4885232E+03  0.7818608E-02  0.9578261E-01
          4   -1    0    0  502    0 -0.00000000000E+00  0.00000000000E+00  0.13410625893E+04  0.13410625893E+04  0.00000000000E+00 0.  1.
         21   -1    0    0  501  502  0.00000000000E+00 -0.00000000000E+00 -0.38943889064E+03  0.38943889064E+03  0.00000000000E+00 0.  1.
        -13    1    1    2    0    0  0.24615145104E+03 -0.16827820585E+03  0.52225078604E+03  0.60137674223E+03  0.10566000000E+00 0.  1.
         13    1    1    2    0    0  0.87094577748E+02 -0.36286575504E+03  0.32215931116E+03  0.49299457866E+03  0.10566000000E+00 0. -1.
          4    1    1    2  501    0 -0.33324602879E+03  0.53114396089E+03  0.10721360144E+03  0.63613015903E+03  0.00000000000E+00 0.  1.
</event>
<event>
 5    1  0.4881333E-005  0.4867501E+02  0.7818608E-02  0.1297279E+00
         21   -1    0    0  501  502  0.00000000000E+00  0.00000000000E+00  0.24297115441E+03  0.24297115441E+03  0.00000000000E+00 0. -1.
          4   -1    0    0  502    0 -0.00000000000E+00 -0.00000000000E+00 -0.37272607606E+02  0.37272607606E+02  0.00000000000E+00 0.  1.
        -13    1    1    2    0    0 -0.49084976511E+02 -0.14983103951E+02 -0.79569077204E+01  0.51934110829E+02  0.10566000000E+00 0.  1.
         13    1    1    2    0    0  0.41338588502E+02  0.56060739272E+01  0.54222518283E+02  0.68413446173E+02  0.10566000000E+00 0. -1.
          4    1    1    2  501    0  0.77463880089E+01  0.93770300236E+01  0.15943293625E+03  0.15989620502E+03  0.00000000000E+00 0.  1.
</event>
<event>
 5    1  0.4881333E-005  0.1500854E+03  0.7818608E-02  0.1101027E+00
         21   -1    0    0  501  502  0.00000000000E+00  0.00000000000E+00  0.13284645391E+04  0.13284645391E+04  0.00000000000E+00 0. -1.
         -4   -1    0    0    0  501 -0.00000000000E+00 -0.00000000000E+00 -0.42500548861E+02  0.42500548861E+02  0.00000000000E+00 0. -1.
        -13    1    1    2    0    0  0.83768902550E+02  0.12805910413E+03  0.24285470557E+03  0.28704491350E+03  0.10566000000E+00 0.  1.
         13    1    1    2    0    0  0.18818373349E+02 -0.16840809326E+03  0.45418443428E+03  0.48476688063E+03  0.10566000000E+00 0. -1.
         -4    1    1    2    0  502 -0.10258727590E+03  0.40348989122E+02  0.58892485035E+03  0.59915329379E+03  0.00000000000E+00 0. -1.
</event>
<event>
 5    1  0.4881333E-005  0.2365026E+03  0.7818608E-02  0.1047970E+00
         21   -1    0    0  501  502  0.00000000000E+00  0.00000000000E+00  0.34769380351E+03  0.34769380351E+03  0.00000000000E+00 0.  1.
          4   -1    0    0  502    0 -0.00000000000E+00 -0.00000000000E+00 -0.56150440842E+03  0.56150440842E+03  0.00000000000E+00 0.  1.
        -13    1    1    2    0    0 -0.13576352884E+03  0.10914557506E+03 -0.39598481813E+03  0.43260661076E+03  0.10566000000E+00 0.  1.
         13    1    1    2    0    0  0.98993999910E+02  0.14211955889E+03  0.17839429565E+02  0.17411501213E+03  0.10566000000E+00 0. -1.
          4    1    1    2  501    0  0.36769528928E+02 -0.25126513395E+03  0.16433478366E+03  0.30247658904E+03  0.00000000000E+00 0.  1.
</event>
<event>
 5    1  0.4881333E-005  0.9550260E+03  0.7818608E-02  0.8818035E-01
         -4   -1    0    0    0  501 -0.00000000000E+00  0.00000000000E+00  0.16610656778E+04  0.16610656778E+04  0.00000000000E+00 0. -1.
         21   -1    0    0  501  502  0.00000000000E+00 -0.00000000000E+00 -0.79852301193E+03  0.79852301193E+03  0.00000000000E+00 0. -1.
        -13    1    1    2    0    0 -0.52786539434E+03  0.73099521923E+03  0.58131186717E+03  0.10728091084E+04  0.10566000000E+00 0.  1.
         13    1    1    2    0    0  0.56470276878E+03 -0.90938956434E+03  0.22922601452E+02  0.10707025981E+04  0.10566000000E+00 0. -1.
         -4    1    1    2    0  502 -0.36837374434E+02  0.17839434511E+03  0.25830819725E+03  0.31607698317E+03  0.00000000000E+00 0. -1.
</event>
<event>
 5    1  0.4881333E-005  0.7774794E+02  0.7818608E-02  0.1207751E+00
         -4   -1    0    0    0  501 -0.00000000000E+00  0.00000000000E+00  0.65354299431E+03  0.65354299431E+03  0.00000000000E+00 0. -1.
         21   -1    0    0  501  502  0.00000000000E+00 -0.00000000000E+00 -0.20686191690E+02  0.20686191690E+02  0.00000000000E+00 0. -1.
        -13    1    1    2    0    0  0.64717324299E+02  0.28862794910E+02  0.28345361123E+03  0.29217692222E+03  0.10566000000E+00 0.  1.
         13    1    1    2    0    0 -0.74236077911E+02 -0.71729984313E+02  0.18463489866E+03  0.21153307751E+03  0.10566000000E+00 0. -1.
         -4    1    1    2    0  502  0.95187536122E+01  0.42867189403E+02  0.16476829273E+03  0.17051918627E+03  0.00000000000E+00 0. -1.
</event>
<event>
 5    1  0.4881333E-005  0.5242912E+03  0.7818608E-02  0.9426263E-01
          4   -1    0    0  502    0 -0.00000000000E+00  0.00000000000E+00  0.14134120943E+04  0.14134120943E+04  0.00000000000E+00 0.  1.
         21   -1    0    0  501  502  0.00000000000E+00 -0.00000000000E+00 -0.51688991868E+03  0.51688991868E+03  0.00000000000E+00 0.  1.
        -13    1    1    2    0    0  0.34849533819E+03  0.52774595762E+03 -0.15596594094E+03  0.65137560779E+03  0.10566000000E+00 0.  1.
         13    1    1    2    0    0 -0.38031272437E+03 -0.33027594724E+03  0.59470772249E+03  0.77935695032E+03  0.10566000000E+00 0. -1.
          4    1    1    2  501    0  0.31817386184E+02 -0.19747001038E+03  0.45778039410E+03  0.49956945492E+03  0.00000000000E+00 0.  1.
</event>
<event>
 5    1  0.4881333E-005  0.4773059E+03  0.7818608E-02  0.9533125E-01
         21   -1    0    0  501  502  0.00000000000E+00  0.00000000000E+00  0.34860661804E+03  0.34860661804E+03  0.00000000000E+00 0.  1.
          4   -1    0    0  502    0 -0.00000000000E+00 -0.00000000000E+00 -0.20088917974E+04  0.20088917974E+04  0.00000000000E+00 0.  1.
        -13    1    1    2    0    0  0.28326919046E+03 -0.21701971978E+03 -0.43630447555E+03  0.56364935872E+03  0.10566000000E+00 0.  1.
         13    1    1    2    0    0  0.36425706465E+03  0.29781181913E+03 -0.99788130482E+03  0.11032416773E+04  0.10566000000E+00 0. -1.
          4    1    1    2  501    0 -0.64752625511E+03 -0.80792099352E+02 -0.22609939902E+03  0.69060737950E+03  0.00000000000E+00 0.  1.
</event>
<event>
 5    1  0.4881333E-005  0.4988116E+03  0.7818608E-02  0.9480581E-01
         21   -1    0    0  501  502  0.00000000000E+00  0.00000000000E+00  0.51712431214E+03  0.51712431214E+03  0.00000000000E+00 0. -1.
          4   -1    0    0  502    0 -0.00000000000E+00 -0.00000000000E+00 -0.12093422684E+04  0.12093422684E+04  0.00000000000E+00 0.  1.
        -13    1    1    2    0    0 -0.91532243395E+02  0.59406869376E+03 -0.30076108347E+02  0.60183083000E+03  0.10566000000E+00 0.  1.
         13    1    1    2    0    0  0.20464869322E+03 -0.38498462967E+03 -0.16155424214E+02  0.43629721706E+03  0.10566000000E+00 0. -1.
          4    1    1    2  501    0 -0.11311644983E+03 -0.20908406409E+03 -0.64598642372E+03  0.68833853350E+03  0.00000000000E+00 0.  1.
</event>
<event>
 5    1  0.4881333E-005  0.1264514E+03  0.7818608E-02  0.1126972E+00
          4   -1    0    0  502    0 -0.00000000000E+00  0.00000000000E+00  0.96473996117E+02  0.96473996117E+02  0.00000000000E+00 0.  1.
         21   -1    0    0  501  502  0.00000000000E+00 -0.00000000000E+00 -0.22021225526E+03  0.22021225526E+03  0.00000000000E+00 0. -1.
        -13    1    1    2    0    0 -0.13509358240E+02  0.12602015120E+03 -0.34105260971E+01  0.12678810717E+03  0.10566000000E+00 0.  1.
         13    1    1    2    0    0 -0.54285533529E+01 -0.12670413826E+03 -0.95985220670E+02  0.15904899118E+03  0.10566000000E+00 0. -1.
          4    1    1    2  501    0  0.18937911593E+02  0.68398705643E+00 -0.24342512373E+02  0.30849153026E+02  0.00000000000E+00 0.  1.
</event>
<event>
 5    1  0.4881333E-005  0.2300297E+02  0.7818608E-02  0.1471919E+00
         21   -1    0    0  501  502  0.00000000000E+00  0.00000000000E+00  0.31350271772E+02  0.31350271772E+02  0.00000000000E+00 0. -1.
          4   -1    0    0  502    0 -0.00000000000E+00 -0.00000000000E+00 -0.85201309800E+02  0.85201309800E+02  0.00000000000E+00 0.  1.
        -13    1    1    2    0    0  0.17461527782E+02  0.14561610317E+02 -0.69329521367E+02  0.72962587293E+02  0.10566000000E+00 0.  1.
         13    1    1    2    0    0 -0.27439846925E+02 -0.76078347913E+01  0.12300434378E+02  0.31018320383E+02  0.10566000000E+00 0. -1.
          4    1    1    2  501    0  0.99783191430E+01 -0.69537755261E+01  0.31780489608E+01  0.12570673895E+02  0.00000000000E+00 0.  1.
</event>
<event>
 5    1  0.4881333E-005  0.5806757E+03  0.7818608E-02  0.9361467E-01
          4   -1    0    0  502    0 -0.00000000000E+00  0.00000000000E+00  0.15525143317E+04  0.15525143317E+04  0.00000000000E+00 0.  1.
         21   -1    0    0  501  502  0.00000000000E+00 -0.00000000000E+00 -0.53183966168E+03  0.53183966168E+03  0.00000000000E+00 0. -1.
        -13    1    1    2    0    0  0.38050766597E+01  0.62098890117E+03  0.65162506041E+03  0.90014272452E+03  0.10566000000E+00 0.  1.
         13    1    1    2    0    0  0.45249089263E+03 -0.19038823083E+03  0.22741130352E+03  0.54102827883E+03  0.10566000000E+00 0. -1.
          4    1    1    2  501    0 -0.45629596929E+03 -0.43060067034E+03  0.14163830607E+03  0.64318299001E+03  0.00000000000E+00 0.  1.
</event>
<event>
 5    1  0.4881333E-005  0.6310729E+03  0.7818608E-02  0.9229453E-01
         21   -1    0    0  501  502  0.00000000000E+00  0.00000000000E+00  0.21934119583E+03  0.21934119583E+03  0.00000000000E+00 0.  1.
         -4   -1    0    0    0  501 -0.00000000000E+00 -0.00000000000E+00 -0.35137542177E+04  0.35137542177E+04  0.00000000000E+00 0. -1.
        -13    1    1    2    0    0 -0.55773092043E+03 -0.12518744393E+03 -0.15187546643E+04  0.16227604312E+04  0.10566000000E+00 0.  1.
         13    1    1    2    0    0  0.74583815524E+03 -0.97203164628E+02 -0.16056202104E+04  0.17730592997E+04  0.10566000000E+00 0. -1.
         -4    1    1    2    0  502 -0.18810723481E+03  0.22239060856E+03 -0.17003814712E+03  0.33727568254E+03  0.00000000000E+00 0. -1.
</event>
<event>
 5    1  0.4881333E-005  0.1381517E+03  0.7818608E-02  0.1113423E+00
          4   -1    0    0  502    0 -0.00000000000E+00  0.00000000000E+00  0.51887105622E+03  0.51887105622E+03  0.00000000000E+00 0.  1.
         21   -1    0    0  501  502  0.00000000000E+00 -0.00000000000E+00 -0.84687730620E+02  0.84687730620E+02  0.00000000000E+00 0. -1.
        -13    1    1    2    0    0 -0.13477647605E+03 -0.39569716876E+02  0.38930895956E+03  0.41387430235E+03  0.10566000000E+00 0.  1.
         13    1    1    2    0    0  0.13197879812E+03 -0.42948541631E+01  0.79643024111E+01  0.13228866241E+03  0.10566000000E+00 0. -1.
          4    1    1    2  501    0  0.27976779317E+01  0.43864571039E+02  0.36910063624E+02  0.57395822070E+02  0.00000000000E+00 0.  1.
</event>
<event>
 5    1  0.4881333E-005  0.4801464E+03  0.7818608E-02  0.9693193E-01
          4   -1    0    0  502    0 -0.00000000000E+00  0.00000000000E+00  0.19097068973E+04  0.19097068973E+04  0.00000000000E+00 0.  1.
         21   -1    0    0  501  502  0.00000000000E+00 -0.00000000000E+00 -0.24318676743E+03  0.24318676743E+03  0.00000000000E+00 0.  1.
        -13    1    1    2    0    0 -0.34057360413E+03 -0.25260890987E+03  0.33575240818E+03  0.54086165693E+03  0.10566000000E+00 0.  1.
         13    1    1    2    0    0 -0.24425009452E+03  0.94667590935E+02  0.64980411265E+03  0.70061791115E+03  0.10566000000E+00 0. -1.
          4    1    1    2  501    0  0.58482369865E+03  0.15794131894E+03  0.68096360903E+03  0.91141409664E+03  0.00000000000E+00 0.  1.
</event>
<event>
 5    1  0.4881333E-005  0.1403101E+04  0.7818608E-02  0.8467543E-01
         21   -1    0    0  501  502  0.00000000000E+00  0.00000000000E+00  0.15406614617E+04  0.15406614617E+04  0.00000000000E+00 0.  1.
         -4   -1    0    0    0  501 -0.00000000000E+00 -0.00000000000E+00 -0.18124772033E+04  0.18124772033E+04  0.00000000000E+00 0. -1.
        -13    1    1    2    0    0 -0.10871929977E+04  0.88211219169E+03 -0.90769919356E+03  0.16685407906E+04  0.10566000000E+00 0.  1.
         13    1    1    2    0    0  0.10921392521E+04 -0.89299569452E+03  0.42499908796E+03  0.14733749327E+04  0.10566000000E+00 0. -1.
         -4    1    1    2    0  502 -0.49462544745E+01  0.10883502829E+02  0.21088436401E+03  0.21122294159E+03  0.00000000000E+00 0. -1.
</event>
<event>
 5    1  0.4881333E-005  0.4227187E+03  0.7818608E-02  0.1004150E+00
         -4   -1    0    0    0  501 -0.00000000000E+00  0.00000000000E+00  0.19013368924E+04  0.19013368924E+04  0.00000000000E+00 0. -1.
         21   -1    0    0  501  502  0.00000000000E+00 -0.00000000000E+00 -0.17209068211E+03  0.17209068211E+03  0.00000000000E+00 0. -1.
        -13    1    1    2    0    0  0.85171716644E+02 -0.82786699376E+02  0.34550763464E+03  0.36535379520E+03  0.10566000000E+00 0.  1.
         13    1    1    2    0    0 -0.47650423240E+03  0.15990865137E+03  0.11262684723E+04  0.12333319679E+04  0.10566000000E+00 0. -1.
         -4    1    1    2    0  502  0.39133251576E+03 -0.77121951998E+02  0.25747010342E+03  0.47474181144E+03  0.00000000000E+00 0. -1.
</event>
<event>
 5    1  0.4881333E-005  0.3498326E+03  0.7818608E-02  0.1032610E+00
         -4   -1    0    0    0  501 -0.00000000000E+00  0.00000000000E+00  0.19176355901E+04  0.19176355901E+04  0.00000000000E+00 0. -1.
         21   -1    0    0  501  502  0.00000000000E+00 -0.00000000000E+00 -0.15756394723E+03  0.15756394723E+03  0.00000000000E+00 0. -1.
        -13    1    1    2    0    0  0.25695254816E+02 -0.81248486879E+02  0.22209822485E+03  0.23788483639E+03  0.10566000000E+00 0.  1.
         13    1    1    2    0    0 -0.21345093919E+03 -0.22313022088E+03  0.14311347705E+04  0.14640680112E+04  0.10566000000E+00 0. -1.
         -4    1    1    2    0  502  0.18775568437E+03  0.30437870776E+03  0.10683864744E+03  0.37324668966E+03  0.00000000000E+00 0. -1.
</event>
<event>
 5    1  0.4881333E-005  0.2248386E+02  0.7818608E-02  0.1501379E+00
         21   -1    0    0  501  502  0.00000000000E+00  0.00000000000E+00  0.27828692356E+03  0.27828692356E+03  0.00000000000E+00 0.  1.
         -4   -1    0    0    0  501 -0.00000000000E+00 -0.00000000000E+00 -0.67534982572E+01  0.67534982572E+01  0.00000000000E+00 0. -1.
        -13    1    1    2    0    0  0.27518911454E+02  0.16790576426E+01  0.80652376841E+02  0.85234539808E+02  0.10566000000E+00 0.  1.
         13    1    1    2    0    0 -0.92233817210E+01  0.17803250946E+02  0.26313638919E+02  0.33082401240E+02  0.10566000000E+00 0. -1.
         -4    1    1    2    0  502 -0.18295529733E+02 -0.19482308589E+02  0.16456740955E+03  0.16672348077E+03  0.00000000000E+00 0. -1.
</event>
<event>
 5    1  0.4881333E-005  0.2372447E+03  0.7818608E-02  0.1037223E+00
         -4   -1    0    0    0  501 -0.00000000000E+00  0.00000000000E+00  0.31828812500E+03  0.31828812500E+03  0.00000000000E+00 0. -1.
         21   -1    0    0  501  502  0.00000000000E+00 -0.00000000000E+00 -0.58326201499E+03  0.58326201499E+03  0.00000000000E+00 0. -1.
        -13    1    1    2    0    0  0.27137100162E+03 -0.93665534824E+02 -0.13455484297E+03  0.31704963312E+03  0.10566000000E+00 0.  1.
         13    1    1    2    0    0 -0.22745302363E+03 -0.26498673866E+01  0.15820603361E+03  0.27707591016E+03  0.10566000000E+00 0. -1.
         -4    1    1    2    0  502 -0.43917977983E+02  0.96315402211E+02 -0.28862508063E+03  0.30742459671E+03  0.00000000000E+00 0. -1.
</event>
<event>
 5    1  0.4881333E-005  0.2351673E+03  0.7818608E-02  0.1038379E+00
         21   -1    0    0  501  502  0.00000000000E+00  0.00000000000E+00  0.47993977142E+03  0.47993977142E+03  0.00000000000E+00 0. -1.
          4   -1    0    0  502    0 -0.00000000000E+00 -0.00000000000E+00 -0.36446535579E+03  0.36446535579E+03  0.00000000000E+00 0.  1.
        -13    1    1    2    0    0  0.30097788462E+02 -0.22845060220E+03 -0.25554833509E+03  0.34409376229E+03  0.10566000000E+00 0.  1.
         13    1    1    2    0    0  0.64584265013E+01  0.27282205777E+03  0.26890967340E+03  0.38312662410E+03  0.10566000000E+00 0. -1.
          4    1    1    2  501    0 -0.36556214964E+02 -0.44371455569E+02  0.10211307732E+03  0.11718474082E+03  0.00000000000E+00 0.  1.
</event>
<event>
 5    1  0.4881333E-005  0.4518251E+03  0.7818608E-02  0.9728563E-01
          4   -1    0    0  502    0 -0.00000000000E+00  0.00000000000E+00  0.29382712910E+03  0.29382712910E+03  0.00000000000E+00 0.  1.
         21   -1    0    0  501  502  0.00000000000E+00 -0.00000000000E+00 -0.22528033444E+04  0.22528033444E+04  0.00000000000E+00 0.  1.
        -13    1    1    2    0    0  0.17986193640E+03 -0.58071425682E+03 -0.94813591433E+03  0.11262952932E+04  0.10566000000E+00 0.  1.
         13    1    1    2    0    0 -0.20953887856E+03  0.18270572352E+03  0.53958346031E+02  0.28319505170E+03  0.10566000000E+00 0. -1.
          4    1    1    2  501    0  0.29676942155E+02  0.39800853330E+03 -0.10647986470E+04  0.11371401286E+04  0.00000000000E+00 0.  1.
</event>
<event>
 5    1  0.4881333E-005  0.4023180E+03  0.7818608E-02  0.9722375E-01
          4   -1    0    0  502    0 -0.00000000000E+00  0.00000000000E+00  0.96820696800E+02  0.96820696800E+02  0.00000000000E+00 0.  1.
         21   -1    0    0  501  502  0.00000000000E+00 -0.00000000000E+00 -0.22395211295E+04  0.22395211295E+04  0.00000000000E+00 0.  1.
        -13    1    1    2    0    0 -0.46724132870E+02  0.40261920456E+03 -0.78968002031E+03  0.88762599901E+03  0.10566000000E+00 0.  1.
         13    1    1    2    0    0  0.26536036646E+02 -0.39867894037E+03 -0.78977778838E+03  0.88509774879E+03  0.10566000000E+00 0. -1.
          4    1    1    2  501    0  0.20188096224E+02 -0.39402641944E+01 -0.56324262396E+03  0.56361807845E+03  0.00000000000E+00 0.  1.
</event>
<event>
 5    1  0.4881333E-005  0.2412653E+03  0.7818608E-02  0.1035021E+00
         21   -1    0    0  501  502  0.00000000000E+00  0.00000000000E+00  0.98444836659E+02  0.98444836659E+02  0.00000000000E+00 0.  1.
         -4   -1    0    0    0  501 -0.00000000000E+00 -0.00000000000E+00 -0.93318766963E+03  0.93318766963E+03  0.00000000000E+00 0. -1.
        -13    1    1    2    0    0  0.24956978083E+03  0.79592863092E+02 -0.32057215549E+03  0.41398866820E+03  0.10566000000E+00 0.  1.
         13    1    1    2    0    0 -0.21595519859E+03 -0.81341137068E+02 -0.53175371844E+03  0.57966805727E+03  0.10566000000E+00 0. -1.
         -4    1    1    2    0  502 -0.33614582233E+02  0.17482739764E+01  0.17583040951E+02  0.37975780830E+02  0.00000000000E+00 0. -1.
</event>
<event>
 5    1  0.4881333E-005  0.1298460E+03  0.7818608E-02  0.1122883E+00
         -4   -1    0    0    0  501 -0.00000000000E+00  0.00000000000E+00  0.26227925708E+02  0.26227925708E+02  0.00000000000E+00 0. -1.
         21   -1    0    0  501  502  0.00000000000E+00 -0.00000000000E+00 -0.18688063099E+04  0.18688063099E+04  0.00000000000E+00 0.  1.
        -13    1    1    2    0    0  0.18049528496E+03 -0.21725757921E+02 -0.68446018449E+03  0.70819228446E+03  0.10566000000E+00 0.  1.
         13    1    1    2    0    0 -0.96963914255E+02 -0.65487088606E+02 -0.33354446716E+03  0.35347203875E+03  0.10566000000E+00 0. -1.
         -4    1    1    2    0  502 -0.83531370709E+02  0.87212846526E+02 -0.82457373249E+03  0.83336991235E+03  0.00000000000E+00 0. -1.
</event>
<event>
 5    1  0.4881333E-005  0.6707697E+02  0.7818608E-02  0.1234612E+00
          4   -1    0    0  502    0 -0.00000000000E+00  0.00000000000E+00  0.17358842369E+03  0.17358842369E+03  0.00000000000E+00 0.  1.
         21   -1    0    0  501  502  0.00000000000E+00 -0.00000000000E+00 -0.80607253263E+02  0.80607253263E+02  0.00000000000E+00 0. -1.
        -13    1    1    2    0    0  0.61625684555E+02  0.21403550792E+02  0.10734894629E+03  0.12561705464E+03  0.10566000000E+00 0.  1.
         13    1    1    2    0    0 -0.73858548701E+02 -0.47590531998E+01  0.29826101927E+02  0.79795622210E+02  0.10566000000E+00 0. -1.
          4    1    1    2  501    0  0.12232864146E+02 -0.16644497593E+02 -0.44193877787E+02  0.48783000104E+02  0.00000000000E+00 0.  1.
</event>
<event>
 5    1  0.4881333E-005  0.5063047E+03  0.7818608E-02  0.9464260E-01
         21   -1    0    0  501  502  0.00000000000E+00  0.00000000000E+00  0.41651568100E+03  0.41651568100E+03  0.00000000000E+00 0.  1.
          4   -1    0    0  502    0 -0.00000000000E+00 -0.00000000000E+00 -0.14138218209E+04  0.14138218209E+04  0.00000000000E+00 0.  1.
        -13    1    1    2    0    0  0.64173430101E+03  0.15903547951E+03 -0.15611760815E+03  0.67932901864E+03  0.10566000000E+00 0.  1.
         13    1    1    2    0    0 -0.44000619863E+03  0.22942680852E+02 -0.26545028239E+03  0.51438865172E+03  0.10566000000E+00 0. -1.
          4    1    1    2  501    0 -0.20172810238E+03 -0.18197816036E+03 -0.57573824933E+03  0.63661983152E+03  0.00000000000E+00 0.  1.
</event>
<event>
 5    1  0.4881333E-005  0.4395782E+03  0.7818608E-02  0.9621251E-01
         -4   -1    0    0    0  501 -0.00000000000E+00  0.00000000000E+00  0.13125758825E+04  0.13125758825E+04  0.00000000000E+00 0. -1.
         21   -1    0    0  501  502  0.00000000000E+00 -0.00000000000E+00 -0.49927083245E+03  0.49927083245E+03  0.00000000000E+00 0. -1.
        -13    1    1    2    0    0  0.33053563638E+02  0.42239559389E+03  0.64199623754E+03  0.76920072542E+03  0.10566000000E+00 0.  1.
         13    1    1    2    0    0 -0.24256883076E+03 -0.51663993003E+03 -0.20104415404E+03  0.60512413437E+03  0.10566000000E+00 0. -1.
         -4    1    1    2    0  502  0.20951526712E+03  0.94244336139E+02  0.37235296657E+03  0.43752185519E+03  0.00000000000E+00 0. -1.
</event>
<event>
 5    1  0.4881333E-005  0.3359701E+03  0.7818608E-02  0.9934751E-01
         -4   -1    0    0    0  501 -0.00000000000E+00  0.00000000000E+00  0.16883610215E+04  0.16883610215E+04  0.00000000000E+00 0. -1.
         21   -1    0    0  501  502  0.00000000000E+00 -0.00000000000E+00 -0.33229415817E+03  0.33229415817E+03  0.00000000000E+00 0. -1.
        -13    1    1    2    0    0  0.14319754829E+03 -0.25401048668E+03  0.88163496243E+03  0.92860491239E+03  0.10566000000E+00 0.  1.
         13    1    1    2    0    0 -0.36085542677E+03  0.42459025397E+03  0.57224707609E+03  0.79872413889E+03  0.10566000000E+00 0. -1.
         -4    1    1    2    0  502  0.21765787847E+03 -0.17057976728E+03 -0.97815175231E+02  0.29332612835E+03  0.00000000000E+00 0. -1.
</event>
<event>
 5    1  0.4881333E-005  0.4385163E+03  0.7818608E-02  0.9946166E-01
         -4   -1    0    0    0  501 -0.00000000000E+00  0.00000000000E+00  0.27852637485E+03  0.27852637485E+03  0.00000000000E+00 0. -1.
         21   -1    0    0  501  502  0.00000000000E+00 -0.00000000000E+00 -0.12390379161E+04  0.12390379161E+04  0.00000000000E+00 0. -1.
        -13    1    1    2    0    0  0.12370502919E+03 -0.76556091258E+02 -0.19541572573E+03  0.24362078397E+03  0.10566000000E+00 0.  1.
         13    1    1    2    0    0  0.16157784453E+03 -0.30035467376E+03  0.36856242694E+02  0.34304332624E+03  0.10566000000E+00 0. -1.
         -4    1    1    2    0  502 -0.28528287372E+03  0.37691076501E+03 -0.80195205818E+03  0.93090018071E+03  0.00000000000E+00 0. -1.
</event>
<event>
 5    1  0.4881333E-005  0.1228707E+03  0.7818608E-02  0.1131441E+00
          4   -1    0    0  502    0 -0.00000000000E+00  0.00000000000E+00  0.73485158219E+03  0.73485158219E+03  0.00000000000E+00 0.  1.
         21   -1    0    0  501  502  0.00000000000E+00 -0.00000000000E+00 -0.48659989997E+02  0.48659989997E+02  0.00000000000E+00 0. -1.
        -13    1    1    2    0    0  0.10868655639E+03 -0.68449559177E+02  0.52188210802E+03  0.53745609638E+03  0.10566000000E+00 0.  1.
         13    1    1    2    0    0 -0.90587232135E+02  0.65748376321E+02  0.18636568978E+03  0.21739612946E+03  0.10566000000E+00 0. -1.
          4    1    1    2  501    0 -0.18099324259E+02  0.27011828564E+01 -0.22056205607E+02  0.28659346350E+02  0.00000000000E+00 0.  1.
</event>
<event>
 5    1  0.4881333E-005  0.2059509E+03  0.7818608E-02  0.1056131E+00
         -4   -1    0    0    0  501 -0.00000000000E+00  0.00000000000E+00  0.22263154608E+03  0.22263154608E+03  0.00000000000E+00 0. -1.
         21   -1    0    0  501  502  0.00000000000E+00 -0.00000000000E+00 -0.97661151387E+03  0.97661151387E+03  0.00000000000E+00 0. -1.
        -13    1    1    2    0    0  0.20872224752E+03 -0.38254715333E+02 -0.44872424037E+03  0.49636866835E+03  0.10566000000E+00 0.  1.
         13    1    1    2    0    0 -0.19641497954E+03  0.60053795628E+02  0.14532157813E+03  0.25160221540E+03  0.10566000000E+00 0. -1.
         -4    1    1    2    0  502 -0.12307267981E+02 -0.21799080295E+02 -0.45057730554E+03  0.45127217621E+03  0.00000000000E+00 0. -1.
</event>
<event>
 5    1  0.4881333E-005  0.5967520E+03  0.7818608E-02  0.9287936E-01
         -4   -1    0    0    0  501 -0.00000000000E+00  0.00000000000E+00  0.14440775380E+04  0.14440775380E+04  0.00000000000E+00 0. -1.
         21   -1    0    0  501  502  0.00000000000E+00 -0.00000000000E+00 -0.62540893560E+03  0.62540893560E+03  0.00000000000E+00 0. -1.
        -13    1    1    2    0    0 -0.39567577184E+03  0.44230697757E+03  0.83819189423E+03  0.10270153074E+04  0.10566000000E+00 0.  1.
         13    1    1    2    0    0  0.39203462226E+03 -0.45823125896E+03  0.33346494789E+03  0.68910515480E+03  0.10566000000E+00 0. -1.
         -4    1    1    2    0  502  0.36411495806E+01  0.15924281395E+02 -0.35298823969E+03  0.35336601147E+03  0.00000000000E+00 0. -1.
</event>
<event>
 5    1  0.4881333E-005  0.1090740E+03  0.7818608E-02  0.1150357E+00
         21   -1    0    0  501  502  0.00000000000E+00  0.00000000000E+00  0.90561641825E+02  0.90561641825E+02  0.00000000000E+00 0. -1.
          4   -1    0    0  502    0 -0.00000000000E+00 -0.00000000000E+00 -0.30839183185E+03  0.30839183185E+03  0.00000000000E+00 0.  1.
        -13    1    1    2    0    0  0.95657346481E+02  0.50575570609E+02 -0.23582008703E+03  0.25945970956E+03  0.10566000000E+00 0.  1.
         13    1    1    2    0    0 -0.11047228329E+03 -0.34655259891E+02  0.20571776445E+02  0.11759388404E+03  0.10566000000E+00 0. -1.
          4    1    1    2  501    0  0.14814936805E+02 -0.15920310718E+02 -0.25818794477E+01  0.21899880077E+02  0.00000000000E+00 0.  1.
</event>
<event>
 5    1  0.4881333E-005  0.7166917E+02  0.7818608E-02  0.1222415E+00
         21   -1    0    0  501  502  0.00000000000E+00  0.00000000000E+00  0.75753947599E+03  0.75753947599E+03  0.00000000000E+00 0. -1.
         -4   -1    0    0    0  501 -0.00000000000E+00 -0.00000000000E+00 -0.23455572500E+02  0.23455572500E+02  0.00000000000E+00 0. -1.
        -13    1    1    2    0    0  0.67402980367E+02 -0.41782612500E+02  0.35238911996E+03  0.36120223075E+03  0.10566000000E+00 0.  1.
         13    1    1    2    0    0 -0.62092783187E+02  0.32968147458E+02  0.46164131237E+02  0.84104403259E+02  0.10566000000E+00 0. -1.
         -4    1    1    2    0  502 -0.53101971795E+01  0.88144650425E+01  0.33553065229E+03  0.33568841448E+03  0.00000000000E+00 0. -1.
</event>
<event>
 5    1  0.4881333E-005  0.1080631E+03  0.7818608E-02  0.1151863E+00
         -4   -1    0    0    0  501 -0.00000000000E+00  0.00000000000E+00  0.66656148745E+02  0.66656148745E+02  0.00000000000E+00 0. -1.
         21   -1    0    0  501  502  0.00000000000E+00 -0.00000000000E+00 -0.51332962964E+03  0.51332962964E+03  0.00000000000E+00 0. -1.
        -13    1    1    2    0    0  0.20184655380E+02 -0.69158076173E+02 -0.17466967869E+03  0.18894382136E+03  0.10566000000E+00 0.  1.
         13    1    1    2    0    0  0.53142363314E+01  0.12230422230E+03 -0.10379142764E+02  0.12285886890E+03  0.10566000000E+00 0. -1.
         -4    1    1    2    0  502 -0.25498891711E+02 -0.53146146124E+02 -0.26162465944E+03  0.26818308812E+03  0.00000000000E+00 0. -1.
</event>
<event>
 5    1  0.4881333E-005  0.4808696E+03  0.7818608E-02  0.9555295E-01
         -4   -1    0    0    0  501 -0.00000000000E+00  0.00000000000E+00  0.24379454379E+04  0.24379454379E+04  0.00000000000E+00 0. -1.
         21   -1    0    0  501  502  0.00000000000E+00 -0.00000000000E+00 -0.25343382405E+03  0.25343382405E+03  0.00000000000E+00 0.  1.
        -13    1    1    2    0    0 -0.37521502635E+02 -0.42316954159E+03  0.94056558204E+03  0.10320581134E+04  0.10566000000E+00 0.  1.
         13    1    1    2    0    0 -0.42439449512E+03  0.44990114972E+03  0.85272379170E+03  0.10534038201E+04  0.10566000000E+00 0. -1.
         -4    1    1    2    0  502  0.46191599775E+03 -0.26731608138E+02  0.39122224011E+03  0.60591732853E+03  0.00000000000E+00 0. -1.
</event>
<event>
 5    1  0.4881333E-005  0.4360145E+03  0.7818608E-02  0.9773430E-01
          4   -1    0    0  502    0 -0.00000000000E+00  0.00000000000E+00  0.12482337385E+04  0.12482337385E+04  0.00000000000E+00 0.  1.
         21   -1    0    0  501  502  0.00000000000E+00 -0.00000000000E+00 -0.37066960144E+03  0.37066960144E+03  0.00000000000E+00 0.  1.
        -13    1    1    2    0    0  0.48340158858E+03 -0.35843940138E+02 -0.76177332813E+02  0.49067798105E+03  0.10566000000E+00 0.  1.
         13    1    1    2    0    0 -0.20979764482E+03 -0.16193437760E+03  0.40967110892E+03  0.48792235353E+03  0.10566000000E+00 0. -1.
          4    1    1    2  501    0 -0.27360394377E+03  0.19777831774E+03  0.54407036090E+03  0.64030300532E+03  0.00000000000E+00 0.  1.
</event>
<event>
 5    1  0.4881333E-005  0.2044551E+03  0.7818608E-02  0.1057124E+00
          4   -1    0    0  502    0 -0.00000000000E+00  0.00000000000E+00  0.18390690800E+03  0.18390690800E+03  0.00000000000E+00 0.  1.
         21   -1    0    0  501  502  0.00000000000E+00 -0.00000000000E+00 -0.53631999696E+03  0.53631999696E+03  0.00000000000E+00 0. -1.
        -13    1    1    2    0    0  0.16749184524E+03 -0.98115962229E+02  0.50469958982E+02  0.20056791416E+03  0.10566000000E+00 0.  1.
         13    1    1    2    0    0 -0.23392953224E+03  0.86075508205E+02 -0.25246898004E+03  0.35478531003E+03  0.10566000000E+00 0. -1.
          4    1    1    2  501    0  0.66437686997E+02  0.12040454024E+02 -0.15041406790E+03  0.16487368077E+03  0.00000000000E+00 0.  1.
</event>
<event>
 5    1  0.4881333E-005  0.1469866E+03  0.7818608E-02  0.1104122E+00
         21   -1    0    0  501  502  0.00000000000E+00  0.00000000000E+00  0.77596578087E+03  0.77596578087E+03  0.00000000000E+00 0. -1.
          4   -1    0    0  502    0 -0.00000000000E+00 -0.00000000000E+00 -0.75326505499E+02  0.75326505499E+02  0.00000000000E+00 0.  1.
        -13    1    1    2    0    0 -0.45560124388E+02  0.11729409769E+03  0.80177895260E+02  0.14920501446E+03  0.10566000000E+00 0.  1.
         13    1    1    2    0    0  0.77042028305E+02 -0.17489216890E+03  0.20035677843E+03  0.27688552634E+03  0.10566000000E+00 0. -1.
          4    1    1    2  501    0 -0.31481903917E+02  0.57598071214E+02  0.42010460168E+03  0.42520174557E+03  0.00000000000E+00 0.  1.
</event>
<event>
 5    1  0.4881333E-005  0.3006608E+03  0.7818608E-02  0.1017318E+00
         21   -1    0    0  501  502  0.00000000000E+00  0.00000000000E+00  0.35794728938E+03  0.35794728938E+03  0.00000000000E+00 0.  1.
          4   -1    0    0  502    0 -0.00000000000E+00 -0.00000000000E+00 -0.15115583988E+04  0.15115583988E+04  0.00000000000E+00 0.  1.
        -13    1    1    2    0    0  0.20125181863E+03  0.19507807470E+03  0.17575074315E+03  0.33082636626E+03  0.10566000000E+00 0.  1.
         13    1    1    2    0    0  0.21054752568E+03  0.49723667885E+02 -0.78155198572E+03  0.81094156464E+03  0.10566000000E+00 0. -1.
          4    1    1    2  501    0 -0.41179934431E+03 -0.24480174258E+03 -0.54780986683E+03  0.72773775726E+03  0.00000000000E+00 0.  1.
</event>
<event>
 5    1  0.4881333E-005  0.4311054E+03  0.7818608E-02  0.1004382E+00
         -4   -1    0    0    0  501 -0.00000000000E+00  0.00000000000E+00  0.20845332499E+03  0.20845332499E+03  0.00000000000E+00 0. -1.
         21   -1    0    0  501  502  0.00000000000E+00 -0.00000000000E+00 -0.12922808087E+04  0.12922808087E+04  0.00000000000E+00 0. -1.
        -13    1    1    2    0    0  0.98010028707E+02  0.52403113779E+02 -0.83877061552E+01  0.11145589639E+03  0.10566000000E+00 0.  1.
         13    1    1    2    0    0 -0.70921400943E+02 -0.45230005177E+03 -0.72183168376E+03  0.85477843491E+03  0.10566000000E+00 0. -1.
         -4    1    1    2    0  502 -0.27088627764E+02  0.39989693800E+03 -0.35360809383E+03  0.53449980243E+03  0.00000000000E+00 0. -1.
</event>
<event>
 5    1  0.4881333E-005  0.1245387E+03  0.7818608E-02  0.1129339E+00
         21   -1    0    0  501  502  0.00000000000E+00  0.00000000000E+00  0.14945340039E+03  0.14945340039E+03  0.00000000000E+00 0. -1.
         -4   -1    0    0    0  501 -0.00000000000E+00 -0.00000000000E+00 -0.43429903491E+03  0.43429903491E+03  0.00000000000E+00 0. -1.
        -13    1    1    2    0    0  0.12448239390E+01 -0.11325276532E+03  0.87314494105E+02  0.14300898742E+03  0.10566000000E+00 0.  1.
         13    1    1    2    0    0 -0.25855715102E+02  0.12299226894E+03 -0.38938420131E+03  0.40916461677E+03  0.10566000000E+00 0. -1.
         -4    1    1    2    0  502  0.24610891163E+02 -0.97395036262E+01  0.17224072676E+02  0.31578831110E+02  0.00000000000E+00 0. -1.
</event>
<event>
 5    1  0.4881333E-005  0.1097195E+03  0.7818608E-02  0.1149404E+00
         21   -1    0    0  501  502  0.00000000000E+00  0.00000000000E+00  0.75555984646E+02  0.75555984646E+02  0.00000000000E+00 0.  1.
          4   -1    0    0  502    0 -0.00000000000E+00 -0.00000000000E+00 -0.77286878524E+03  0.77286878524E+03  0.00000000000E+00 0.  1.
        -13    1    1    2    0    0 -0.74417451707E+02 -0.10063747889E+03 -0.44737224701E+03  0.46455117892E+03  0.10566000000E+00 0.  1.
         13    1    1    2    0    0  0.79184105363E+02  0.57942930114E+02 -0.30132429497E+03  0.31689721929E+03  0.10566000000E+00 0. -1.
          4    1    1    2  501    0 -0.47666536552E+01  0.42694548781E+02  0.51383741391E+02  0.66976371670E+02  0.00000000000E+00 0.  1.
</event>
<event>
 5    1  0.4881333E-005  0.4358341E+03  0.7818608E-02  0.9630923E-01
          4   -1    0    0  502    0 -0.00000000000E+00  0.00000000000E+00  0.12767136772E+04  0.12767136772E+04  0.00000000000E+00 0.  1.
         21   -1    0    0  501  502  0.00000000000E+00 -0.00000000000E+00 -0.41394481808E+03  0.41394481808E+03  0.00000000000E+00 0. -1.
        -13    1    1    2    0    0  0.55467907782E+03 -0.16022129455E+03  0.14780859096E+02  0.57754500047E+03  0.10566000000E+00 0.  1.
         13    1    1    2    0    0 -0.38236848756E+03  0.17334703495E+02  0.20911456952E+03  0.43615945086E+03  0.10566000000E+00 0. -1.
          4    1    1    2  501    0 -0.17231059026E+03  0.14288659105E+03  0.63887343054E+03  0.67695404399E+03  0.00000000000E+00 0.  1.
</event>
<event>
 5    1  0.4881333E-005  0.4324599E+03  0.7818608E-02  0.9744183E-01
         21   -1    0    0  501  502  0.00000000000E+00  0.00000000000E+00  0.12348162557E+04  0.12348162557E+04  0.00000000000E+00 0. -1.
         -4   -1    0    0    0  501 -0.00000000000E+00 -0.00000000000E+00 -0.57251112289E+03  0.57251112289E+03  0.00000000000E+00 0. -1.
        -13    1    1    2    0    0  0.19326943314E+03  0.50496242952E+03  0.15259750172E+03  0.56180613890E+03  0.10566000000E+00 0.  1.
         13    1    1    2    0    0 -0.37725496213E+03 -0.19777005526E+02 -0.14976700112E+03  0.40637741348E+03  0.10566000000E+00 0. -1.
         -4    1    1    2    0  502  0.18398552900E+03 -0.48518542399E+03  0.65947463221E+03  0.83914382621E+03  0.00000000000E+00 0. -1.
</event>
<event>
 5    1  0.4881333E-005  0.4564135E+03  0.7818608E-02  0.9692463E-01
         -4   -1    0    0    0  501 -0.00000000000E+00  0.00000000000E+00  0.89221330832E+03  0.89221330832E+03  0.00000000000E+00 0. -1.
         21   -1    0    0  501  502  0.00000000000E+00 -0.00000000000E+00 -0.66799117991E+03  0.66799117991E+03  0.00000000000E+00 0. -1.
        -13    1    1    2    0    0  0.10085862963E+03  0.28864289096E+03 -0.27648753431E+03  0.41222875866E+03  0.10566000000E+00 0.  1.
         13    1    1    2    0    0  0.16265767250E+03  0.19378630608E+03  0.54054683913E+03  0.59682622874E+03  0.10566000000E+00 0. -1.
         -4    1    1    2    0  502 -0.26351630213E+03 -0.48242919704E+03 -0.39837176411E+02  0.55114950084E+03  0.00000000000E+00 0. -1.
</event>
<event>
 5    1  0.4881333E-005  0.3573441E+03  0.7818608E-02  0.1029256E+00
         21   -1    0    0  501  502  0.00000000000E+00  0.00000000000E+00  0.25710917650E+03  0.25710917650E+03  0.00000000000E+00 0. -1.
         -4   -1    0    0    0  501 -0.00000000000E+00 -0.00000000000E+00 -0.11879667380E+04  0.11879667380E+04  0.00000000000E+00 0. -1.
        -13    1    1    2    0    0  0.27497481439E+00 -0.88666052585E+02 -0.71305820255E+02  0.11378170177E+03  0.10566000000E+00 0.  1.
         13    1    1    2    0    0 -0.35713660522E+03 -0.37297806004E+00  0.40082061256E+02  0.35937901538E+03  0.10566000000E+00 0. -1.
         -4    1    1    2    0  502  0.35686163040E+03  0.89039030646E+02 -0.89963380249E+03  0.97191519733E+03  0.00000000000E+00 0. -1.
</event>
<event>
 5    1  0.4881333E-005  0.3365065E+03  0.7818608E-02  0.1008992E+00
         21   -1    0    0  501  502  0.00000000000E+00  0.00000000000E+00  0.12105176777E+03  0.12105176777E+03  0.00000000000E+00 0. -1.
         -4   -1    0    0    0  501 -0.00000000000E+00 -0.00000000000E+00 -0.32098292952E+04  0.32098292952E+04  0.00000000000E+00 0. -1.
        -13    1    1    2    0    0  0.19248161637E+03  0.58988571199E+02 -0.84773067696E+03  0.87130714217E+03  0.10566000000E+00 0.  1.
         13    1    1    2    0    0 -0.15970180422E+03 -0.38761377538E+03 -0.20179226417E+04  0.20610096807E+04  0.10566000000E+00 0. -1.
         -4    1    1    2    0  502 -0.32779812147E+02  0.32862520418E+03 -0.22312420878E+03  0.39856424006E+03  0.00000000000E+00 0. -1.
</event>
<event>
 5    1  0.4881333E-005  0.4898167E+03  0.7818608E-02  0.9594030E-01
         21   -1    0    0  501  502  0.00000000000E+00  0.00000000000E+00  0.34294659180E+03  0.34294659180E+03  0.00000000000E+00 0. -1.
         -4   -1    0    0    0  501 -0.00000000000E+00 -0.00000000000E+00 -0.16239640314E+04  0.16239640314E+04  0.00000000000E+00 0. -1.
        -13    1    1    2    0    0 -0.56675390008E+02  0.34535011194E+03 -0.61883614881E+03  0.71094091871E+03  0.10566000000E+00 0.  1.
         13    1    1    2    0    0  0.46563359242E+03  0.19969294978E+02 -0.50132083459E+03  0.68449689955E+03  0.10566000000E+00 0. -1.
         -4    1    1    2    0  502 -0.40895820241E+03 -0.36531940692E+03 -0.16086045615E+03  0.57147280490E+03  0.00000000000E+00 0. -1.
</event>
<event>
 5    1  0.4881333E-005  0.4267101E+03  0.7818608E-02  0.9805654E-01
         21   -1    0    0  501  502  0.00000000000E+00  0.00000000000E+00  0.32827260024E+03  0.32827260024E+03  0.00000000000E+00 0.  1.
          4   -1    0    0  502    0 -0.00000000000E+00 -0.00000000000E+00 -0.11253149110E+04  0.11253149110E+04  0.00000000000E+00 0.  1.
        -13    1    1    2    0    0 -0.59228481712E+03 -0.42733218283E+02 -0.35578207148E+03  0.69224874582E+03  0.10566000000E+00 0.  1.
         13    1    1    2    0    0  0.24853859837E+03  0.48510131502E+02 -0.29209111438E+03  0.38657715659E+03  0.10566000000E+00 0. -1.
          4    1    1    2  501    0  0.34374621875E+03 -0.57769132189E+01 -0.14916912492E+03  0.37476160884E+03  0.00000000000E+00 0.  1.
</event>
<event>
 5    1  0.4881333E-005  0.8037833E+02  0.7818608E-02  0.1238403E+00
          4   -1    0    0  502    0 -0.00000000000E+00  0.00000000000E+00  0.17711588372E+03  0.17711588372E+03  0.00000000000E+00 0.  1.
         21   -1    0    0  501  502  0.00000000000E+00 -0.00000000000E+00 -0.11196381006E+04  0.11196381006E+04  0.00000000000E+00 0.  1.
        -13    1    1    2    0    0 -0.27959744178E+02 -0.42212144622E+02  0.11893239395E+03  0.12926150990E+03  0.10566000000E+00 0.  1.
         13    1    1    2    0    0 -0.89095800217E+01  0.15662174079E+03 -0.75250135253E+02  0.17398949486E+03  0.10566000000E+00 0. -1.
          4    1    1    2  501    0  0.36869324200E+02 -0.11440959616E+03 -0.98620447558E+03  0.99350297957E+03  0.00000000000E+00 0.  1.
</event>
<event>
 5    1  0.4881333E-005  0.2687363E+03  0.7818608E-02  0.1021116E+00
         21   -1    0    0  501  502  0.00000000000E+00  0.00000000000E+00  0.37127787905E+03  0.37127787905E+03  0.00000000000E+00 0. -1.
          4   -1    0    0  502    0 -0.00000000000E+00 -0.00000000000E+00 -0.63517345335E+03  0.63517345335E+03  0.00000000000E+00 0.  1.
        -13    1    1    2    0    0  0.26192495847E+03  0.52814030056E+02 -0.52280192604E+03  0.58712508946E+03  0.10566000000E+00 0.  1.
         13    1    1    2    0    0 -0.27583569845E+03 -0.51425708186E+02  0.16734154402E+03  0.32670038188E+03  0.10566000000E+00 0. -1.
          4    1    1    2  501    0  0.13910739983E+02 -0.13883218709E+01  0.91564807718E+02  0.92625861059E+02  0.00000000000E+00 0.  1.
</event>
<event>
 5    1  0.4881333E-005  0.3933214E+02  0.7818608E-02  0.1342572E+00
         21   -1    0    0  501  502  0.00000000000E+00  0.00000000000E+00  0.13703730496E+02  0.13703730496E+02  0.00000000000E+00 0.  1.
         -4   -1    0    0    0  501 -0.00000000000E+00 -0.00000000000E+00 -0.32846618044E+03  0.32846618044E+03  0.00000000000E+00 0. -1.
        -13    1    1    2    0    0 -0.24598869530E+02  0.21159949707E+02 -0.65139200423E+02  0.72773446047E+02  0.10566000000E+00 0.  1.
         13    1    1    2    0    0  0.36294688885E+02 -0.22469769395E+02 -0.25345103910E+03  0.25702069053E+03  0.10566000000E+00 0. -1.
         -4    1    1    2    0  502 -0.11695819355E+02  0.13098196883E+01  0.38277895728E+01  0.12375774360E+02  0.00000000000E+00 0. -1.
</event>
<event>
 5    1  0.4881333E-005  0.4417326E+03  0.7818608E-02  0.9692212E-01
         -4   -1    0    0    0  501 -0.00000000000E+00  0.00000000000E+00  0.30062107021E+04  0.30062107021E+04  0.00000000000E+00 0. -1.
         21   -1    0    0  501  502  0.00000000000E+00 -0.00000000000E+00 -0.17814900913E+03  0.17814900913E+03  0.00000000000E+00 0. -1.
        -13    1    1    2    0    0 -0.33502440596E+03  0.41316162687E+02  0.12246611812E+04  0.12703320030E+04  0.10566000000E+00 0.  1.
         13    1    1    2    0    0  0.25256712373E+01  0.34065952280E+03  0.12522834898E+04  0.12977939896E+04  0.10566000000E+00 0. -1.
         -4    1    1    2    0  502  0.33249873472E+03 -0.38197568548E+03  0.35111702202E+03  0.61623371868E+03  0.00000000000E+00 0. -1.
</event>
<event>
 5    1  0.4881333E-005  0.5554021E+03  0.7818608E-02  0.9364162E-01
         21   -1    0    0  501  502  0.00000000000E+00  0.00000000000E+00  0.10681727372E+04  0.10681727372E+04  0.00000000000E+00 0.  1.
          4   -1    0    0  502    0 -0.00000000000E+00 -0.00000000000E+00 -0.59257967637E+03  0.59257967637E+03  0.00000000000E+00 0.  1.
        -13    1    1    2    0    0  0.34730207614E+03  0.51150811926E+03 -0.37690389130E+02  0.61941897351E+03  0.10566000000E+00 0.  1.
         13    1    1    2    0    0 -0.48796935656E+03 -0.20574030542E+03  0.15959426462E+03  0.55309448260E+03  0.10566000000E+00 0. -1.
          4    1    1    2  501    0  0.14066728042E+03 -0.30576781383E+03  0.35368918534E+03  0.48823895746E+03  0.00000000000E+00 0.  1.
</event>
<event>
 5    1  0.4881333E-005  0.2244129E+03  0.7818608E-02  0.1047696E+00
          4   -1    0    0  502    0 -0.00000000000E+00  0.00000000000E+00  0.67799248128E+03  0.67799248128E+03  0.00000000000E+00 0.  1.
         21   -1    0    0  501  502  0.00000000000E+00 -0.00000000000E+00 -0.10319415719E+04  0.10319415719E+04  0.00000000000E+00 0.  1.
        -13    1    1    2    0    0  0.17122065215E+03  0.14696157579E+03  0.20521951839E+03  0.30500701364E+03  0.10566000000E+00 0.  1.
         13    1    1    2    0    0  0.35659006405E+02 -0.23392119787E+03  0.37542224295E+03  0.44377084539E+03  0.10566000000E+00 0. -1.
          4    1    1    2  501    0 -0.20687965855E+03  0.86959622089E+02 -0.93459085200E+03  0.96115619420E+03  0.00000000000E+00 0.  1.
</event>
<event>
 5    1  0.4881333E-005  0.4983262E+03  0.7818608E-02  0.9526637E-01
         -4   -1    0    0    0  501 -0.00000000000E+00  0.00000000000E+00  0.19604353477E+04  0.19604353477E+04  0.00000000000E+00 0. -1.
         21   -1    0    0  501  502  0.00000000000E+00 -0.00000000000E+00 -0.83581335854E+03  0.83581335854E+03  0.00000000000E+00 0. -1.
        -13    1    1    2    0    0 -0.31848687737E+03 -0.27874577157E+03  0.15657494465E+04  0.16219446466E+04  0.10566000000E+00 0.  1.
         13    1    1    2    0    0 -0.32005134724E+03  0.19534373985E+03  0.30368917809E+02  0.37618389639E+03  0.10566000000E+00 0. -1.
         -4    1    1    2    0  502  0.63853822461E+03  0.83402031727E+02 -0.47149637517E+03  0.79812016325E+03  0.00000000000E+00 0. -1.
</event>
<event>
 5    1  0.4881333E-005  0.4740242E+03  0.7818608E-02  0.1000996E+00
         21   -1    0    0  501  502  0.00000000000E+00  0.00000000000E+00  0.25327805128E+03  0.25327805128E+03  0.00000000000E+00 0. -1.
         -4   -1    0    0    0  501 -0.00000000000E+00 -0.00000000000E+00 -0.11602543232E+04  0.11602543232E+04  0.00000000000E+00 0. -1.
        -13    1    1    2    0    0  0.23914779255E+02 -0.90241775265E+02 -0.13139612125E+03  0.16118451077E+03  0.10566000000E+00 0.  1.
         13    1    1    2    0    0 -0.27669811901E+03 -0.35729423821E+03 -0.24674372697E+03  0.51488202501E+03  0.10566000000E+00 0. -1.
         -4    1    1    2    0  502  0.25278333975E+03  0.44753601347E+03 -0.52883642373E+03  0.73746583871E+03  0.00000000000E+00 0. -1.
</event>
<event>
 5    1  0.4881333E-005  0.5894745E+02  0.7818608E-02  0.1259115E+00
         -4   -1    0    0    0  501 -0.00000000000E+00  0.00000000000E+00  0.13923361648E+03  0.13923361648E+03  0.00000000000E+00 0. -1.
         21   -1    0    0  501  502  0.00000000000E+00 -0.00000000000E+00 -0.22043428711E+03  0.22043428711E+03  0.00000000000E+00 0.  1.
        -13    1    1    2    0    0  0.47256932904E+02  0.35470068009E+02 -0.13274893813E+03  0.14530531707E+03  0.10566000000E+00 0.  1.
         13    1    1    2    0    0 -0.53965733637E+02 -0.23870810319E+02  0.12577834326E+03  0.13893278515E+03  0.10566000000E+00 0. -1.
         -4    1    1    2    0  502  0.67088007332E+01 -0.11599257690E+02 -0.74230075767E+02  0.75429801369E+02  0.00000000000E+00 0. -1.
</event>
<event>
 5    1  0.4881333E-005  0.4231524E+03  0.7818608E-02  0.1007398E+00
          4   -1    0    0  502    0 -0.00000000000E+00  0.00000000000E+00  0.15755867524E+04  0.15755867524E+04  0.00000000000E+00 0.  1.
         21   -1    0    0  501  502  0.00000000000E+00 -0.00000000000E+00 -0.26487669350E+03  0.26487669350E+03  0.00000000000E+00 0.  1.
        -13    1    1    2    0    0  0.33595582374E+03 -0.21443479504E+03  0.50728811119E+02  0.40177359329E+03  0.10566000000E+00 0.  1.
         13    1    1    2    0    0  0.90624636117E+02 -0.56102642167E+02  0.59038262381E+03  0.59992664951E+03  0.10566000000E+00 0. -1.
          4    1    1    2  501    0 -0.42658045985E+03  0.27053743721E+03  0.66959862399E+03  0.83876320312E+03  0.00000000000E+00 0.  1.
</event>
<event>
 5    1  0.4881333E-005  0.8114267E+02  0.7818608E-02  0.1200193E+00
          4   -1    0    0  502    0 -0.00000000000E+00  0.00000000000E+00  0.16027685663E+03  0.16027685663E+03  0.00000000000E+00 0.  1.
         21   -1    0    0  501  502  0.00000000000E+00 -0.00000000000E+00 -0.20789943181E+03  0.20789943181E+03  0.00000000000E+00 0.  1.
        -13    1    1    2    0    0  0.43073834504E+02  0.68347320069E+02  0.12919816041E+03  0.15237744976E+03  0.10566000000E+00 0.  1.
         13    1    1    2    0    0 -0.53654994645E+02 -0.65376712447E+02 -0.73959343487E+02  0.11235198545E+03  0.10566000000E+00 0. -1.
          4    1    1    2  501    0  0.10581160142E+02 -0.29706076225E+01 -0.10286139210E+03  0.10344685324E+03  0.00000000000E+00 0.  1.
</event>
<event>
 5    1  0.4881333E-005  0.1461734E+03  0.7818608E-02  0.1104948E+00
         21   -1    0    0  501  502  0.00000000000E+00  0.00000000000E+00  0.44449994843E+02  0.44449994843E+02  0.00000000000E+00 0. -1.
          4   -1    0    0  502    0 -0.00000000000E+00 -0.00000000000E+00 -0.71745942294E+03  0.71745942294E+03  0.00000000000E+00 0.  1.
        -13    1    1    2    0    0  0.14278765582E+03  0.47051833983E+02 -0.41796416352E+03  0.44418041704E+03  0.10566000000E+00 0.  1.
         13    1    1    2    0    0 -0.13558284504E+03 -0.37681304270E+02 -0.26643510740E+03  0.30131423163E+03  0.10566000000E+00 0. -1.
          4    1    1    2  501    0 -0.72048107814E+01 -0.93705297131E+01  0.11389842824E+02  0.16414769114E+02  0.00000000000E+00 0.  1.
</event>
<event>
 5    1  0.4881333E-005  0.4522349E+03  0.7818608E-02  0.9799883E-01
         21   -1    0    0  501  502  0.00000000000E+00  0.00000000000E+00  0.17756293891E+03  0.17756293891E+03  0.00000000000E+00 0.  1.
          4   -1    0    0  502    0 -0.00000000000E+00 -0.00000000000E+00 -0.21713449130E+04  0.21713449130E+04  0.00000000000E+00 0.  1.
        -13    1    1    2    0    0 -0.28887550758E+03 -0.17559889702E+03 -0.10213782355E+04  0.10758705975E+04  0.10566000000E+00 0.  1.
         13    1    1    2    0    0 -0.20956259245E+03  0.56154364006E+02 -0.60411675797E+03  0.64189318518E+03  0.10566000000E+00 0. -1.
          4    1    1    2  501    0  0.49843810003E+03  0.11944453302E+03 -0.36828698067E+03  0.63114406926E+03  0.00000000000E+00 0.  1.
</event>
<event>
 5    1  0.4881333E-005  0.3467351E+02  0.7818608E-02  0.1370887E+00
         -4   -1    0    0    0  501 -0.00000000000E+00  0.00000000000E+00  0.31697323339E+02  0.31697323339E+02  0.00000000000E+00 0. -1.
         21   -1    0    0  501  502  0.00000000000E+00 -0.00000000000E+00 -0.66493559943E+03  0.66493559943E+03  0.00000000000E+00 0. -1.
        -13    1    1    2    0    0 -0.51260621097E+01  0.36927553249E+02 -0.21008504717E+03  0.21336742702E+03  0.10566000000E+00 0.  1.
         13    1    1    2    0    0  0.28602494071E+02 -0.20337833072E+02  0.19182697987E+02  0.39996464684E+02  0.10566000000E+00 0. -1.
         -4    1    1    2    0  502 -0.23476431962E+02 -0.16589720177E+02 -0.44233592691E+03  0.44326903107E+03  0.00000000000E+00 0. -1.
</event>
<event>
 5    1  0.4881333E-005  0.5067446E+03  0.7818608E-02  0.9587723E-01
         21   -1    0    0  501  502  0.00000000000E+00  0.00000000000E+00  0.31439798677E+03  0.31439798677E+03  0.00000000000E+00 0.  1.
          4   -1    0    0  502    0 -0.00000000000E+00 -0.00000000000E+00 -0.23638552616E+04  0.23638552616E+04  0.00000000000E+00 0.  1.
        -13    1    1    2    0    0 -0.37135433936E+03  0.44126857550E+02 -0.39471662655E+03  0.54373932298E+03  0.10566000000E+00 0.  1.
         13    1    1    2    0    0 -0.27262562440E+03 -0.17366619883E+03 -0.13886693458E+04  0.14257935485E+04  0.10566000000E+00 0. -1.
          4    1    1    2  501    0  0.64397996376E+03  0.12953934128E+03 -0.26607130248E+03  0.70872037692E+03  0.00000000000E+00 0.  1.
</event>
<event>
 5    1  0.4881333E-005  0.4938822E+03  0.7818608E-02  0.9514535E-01
         21   -1    0    0  501  502  0.00000000000E+00  0.00000000000E+00  0.21730425586E+03  0.21730425586E+03  0.00000000000E+00 0.  1.
         -4   -1    0    0    0  501 -0.00000000000E+00 -0.00000000000E+00 -0.28121564805E+04  0.28121564805E+04  0.00000000000E+00 0. -1.
        -13    1    1    2    0    0 -0.43838812260E+03 -0.11889746233E+03 -0.72965762911E+03  0.85948881288E+03  0.10566000000E+00 0.  1.
         13    1    1    2    0    0 -0.87609885898E+01 -0.33771046454E+03 -0.12036070580E+04  0.12501180241E+04  0.10566000000E+00 0. -1.
         -4    1    1    2    0  502  0.44714911119E+03  0.45660792687E+03 -0.66158753752E+03  0.91985389945E+03  0.00000000000E+00 0. -1.
</event>
<event>
 5    1  0.4881333E-005  0.2111922E+03  0.7818608E-02  0.1052723E+00
          4   -1    0    0  502    0 -0.00000000000E+00  0.00000000000E+00  0.81299790964E+03  0.81299790964E+03  0.00000000000E+00 0.  1.
         21   -1    0    0  501  502  0.00000000000E+00 -0.00000000000E+00 -0.25872004748E+03  0.25872004748E+03  0.00000000000E+00 0.  1.
        -13    1    1    2    0    0  0.16047036725E+03  0.15229548392E+03  0.66217308514E+03  0.69815317735E+03  0.10566000000E+00 0.  1.
         13    1    1    2    0    0 -0.99706348968E+02 -0.14932315167E+03  0.64472528130E+02  0.19077598826E+03  0.10566000000E+00 0. -1.
          4    1    1    2  501    0 -0.60764018281E+02 -0.29723322438E+01 -0.17236775112E+03  0.18278879151E+03  0.00000000000E+00 0.  1.
</event>
<event>
 5    1  0.4881333E-005  0.4926705E+03  0.7818608E-02  0.9669191E-01
         21   -1    0    0  501  502  0.00000000000E+00  0.00000000000E+00  0.13659442088E+03  0.13659442088E+03  0.00000000000E+00 0. -1.
         -4   -1    0    0    0  501 -0.00000000000E+00 -0.00000000000E+00 -0.31347405590E+04  0.31347405590E+04  0.00000000000E+00 0. -1.
        -13    1    1    2    0    0 -0.24470125968E+03  0.98297169382E+02 -0.72715393364E+03  0.77349459880E+03  0.10566000000E+00 0.  1.
         13    1    1    2    0    0 -0.39495424776E+03 -0.49043330501E+02 -0.90957790957E+03  0.99283739395E+03  0.10566000000E+00 0. -1.
         -4    1    1    2    0  502  0.63965550744E+03 -0.49253838881E+02 -0.13614142949E+04  0.15050029871E+04  0.00000000000E+00 0. -1.
</event>
<event>
 5    1  0.4881333E-005  0.5075561E+03  0.7818608E-02  0.9461563E-01
          4   -1    0    0  502    0 -0.00000000000E+00  0.00000000000E+00  0.24594056018E+04  0.24594056018E+04  0.00000000000E+00 0.  1.
         21   -1    0    0  501  502  0.00000000000E+00 -0.00000000000E+00 -0.34217655142E+03  0.34217655142E+03  0.00000000000E+00 0.  1.
        -13    1    1    2    0    0 -0.47516476501E+03  0.41507388351E+03  0.69281697443E+03  0.93705029422E+03  0.10566000000E+00 0.  1.
         13    1    1    2    0    0  0.49329996007E+03 -0.41022067888E+02  0.14048758881E+04  0.14895314474E+04  0.10566000000E+00 0. -1.
          4    1    1    2  501    0 -0.18135195061E+02 -0.37405181563E+03  0.19536187865E+02  0.37500041161E+03  0.00000000000E+00 0.  1.
</event>
<event>
 5    1  0.4881333E-005  0.4022916E+03  0.7818608E-02  0.9912879E-01
          4   -1    0    0  502    0 -0.00000000000E+00  0.00000000000E+00  0.17304471732E+04  0.17304471732E+04  0.00000000000E+00 0.  1.
         21   -1    0    0  501  502  0.00000000000E+00 -0.00000000000E+00 -0.27382208740E+03  0.27382208740E+03  0.00000000000E+00 0.  1.
        -13    1    1    2    0    0  0.24355545040E+03  0.52448910339E+02  0.72662139390E+03  0.76814634468E+03  0.10566000000E+00 0.  1.
         13    1    1    2    0    0  0.16200559112E+03  0.13436661185E+03  0.75999064319E+03  0.78859748087E+03  0.10566000000E+00 0. -1.
          4    1    1    2  501    0 -0.40556104152E+03 -0.18681552219E+03 -0.29986951319E+02  0.44752543501E+03  0.00000000000E+00 0.  1.
</event>
<event>
 5    1  0.4881333E-005  0.1164295E+03  0.7818608E-02  0.1139913E+00
          4   -1    0    0  502    0 -0.00000000000E+00  0.00000000000E+00  0.53961002448E+03  0.53961002448E+03  0.00000000000E+00 0.  1.
         21   -1    0    0  501  502  0.00000000000E+00 -0.00000000000E+00 -0.31929469373E+02  0.31929469373E+02  0.00000000000E+00 0.  1.
        -13    1    1    2    0    0  0.11212601036E+03  0.37593009330E+02  0.23237961750E+03  0.26074081833E+03  0.10566000000E+00 0.  1.
         13    1    1    2    0    0 -0.11552796555E+03 -0.11731042061E+02  0.24267612320E+03  0.26902795414E+03  0.10566000000E+00 0. -1.
          4    1    1    2  501    0  0.34019551931E+01 -0.25861967268E+02  0.32624814404E+02  0.41770721385E+02  0.00000000000E+00 0.  1.
</event>
<event>
 5    1  0.4881333E-005  0.4934092E+03  0.7818608E-02  0.9819918E-01
         21   -1    0    0  501  502  0.00000000000E+00  0.00000000000E+00  0.11176153439E+03  0.11176153439E+03  0.00000000000E+00 0. -1.
         -4   -1    0    0    0  501 -0.00000000000E+00 -0.00000000000E+00 -0.32975529961E+04  0.32975529961E+04  0.00000000000E+00 0. -1.
        -13    1    1    2    0    0 -0.18786323874E+02 -0.15489006601E+03 -0.90815911909E+03  0.92146451655E+03  0.10566000000E+00 0.  1.
         13    1    1    2    0    0 -0.32417836941E+02  0.56440473246E+03 -0.10472938718E+04  0.11901378421E+04  0.10566000000E+00 0. -1.
         -4    1    1    2    0  502  0.51204160815E+02 -0.40951466644E+03 -0.12303384709E+04  0.12977121719E+04  0.00000000000E+00 0. -1.
</event>
<event>
 5    1  0.4881333E-005  0.1248356E+03  0.7818608E-02  0.1128968E+00
         21   -1    0    0  501  502  0.00000000000E+00  0.00000000000E+00  0.20892090646E+02  0.20892090646E+02  0.00000000000E+00 0.  1.
         -4   -1    0    0    0  501 -0.00000000000E+00 -0.00000000000E+00 -0.10615986996E+04  0.10615986996E+04  0.00000000000E+00 0. -1.
        -13    1    1    2    0    0  0.81752832742E+02  0.77864098643E+02 -0.45620535895E+03  0.46996774806E+03  0.10566000000E+00 0.  1.
         13    1    1    2    0    0 -0.11990157186E+03 -0.80639189584E+02 -0.47792447925E+03  0.49929038130E+03  0.10566000000E+00 0. -1.
         -4    1    1    2    0  502  0.38148739118E+02  0.27750909411E+01 -0.10657677076E+03  0.11323266089E+03  0.00000000000E+00 0. -1.
</event>
<event>
 5    1  0.4881333E-005  0.4779190E+03  0.7818608E-02  0.9653660E-01
         21   -1    0    0  501  502  0.00000000000E+00  0.00000000000E+00  0.18046623553E+03  0.18046623553E+03  0.00000000000E+00 0.  1.
          4   -1    0    0  502    0 -0.00000000000E+00 -0.00000000000E+00 -0.31278636425E+04  0.31278636425E+04  0.00000000000E+00 0.  1.
        -13    1    1    2    0    0  0.27044758401E+03  0.37098624727E+03 -0.57299742731E+03  0.73423344668E+03  0.10566000000E+00 0.  1.
         13    1    1    2    0    0 -0.24469474359E+03  0.18219874406E+03 -0.15580427010E+04  0.15876299849E+04  0.10566000000E+00 0. -1.
          4    1    1    2  501    0 -0.25752840426E+02 -0.55318499132E+03 -0.81635727868E+03  0.98646644640E+03  0.00000000000E+00 0.  1.
</event>
<event>
 5    1  0.4881333E-005  0.1175368E+03  0.7818608E-02  0.1138414E+00
         -4   -1    0    0    0  501 -0.00000000000E+00  0.00000000000E+00  0.26025218846E+03  0.26025218846E+03  0.00000000000E+00 0. -1.
         21   -1    0    0  501  502  0.00000000000E+00 -0.00000000000E+00 -0.17724094923E+03  0.17724094923E+03  0.00000000000E+00 0.  1.
        -13    1    1    2    0    0 -0.92589482282E+02 -0.35738678965E+02 -0.13831501619E+03  0.17023842184E+03  0.10566000000E+00 0.  1.
         13    1    1    2    0    0  0.11201296373E+03  0.41252924768E+02  0.21531216931E+03  0.24618702091E+03  0.10566000000E+00 0. -1.
         -4    1    1    2    0  502 -0.19423481447E+02 -0.55142458026E+01  0.60140861073E+01  0.21067694938E+02  0.00000000000E+00 0. -1.
</event>
<event>
 5    1  0.4881333E-005  0.4139357E+03  0.7818608E-02  0.9689639E-01
          4   -1    0    0  502    0 -0.00000000000E+00  0.00000000000E+00  0.22460691237E+04  0.22460691237E+04  0.00000000000E+00 0.  1.
         21   -1    0    0  501  502  0.00000000000E+00 -0.00000000000E+00 -0.32193597335E+03  0.32193597335E+03  0.00000000000E+00 0.  1.
        -13    1    1    2    0    0 -0.51679761366E+03  0.10801983538E+03 -0.20591804145E+01  0.52796998940E+03  0.10566000000E+00 0.  1.
         13    1    1    2    0    0  0.30559362336E+03 -0.26841616535E+03  0.11593582464E+04  0.12286359327E+04  0.10566000000E+00 0. -1.
          4    1    1    2  501    0  0.21120399029E+03  0.16039632997E+03  0.76683408434E+03  0.81139917494E+03  0.00000000000E+00 0.  1.
</event>
<event>
 5    1  0.4881333E-005  0.6108346E+02  0.7818608E-02  0.1275359E+00
          4   -1    0    0  502    0 -0.00000000000E+00  0.00000000000E+00  0.67507347510E+02  0.67507347510E+02  0.00000000000E+00 0.  1.
         21   -1    0    0  501  502  0.00000000000E+00 -0.00000000000E+00 -0.15192387347E+03  0.15192387347E+03  0.00000000000E+00 0. -1.
        -13    1    1    2    0    0  0.77328829461E+02 -0.34446205272E+02 -0.18638577549E+01  0.84674518323E+02  0.10566000000E+00 0.  1.
         13    1    1    2    0    0 -0.37687801682E+02  0.50726785482E+01 -0.76003515578E+02  0.84986163625E+02  0.10566000000E+00 0. -1.
          4    1    1    2  501    0 -0.39641027779E+02  0.29373526724E+02 -0.65491526291E+01  0.49770539034E+02  0.00000000000E+00 0.  1.
</event>
<event>
 5    1  0.4881333E-005  0.5035029E+03  0.7818608E-02  0.9820422E-01
          4   -1    0    0  502    0 -0.00000000000E+00  0.00000000000E+00  0.40689972741E+03  0.40689972741E+03  0.00000000000E+00 0.  1.
         21   -1    0    0  501  502  0.00000000000E+00 -0.00000000000E+00 -0.83651348457E+03  0.83651348457E+03  0.00000000000E+00 0.  1.
        -13    1    1    2    0    0  0.41233305353E+03  0.13620751828E+03 -0.63796663950E+02  0.43890894336E+03  0.10566000000E+00 0.  1.
         13    1    1    2    0    0  0.97783477917E+02  0.10919376784E+03 -0.42550055119E+02  0.15262832582E+03  0.10566000000E+00 0. -1.
          4    1    1    2  501    0 -0.51011653145E+03 -0.24540128611E+03 -0.32326703809E+03  0.65187594280E+03  0.00000000000E+00 0.  1.
</event>
<event>
 5    1  0.4881333E-005  0.1746470E+02  0.7818608E-02  0.1583267E+00
         21   -1    0    0  501  502  0.00000000000E+00  0.00000000000E+00  0.70314162544E+02  0.70314162544E+02  0.00000000000E+00 0. -1.
         -4   -1    0    0    0  501 -0.00000000000E+00 -0.00000000000E+00 -0.98671680500E+01  0.98671680500E+01  0.00000000000E+00 0. -1.
        -13    1    1    2    0    0  0.10457555672E+02  0.33282714609E+01  0.87211266973E+01  0.14018098176E+02  0.10566000000E+00 0.  1.
         13    1    1    2    0    0 -0.14327608412E+02  0.12188068224E+02  0.45077001881E+02  0.48844412500E+02  0.10566000000E+00 0. -1.
         -4    1    1    2    0  502  0.38700527394E+01 -0.15516339685E+02  0.66488659161E+01  0.17318819919E+02  0.00000000000E+00 0. -1.
</event>
<event>
 5    1  0.4881333E-005  0.1958391E+03  0.7818608E-02  0.1063026E+00
         -4   -1    0    0    0  501 -0.00000000000E+00  0.00000000000E+00  0.56607922621E+03  0.56607922621E+03  0.00000000000E+00 0. -1.
         21   -1    0    0  501  502  0.00000000000E+00 -0.00000000000E+00 -0.28847993042E+03  0.28847993042E+03  0.00000000000E+00 0. -1.
        -13    1    1    2    0    0 -0.67751327623E+02 -0.14816224900E+03  0.91665408386E+02  0.18693542383E+03  0.10566000000E+00 0.  1.
         13    1    1    2    0    0  0.80318344143E+02  0.19912346834E+03  0.39634398692E+03  0.45076574757E+03  0.10566000000E+00 0. -1.
         -4    1    1    2    0  502 -0.12567016520E+02 -0.50961219343E+02 -0.21041009952E+03  0.21685798523E+03  0.00000000000E+00 0. -1.
</event>
<event>
 5    1  0.4881333E-005  0.3242369E+03  0.7818608E-02  0.9977747E-01
          4   -1    0    0  502    0 -0.00000000000E+00  0.00000000000E+00  0.22682366419E+04  0.22682366419E+04  0.00000000000E+00 0.  1.
         21   -1    0    0  501  502  0.00000000000E+00 -0.00000000000E+00 -0.12330178860E+03  0.12330178860E+03  0.00000000000E+00 0. -1.
        -13    1    1    2    0    0 -0.24487685189E+03  0.22262716827E+03  0.18984551478E+04  0.19270857501E+04  0.10566000000E+00 0.  1.
         13    1    1    2    0    0  0.23406619294E+03 -0.18021416918E+03  0.28176273701E+03  0.40823324287E+03  0.10566000000E+00 0. -1.
          4    1    1    2  501    0  0.10810658943E+02 -0.42412999096E+02 -0.35283031575E+02  0.56219437531E+02  0.00000000000E+00 0.  1.
</event>
<event>
 5    1  0.4881333E-005  0.2497063E+02  0.7818608E-02  0.1489569E+00
          4   -1    0    0  502    0 -0.00000000000E+00  0.00000000000E+00  0.31646323631E+01  0.31646323631E+01  0.00000000000E+00 0.  1.
         21   -1    0    0  501  502  0.00000000000E+00 -0.00000000000E+00 -0.40492400005E+03  0.40492400005E+03  0.00000000000E+00 0.  1.
        -13    1    1    2    0    0 -0.28636891114E+02  0.78737605067E+01 -0.14229220416E+03  0.14535869484E+03  0.10566000000E+00 0.  1.
         13    1    1    2    0    0  0.53021079638E+01 -0.12752403181E+02 -0.48752765800E+02  0.50671288447E+02  0.10566000000E+00 0. -1.
          4    1    1    2  501    0  0.23334783150E+02  0.48786426747E+01 -0.21071439772E+03  0.21205864912E+03  0.00000000000E+00 0.  1.
</event>
<event>
 5    1  0.4881333E-005  0.6088537E+03  0.7818608E-02  0.9266853E-01
          4   -1    0    0  502    0 -0.00000000000E+00  0.00000000000E+00  0.14118635314E+04  0.14118635314E+04  0.00000000000E+00 0.  1.
         21   -1    0    0  501  502  0.00000000000E+00 -0.00000000000E+00 -0.69576863292E+03  0.69576863292E+03  0.00000000000E+00 0.  1.
        -13    1    1    2    0    0 -0.23940488263E+03 -0.53050025641E+03  0.48188672447E+03  0.75561898220E+03  0.10566000000E+00 0.  1.
         13    1    1    2    0    0  0.36791061220E+03  0.52338186912E+03  0.65283658294E+03  0.91404727158E+03  0.10566000000E+00 0. -1.
          4    1    1    2  501    0 -0.12850572957E+03  0.71183872942E+01 -0.41862840896E+03  0.43796591050E+03  0.00000000000E+00 0.  1.
</event>
<event>
 5    1  0.4881333E-005  0.9444877E+02  0.7818608E-02  0.1174082E+00
          4   -1    0    0  502    0 -0.00000000000E+00  0.00000000000E+00  0.69399277599E+02  0.69399277599E+02  0.00000000000E+00 0.  1.
         21   -1    0    0  501  502  0.00000000000E+00 -0.00000000000E+00 -0.29648282031E+03  0.29648282031E+03  0.00000000000E+00 0. -1.
        -13    1    1    2    0    0  0.83821753610E+02  0.45435482362E+02 -0.12374789580E+03  0.15621786810E+03  0.10566000000E+00 0.  1.
         13    1    1    2    0    0 -0.87724434850E+02 -0.34699685602E+02  0.10803781696E+02  0.94954607648E+02  0.10566000000E+00 0. -1.
          4    1    1    2  501    0  0.39026812394E+01 -0.10735796760E+02 -0.11413942861E+03  0.11470962216E+03  0.00000000000E+00 0.  1.
</event>
<event>
 5    1  0.4881333E-005  0.4746954E+03  0.7818608E-02  0.9781364E-01
         -4   -1    0    0    0  501 -0.00000000000E+00  0.00000000000E+00  0.46546695101E+03  0.46546695101E+03  0.00000000000E+00 0. -1.
         21   -1    0    0  501  502  0.00000000000E+00 -0.00000000000E+00 -0.89733837838E+03  0.89733837838E+03  0.00000000000E+00 0. -1.
        -13    1    1    2    0    0 -0.18779643706E+03  0.68385123709E+02  0.95639037419E+02  0.22156458101E+03  0.10566000000E+00 0.  1.
         13    1    1    2    0    0  0.77403993949E+02 -0.51679039439E+03 -0.14689867757E+03  0.54281020868E+03  0.10566000000E+00 0. -1.
         -4    1    1    2    0  502  0.11039244311E+03  0.44840527068E+03 -0.38061178723E+03  0.59843053970E+03  0.00000000000E+00 0. -1.
</event>
<event>
 5    1  0.4881333E-005  0.8333026E+02  0.7818608E-02  0.1272904E+00
          4   -1    0    0  502    0 -0.00000000000E+00  0.00000000000E+00  0.21520742922E+03  0.21520742922E+03  0.00000000000E+00 0.  1.
         21   -1    0    0  501  502  0.00000000000E+00 -0.00000000000E+00 -0.40053050635E+02  0.40053050635E+02  0.00000000000E+00 0.  1.
        -13    1    1    2    0    0  0.72740510371E+02  0.49419293248E+02  0.62239687597E+02  0.10773689373E+03  0.10566000000E+00 0.  1.
         13    1    1    2    0    0 -0.20619439730E+01 -0.15603328043E+02  0.26952532514E+02  0.31211626550E+02  0.10566000000E+00 0. -1.
          4    1    1    2  501    0 -0.70678566398E+02 -0.33815965205E+02  0.85962158478E+02  0.11631195958E+03  0.00000000000E+00 0.  1.
</event>
<event>
 5    1  0.7374516E-005  0.4931271E+03  0.7818608E-02  0.9815193E-01
          4   -1    0    0  502    0 -0.00000000000E+00  0.00000000000E+00  0.13903817460E+04  0.13903817460E+04  0.00000000000E+00 0.  1.
         21   -1    0    0  501  502  0.00000000000E+00 -0.00000000000E+00 -0.35915071839E+03  0.35915071839E+03  0.00000000000E+00 0.  1.
        -13    1    1    2    0    0  0.24674513309E+03  0.31703587436E+03  0.34484834249E+03  0.52944810587E+03  0.10566000000E+00 0.  1.
         13    1    1    2    0    0  0.12690531157E+03  0.95501992334E+02  0.64240885428E+03  0.66175126435E+03  0.10566000000E+00 0. -1.
          4    1    1    2  501    0 -0.37365044466E+03 -0.41253786669E+03  0.43973830851E+02  0.55833309417E+03  0.00000000000E+00 0.  1.
</event>
<event>
 5    1  0.4881333E-005  0.5379739E+02  0.7818608E-02  0.1277055E+00
          4   -1    0    0  502    0 -0.00000000000E+00  0.00000000000E+00  0.10234784626E+03  0.10234784626E+03  0.00000000000E+00 0.  1.
         21   -1    0    0  501  502  0.00000000000E+00 -0.00000000000E+00 -0.45401100710E+02  0.45401100710E+02  0.00000000000E+00 0. -1.
        -13    1    1    2    0    0 -0.22987268737E+01 -0.55941546600E+02  0.61450148670E+02  0.83131658933E+02  0.10566000000E+00 0.  1.
         13    1    1    2    0    0  0.10048869048E+02  0.48725244987E+02  0.54950520995E+01  0.50053331855E+02  0.10566000000E+00 0. -1.
          4    1    1    2  501    0 -0.77501421741E+01  0.72163016131E+01 -0.99984552240E+01  0.14563956178E+02  0.00000000000E+00 0.  1.
</event>
<event>
 5    1  0.4881333E-005  0.2954650E+03  0.7818608E-02  0.1032648E+00
         -4   -1    0    0    0  501 -0.00000000000E+00  0.00000000000E+00  0.17315510706E+04  0.17315510706E+04  0.00000000000E+00 0. -1.
         21   -1    0    0  501  502  0.00000000000E+00 -0.00000000000E+00 -0.19628495078E+03  0.19628495078E+03  0.00000000000E+00 0. -1.
        -13    1    1    2    0    0  0.13978506287E+03  0.20475350960E+02  0.11931430668E+03  0.18491895181E+03  0.10566000000E+00 0.  1.
         13    1    1    2    0    0  0.52232072303E+02 -0.25382391833E+03  0.14172212636E+04  0.14407188803E+04  0.10566000000E+00 0. -1.
         -4    1    1    2    0  502 -0.19201713517E+03  0.23334856737E+03 -0.12694504519E+01  0.30219818927E+03  0.00000000000E+00 0. -1.
</event>
<event>
 5    1  0.4881333E-005  0.7673235E+02  0.7818608E-02  0.1210095E+00
         21   -1    0    0  501  502  0.00000000000E+00  0.00000000000E+00  0.93224402162E+03  0.93224402162E+03  0.00000000000E+00 0.  1.
          4   -1    0    0  502    0 -0.00000000000E+00 -0.00000000000E+00 -0.13456243674E+03  0.13456243674E+03  0.00000000000E+00 0.  1.
        -13    1    1    2    0    0 -0.50117760386E+02  0.57595697923E+02 -0.11517880823E+03  0.13818546723E+03  0.10566000000E+00 0.  1.
         13    1    1    2    0    0  0.48724608760E+02 -0.69457347851E+02  0.22204465425E+03  0.23770202000E+03  0.10566000000E+00 0. -1.
          4    1    1    2  501    0  0.13931516266E+01  0.11861649928E+02  0.69081573886E+03  0.69091897113E+03  0.00000000000E+00 0.  1.
</event>
<event>
 5    1  0.4881333E-005  0.2102523E+03  0.7818608E-02  0.1053326E+00
         -4   -1    0    0    0  501 -0.00000000000E+00  0.00000000000E+00  0.92539550128E+02  0.92539550128E+02  0.00000000000E+00 0. -1.
         21   -1    0    0  501  502  0.00000000000E+00 -0.00000000000E+00 -0.14017755003E+04  0.14017755003E+04  0.00000000000E+00 0.  1.
        -13    1    1    2    0    0  0.19762386076E+03 -0.72764879061E+02 -0.50888509943E+02  0.21665541668E+03  0.10566000000E+00 0.  1.
         13    1    1    2    0    0 -0.19841957497E+03  0.61007505836E+02 -0.11417061113E+04  0.11604245340E+04  0.10566000000E+00 0. -1.
         -4    1    1    2    0  502  0.79571420630E+00  0.11757373225E+02 -0.11664132897E+03  0.11723509974E+03  0.00000000000E+00 0. -1.
</event>
<event>
 5    1  0.4881333E-005  0.5374374E+02  0.7818608E-02  0.1277254E+00
         21   -1    0    0  501  502  0.00000000000E+00  0.00000000000E+00  0.48096466877E+02  0.48096466877E+02  0.00000000000E+00 0. -1.
         -4   -1    0    0    0  501 -0.00000000000E+00 -0.00000000000E+00 -0.16692808974E+03  0.16692808974E+03  0.00000000000E+00 0. -1.
        -13    1    1    2    0    0  0.18446912470E+01  0.39871850886E+02 -0.55884730478E+01  0.40303964742E+02  0.10566000000E+00 0.  1.
         13    1    1    2    0    0 -0.45481496892E+01 -0.58448131753E+02 -0.13428382654E+03  0.14652312789E+03  0.10566000000E+00 0. -1.
         -4    1    1    2    0  502  0.27034584422E+01  0.18576280867E+02  0.21040676725E+02  0.28197463989E+02  0.00000000000E+00 0. -1.
</event>
<event>
 5    1  0.4881333E-005  0.3193909E+03  0.7818608E-02  0.1003908E+00
         21   -1    0    0  501  502  0.00000000000E+00  0.00000000000E+00  0.21947382526E+03  0.21947382526E+03  0.00000000000E+00 0.  1.
          4   -1    0    0  502    0 -0.00000000000E+00 -0.00000000000E+00 -0.19985252001E+04  0.19985252001E+04  0.00000000000E+00 0.  1.
        -13    1    1    2    0    0 -0.44907329836E+02 -0.44174110762E+03 -0.12640584017E+04  0.13397744320E+04  0.10566000000E+00 0.  1.
         13    1    1    2    0    0  0.21366700195E+03  0.17714415448E+03 -0.49031772334E+03  0.56342268340E+03  0.10566000000E+00 0. -1.
          4    1    1    2  501    0 -0.16875967211E+03  0.26459695314E+03 -0.24675249721E+02  0.31480190992E+03  0.00000000000E+00 0.  1.
</event>
<event>
 5    1  0.4881333E-005  0.5032811E+03  0.7818608E-02  0.9574099E-01
         -4   -1    0    0    0  501 -0.00000000000E+00  0.00000000000E+00  0.18459582599E+04  0.18459582599E+04  0.00000000000E+00 0. -1.
         21   -1    0    0  501  502  0.00000000000E+00 -0.00000000000E+00 -0.97257365769E+03  0.97257365769E+03  0.00000000000E+00 0. -1.
        -13    1    1    2    0    0  0.27423312122E+03  0.21165772325E+03  0.15127263615E+04  0.15518839688E+04  0.10566000000E+00 0.  1.
         13    1    1    2    0    0 -0.66039008999E+03 -0.24520357580E+03 -0.44282629603E+03  0.83206670655E+03  0.10566000000E+00 0. -1.
         -4    1    1    2    0  502  0.38615696877E+03  0.33545852543E+02 -0.19651546332E+03  0.43458124221E+03  0.00000000000E+00 0. -1.
</event>
<event>
 5    1  0.4881333E-005  0.2701637E+03  0.7818608E-02  0.1020443E+00
         21   -1    0    0  501  502  0.00000000000E+00  0.00000000000E+00  0.16384001145E+03  0.16384001145E+03  0.00000000000E+00 0.  1.
         -4   -1    0    0    0  501 -0.00000000000E+00 -0.00000000000E+00 -0.74281931911E+03  0.74281931911E+03  0.00000000000E+00 0. -1.
        -13    1    1    2    0    0  0.24766322335E+03  0.78749515259E+02 -0.41153725791E+03  0.48672526559E+03  0.10566000000E+00 0.  1.
         13    1    1    2    0    0 -0.27400550320E+03 -0.95397976910E+02 -0.21636430112E+03  0.36192998183E+03  0.10566000000E+00 0. -1.
         -4    1    1    2    0  502  0.26342279856E+02  0.16648461651E+02  0.48922251363E+02  0.58004083148E+02  0.00000000000E+00 0. -1.
</event>
<event>
 5    1  0.4881333E-005  0.5054471E+03  0.7818608E-02  0.9618941E-01
          4   -1    0    0  502    0 -0.00000000000E+00  0.00000000000E+00  0.75594831260E+03  0.75594831260E+03  0.00000000000E+00 0.  1.
         21   -1    0    0  501  502  0.00000000000E+00 -0.00000000000E+00 -0.24390615508E+04  0.24390615508E+04  0.00000000000E+00 0. -1.
        -13    1    1    2    0    0  0.17538746187E+03  0.20262310246E+03 -0.59492028045E+03  0.65249293842E+03  0.10566000000E+00 0.  1.
         13    1    1    2    0    0  0.56816349762E+03  0.34661622637E+03  0.41028228698E+03  0.78184661832E+03  0.10566000000E+00 0. -1.
          4    1    1    2  501    0 -0.74355095949E+03 -0.54923932883E+03 -0.14984752447E+04  0.17606703066E+04  0.00000000000E+00 0.  1.
</event>
<event>
 5    1  0.4881333E-005  0.3875248E+02  0.7818608E-02  0.1345845E+00
         -4   -1    0    0    0  501 -0.00000000000E+00  0.00000000000E+00  0.22421022599E+03  0.22421022599E+03  0.00000000000E+00 0. -1.
         21   -1    0    0  501  502  0.00000000000E+00 -0.00000000000E+00 -0.24869537965E+02  0.24869537965E+02  0.00000000000E+00 0.  1.
        -13    1    1    2    0    0 -0.34985738818E+02 -0.13301056128E+02  0.16850941318E+03  0.17261620292E+03  0.10566000000E+00 0.  1.
         13    1    1    2    0    0  0.51151148870E+02  0.39660147018E+01  0.22695058332E+02  0.56100322103E+02  0.10566000000E+00 0. -1.
         -4    1    1    2    0  502 -0.16165410053E+02  0.93350414265E+01  0.81362165063E+01  0.20363238928E+02  0.00000000000E+00 0. -1.
</event>
<event>
 5    1  0.4881333E-005  0.3796675E+03  0.7818608E-02  0.9789675E-01
          4   -1    0    0  502    0 -0.00000000000E+00  0.00000000000E+00  0.14371110272E+04  0.14371110272E+04  0.00000000000E+00 0.  1.
         21   -1    0    0  501  502  0.00000000000E+00 -0.00000000000E+00 -0.11489371288E+03  0.11489371288E+03  0.00000000000E+00 0. -1.
        -13    1    1    2    0    0  0.36129835876E+03  0.94298798842E+02  0.79535434342E+03  0.87864515606E+03  0.10566000000E+00 0.  1.
         13    1    1    2    0    0 -0.37491526917E+03 -0.10497571695E+03  0.52799565148E+03  0.65601888643E+03  0.10566000000E+00 0. -1.
          4    1    1    2  501    0  0.13616910411E+02  0.10676918106E+02 -0.11326805299E+01  0.17340697638E+02  0.00000000000E+00 0.  1.
</event>
<event>
 5    1  0.4881333E-005  0.4316845E+03  0.7818608E-02  0.9641764E-01
         -4   -1    0    0    0  501 -0.00000000000E+00  0.00000000000E+00  0.20193926431E+03  0.20193926431E+03  0.00000000000E+00 0. -1.
         21   -1    0    0  501  502  0.00000000000E+00 -0.00000000000E+00 -0.25704984017E+04  0.25704984017E+04  0.00000000000E+00 0. -1.
        -13    1    1    2    0    0  0.42231635881E+03  0.61073570648E+02 -0.10062924779E+03  0.43841458076E+03  0.10566000000E+00 0.  1.
         13    1    1    2    0    0 -0.45437739150E+03 -0.86533940206E+02 -0.16183114991E+04  0.16831158772E+04  0.10566000000E+00 0. -1.
         -4    1    1    2    0  502  0.32061032688E+02  0.25460369558E+02 -0.64961839055E+03  0.65090720812E+03  0.00000000000E+00 0. -1.
</event>
<event>
 5    1  0.4881333E-005  0.4134903E+02  0.7818608E-02  0.1331665E+00
          4   -1    0    0  502    0 -0.00000000000E+00  0.00000000000E+00  0.57814133853E+02  0.57814133853E+02  0.00000000000E+00 0.  1.
         21   -1    0    0  501  502  0.00000000000E+00 -0.00000000000E+00 -0.57008863828E+02  0.57008863828E+02  0.00000000000E+00 0. -1.
        -13    1    1    2    0    0  0.40414342527E+02 -0.10321897525E+01 -0.60361583914E+01  0.40875798093E+02  0.10566000000E+00 0.  1.
         13    1    1    2    0    0 -0.38846135011E+02 -0.25010388829E+02 -0.24143680272E+01  0.46264263656E+02  0.10566000000E+00 0. -1.
          4    1    1    2  501    0 -0.15682075167E+01  0.26042578581E+02  0.92557964435E+01  0.27682935932E+02  0.00000000000E+00 0.  1.
</event>
<event>
 5    1  0.4881333E-005  0.4767589E+03  0.7818608E-02  0.9791597E-01
          4   -1    0    0  502    0 -0.00000000000E+00  0.00000000000E+00  0.78133657575E+03  0.78133657575E+03  0.00000000000E+00 0.  1.
         21   -1    0    0  501  502  0.00000000000E+00 -0.00000000000E+00 -0.55551086277E+03  0.55551086277E+03  0.00000000000E+00 0.  1.
        -13    1    1    2    0    0 -0.88112324305E+02  0.59569354661E+03  0.74270209915E+02  0.60673771798E+03  0.10566000000E+00 0.  1.
         13    1    1    2    0    0  0.57427121376E+02 -0.18162298657E+03  0.23917391020E+03  0.30575963436E+03  0.10566000000E+00 0. -1.
          4    1    1    2  501    0  0.30685202929E+02 -0.41407056004E+03 -0.87618407136E+02  0.42435008618E+03  0.00000000000E+00 0.  1.
</event>
<event>
 5    1  0.4881333E-005  0.1823007E+02  0.7818608E-02  0.1536074E+00
         21   -1    0    0  501  502  0.00000000000E+00  0.00000000000E+00  0.15845818812E+03  0.15845818812E+03  0.00000000000E+00 0.  1.
         -4   -1    0    0    0  501 -0.00000000000E+00 -0.00000000000E+00 -0.10963872448E+02  0.10963872448E+02  0.00000000000E+00 0. -1.
        -13    1    1    2    0    0  0.30385061123E+02 -0.93700949935E+01  0.31987556433E+02  0.45102833062E+02  0.10566000000E+00 0.  1.
         13    1    1    2    0    0 -0.12692358125E+02  0.51681856844E+01  0.92889746170E+01  0.16556035501E+02  0.10566000000E+00 0. -1.
         -4    1    1    2    0  502 -0.17692702998E+02  0.42019093092E+01  0.10621778462E+03  0.10776319201E+03  0.00000000000E+00 0. -1.
</event>
<event>
 5    1  0.4881333E-005  0.3758283E+03  0.7818608E-02  0.9846029E-01
          4   -1    0    0  502    0 -0.00000000000E+00  0.00000000000E+00  0.23323406870E+04  0.23323406870E+04  0.00000000000E+00 0.  1.
         21   -1    0    0  501  502  0.00000000000E+00 -0.00000000000E+00 -0.20065552284E+03  0.20065552284E+03  0.00000000000E+00 0.  1.
        -13    1    1    2    0    0 -0.37302212706E+03  0.51239344914E+03  0.14429022332E+04  0.15759630135E+04  0.10566000000E+00 0.  1.
         13    1    1    2    0    0  0.13452382291E+03 -0.29380769201E+03  0.45420125135E+03  0.55742121121E+03  0.10566000000E+00 0. -1.
          4    1    1    2  501    0  0.23849830414E+03 -0.21858575714E+03  0.23458167960E+03  0.39961198519E+03  0.00000000000E+00 0.  1.
</event>
<event>
 5    1  0.4881333E-005  0.5295189E+03  0.7818608E-02  0.9425836E-01
         -4   -1    0    0    0  501 -0.00000000000E+00  0.00000000000E+00  0.24740637767E+04  0.24740637767E+04  0.00000000000E+00 0. -1.
         21   -1    0    0  501  502  0.00000000000E+00 -0.00000000000E+00 -0.50536215478E+03  0.50536215478E+03  0.00000000000E+00 0. -1.
        -13    1    1    2    0    0  0.51210569100E+03 -0.17038358094E+03  0.16896109139E+04  0.17737158326E+04  0.10566000000E+00 0.  1.
         13    1    1    2    0    0  0.21521245749E+03 -0.85761341816E+02  0.36239600090E+03  0.43011891639E+03  0.10566000000E+00 0. -1.
         -4    1    1    2    0  502 -0.72731814848E+03  0.25614492275E+03 -0.83305292828E+02  0.77559118251E+03  0.00000000000E+00 0. -1.
</event>
<event>
 5    1  0.4881333E-005  0.4847776E+03  0.7818608E-02  0.9568506E-01
         -4   -1    0    0    0  501 -0.00000000000E+00  0.00000000000E+00  0.31248652541E+04  0.31248652541E+04  0.00000000000E+00 0. -1.
         21   -1    0    0  501  502  0.00000000000E+00 -0.00000000000E+00 -0.20278284100E+03  0.20278284100E+03  0.00000000000E+00 0. -1.
        -13    1    1    2    0    0 -0.80947072247E+02 -0.38707867187E+03  0.13721612458E+04  0.14280086913E+04  0.10566000000E+00 0.  1.
         13    1    1    2    0    0  0.48186964595E+03  0.29080064552E+02  0.10904221367E+04  0.11925034395E+04  0.10566000000E+00 0. -1.
         -4    1    1    2    0  502 -0.40092257370E+03  0.35799860732E+03  0.45949903066E+03  0.70713596438E+03  0.00000000000E+00 0. -1.
</event>
<event>
 5    1  0.4881333E-005  0.3488583E+03  0.7818608E-02  0.9933166E-01
         21   -1    0    0  501  502  0.00000000000E+00  0.00000000000E+00  0.26722050561E+03  0.26722050561E+03  0.00000000000E+00 0.  1.
          4   -1    0    0  502    0 -0.00000000000E+00 -0.00000000000E+00 -0.20483293715E+04  0.20483293715E+04  0.00000000000E+00 0.  1.
        -13    1    1    2    0    0 -0.26191693092E+02 -0.18818082855E+02  0.18711335114E+03  0.18987243709E+03  0.10566000000E+00 0.  1.
         13    1    1    2    0    0  0.18012196827E+03  0.36093085826E+03 -0.75807512047E+03  0.85871584785E+03  0.10566000000E+00 0. -1.
          4    1    1    2  501    0 -0.15393027518E+03 -0.34211277540E+03 -0.12101470965E+04  0.12669615921E+04  0.00000000000E+00 0.  1.
</event>
<event>
 5    1  0.4881333E-005  0.4905338E+03  0.7818608E-02  0.9693282E-01
         -4   -1    0    0    0  501 -0.00000000000E+00  0.00000000000E+00  0.28845825010E+04  0.28845825010E+04  0.00000000000E+00 0. -1.
         21   -1    0    0  501  502  0.00000000000E+00 -0.00000000000E+00 -0.17767050724E+03  0.17767050724E+03  0.00000000000E+00 0. -1.
        -13    1    1    2    0    0 -0.22017757803E+03 -0.10878669366E+03  0.12212206171E+04  0.12456695057E+04  0.10566000000E+00 0.  1.
         13    1    1    2    0    0 -0.24627531074E+03  0.40523760331E+03  0.51871951641E+03  0.70280793371E+03  0.10566000000E+00 0. -1.
         -4    1    1    2    0  502  0.46645288877E+03 -0.29645090964E+03  0.96697186024E+03  0.11137755688E+04  0.00000000000E+00 0. -1.
</event>
<event>
 5    1  0.4881333E-005  0.3625139E+03  0.7818608E-02  0.1022010E+00
         21   -1    0    0  501  502  0.00000000000E+00  0.00000000000E+00  0.32541551050E+03  0.32541551050E+03  0.00000000000E+00 0.  1.
          4   -1    0    0  502    0 -0.00000000000E+00 -0.00000000000E+00 -0.14314421107E+04  0.14314421107E+04  0.00000000000E+00 0.  1.
        -13    1    1    2    0    0 -0.12277598620E+03 -0.32704471761E+03  0.12710344304E+03  0.37173577512E+03  0.10566000000E+00 0.  1.
         13    1    1    2    0    0  0.30328703925E+02 -0.10203310370E+03 -0.63144430524E+03  0.64035342298E+03  0.10566000000E+00 0. -1.
          4    1    1    2  501    0  0.92447282271E+02  0.42907782131E+03 -0.60168573800E+03  0.74476842310E+03  0.00000000000E+00 0.  1.
</event>
<event>
 5    1  0.4881333E-005  0.4982470E+03  0.7818608E-02  0.9780754E-01
         21   -1    0    0  501  502  0.00000000000E+00  0.00000000000E+00  0.12176424427E+03  0.12176424427E+03  0.00000000000E+00 0.  1.
          4   -1    0    0  502    0 -0.00000000000E+00 -0.00000000000E+00 -0.28892987516E+04  0.28892987516E+04  0.00000000000E+00 0.  1.
        -13    1    1    2    0    0 -0.36954123806E+03  0.21565029076E+03 -0.11398291949E+04  0.12174877327E+04  0.10566000000E+00 0.  1.
         13    1    1    2    0    0 -0.68007489221E+02  0.15928885998E+03 -0.45769315762E+03  0.48936795686E+03  0.10566000000E+00 0. -1.
          4    1    1    2  501    0  0.43754872728E+03 -0.37493915074E+03 -0.11700121548E+04  0.13042073063E+04  0.00000000000E+00 0.  1.
</event>
<event>
 5    1  0.4881333E-005  0.4953428E+03  0.7818608E-02  0.9516882E-01
          4   -1    0    0  502    0 -0.00000000000E+00  0.00000000000E+00  0.16646314723E+04  0.16646314723E+04  0.00000000000E+00 0.  1.
         21   -1    0    0  501  502  0.00000000000E+00 -0.00000000000E+00 -0.67872601470E+03  0.67872601470E+03  0.00000000000E+00 0. -1.
        -13    1    1    2    0    0 -0.25659994858E+03 -0.82288976070E+02  0.19391393331E+03  0.33199041235E+03  0.10566000000E+00 0.  1.
         13    1    1    2    0    0 -0.42581189656E+03  0.13403384000E+03  0.11538674759E+04  0.12372109782E+04  0.10566000000E+00 0. -1.
          4    1    1    2  501    0  0.68241184514E+03 -0.51744863929E+02 -0.36187595160E+03  0.77415609645E+03  0.00000000000E+00 0.  1.
</event>
<event>
 5    1  0.4881333E-005  0.5918522E+03  0.7818608E-02  0.9296623E-01
         -4   -1    0    0    0  501 -0.00000000000E+00  0.00000000000E+00  0.29285932386E+04  0.29285932386E+04  0.00000000000E+00 0. -1.
         21   -1    0    0  501  502  0.00000000000E+00 -0.00000000000E+00 -0.11114873389E+04  0.11114873389E+04  0.00000000000E+00 0.  1.
        -13    1    1    2    0    0 -0.56169296931E+03  0.17953879885E+03  0.25816602117E+04  0.26481507948E+04  0.10566000000E+00 0.  1.
         13    1    1    2    0    0  0.66176909000E+03  0.59851528986E+02 -0.91683694404E+02  0.67076556634E+03  0.10566000000E+00 0. -1.
         -4    1    1    2    0  502 -0.10007612069E+03 -0.23939032784E+03 -0.67287061754E+03  0.72116421635E+03  0.00000000000E+00 0. -1.
</event>
<event>
 5    1  0.4881333E-005  0.5883367E+03  0.7818608E-02  0.9337205E-01
         21   -1    0    0  501  502  0.00000000000E+00  0.00000000000E+00  0.73957694486E+03  0.73957694486E+03  0.00000000000E+00 0. -1.
          4   -1    0    0  502    0 -0.00000000000E+00 -0.00000000000E+00 -0.14815178023E+04  0.14815178023E+04  0.00000000000E+00 0.  1.
        -13    1    1    2    0    0 -0.18441036692E+02  0.51858820980E+03 -0.43925491301E+03  0.67986667292E+03  0.10566000000E+00 0.  1.
         13    1    1    2    0    0  0.64423992079E+03 -0.47028034985E+03 -0.42191744395E+03  0.90234307426E+03  0.10566000000E+00 0. -1.
          4    1    1    2  501    0 -0.62579888410E+03 -0.48307859952E+02  0.11923149955E+03  0.63888499995E+03  0.00000000000E+00 0.  1.
</event>
<event>
 5    1  0.4881333E-005  0.3288626E+03  0.7818608E-02  0.9960567E-01
         21   -1    0    0  501  502  0.00000000000E+00  0.00000000000E+00  0.25465754693E+03  0.25465754693E+03  0.00000000000E+00 0.  1.
          4   -1    0    0  502    0 -0.00000000000E+00 -0.00000000000E+00 -0.16727672775E+04  0.16727672775E+04  0.00000000000E+00 0.  1.
        -13    1    1    2    0    0  0.35454894917E+02 -0.34590806525E+03 -0.12584047778E+04  0.13055619614E+04  0.10566000000E+00 0.  1.
         13    1    1    2    0    0  0.87761506208E+02  0.28466661373E+03 -0.30180917541E+03  0.42405890212E+03  0.10566000000E+00 0. -1.
          4    1    1    2  501    0 -0.12321640112E+03  0.61241451520E+02  0.14210422258E+03  0.19780396094E+03  0.00000000000E+00 0.  1.
</event>
<event>
 5    1  0.4881333E-005  0.3630796E+03  0.7818608E-02  0.1022646E+00
         -4   -1    0    0    0  501 -0.00000000000E+00  0.00000000000E+00  0.94703742370E+03  0.94703742370E+03  0.00000000000E+00 0. -1.
         21   -1    0    0  501  502  0.00000000000E+00 -0.00000000000E+00 -0.50362011853E+03  0.50362011853E+03  0.00000000000E+00 0. -1.
        -13    1    1    2    0    0 -0.41864160941E+02  0.95046077713E+02  0.43941131288E+03  0.45151819223E+03  0.10566000000E+00 0.  1.
         13    1    1    2    0    0  0.19960440773E+03 -0.40370038169E+03  0.30182867685E+03  0.54214064512E+03  0.10566000000E+00 0. -1.
         -4    1    1    2    0  502 -0.15774024678E+03  0.30865430398E+03 -0.29782268456E+03  0.45699870488E+03  0.00000000000E+00 0. -1.
</event>
<event>
 5    1  0.4881333E-005  0.3076299E+03  0.7818608E-02  0.1025474E+00
         21   -1    0    0  501  502  0.00000000000E+00  0.00000000000E+00  0.15656689478E+03  0.15656689478E+03  0.00000000000E+00 0. -1.
         -4   -1    0    0    0  501 -0.00000000000E+00 -0.00000000000E+00 -0.17535124620E+04  0.17535124620E+04  0.00000000000E+00 0. -1.
        -13    1    1    2    0    0  0.11451083536E+03  0.10637612794E+03 -0.16629114456E+03  0.22821342627E+03  0.10566000000E+00 0.  1.
         13    1    1    2    0    0 -0.40534584015E+03 -0.86141844996E+02 -0.12961743743E+04  0.13608062637E+04  0.10566000000E+00 0. -1.
         -4    1    1    2    0  502  0.29083500479E+03 -0.20234282945E+02 -0.13448004830E+03  0.32105966674E+03  0.00000000000E+00 0. -1.
</event>
<event>
 5    1  0.4881333E-005  0.2779161E+03  0.7818608E-02  0.1016862E+00
         21   -1    0    0  501  502  0.00000000000E+00  0.00000000000E+00  0.94144859867E+03  0.94144859867E+03  0.00000000000E+00 0.  1.
          4   -1    0    0  502    0 -0.00000000000E+00 -0.00000000000E+00 -0.22766269838E+03  0.22766269838E+03  0.00000000000E+00 0.  1.
        -13    1    1    2    0    0 -0.17727805489E+02  0.29716402696E+03 -0.69768200754E+02  0.30575864175E+03  0.10566000000E+00 0.  1.
         13    1    1    2    0    0  0.44457810306E+02 -0.21802259988E+03  0.30486386846E+03  0.37742858982E+03  0.10566000000E+00 0. -1.
          4    1    1    2  501    0 -0.26730004817E+02 -0.79141427079E+02  0.47869023259E+03  0.48592406548E+03  0.00000000000E+00 0.  1.
</event>
<event>
 5    1  0.4881333E-005  0.4976589E+03  0.7818608E-02  0.9851387E-01
          4   -1    0    0  502    0 -0.00000000000E+00  0.00000000000E+00  0.97481648910E+03  0.97481648910E+03  0.00000000000E+00 0.  1.
         21   -1    0    0  501  502  0.00000000000E+00 -0.00000000000E+00 -0.33739572300E+03  0.33739572300E+03  0.00000000000E+00 0.  1.
        -13    1    1    2    0    0 -0.31875309708E+03 -0.43945760817E+03  0.19928804954E+03  0.57830983402E+03  0.10566000000E+00 0.  1.
         13    1    1    2    0    0 -0.10196152394E+02  0.13629693778E+03  0.64881967943E+02  0.15129605976E+03  0.10566000000E+00 0. -1.
          4    1    1    2  501    0  0.32894924947E+03  0.30316067039E+03  0.37325074861E+03  0.58260631831E+03  0.00000000000E+00 0.  1.
</event>
<event>
 5    1  0.4881333E-005  0.4092933E+02  0.7818608E-02  0.1333876E+00
         21   -1    0    0  501  502  0.00000000000E+00  0.00000000000E+00  0.22183364933E+03  0.22183364933E+03  0.00000000000E+00 0.  1.
          4   -1    0    0  502    0 -0.00000000000E+00 -0.00000000000E+00 -0.12678774039E+03  0.12678774039E+03  0.00000000000E+00 0.  1.
        -13    1    1    2    0    0 -0.34524666902E+02  0.21957057064E+02 -0.11592864638E+03  0.12293708633E+03  0.10566000000E+00 0.  1.
         13    1    1    2    0    0  0.41100489138E+02 -0.11947943614E+02  0.57185531458E+02  0.71429683859E+02  0.10566000000E+00 0. -1.
          4    1    1    2  501    0 -0.65758222363E+01 -0.10009113450E+02  0.15378902386E+03  0.15425461954E+03  0.00000000000E+00 0.  1.
</event>
<event>
 5    1  0.4881333E-005  0.2115561E+03  0.7818608E-02  0.1067193E+00
          4   -1    0    0  502    0 -0.00000000000E+00  0.00000000000E+00  0.62659881848E+03  0.62659881848E+03  0.00000000000E+00 0.  1.
         21   -1    0    0  501  502  0.00000000000E+00 -0.00000000000E+00 -0.55572228861E+03  0.55572228861E+03  0.00000000000E+00 0.  1.
        -13    1    1    2    0    0  0.27642500229E+03 -0.78746779531E+02  0.46145584070E+03  0.54364817783E+03  0.10566000000E+00 0.  1.
         13    1    1    2    0    0 -0.12242677717E+03 -0.63098665713E+02  0.53465264577E+02  0.14774404578E+03  0.10566000000E+00 0. -1.
          4    1    1    2  501    0 -0.15399822512E+03  0.14184544524E+03 -0.44404457542E+03  0.49092888348E+03  0.00000000000E+00 0.  1.
</event>
<event>
 5    1  0.4881333E-005  0.6107579E+02  0.7818608E-02  0.1252292E+00
         21   -1    0    0  501  502  0.00000000000E+00  0.00000000000E+00  0.16483723666E+03  0.16483723666E+03  0.00000000000E+00 0. -1.
          4   -1    0    0  502    0 -0.00000000000E+00 -0.00000000000E+00 -0.35517405501E+02  0.35517405501E+02  0.00000000000E+00 0.  1.
        -13    1    1    2    0    0  0.47317261989E+02 -0.31251323895E+02  0.64417092329E+02  0.85820402443E+02  0.10566000000E+00 0.  1.
         13    1    1    2    0    0 -0.48361271904E+02  0.41409336917E+02  0.17478597675E+02  0.66023165213E+02  0.10566000000E+00 0. -1.
          4    1    1    2  501    0  0.10440099148E+01 -0.10158013022E+02  0.47424141161E+02  0.48511074510E+02  0.00000000000E+00 0.  1.
</event>
<event>
 5    1  0.4881333E-005  0.4762917E+03  0.7818608E-02  0.9531506E-01
         21   -1    0    0  501  502  0.00000000000E+00  0.00000000000E+00  0.72885780733E+03  0.72885780733E+03  0.00000000000E+00 0. -1.
         -4   -1    0    0    0  501 -0.00000000000E+00 -0.00000000000E+00 -0.75628915452E+03  0.75628915452E+03  0.00000000000E+00 0. -1.
        -13    1    1    2    0    0  0.13707796268E+03 -0.35941254043E+03 -0.11278813663E+03  0.40086022128E+03  0.10566000000E+00 0.  1.
         13    1    1    2    0    0 -0.23247558400E+02  0.68779421161E+03 -0.91639630828E+02  0.69426159306E+03  0.10566000000E+00 0. -1.
         -4    1    1    2    0  502 -0.11383040428E+03 -0.32838167118E+03  0.17699642026E+03  0.39002514751E+03  0.00000000000E+00 0. -1.
</event>
<event>
 5    1  0.4881333E-005  0.4868462E+03  0.7818608E-02  0.9940705E-01
         21   -1    0    0  501  502  0.00000000000E+00  0.00000000000E+00  0.23112801575E+03  0.23112801575E+03  0.00000000000E+00 0.  1.
          4   -1    0    0  502    0 -0.00000000000E+00 -0.00000000000E+00 -0.16376746079E+04  0.16376746079E+04  0.00000000000E+00 0.  1.
        -13    1    1    2    0    0 -0.89780982346E+02  0.43656359539E+03 -0.33130699894E+03  0.55534920215E+03  0.10566000000E+00 0.  1.
         13    1    1    2    0    0  0.14358643634E+02  0.10729706720E+03 -0.52530277958E+03  0.53634117190E+03  0.10566000000E+00 0. -1.
          4    1    1    2  501    0  0.75422338712E+02 -0.54386066260E+03 -0.54993681361E+03  0.77711224959E+03  0.00000000000E+00 0.  1.
</event>
<event>
 5    1  0.4881333E-005  0.6180320E+02  0.7818608E-02  0.1256859E+00
         21   -1    0    0  501  502  0.00000000000E+00  0.00000000000E+00  0.69231086252E+02  0.69231086252E+02  0.00000000000E+00 0.  1.
          4   -1    0    0  502    0 -0.00000000000E+00 -0.00000000000E+00 -0.36298810545E+03  0.36298810545E+03  0.00000000000E+00 0.  1.
        -13    1    1    2    0    0 -0.86664216940E+02 -0.62013501464E+02 -0.25543367127E+03  0.27677198638E+03  0.10566000000E+00 0.  1.
         13    1    1    2    0    0  0.51635605098E+02  0.14357919785E+02 -0.70152308026E+02  0.88282178608E+02  0.10566000000E+00 0. -1.
          4    1    1    2  501    0  0.35028611842E+02  0.47655581679E+02  0.31828960098E+02  0.67165026715E+02  0.00000000000E+00 0.  1.
</event>
<event>
 5    1  0.4881333E-005  0.4660500E+03  0.7818608E-02  0.9555658E-01
         -4   -1    0    0    0  501 -0.00000000000E+00  0.00000000000E+00  0.13945356637E+04  0.13945356637E+04  0.00000000000E+00 0. -1.
         21   -1    0    0  501  502  0.00000000000E+00 -0.00000000000E+00 -0.44761220780E+03  0.44761220780E+03  0.00000000000E+00 0. -1.
        -13    1    1    2    0    0  0.53877312653E+02 -0.45557784099E+03  0.19824955619E+03  0.49975677256E+03  0.10566000000E+00 0.  1.
         13    1    1    2    0    0 -0.39761850243E+03  0.38473526685E+03  0.43847178353E+02  0.55501737383E+03  0.10566000000E+00 0. -1.
         -4    1    1    2    0  502  0.34374118978E+03  0.70842574135E+02  0.70482672139E+03  0.78737372514E+03  0.00000000000E+00 0. -1.
</event>
<event>
 5    1  0.4881333E-005  0.6843651E+03  0.7818608E-02  0.9145972E-01
         21   -1    0    0  501  502  0.00000000000E+00  0.00000000000E+00  0.41027644355E+03  0.41027644355E+03  0.00000000000E+00 0.  1.
         -4   -1    0    0    0  501 -0.00000000000E+00 -0.00000000000E+00 -0.23019911759E+04  0.23019911759E+04  0.00000000000E+00 0. -1.
        -13    1    1    2    0    0 -0.13542497420E+03  0.57318762226E+03 -0.16723206468E+03  0.61225039695E+03  0.10566000000E+00 0.  1.
         13    1    1    2    0    0  0.53194058539E+03 -0.53454142751E+03 -0.13832576531E+04  0.15754672545E+04  0.10566000000E+00 0. -1.
         -4    1    1    2    0  502 -0.39651561120E+03 -0.38646194745E+02 -0.34122501453E+03  0.52454996791E+03  0.00000000000E+00 0. -1.
</event>
<event>
 5    1  0.4881333E-005  0.6493427E+03  0.7818608E-02  0.9199892E-01
          4   -1    0    0  502    0 -0.00000000000E+00  0.00000000000E+00  0.30288240022E+04  0.30288240022E+04  0.00000000000E+00 0.  1.
         21   -1    0    0  501  502  0.00000000000E+00 -0.00000000000E+00 -0.39930943438E+03  0.39930943438E+03  0.00000000000E+00 0. -1.
        -13    1    1    2    0    0 -0.45707304776E+03  0.50117825195E+03  0.23312178011E+04  0.24278945320E+04  0.10566000000E+00 0.  1.
         13    1    1    2    0    0  0.11540331355E+03 -0.54248582366E+03  0.15573361887E+02  0.55484352245E+03  0.10566000000E+00 0. -1.
          4    1    1    2  501    0  0.34166973421E+03  0.41307571704E+02  0.28272340480E+03  0.44539538208E+03  0.00000000000E+00 0.  1.
</event>
<event>
 5    1  0.4881333E-005  0.5006280E+03  0.7818608E-02  0.9874323E-01
         -4   -1    0    0    0  501 -0.00000000000E+00  0.00000000000E+00  0.20411229077E+04  0.20411229077E+04  0.00000000000E+00 0. -1.
         21   -1    0    0  501  502  0.00000000000E+00 -0.00000000000E+00 -0.18063870754E+03  0.18063870754E+03  0.00000000000E+00 0. -1.
        -13    1    1    2    0    0  0.71780072374E+02 -0.10144476085E+03  0.53962174065E+03  0.55374637917E+03  0.10566000000E+00 0.  1.
         13    1    1    2    0    0 -0.52138576489E+03  0.14402336410E+03  0.52999491541E+03  0.75728493103E+03  0.10566000000E+00 0. -1.
         -4    1    1    2    0  502  0.44960569252E+03 -0.42578603244E+02  0.79086754409E+03  0.91073030503E+03  0.00000000000E+00 0. -1.
</event>
<event>
 5    1  0.4881333E-005  0.8937673E+03  0.7818608E-02  0.8881370E-01
         -4   -1    0    0    0  501 -0.00000000000E+00  0.00000000000E+00  0.12288224908E+04  0.12288224908E+04  0.00000000000E+00 0. -1.
         21   -1    0    0  501  502  0.00000000000E+00 -0.00000000000E+00 -0.92842015433E+03  0.92842015433E+03  0.00000000000E+00 0.  1.
        -13    1    1    2    0    0 -0.89788179508E+03  0.40680082103E+02  0.28257146075E+03  0.94217473359E+03  0.10566000000E+00 0.  1.
         13    1    1    2    0    0  0.88967429148E+03  0.25539523683E+02  0.28901935238E+03  0.93579100733E+03  0.10566000000E+00 0. -1.
         -4    1    1    2    0  502  0.82075036046E+01 -0.66219605785E+02 -0.27118847670E+03  0.27927690417E+03  0.00000000000E+00 0. -1.
</event>
<event>
 5    1  0.4881333E-005  0.1531019E+03  0.7818608E-02  0.1098092E+00
         21   -1    0    0  501  502  0.00000000000E+00  0.00000000000E+00  0.25150047290E+03  0.25150047290E+03  0.00000000000E+00 0. -1.
          4   -1    0    0  502    0 -0.00000000000E+00 -0.00000000000E+00 -0.14275939970E+03  0.14275939970E+03  0.00000000000E+00 0.  1.
        -13    1    1    2    0    0  0.29956110416E+02 -0.15850018882E+03  0.44583368645E+02  0.16735401499E+03  0.10566000000E+00 0.  1.
         13    1    1    2    0    0 -0.23560470750E+02  0.14599223215E+03 -0.13026332920E+02  0.14845377780E+03  0.10566000000E+00 0. -1.
          4    1    1    2  501    0 -0.63956396659E+01  0.12507956670E+02  0.77184037472E+02  0.78452079814E+02  0.00000000000E+00 0.  1.
</event>
<event>
 5    1  0.4881333E-005  0.4241581E+03  0.7818608E-02  0.9661761E-01
         21   -1    0    0  501  502  0.00000000000E+00  0.00000000000E+00  0.44158425861E+03  0.44158425861E+03  0.00000000000E+00 0.  1.
          4   -1    0    0  502    0 -0.00000000000E+00 -0.00000000000E+00 -0.13299570290E+04  0.13299570290E+04  0.00000000000E+00 0.  1.
        -13    1    1    2    0    0 -0.34521676932E+03  0.23240902512E+03 -0.60936755211E+03  0.73791422097E+03  0.10566000000E+00 0.  1.
         13    1    1    2    0    0  0.52324766772E+03  0.76998722540E+02 -0.39298206836E+03  0.65890199747E+03  0.10566000000E+00 0. -1.
          4    1    1    2  501    0 -0.17803089840E+03 -0.30940774766E+03  0.11397685010E+03  0.37472506916E+03  0.00000000000E+00 0.  1.
</event>
<event>
 5    1  0.4881333E-005  0.1682281E+03  0.7818608E-02  0.1084405E+00
         21   -1    0    0  501  502  0.00000000000E+00  0.00000000000E+00  0.16229448725E+04  0.16229448725E+04  0.00000000000E+00 0.  1.
         -4   -1    0    0    0  501 -0.00000000000E+00 -0.00000000000E+00 -0.41576933252E+02  0.41576933252E+02  0.00000000000E+00 0. -1.
        -13    1    1    2    0    0 -0.15134550803E+03  0.17400375630E+02  0.56828169579E+03  0.58834711932E+03  0.10566000000E+00 0.  1.
         13    1    1    2    0    0  0.17028449990E+03 -0.41920503324E+02  0.21483911330E+03  0.27732651383E+03  0.10566000000E+00 0. -1.
         -4    1    1    2    0  502 -0.18938991874E+02  0.24520127694E+02  0.79824713012E+03  0.79884817258E+03  0.00000000000E+00 0. -1.
</event>
<event>
 5    1  0.4881333E-005  0.1582967E+03  0.7818608E-02  0.1118464E+00
         21   -1    0    0  501  502  0.00000000000E+00  0.00000000000E+00  0.10946539930E+03  0.10946539930E+03  0.00000000000E+00 0. -1.
          4   -1    0    0  502    0 -0.00000000000E+00 -0.00000000000E+00 -0.10144637987E+04  0.10144637987E+04  0.00000000000E+00 0.  1.
        -13    1    1    2    0    0  0.54398432465E-01  0.16759931614E+03 -0.85887622303E+03  0.87507594606E+03  0.10566000000E+00 0.  1.
         13    1    1    2    0    0  0.75636931356E+02 -0.27335001201E+02  0.72976234519E+01  0.80755273188E+02  0.10566000000E+00 0. -1.
          4    1    1    2  501    0 -0.75691329789E+02 -0.14026431494E+03 -0.53419799849E+02  0.16809797877E+03  0.00000000000E+00 0.  1.
</event>
<event>
 5    1  0.4881333E-005  0.1085488E+03  0.7818608E-02  0.1151137E+00
         -4   -1    0    0    0  501 -0.00000000000E+00  0.00000000000E+00  0.34703554628E+03  0.34703554628E+03  0.00000000000E+00 0. -1.
         21   -1    0    0  501  502  0.00000000000E+00 -0.00000000000E+00 -0.17393939531E+03  0.17393939531E+03  0.00000000000E+00 0.  1.
        -13    1    1    2    0    0  0.65185548917E+02 -0.81508336401E+02 -0.52269892940E+02  0.11672582217E+03  0.10566000000E+00 0.  1.
         13    1    1    2    0    0 -0.82337830822E+02  0.71713806367E+02  0.30408260429E+03  0.32309229301E+03  0.10566000000E+00 0. -1.
         -4    1    1    2    0  502  0.17152281905E+02  0.97945300340E+01 -0.78716560381E+02  0.81156826400E+02  0.00000000000E+00 0. -1.
</event>
<event>
 5    1  0.4881333E-005  0.4403385E+03  0.7818608E-02  0.9619299E-01
         21   -1    0    0  501  502  0.00000000000E+00  0.00000000000E+00  0.10760712608E+03  0.10760712608E+03  0.00000000000E+00 0. -1.
          4   -1    0    0  502    0 -0.00000000000E+00 -0.00000000000E+00 -0.22576097347E+04  0.22576097347E+04  0.00000000000E+00 0.  1.
        -13    1    1    2    0    0  0.24157524490E+03  0.37162079643E+03 -0.72639536428E+03  0.85094703225E+03  0.10566000000E+00 0.  1.
         13    1    1    2    0    0 -0.26438729788E+03 -0.35065982476E+03 -0.14157638965E+04  0.14823125101E+04  0.10566000000E+00 0. -1.
          4    1    1    2  501    0  0.22812052987E+02 -0.20960971663E+02 -0.78433478882E+01  0.31957318420E+02  0.00000000000E+00 0.  1.
</event>
<event>
 5    1  0.4881333E-005  0.3069347E+03  0.7818608E-02  0.1004483E+00
         21   -1    0    0  501  502  0.00000000000E+00  0.00000000000E+00  0.10385778839E+03  0.10385778839E+03  0.00000000000E+00 0.  1.
         -4   -1    0    0    0  501 -0.00000000000E+00 -0.00000000000E+00 -0.17720632627E+04  0.17720632627E+04  0.00000000000E+00 0. -1.
        -13    1    1    2    0    0  0.29614377187E+03  0.26068108717E+03 -0.67340984915E+03  0.78047203596E+03  0.10566000000E+00 0.  1.
         13    1    1    2    0    0 -0.21554988004E+03 -0.16880456167E+03 -0.90016673449E+03  0.94088091270E+03  0.10566000000E+00 0. -1.
         -4    1    1    2    0  502 -0.80593891825E+02 -0.91876525501E+02 -0.94628890630E+02  0.15456810240E+03  0.00000000000E+00 0. -1.
</event>
<event>
 5    1  0.4881333E-005  0.3898221E+03  0.7818608E-02  0.9913161E-01
         21   -1    0    0  501  502  0.00000000000E+00  0.00000000000E+00  0.28172110509E+03  0.28172110509E+03  0.00000000000E+00 0.  1.
          4   -1    0    0  502    0 -0.00000000000E+00 -0.00000000000E+00 -0.18193597816E+04  0.18193597816E+04  0.00000000000E+00 0.  1.
        -13    1    1    2    0    0 -0.11041141337E+03  0.33768487998E+03 -0.17741621372E+02  0.35571974174E+03  0.10566000000E+00 0.  1.
         13    1    1    2    0    0  0.92319619505E+02  0.21186948700E+03 -0.83858182818E+03  0.86984543765E+03  0.10566000000E+00 0. -1.
          4    1    1    2  501    0  0.18091793863E+02 -0.54955436698E+03 -0.68131522696E+03  0.87551570732E+03  0.00000000000E+00 0.  1.
</event>
<event>
 5    1  0.4881333E-005  0.3977739E+03  0.7818608E-02  0.9838826E-01
         21   -1    0    0  501  502  0.00000000000E+00  0.00000000000E+00  0.21367295045E+03  0.21367295045E+03  0.00000000000E+00 0. -1.
         -4   -1    0    0    0  501 -0.00000000000E+00 -0.00000000000E+00 -0.20560243916E+04  0.20560243916E+04  0.00000000000E+00 0. -1.
        -13    1    1    2    0    0  0.10774712503E+02 -0.27907153532E+03 -0.45403656377E+03  0.53305368272E+03  0.10566000000E+00 0.  1.
         13    1    1    2    0    0 -0.25775829668E+03 -0.85301881553E+02 -0.12441729148E+04  0.12734527881E+04  0.10566000000E+00 0. -1.
         -4    1    1    2    0  502  0.24698358418E+03  0.36437341687E+03 -0.14414196257E+03  0.46319087119E+03  0.00000000000E+00 0. -1.
</event>
<event>
 5    1  0.4881333E-005  0.4829643E+03  0.7818608E-02  0.9837671E-01
         21   -1    0    0  501  502  0.00000000000E+00  0.00000000000E+00  0.45642503029E+03  0.45642503029E+03  0.00000000000E+00 0. -1.
         -4   -1    0    0    0  501 -0.00000000000E+00 -0.00000000000E+00 -0.77213768763E+03  0.77213768763E+03  0.00000000000E+00 0. -1.
        -13    1    1    2    0    0  0.60293963466E+02 -0.14457085875E+03 -0.10859433168E+03  0.19060124676E+03  0.10566000000E+00 0.  1.
         13    1    1    2    0    0  0.67440874611E+02 -0.42230525427E+03 -0.22493443105E+02  0.42824755166E+03  0.10566000000E+00 0. -1.
         -4    1    1    2    0  502 -0.12773483808E+03  0.56687611302E+03 -0.18462488256E+03  0.60971391950E+03  0.00000000000E+00 0. -1.
</event>
<event>
 5    1  0.4881333E-005  0.4407805E+02  0.7818608E-02  0.1330170E+00
         -4   -1    0    0    0  501 -0.00000000000E+00  0.00000000000E+00  0.14501651334E+03  0.14501651334E+03  0.00000000000E+00 0. -1.
         21   -1    0    0  501  502  0.00000000000E+00 -0.00000000000E+00 -0.13797840455E+03  0.13797840455E+03  0.00000000000E+00 0. -1.
        -13    1    1    2    0    0 -0.61310476036E+02  0.43837688616E+02 -0.50301015715E+01  0.75538271762E+02  0.10566000000E+00 0.  1.
         13    1    1    2    0    0  0.21797747889E+02 -0.24302618624E+02  0.10211172202E+03  0.10720342356E+03  0.10566000000E+00 0. -1.
         -4    1    1    2    0  502  0.39512728147E+02 -0.19535069992E+02 -0.90043511657E+02  0.10025322258E+03  0.00000000000E+00 0. -1.
</event>
<event>
 5    1  0.4881333E-005  0.2952288E+03  0.7818608E-02  0.1009295E+00
         21   -1    0    0  501  502  0.00000000000E+00  0.00000000000E+00  0.38476039547E+03  0.38476039547E+03  0.00000000000E+00 0. -1.
         -4   -1    0    0    0  501 -0.00000000000E+00 -0.00000000000E+00 -0.11213512903E+04  0.11213512903E+04  0.00000000000E+00 0. -1.
        -13    1    1    2    0    0  0.17981354755E+03  0.21110054190E+03 -0.12377022999E+03  0.30366993870E+03  0.10566000000E+00 0.  1.
         13    1    1    2    0    0 -0.12705230813E+03 -0.34634821766E+03  0.17005160106E+03  0.40622276532E+03  0.10566000000E+00 0. -1.
         -4    1    1    2    0  502 -0.52761239413E+02  0.13524767575E+03 -0.78287226586E+03  0.79621898171E+03  0.00000000000E+00 0. -1.
</event>
<event>
 5    1  0.4881333E-005  0.3892185E+03  0.7818608E-02  0.9760709E-01
         21   -1    0    0  501  502  0.00000000000E+00  0.00000000000E+00  0.62180735705E+03  0.62180735705E+03  0.00000000000E+00 0.  1.
          4   -1    0    0  502    0 -0.00000000000E+00 -0.00000000000E+00 -0.84819599922E+03  0.84819599922E+03  0.00000000000E+00 0.  1.
        -13    1    1    2    0    0  0.47628470314E+03 -0.43350461257E+03  0.17618072013E+03  0.66769231302E+03  0.10566000000E+00 0.  1.
         13    1    1    2    0    0 -0.31777934491E+03  0.13147173246E+03 -0.26649538718E+03  0.43507278821E+03  0.10566000000E+00 0. -1.
          4    1    1    2  501    0 -0.15850535823E+03  0.30203288011E+03 -0.13607397512E+03  0.36723825504E+03  0.00000000000E+00 0.  1.
</event>
<event>
 5    1  0.4881333E-005  0.8776862E+02  0.7818608E-02  0.1186551E+00
         21   -1    0    0  501  502  0.00000000000E+00  0.00000000000E+00  0.29921567018E+02  0.29921567018E+02  0.00000000000E+00 0.  1.
         -4   -1    0    0    0  501 -0.00000000000E+00 -0.00000000000E+00 -0.40369902617E+03  0.40369902617E+03  0.00000000000E+00 0. -1.
        -13    1    1    2    0    0  0.70326580685E+02 -0.66572812342E+02 -0.12644016142E+03  0.15926359558E+03  0.10566000000E+00 0.  1.
         13    1    1    2    0    0 -0.73755571541E+02  0.41127167192E+02 -0.22499737788E+03  0.24032303142E+03  0.10566000000E+00 0. -1.
         -4    1    1    2    0  502  0.34289908569E+01  0.25445645150E+02 -0.22339919859E+02  0.34033966191E+02  0.00000000000E+00 0. -1.
</event>
<event>
 5    1  0.4881333E-005  0.1106597E+03  0.7818608E-02  0.1148030E+00
         -4   -1    0    0    0  501 -0.00000000000E+00  0.00000000000E+00  0.10817454348E+03  0.10817454348E+03  0.00000000000E+00 0. -1.
         21   -1    0    0  501  502  0.00000000000E+00 -0.00000000000E+00 -0.22222779579E+03  0.22222779579E+03  0.00000000000E+00 0.  1.
        -13    1    1    2    0    0 -0.74317382273E+02  0.79137516883E+02 -0.13973596033E+02  0.10945817665E+03  0.10566000000E+00 0.  1.
         13    1    1    2    0    0  0.69796296987E+02 -0.88405745717E+02  0.74857833527E+01  0.11288554852E+03  0.10566000000E+00 0. -1.
         -4    1    1    2    0  502  0.45210852857E+01  0.92682288340E+01 -0.10756543963E+03  0.10805861409E+03  0.00000000000E+00 0. -1.
</event>
<event>
 5    1  0.4881333E-005  0.4955949E+03  0.7818608E-02  0.9715132E-01
         -4   -1    0    0    0  501 -0.00000000000E+00  0.00000000000E+00  0.19406499849E+04  0.19406499849E+04  0.00000000000E+00 0. -1.
         21   -1    0    0  501  502  0.00000000000E+00 -0.00000000000E+00 -0.22986024752E+03  0.22986024752E+03  0.00000000000E+00 0. -1.
        -13    1    1    2    0    0 -0.19049567661E+03  0.11145447175E+03  0.69841620731E+03  0.73245881241E+03  0.10566000000E+00 0.  1.
         13    1    1    2    0    0  0.60127263015E+03 -0.62191627522E+02  0.54529057539E+03  0.81408746279E+03  0.10566000000E+00 0. -1.
         -4    1    1    2    0  502 -0.41077695354E+03 -0.49262844227E+02  0.46708295473E+03  0.62396395727E+03  0.00000000000E+00 0. -1.
</event>
<event>
 5    1  0.4881333E-005  0.5000243E+03  0.7818608E-02  0.9661995E-01
          4   -1    0    0  502    0 -0.00000000000E+00  0.00000000000E+00  0.18275902878E+04  0.18275902878E+04  0.00000000000E+00 0.  1.
         21   -1    0    0  501  502  0.00000000000E+00 -0.00000000000E+00 -0.25939094159E+03  0.25939094159E+03  0.00000000000E+00 0.  1.
        -13    1    1    2    0    0 -0.43515797849E+03 -0.46556363324E+03  0.49882092946E+03  0.80928010829E+03  0.10566000000E+00 0.  1.
         13    1    1    2    0    0  0.11016829658E+03  0.23405895233E+03  0.64627451588E+03  0.69612599993E+03  0.10566000000E+00 0. -1.
          4    1    1    2  501    0  0.32498968191E+03  0.23150468091E+03  0.42310390084E+03  0.58157512115E+03  0.00000000000E+00 0.  1.
</event>
<event>
 5    1  0.4881333E-005  0.1498296E+03  0.7818608E-02  0.1101280E+00
         21   -1    0    0  501  502  0.00000000000E+00  0.00000000000E+00  0.16078388157E+04  0.16078388157E+04  0.00000000000E+00 0.  1.
         -4   -1    0    0    0  501 -0.00000000000E+00 -0.00000000000E+00 -0.91847046209E+02  0.91847046209E+02  0.00000000000E+00 0. -1.
        -13    1    1    2    0    0 -0.12983514940E+03  0.13558089786E+03  0.98454574915E+03  0.10022822403E+04  0.10566000000E+00 0.  1.
         13    1    1    2    0    0  0.14117646489E+03 -0.46380007944E+02 -0.96255571284E+01  0.14891125508E+03  0.10566000000E+00 0. -1.
         -4    1    1    2    0  502 -0.11341315484E+02 -0.89200889920E+02  0.54107157746E+03  0.54849236653E+03  0.00000000000E+00 0. -1.
</event>
<event>
 5    1  0.4881333E-005  0.4893846E+03  0.7818608E-02  0.9675483E-01
         21   -1    0    0  501  502  0.00000000000E+00  0.00000000000E+00  0.35645561543E+03  0.35645561543E+03  0.00000000000E+00 0.  1.
          4   -1    0    0  502    0 -0.00000000000E+00 -0.00000000000E+00 -0.15083059784E+04  0.15083059784E+04  0.00000000000E+00 0.  1.
        -13    1    1    2    0    0 -0.56163093708E+03 -0.12095178162E+03 -0.14114967315E+03  0.59159266760E+03  0.10566000000E+00 0.  1.
         13    1    1    2    0    0  0.15335644464E+03  0.21389305453E+03 -0.71127054077E+03  0.75840242036E+03  0.10566000000E+00 0. -1.
          4    1    1    2  501    0  0.40827449244E+03 -0.92941272904E+02 -0.29943014901E+03  0.51476650583E+03  0.00000000000E+00 0.  1.
</event>
<event>
 5    1  0.4881333E-005  0.2853424E+03  0.7818608E-02  0.1029618E+00
         21   -1    0    0  501  502  0.00000000000E+00  0.00000000000E+00  0.23160271285E+03  0.23160271285E+03  0.00000000000E+00 0.  1.
          4   -1    0    0  502    0 -0.00000000000E+00 -0.00000000000E+00 -0.17920027742E+04  0.17920027742E+04  0.00000000000E+00 0.  1.
        -13    1    1    2    0    0 -0.12945062424E+03 -0.30625709876E+03 -0.10569320574E+04  0.11079965071E+04  0.10566000000E+00 0.  1.
         13    1    1    2    0    0  0.17049541286E+03  0.24240803053E+02 -0.59251511266E+03  0.61703360706E+03  0.10566000000E+00 0. -1.
          4    1    1    2  501    0 -0.41044788617E+02  0.28201629570E+03  0.89047108721E+02  0.29857537287E+03  0.00000000000E+00 0.  1.
</event>
<event>
 5    1  0.4881333E-005  0.1677500E+03  0.7818608E-02  0.1084814E+00
         -4   -1    0    0    0  501 -0.00000000000E+00  0.00000000000E+00  0.21441113767E+03  0.21441113767E+03  0.00000000000E+00 0. -1.
         21   -1    0    0  501  502  0.00000000000E+00 -0.00000000000E+00 -0.18023582171E+03  0.18023582171E+03  0.00000000000E+00 0.  1.
        -13    1    1    2    0    0 -0.14108559407E+03  0.80310743707E+02 -0.66597973307E+02  0.17547154077E+03  0.10566000000E+00 0.  1.
         13    1    1    2    0    0  0.15612316982E+03 -0.67670442814E+02  0.10376999291E+03  0.19930367678E+03  0.10566000000E+00 0. -1.
         -4    1    1    2    0  502 -0.15037575750E+02 -0.12640300893E+02 -0.29967036406E+01  0.19871741841E+02  0.00000000000E+00 0. -1.
</event>
<event>
 5    1  0.4881333E-005  0.1198554E+03  0.7818608E-02  0.1135334E+00
          4   -1    0    0  502    0 -0.00000000000E+00  0.00000000000E+00  0.36587694313E+03  0.36587694313E+03  0.00000000000E+00 0.  1.
         21   -1    0    0  501  502  0.00000000000E+00 -0.00000000000E+00 -0.82325043463E+02  0.82325043463E+02  0.00000000000E+00 0. -1.
        -13    1    1    2    0    0 -0.11768606896E+03 -0.13621116877E+02  0.28087541529E+03  0.30483857323E+03  0.10566000000E+00 0.  1.
         13    1    1    2    0    0  0.12721055029E+03  0.22784127810E+01  0.83453258512E+01  0.12750439560E+03  0.10566000000E+00 0. -1.
          4    1    1    2  501    0 -0.95244813280E+01  0.11342704096E+02 -0.56688414733E+01  0.15859017764E+02  0.00000000000E+00 0.  1.
</event>
<event>
 5    1  0.4881333E-005  0.3736381E+02  0.7818608E-02  0.1353959E+00
         -4   -1    0    0    0  501 -0.00000000000E+00  0.00000000000E+00  0.16832166771E+03  0.16832166771E+03  0.00000000000E+00 0. -1.
         21   -1    0    0  501  502  0.00000000000E+00 -0.00000000000E+00 -0.51423032517E+02  0.51423032517E+02  0.00000000000E+00 0.  1.
        -13    1    1    2    0    0  0.54685534191E+02 -0.27379402299E+02 -0.88254612946E+01  0.61790284439E+02  0.10566000000E+00 0.  1.
         13    1    1    2    0    0 -0.29294664025E+02  0.20470410707E+02  0.12667833316E+03  0.13162304628E+03  0.10566000000E+00 0. -1.
         -4    1    1    2    0  502 -0.25390870166E+02  0.69089915918E+01 -0.95423667392E+00  0.26331369509E+02  0.00000000000E+00 0. -1.
</event>
<event>
 5    1  0.4881333E-005  0.3667053E+02  0.7818608E-02  0.1358163E+00
          4   -1    0    0  502    0 -0.00000000000E+00  0.00000000000E+00  0.24661731725E+02  0.24661731725E+02  0.00000000000E+00 0.  1.
         21   -1    0    0  501  502  0.00000000000E+00 -0.00000000000E+00 -0.79647458071E+02  0.79647458071E+02  0.00000000000E+00 0. -1.
        -13    1    1    2    0    0  0.24840803212E+02  0.32140135826E+02 -0.14174446543E+02  0.43023016328E+02  0.10566000000E+00 0.  1.
         13    1    1    2    0    0 -0.25869611643E+02 -0.20157732798E+02 -0.24107004182E+02  0.40702945996E+02  0.10566000000E+00 0. -1.
          4    1    1    2  501    0  0.10288084312E+01 -0.11982403028E+02 -0.16704275621E+02  0.20583227472E+02  0.00000000000E+00 0.  1.
</event>
<event>
 5    1  0.4881333E-005  0.4843354E+03  0.7818608E-02  0.9602778E-01
         21   -1    0    0  501  502  0.00000000000E+00  0.00000000000E+00  0.14228760021E+03  0.14228760021E+03  0.00000000000E+00 0.  1.
          4   -1    0    0  502    0 -0.00000000000E+00 -0.00000000000E+00 -0.35171503327E+04  0.35171503327E+04  0.00000000000E+00 0.  1.
        -13    1    1    2    0    0 -0.28217192949E+03 -0.76409929482E+02 -0.12853713276E+04  0.13181953331E+04  0.10566000000E+00 0.  1.
         13    1    1    2    0    0 -0.29161713449E+03 -0.19515211640E+03 -0.11875263925E+04  0.12382826195E+04  0.10566000000E+00 0. -1.
          4    1    1    2  501    0  0.57378906398E+03  0.27156204588E+03 -0.90196501234E+03  0.11029599803E+04  0.00000000000E+00 0.  1.
</event>
<event>
 5    1  0.4881333E-005  0.1437864E+03  0.7818608E-02  0.1107406E+00
         21   -1    0    0  501  502  0.00000000000E+00  0.00000000000E+00  0.64187203194E+02  0.64187203194E+02  0.00000000000E+00 0.  1.
         -4   -1    0    0    0  501 -0.00000000000E+00 -0.00000000000E+00 -0.35897695616E+03  0.35897695616E+03  0.00000000000E+00 0. -1.
        -13    1    1    2    0    0 -0.62471525691E+02 -0.13006220314E+03 -0.14020036797E+03  0.20118405143E+03  0.10566000000E+00 0.  1.
         13    1    1    2    0    0  0.51755889723E+02  0.13388179570E+03 -0.15409936550E+03  0.21059352544E+03  0.10566000000E+00 0. -1.
         -4    1    1    2    0  502  0.10715635968E+02 -0.38195925667E+01 -0.49001948708E+00  0.11386582484E+02  0.00000000000E+00 0. -1.
</event>
<event>
 5    1  0.4881333E-005  0.3601568E+03  0.7818608E-02  0.9888489E-01
         21   -1    0    0  501  502  0.00000000000E+00  0.00000000000E+00  0.26046086131E+03  0.26046086131E+03  0.00000000000E+00 0. -1.
          4   -1    0    0  502    0 -0.00000000000E+00 -0.00000000000E+00 -0.18135120029E+04  0.18135120029E+04  0.00000000000E+00 0.  1.
        -13    1    1    2    0    0  0.51629545112E+03 -0.12793185213E+03 -0.95178128478E+03  0.10903280134E+04  0.10566000000E+00 0.  1.
         13    1    1    2    0    0 -0.29105810856E+03 -0.12874176735E+03 -0.55398977661E+03  0.63890057831E+03  0.10566000000E+00 0. -1.
          4    1    1    2  501    0 -0.22523734255E+03  0.25667361948E+03 -0.47280080204E+02  0.34474427247E+03  0.00000000000E+00 0.  1.
</event>
<event>
 5    1  0.4881333E-005  0.3005097E+03  0.7818608E-02  0.1007095E+00
         21   -1    0    0  501  502  0.00000000000E+00  0.00000000000E+00  0.14998967717E+03  0.14998967717E+03  0.00000000000E+00 0. -1.
          4   -1    0    0  502    0 -0.00000000000E+00 -0.00000000000E+00 -0.83559239745E+03  0.83559239745E+03  0.00000000000E+00 0.  1.
        -13    1    1    2    0    0  0.11092295479E+03  0.26803360665E+03 -0.29502235822E+03  0.41374402619E+03  0.10566000000E+00 0.  1.
         13    1    1    2    0    0 -0.99038011094E+02 -0.29339386581E+03 -0.42601839196E+03  0.52666893737E+03  0.10566000000E+00 0. -1.
          4    1    1    2  501    0 -0.11884943695E+02  0.25360259164E+02  0.35438029894E+02  0.45169111064E+02  0.00000000000E+00 0.  1.
</event>
<event>
 5    1  0.4881333E-005  0.4591764E+03  0.7818608E-02  0.1004370E+00
         -4   -1    0    0    0  501 -0.00000000000E+00  0.00000000000E+00  0.79571131039E+03  0.79571131039E+03  0.00000000000E+00 0. -1.
         21   -1    0    0  501  502  0.00000000000E+00 -0.00000000000E+00 -0.85560076539E+03  0.85560076539E+03  0.00000000000E+00 0. -1.
        -13    1    1    2    0    0  0.91951765282E+02  0.33268329246E+01  0.49052965015E+03  0.49908470603E+03  0.10566000000E+00 0.  1.
         13    1    1    2    0    0 -0.37477894502E+03 -0.34123070893E+03 -0.89736408468E+02  0.51473322072E+03  0.10566000000E+00 0. -1.
         -4    1    1    2    0  502  0.28282717974E+03  0.33790387601E+03 -0.46068269668E+03  0.63749414903E+03  0.00000000000E+00 0. -1.
</event>
<event>
 5    1  0.4881333E-005  0.4338246E+03  0.7818608E-02  0.1019567E+00
         -4   -1    0    0    0  501 -0.00000000000E+00  0.00000000000E+00  0.78016752584E+03  0.78016752584E+03  0.00000000000E+00 0. -1.
         21   -1    0    0  501  502  0.00000000000E+00 -0.00000000000E+00 -0.37210227775E+03  0.37210227775E+03  0.00000000000E+00 0. -1.
        -13    1    1    2    0    0  0.64209982089E+02  0.19388433079E+02  0.56871282477E+02  0.87938541446E+02  0.10566000000E+00 0.  1.
         13    1    1    2    0    0 -0.73337840790E+02  0.42518339134E+03 -0.86880712852E+02  0.44012228368E+03  0.10566000000E+00 0. -1.
         -4    1    1    2    0  502  0.91278587011E+01 -0.44457182442E+03  0.43807467846E+03  0.62420897845E+03  0.00000000000E+00 0. -1.
</event>
<event>
 5    1  0.4881333E-005  0.2987872E+03  0.7818608E-02  0.1009064E+00
          4   -1    0    0  502    0 -0.00000000000E+00  0.00000000000E+00  0.11044182712E+04  0.11044182712E+04  0.00000000000E+00 0.  1.
         21   -1    0    0  501  502  0.00000000000E+00 -0.00000000000E+00 -0.56000729617E+03  0.56000729617E+03  0.00000000000E+00 0.  1.
        -13    1    1    2    0    0  0.27203895047E+03 -0.43651187058E+01 -0.31151969035E+03  0.41360461008E+03  0.10566000000E+00 0.  1.
         13    1    1    2    0    0  0.27045091326E+03  0.95836063435E+02  0.55245255696E+03  0.62252075178E+03  0.10566000000E+00 0. -1.
          4    1    1    2  501    0 -0.54248986373E+03 -0.91470944729E+02  0.30347810846E+03  0.62830020555E+03  0.00000000000E+00 0.  1.
</event>
<event>
 5    1  0.4881333E-005  0.1306018E+03  0.7818608E-02  0.1121991E+00
         21   -1    0    0  501  502  0.00000000000E+00  0.00000000000E+00  0.25116659121E+03  0.25116659121E+03  0.00000000000E+00 0. -1.
          4   -1    0    0  502    0 -0.00000000000E+00 -0.00000000000E+00 -0.87617472144E+02  0.87617472144E+02  0.00000000000E+00 0.  1.
        -13    1    1    2    0    0 -0.12007028940E+03 -0.55049932242E+02  0.72536318806E+02  0.15069471838E+03  0.10566000000E+00 0.  1.
         13    1    1    2    0    0  0.12168752766E+03  0.44628546655E+02  0.39485967214E+02  0.13549433323E+03  0.10566000000E+00 0. -1.
          4    1    1    2  501    0 -0.16172382620E+01  0.10421385587E+02  0.51526833047E+02  0.52595011750E+02  0.00000000000E+00 0.  1.
</event>
<event>
 5    1  0.4881333E-005  0.2874968E+03  0.7818608E-02  0.1012604E+00
         21   -1    0    0  501  502  0.00000000000E+00  0.00000000000E+00  0.34140116391E+03  0.34140116391E+03  0.00000000000E+00 0.  1.
          4   -1    0    0  502    0 -0.00000000000E+00 -0.00000000000E+00 -0.11135478172E+04  0.11135478172E+04  0.00000000000E+00 0.  1.
        -13    1    1    2    0    0  0.27368956934E+03  0.96177440580E+01 -0.44013449708E+03  0.51837907756E+03  0.10566000000E+00 0.  1.
         13    1    1    2    0    0 -0.30000761096E+03  0.33520619730E+01 -0.59796015125E+03  0.66900833821E+03  0.10566000000E+00 0. -1.
          4    1    1    2  501    0  0.26318041627E+02 -0.12969806031E+02  0.26594799504E+03  0.26756156534E+03  0.00000000000E+00 0.  1.
</event>
<event>
 5    1  0.4881333E-005  0.5053232E+03  0.7818608E-02  0.9769318E-01
         21   -1    0    0  501  502  0.00000000000E+00  0.00000000000E+00  0.20179968288E+03  0.20179968288E+03  0.00000000000E+00 0. -1.
         -4   -1    0    0    0  501 -0.00000000000E+00 -0.00000000000E+00 -0.17855041539E+04  0.17855041539E+04  0.00000000000E+00 0. -1.
        -13    1    1    2    0    0 -0.42916521982E+02 -0.16724957814E+03 -0.19694614844E+03  0.26191992249E+03  0.10566000000E+00 0.  1.
         13    1    1    2    0    0  0.20910210614E+03 -0.38936980598E+03 -0.67247907375E+03  0.80471153365E+03  0.10566000000E+00 0. -1.
         -4    1    1    2    0  502 -0.16618558416E+03  0.55661938413E+03 -0.71427924885E+03  0.92067238065E+03  0.00000000000E+00 0. -1.
</event>
<event>
 5    1  0.4881333E-005  0.1400451E+03  0.7818608E-02  0.1111367E+00
         21   -1    0    0  501  502  0.00000000000E+00  0.00000000000E+00  0.25014252172E+02  0.25014252172E+02  0.00000000000E+00 0.  1.
         -4   -1    0    0    0  501 -0.00000000000E+00 -0.00000000000E+00 -0.10978860742E+04  0.10978860742E+04  0.00000000000E+00 0. -1.
        -13    1    1    2    0    0  0.11882612544E+03 -0.70072210336E+02 -0.37874101373E+03  0.40308129378E+03  0.10566000000E+00 0.  1.
         13    1    1    2    0    0 -0.11447725613E+03  0.83196518073E+02 -0.69138946559E+03  0.70572381785E+03  0.10566000000E+00 0. -1.
         -4    1    1    2    0  502 -0.43488693078E+01 -0.13124307738E+02 -0.27413426671E+01  0.14095214701E+02  0.00000000000E+00 0. -1.
</event>
<event>
 5    1  0.4881333E-005  0.3977206E+03  0.7818608E-02  0.1011867E+00
         -4   -1    0    0    0  501 -0.00000000000E+00  0.00000000000E+00  0.16184756381E+04  0.16184756381E+04  0.00000000000E+00 0. -1.
         21   -1    0    0  501  502  0.00000000000E+00 -0.00000000000E+00 -0.18421169998E+03  0.18421169998E+03  0.00000000000E+00 0. -1.
        -13    1    1    2    0    0  0.10251267321E+03  0.43045006525E+02  0.21886092541E+03  0.24548286415E+03  0.10566000000E+00 0.  1.
         13    1    1    2    0    0 -0.41896219884E+03  0.16869678568E+02  0.15184337564E+03  0.44594879975E+03  0.10566000000E+00 0. -1.
         -4    1    1    2    0  502  0.31644952563E+03 -0.59914685094E+02  0.10635596370E+04  0.11112556741E+04  0.00000000000E+00 0. -1.
</event>
<event>
 5    1  0.4881333E-005  0.5303403E+03  0.7818608E-02  0.9486068E-01
         21   -1    0    0  501  502  0.00000000000E+00  0.00000000000E+00  0.12128005407E+04  0.12128005407E+04  0.00000000000E+00 0.  1.
         -4   -1    0    0    0  501 -0.00000000000E+00 -0.00000000000E+00 -0.77380116786E+03  0.77380116786E+03  0.00000000000E+00 0. -1.
        -13    1    1    2    0    0 -0.54233248963E+03 -0.26933435561E+03  0.54258587197E+03  0.81305901633E+03  0.10566000000E+00 0.  1.
         13    1    1    2    0    0  0.20488247093E+02 -0.11974807923E+03 -0.42895442218E+03  0.44582651135E+03  0.10566000000E+00 0. -1.
         -4    1    1    2    0  502  0.52184424253E+03  0.38908243483E+03  0.32536792306E+03  0.72771618088E+03  0.00000000000E+00 0. -1.
</event>
<event>
 5    1  0.4881333E-005  0.4295235E+03  0.7818608E-02  0.9647460E-01
         21   -1    0    0  501  502  0.00000000000E+00  0.00000000000E+00  0.38281699097E+03  0.38281699097E+03  0.00000000000E+00 0.  1.
          4   -1    0    0  502    0 -0.00000000000E+00 -0.00000000000E+00 -0.18160086140E+04  0.18160086140E+04  0.00000000000E+00 0.  1.
        -13    1    1    2    0    0  0.63550111605E+03 -0.20836744202E+03 -0.55339493552E+03  0.86805796190E+03  0.10566000000E+00 0.  1.
         13    1    1    2    0    0 -0.34649981370E+03  0.14514388256E+03 -0.95439607104E+03  0.10256708727E+04  0.10566000000E+00 0. -1.
          4    1    1    2  501    0 -0.28900130234E+03  0.63223559461E+02  0.74599383580E+02  0.30509677032E+03  0.00000000000E+00 0.  1.
</event>
<event>
 5    1  0.4881333E-005  0.2391263E+03  0.7818608E-02  0.1036187E+00
         21   -1    0    0  501  502  0.00000000000E+00  0.00000000000E+00  0.45250736150E+03  0.45250736150E+03  0.00000000000E+00 0. -1.
          4   -1    0    0  502    0 -0.00000000000E+00 -0.00000000000E+00 -0.17624770449E+03  0.17624770449E+03  0.00000000000E+00 0.  1.
        -13    1    1    2    0    0 -0.77378544292E+02 -0.22950365864E+03  0.19712827244E+02  0.24299789129E+03  0.10566000000E+00 0.  1.
         13    1    1    2    0    0  0.35365213356E+02  0.23331874312E+03  0.17447834558E+03  0.29348089963E+03  0.10566000000E+00 0. -1.
          4    1    1    2  501    0  0.42013330936E+02 -0.38150844802E+01  0.82068484182E+02  0.92276275076E+02  0.00000000000E+00 0.  1.
</event>
<event>
 5    1  0.4881333E-005  0.3957118E+02  0.7818608E-02  0.1341241E+00
         -4   -1    0    0    0  501 -0.00000000000E+00  0.00000000000E+00  0.69679128727E+02  0.69679128727E+02  0.00000000000E+00 0. -1.
         21   -1    0    0  501  502  0.00000000000E+00 -0.00000000000E+00 -0.10239145377E+03  0.10239145377E+03  0.00000000000E+00 0. -1.
        -13    1    1    2    0    0  0.11562229741E+02 -0.23958270613E+02 -0.81061308645E+01  0.27810149388E+02  0.10566000000E+00 0.  1.
         13    1    1    2    0    0 -0.27485763179E+02  0.37396050980E+02  0.49160888647E+02  0.67607218128E+02  0.10566000000E+00 0. -1.
         -4    1    1    2    0  502  0.15923533438E+02 -0.13437780367E+02 -0.73767082825E+02  0.76653214980E+02  0.00000000000E+00 0. -1.
</event>
<event>
 5    1  0.4881333E-005  0.1886565E+03  0.7818608E-02  0.1068203E+00
         21   -1    0    0  501  502  0.00000000000E+00  0.00000000000E+00  0.44506273297E+03  0.44506273297E+03  0.00000000000E+00 0.  1.
          4   -1    0    0  502    0 -0.00000000000E+00 -0.00000000000E+00 -0.93609952979E+03  0.93609952979E+03  0.00000000000E+00 0.  1.
        -13    1    1    2    0    0 -0.17097103191E+03  0.65880476838E+02 -0.67928795446E+03  0.70356482801E+03  0.10566000000E+00 0.  1.
         13    1    1    2    0    0  0.14691436252E+03 -0.21061217442E+03 -0.15802722667E+03  0.30151937494E+03  0.10566000000E+00 0. -1.
          4    1    1    2  501    0  0.24056669381E+02  0.14473169758E+03  0.34627838431E+03  0.37607805981E+03  0.00000000000E+00 0.  1.
</event>
<event>
 5    1  0.4881333E-005  0.4746534E+03  0.7818608E-02  0.9581193E-01
         21   -1    0    0  501  502  0.00000000000E+00  0.00000000000E+00  0.29701760347E+03  0.29701760347E+03  0.00000000000E+00 0.  1.
          4   -1    0    0  502    0 -0.00000000000E+00 -0.00000000000E+00 -0.18397801525E+04  0.18397801525E+04  0.00000000000E+00 0.  1.
        -13    1    1    2    0    0 -0.19886308918E+03 -0.17410447658E+03 -0.83194479052E+03  0.87292098305E+03  0.10566000000E+00 0.  1.
         13    1    1    2    0    0 -0.39619864228E+03  0.71570984590E+02 -0.45649424659E+03  0.60867296499E+03  0.10566000000E+00 0. -1.
          4    1    1    2  501    0  0.59506173145E+03  0.10253349199E+03 -0.25432351193E+03  0.65520380794E+03  0.00000000000E+00 0.  1.
</event>
<event>
 5    1  0.4881333E-005  0.4425895E+03  0.7818608E-02  0.9618346E-01
          4   -1    0    0  502    0 -0.00000000000E+00  0.00000000000E+00  0.24373846021E+04  0.24373846021E+04  0.00000000000E+00 0.  1.
         21   -1    0    0  501  502  0.00000000000E+00 -0.00000000000E+00 -0.32329715127E+03  0.32329715127E+03  0.00000000000E+00 0.  1.
        -13    1    1    2    0    0 -0.32175407558E+02 -0.33425940339E+03  0.20528331119E+03  0.39358081079E+03  0.10566000000E+00 0.  1.
         13    1    1    2    0    0 -0.37631338307E+03 -0.24007429223E+03  0.14713990019E+04  0.15376158369E+04  0.10566000000E+00 0. -1.
          4    1    1    2  501    0  0.40848879063E+03  0.57433369562E+03  0.43740513782E+03  0.82948510571E+03  0.00000000000E+00 0.  1.
</event>
<event>
 5    1  0.4881333E-005  0.5636486E+03  0.7818608E-02  0.9348412E-01
         -4   -1    0    0    0  501 -0.00000000000E+00  0.00000000000E+00  0.12802996106E+04  0.12802996106E+04  0.00000000000E+00 0. -1.
         21   -1    0    0  501  502  0.00000000000E+00 -0.00000000000E+00 -0.13218464687E+04  0.13218464687E+04  0.00000000000E+00 0. -1.
        -13    1    1    2    0    0 -0.12189123614E+03 -0.56399520900E+03  0.36885282903E+03  0.68483610439E+03  0.10566000000E+00 0.  1.
         13    1    1    2    0    0  0.16505085197E+03  0.53077527048E+03  0.65014541040E+03  0.85536731135E+03  0.10566000000E+00 0. -1.
         -4    1    1    2    0  502 -0.43159615824E+02  0.33219938517E+02 -0.10605450975E+04  0.10619426635E+04  0.00000000000E+00 0. -1.
</event>
<event>
 5    1  0.4881333E-005  0.2124450E+02  0.7818608E-02  0.1493246E+00
         21   -1    0    0  501  502  0.00000000000E+00  0.00000000000E+00  0.27200736406E+02  0.27200736406E+02  0.00000000000E+00 0.  1.
         -4   -1    0    0    0  501 -0.00000000000E+00 -0.00000000000E+00 -0.57634652662E+02  0.57634652662E+02  0.00000000000E+00 0. -1.
        -13    1    1    2    0    0 -0.19149519894E+02 -0.59285555972E+01  0.30950579226E+01  0.20284043759E+02  0.10566000000E+00 0.  1.
         13    1    1    2    0    0  0.19775151337E+02 -0.11817048467E+02 -0.39576513520E+02  0.45793130831E+02  0.10566000000E+00 0. -1.
         -4    1    1    2    0  502 -0.62563144363E+00  0.17745604064E+02  0.60475393417E+01  0.18758214478E+02  0.00000000000E+00 0. -1.
</event>
<event>
 5    1  0.4881333E-005  0.1605309E+03  0.7818608E-02  0.1091166E+00
         21   -1    0    0  501  502  0.00000000000E+00  0.00000000000E+00  0.37004432764E+03  0.37004432764E+03  0.00000000000E+00 0.  1.
         -4   -1    0    0    0  501 -0.00000000000E+00 -0.00000000000E+00 -0.14161081143E+03  0.14161081143E+03  0.00000000000E+00 0. -1.
        -13    1    1    2    0    0  0.58846042172E+02  0.14594792812E+03  0.50797130195E+02  0.16536025520E+03  0.10566000000E+00 0.  1.
         13    1    1    2    0    0 -0.75253387141E+02 -0.14477502717E+03 -0.46854818835E+01  0.16323248964E+03  0.10566000000E+00 0. -1.
         -4    1    1    2    0  502  0.16407344969E+02 -0.11729009456E+01  0.18232186791E+03  0.18306239423E+03  0.00000000000E+00 0. -1.
</event>
<event>
 5    1  0.4881333E-005  0.4850625E+03  0.7818608E-02  0.9634690E-01
          4   -1    0    0  502    0 -0.00000000000E+00  0.00000000000E+00  0.24326056039E+03  0.24326056039E+03  0.00000000000E+00 0.  1.
         21   -1    0    0  501  502  0.00000000000E+00 -0.00000000000E+00 -0.22643303798E+04  0.22643303798E+04  0.00000000000E+00 0.  1.
        -13    1    1    2    0    0 -0.44232656202E+03  0.64587868061E+02 -0.74165896919E+03  0.86595751507E+03  0.10566000000E+00 0.  1.
         13    1    1    2    0    0  0.18172789580E+02  0.31143985172E+03 -0.91014174894E+02  0.32497480320E+03  0.10566000000E+00 0. -1.
          4    1    1    2  501    0  0.42415377244E+03 -0.37602771978E+03 -0.11883966753E+04  0.13166586219E+04  0.00000000000E+00 0.  1.
</event>
<event>
 5    1  0.4881333E-005  0.3250339E+03  0.7818608E-02  0.9974765E-01
         21   -1    0    0  501  502  0.00000000000E+00  0.00000000000E+00  0.18196694744E+03  0.18196694744E+03  0.00000000000E+00 0. -1.
         -4   -1    0    0    0  501 -0.00000000000E+00 -0.00000000000E+00 -0.11428978394E+04  0.11428978394E+04  0.00000000000E+00 0. -1.
        -13    1    1    2    0    0 -0.76774473901E+01 -0.31243673316E+03 -0.20264592093E+03  0.37247957778E+03  0.10566000000E+00 0.  1.
         13    1    1    2    0    0 -0.48162097721E+01  0.32975508494E+03 -0.82173213893E+03  0.88544075535E+03  0.10566000000E+00 0. -1.
         -4    1    1    2    0  502  0.12493657162E+02 -0.17318351776E+02  0.63447167869E+02  0.66944453751E+02  0.00000000000E+00 0. -1.
</event>
<event>
 5    1  0.4881333E-005  0.4103359E+03  0.7818608E-02  0.9699661E-01
          4   -1    0    0  502    0 -0.00000000000E+00  0.00000000000E+00  0.18554005818E+04  0.18554005818E+04  0.00000000000E+00 0.  1.
         21   -1    0    0  501  502  0.00000000000E+00 -0.00000000000E+00 -0.26610845418E+03  0.26610845418E+03  0.00000000000E+00 0.  1.
        -13    1    1    2    0    0  0.30726653433E+03 -0.34709293072E+03  0.12566704918E+04  0.13394427803E+04  0.10566000000E+00 0.  1.
         13    1    1    2    0    0 -0.25990401015E+03  0.22191150729E+03  0.47596604783E+03  0.58595093772E+03  0.10566000000E+00 0. -1.
          4    1    1    2  501    0 -0.47362524181E+02  0.12518142343E+03 -0.14334441201E+03  0.19611531792E+03  0.00000000000E+00 0.  1.
</event>
<event>
 5    1  0.4881333E-005  0.5186594E+03  0.7818608E-02  0.9515230E-01
          4   -1    0    0  502    0 -0.00000000000E+00  0.00000000000E+00  0.33794273773E+04  0.33794273773E+04  0.00000000000E+00 0.  1.
         21   -1    0    0  501  502  0.00000000000E+00 -0.00000000000E+00 -0.23844204419E+03  0.23844204419E+03  0.00000000000E+00 0.  1.
        -13    1    1    2    0    0 -0.45067298540E+03  0.31005283637E+03  0.52983433739E+03  0.76155324000E+03  0.10566000000E+00 0.  1.
         13    1    1    2    0    0  0.31270724791E+03  0.23506256115E+03  0.19478464665E+04  0.19867425849E+04  0.10566000000E+00 0. -1.
          4    1    1    2  501    0  0.13796573750E+03 -0.54511539752E+03  0.66330452922E+03  0.86957359655E+03  0.00000000000E+00 0.  1.
</event>
<event>
 5    1  0.4881333E-005  0.5349881E+03  0.7818608E-02  0.9404415E-01
         21   -1    0    0  501  502  0.00000000000E+00  0.00000000000E+00  0.72318601389E+03  0.72318601389E+03  0.00000000000E+00 0.  1.
          4   -1    0    0  502    0 -0.00000000000E+00 -0.00000000000E+00 -0.83009991253E+03  0.83009991253E+03  0.00000000000E+00 0.  1.
        -13    1    1    2    0    0 -0.57828579283E+03  0.29120894171E+03 -0.27309101188E+03  0.70270606789E+03  0.10566000000E+00 0.  1.
         13    1    1    2    0    0  0.45587022211E+03  0.43250770685E+02  0.84605026573E+00  0.45791813191E+03  0.10566000000E+00 0. -1.
          4    1    1    2  501    0  0.12241557072E+03 -0.33445971239E+03  0.16533106298E+03  0.39266172662E+03  0.00000000000E+00 0.  1.
</event>
<event>
 5    1  0.4881333E-005  0.4366609E+03  0.7818608E-02  0.9912792E-01
          4   -1    0    0  502    0 -0.00000000000E+00  0.00000000000E+00  0.20262945275E+04  0.20262945275E+04  0.00000000000E+00 0.  1.
         21   -1    0    0  501  502  0.00000000000E+00 -0.00000000000E+00 -0.30702230807E+03  0.30702230807E+03  0.00000000000E+00 0.  1.
        -13    1    1    2    0    0 -0.52571790016E+03  0.17676437524E+03  0.75832517498E+03  0.93951159496E+03  0.10566000000E+00 0.  1.
         13    1    1    2    0    0  0.16383320077E+03  0.16217354208E+02  0.96971046855E+03  0.98358666330E+03  0.10566000000E+00 0. -1.
          4    1    1    2  501    0  0.36188469938E+03 -0.19298172945E+03 -0.87634241140E+01  0.41021857729E+03  0.00000000000E+00 0.  1.
</event>
<event>
 5    1  0.4881333E-005  0.3546082E+03  0.7818608E-02  0.9870163E-01
          4   -1    0    0  502    0 -0.00000000000E+00  0.00000000000E+00  0.37490833008E+03  0.37490833008E+03  0.00000000000E+00 0.  1.
         21   -1    0    0  501  502  0.00000000000E+00 -0.00000000000E+00 -0.12563271211E+04  0.12563271211E+04  0.00000000000E+00 0. -1.
        -13    1    1    2    0    0  0.41020120527E+03  0.77510338215E+02  0.72639196006E+02  0.42373263421E+03  0.10566000000E+00 0.  1.
         13    1    1    2    0    0 -0.27999778515E+03  0.14512674160E+03 -0.12498187428E+03  0.33923592215E+03  0.10566000000E+00 0. -1.
          4    1    1    2  501    0 -0.13020342012E+03 -0.22263707981E+03 -0.82907611276E+03  0.86826689484E+03  0.00000000000E+00 0.  1.
</event>
<event>
 5    1  0.4881333E-005  0.3014251E+03  0.7818608E-02  0.1006719E+00
         21   -1    0    0  501  502  0.00000000000E+00  0.00000000000E+00  0.37897185635E+03  0.37897185635E+03  0.00000000000E+00 0.  1.
          4   -1    0    0  502    0 -0.00000000000E+00 -0.00000000000E+00 -0.63778625054E+03  0.63778625054E+03  0.00000000000E+00 0.  1.
        -13    1    1    2    0    0  0.29235887281E+03  0.67023806720E+02 -0.45511520430E+03  0.54506491496E+03  0.10566000000E+00 0.  1.
         13    1    1    2    0    0 -0.30428356265E+03 -0.46370625622E+02  0.36305621869E+02  0.30993036438E+03  0.10566000000E+00 0. -1.
          4    1    1    2  501    0  0.11924689846E+02 -0.20653181098E+02  0.15999518824E+03  0.16176282755E+03  0.00000000000E+00 0.  1.
</event>
<event>
 5    1  0.4881333E-005  0.6210306E+02  0.7818608E-02  0.1249109E+00
         21   -1    0    0  501  502  0.00000000000E+00  0.00000000000E+00  0.96531696903E+02  0.96531696903E+02  0.00000000000E+00 0. -1.
          4   -1    0    0  502    0 -0.00000000000E+00 -0.00000000000E+00 -0.10421507862E+03  0.10421507862E+03  0.00000000000E+00 0.  1.
        -13    1    1    2    0    0 -0.26034079853E+02 -0.54876452215E+02 -0.69370698459E+02  0.92203596948E+02  0.10566000000E+00 0.  1.
         13    1    1    2    0    0  0.41835741562E+02  0.56349434731E+02  0.37385608655E+02  0.79518444182E+02  0.10566000000E+00 0. -1.
          4    1    1    2  501    0 -0.15801661710E+02 -0.14729825161E+01  0.24301708090E+02  0.29024734389E+02  0.00000000000E+00 0.  1.
</event>
<event>
 5    1  0.4881333E-005  0.1384234E+03  0.7818608E-02  0.1113126E+00
         21   -1    0    0  501  502  0.00000000000E+00  0.00000000000E+00  0.26736335598E+03  0.26736335598E+03  0.00000000000E+00 0.  1.
          4   -1    0    0  502    0 -0.00000000000E+00 -0.00000000000E+00 -0.54859331539E+03  0.54859331539E+03  0.00000000000E+00 0.  1.
        -13    1    1    2    0    0 -0.12827859489E+03  0.57178088718E+02 -0.50228945689E+03  0.52155483068E+03  0.10566000000E+00 0.  1.
         13    1    1    2    0    0  0.11789023207E+03 -0.21132177869E+02  0.69937892758E+02  0.13869389232E+03  0.10566000000E+00 0. -1.
          4    1    1    2  501    0  0.10388362829E+02 -0.36045910849E+02  0.15112160473E+03  0.15570794838E+03  0.00000000000E+00 0.  1.
</event>
<event>
 5    1  0.4881333E-005  0.1056077E+03  0.7818608E-02  0.1202502E+00
         -4   -1    0    0    0  501 -0.00000000000E+00  0.00000000000E+00  0.41163380818E+03  0.41163380818E+03  0.00000000000E+00 0. -1.
         21   -1    0    0  501  502  0.00000000000E+00 -0.00000000000E+00 -0.47088997266E+02  0.47088997266E+02  0.00000000000E+00 0. -1.
        -13    1    1    2    0    0 -0.32717221680E+02 -0.12220481727E+02  0.55551418589E+01  0.35364212606E+02  0.10566000000E+00 0.  1.
         13    1    1    2    0    0  0.12240020130E+03 -0.22638421096E+02  0.23976077991E+03  0.27014727490E+03  0.10566000000E+00 0. -1.
         -4    1    1    2    0  502 -0.89682979617E+02  0.34858902823E+02  0.11922888915E+03  0.15321131795E+03  0.00000000000E+00 0. -1.
</event>
<event>
 5    1  0.4881333E-005  0.5344266E+03  0.7818608E-02  0.9405548E-01
          4   -1    0    0  502    0 -0.00000000000E+00  0.00000000000E+00  0.18001524111E+04  0.18001524111E+04  0.00000000000E+00 0.  1.
         21   -1    0    0  501  502  0.00000000000E+00 -0.00000000000E+00 -0.30653318522E+03  0.30653318522E+03  0.00000000000E+00 0.  1.
        -13    1    1    2    0    0  0.25443429001E+02 -0.69017517418E+03  0.53122251578E+03  0.87131309618E+03  0.10566000000E+00 0.  1.
         13    1    1    2    0    0 -0.10704776442E+03  0.42749494386E+03  0.34567816071E+03  0.56009334298E+03  0.10566000000E+00 0. -1.
          4    1    1    2  501    0  0.81604335419E+02  0.26268023032E+03  0.61671854939E+03  0.67527915718E+03  0.00000000000E+00 0.  1.
</event>
<event>
 5    1  0.4881333E-005  0.5039879E+03  0.7818608E-02  0.9643748E-01
         -4   -1    0    0    0  501 -0.00000000000E+00  0.00000000000E+00  0.48363428160E+03  0.48363428160E+03  0.00000000000E+00 0. -1.
         21   -1    0    0  501  502  0.00000000000E+00 -0.00000000000E+00 -0.11673746609E+04  0.11673746609E+04  0.00000000000E+00 0. -1.
        -13    1    1    2    0    0 -0.26366595318E+03  0.55196968780E+02  0.15628264961E+03  0.31143332828E+03  0.10566000000E+00 0.  1.
         13    1    1    2    0    0 -0.34764733792E+03 -0.18858760906E+03 -0.19509757825E+03  0.44100684129E+03  0.10566000000E+00 0. -1.
         -4    1    1    2    0  502  0.61131329110E+03  0.13339064028E+03 -0.64492545069E+03  0.89856877296E+03  0.00000000000E+00 0. -1.
</event>
<event>
 5    1  0.4881333E-005  0.3789705E+03  0.7818608E-02  0.9791824E-01
         21   -1    0    0  501  502  0.00000000000E+00  0.00000000000E+00  0.26842985650E+03  0.26842985650E+03  0.00000000000E+00 0. -1.
         -4   -1    0    0    0  501 -0.00000000000E+00 -0.00000000000E+00 -0.23795396650E+04  0.23795396650E+04  0.00000000000E+00 0. -1.
        -13    1    1    2    0    0 -0.23782289240E+03 -0.27654516421E+03 -0.11813947306E+04  0.12364184068E+04  0.10566000000E+00 0.  1.
         13    1    1    2    0    0  0.48322791559E+03  0.22688035815E+03 -0.97734443189E+02  0.54271166182E+03  0.10566000000E+00 0. -1.
         -4    1    1    2    0  502 -0.24540502319E+03  0.49664806054E+02 -0.83198063476E+03  0.86883945294E+03  0.00000000000E+00 0. -1.
</event>
<event>
 5    1  0.4881333E-005  0.4535238E+03  0.7818608E-02  0.9642153E-01
         21   -1    0    0  501  502  0.00000000000E+00  0.00000000000E+00  0.18308365523E+03  0.18308365523E+03  0.00000000000E+00 0. -1.
         -4   -1    0    0    0  501 -0.00000000000E+00 -0.00000000000E+00 -0.28272895351E+04  0.28272895351E+04  0.00000000000E+00 0. -1.
        -13    1    1    2    0    0  0.32298531565E+03 -0.18409407167E+03 -0.82571071760E+03  0.90554311972E+03  0.10566000000E+00 0.  1.
         13    1    1    2    0    0 -0.28365793195E+02  0.50313494866E+03 -0.47357391255E+03  0.69153572330E+03  0.10566000000E+00 0. -1.
         -4    1    1    2    0  502 -0.29461952246E+03 -0.31904087699E+03 -0.13449212497E+04  0.14132943473E+04  0.00000000000E+00 0. -1.
</event>
<event>
 5    1  0.4881333E-005  0.3819097E+03  0.7818608E-02  0.1011070E+00
         21   -1    0    0  501  502  0.00000000000E+00  0.00000000000E+00  0.14149774821E+03  0.14149774821E+03  0.00000000000E+00 0.  1.
          4   -1    0    0  502    0 -0.00000000000E+00 -0.00000000000E+00 -0.23097915572E+04  0.23097915572E+04  0.00000000000E+00 0.  1.
        -13    1    1    2    0    0 -0.19609663450E+03  0.20222841993E+03 -0.15982360765E+04  0.16228705405E+04  0.10566000000E+00 0.  1.
         13    1    1    2    0    0 -0.48116936496E+02  0.11949671674E+03 -0.33998946391E+03  0.36357606030E+03  0.10566000000E+00 0. -1.
          4    1    1    2  501    0  0.24421357100E+03 -0.32172513666E+03 -0.23006826862E+03  0.46484270462E+03  0.00000000000E+00 0.  1.
</event>
<event>
 5    1  0.4881333E-005  0.6465517E+02  0.7818608E-02  0.1241490E+00
          4   -1    0    0  502    0 -0.00000000000E+00  0.00000000000E+00  0.10879249900E+03  0.10879249900E+03  0.00000000000E+00 0.  1.
         21   -1    0    0  501  502  0.00000000000E+00 -0.00000000000E+00 -0.23046344100E+03  0.23046344100E+03  0.00000000000E+00 0.  1.
        -13    1    1    2    0    0 -0.21066287196E+02  0.61088694292E+02  0.82534579312E+02  0.10482168179E+03  0.10566000000E+00 0.  1.
         13    1    1    2    0    0  0.50049547534E+02 -0.50654187643E+02 -0.82930671765E+02  0.10930833188E+03  0.10566000000E+00 0. -1.
          4    1    1    2  501    0 -0.28983260338E+02 -0.10434506649E+02 -0.12127484955E+03  0.12512592634E+03  0.00000000000E+00 0.  1.
</event>
<event>
 5    1  0.4881333E-005  0.4995520E+03  0.7818608E-02  0.9646128E-01
          4   -1    0    0  502    0 -0.00000000000E+00  0.00000000000E+00  0.21491801890E+04  0.21491801890E+04  0.00000000000E+00 0.  1.
         21   -1    0    0  501  502  0.00000000000E+00 -0.00000000000E+00 -0.23392136306E+03  0.23392136306E+03  0.00000000000E+00 0.  1.
        -13    1    1    2    0    0  0.53283427240E+03 -0.29698504101E+03  0.53017500486E+03  0.80820667120E+03  0.10566000000E+00 0.  1.
         13    1    1    2    0    0 -0.27249056882E+03 -0.31556079823E+02  0.86186176648E+03  0.90446260948E+03  0.10566000000E+00 0. -1.
          4    1    1    2  501    0 -0.26034370359E+03  0.32854112083E+03  0.52322205458E+03  0.67043227136E+03  0.00000000000E+00 0.  1.
</event>
<event>
 5    1  0.4881333E-005  0.5006043E+03  0.7818608E-02  0.9590361E-01
         21   -1    0    0  501  502  0.00000000000E+00  0.00000000000E+00  0.30343918990E+03  0.30343918990E+03  0.00000000000E+00 0. -1.
         -4   -1    0    0    0  501 -0.00000000000E+00 -0.00000000000E+00 -0.15882401220E+04  0.15882401220E+04  0.00000000000E+00 0. -1.
        -13    1    1    2    0    0  0.22357258577E+03  0.24562995107E+03 -0.29171181454E+03  0.44205719977E+03  0.10566000000E+00 0.  1.
         13    1    1    2    0    0  0.13158841516E+03  0.30548330530E+03 -0.59761168593E+03  0.68394100560E+03  0.10566000000E+00 0. -1.
         -4    1    1    2    0  502 -0.35516100093E+03 -0.55111325637E+03 -0.39547743161E+03  0.76568110649E+03  0.00000000000E+00 0. -1.
</event>
<event>
 5    1  0.4881333E-005  0.2280187E+03  0.7818608E-02  0.1042458E+00
         21   -1    0    0  501  502  0.00000000000E+00  0.00000000000E+00  0.13925834178E+04  0.13925834178E+04  0.00000000000E+00 0. -1.
         -4   -1    0    0    0  501 -0.00000000000E+00 -0.00000000000E+00 -0.30850772459E+03  0.30850772459E+03  0.00000000000E+00 0. -1.
        -13    1    1    2    0    0 -0.93174738820E+02  0.17012432802E+03 -0.89580743997E+01  0.19417537743E+03  0.10566000000E+00 0.  1.
         13    1    1    2    0    0  0.21112635832E+03 -0.16745339548E+03 -0.11510788314E+03  0.29302698640E+03  0.10566000000E+00 0. -1.
         -4    1    1    2    0  502 -0.11795161950E+03 -0.26709325440E+01  0.12081416508E+04  0.12138887786E+04  0.00000000000E+00 0. -1.
</event>
<event>
 5    1  0.4881333E-005  0.1406787E+03  0.7818608E-02  0.1110687E+00
          4   -1    0    0  502    0 -0.00000000000E+00  0.00000000000E+00  0.46291561879E+03  0.46291561879E+03  0.00000000000E+00 0.  1.
         21   -1    0    0  501  502  0.00000000000E+00 -0.00000000000E+00 -0.95933675616E+02  0.95933675616E+02  0.00000000000E+00 0.  1.
        -13    1    1    2    0    0 -0.15131130048E+03 -0.50768928909E+02  0.26661405485E+03  0.31073406509E+03  0.10566000000E+00 0.  1.
         13    1    1    2    0    0  0.12359085783E+03 -0.29379424127E+02  0.10257872272E+03  0.16327968710E+03  0.10566000000E+00 0. -1.
          4    1    1    2  501    0  0.27720442651E+02  0.80148353036E+02 -0.22108343942E+01  0.84835542221E+02  0.00000000000E+00 0.  1.
</event>
<event>
 5    1  0.4881333E-005  0.2308068E+03  0.7818608E-02  0.1040849E+00
          4   -1    0    0  502    0 -0.00000000000E+00  0.00000000000E+00  0.95761462060E+02  0.95761462060E+02  0.00000000000E+00 0.  1.
         21   -1    0    0  501  502  0.00000000000E+00 -0.00000000000E+00 -0.84963677469E+03  0.84963677469E+03  0.00000000000E+00 0. -1.
        -13    1    1    2    0    0  0.41362090637E+02 -0.24302909937E+03 -0.16637173010E+03  0.29741138079E+03  0.10566000000E+00 0.  1.
         13    1    1    2    0    0 -0.21212355838E+02  0.20466545866E+03 -0.34546263289E+03  0.40209744577E+03  0.10566000000E+00 0. -1.
          4    1    1    2  501    0 -0.20149734799E+02  0.38363640715E+02 -0.24204094964E+03  0.24588941019E+03  0.00000000000E+00 0.  1.
</event>
<event>
 5    1  0.4881333E-005  0.2953780E+03  0.7818608E-02  0.1009232E+00
          4   -1    0    0  502    0 -0.00000000000E+00  0.00000000000E+00  0.30858431191E+04  0.30858431191E+04  0.00000000000E+00 0.  1.
         21   -1    0    0  501  502  0.00000000000E+00 -0.00000000000E+00 -0.15070152126E+03  0.15070152126E+03  0.00000000000E+00 0.  1.
        -13    1    1    2    0    0  0.15733377602E+03  0.36614733762E+03  0.17819732299E+04  0.18259918930E+04  0.10566000000E+00 0.  1.
         13    1    1    2    0    0  0.47753190992E+02 -0.24836581603E+03  0.11463861180E+04  0.11739536143E+04  0.10566000000E+00 0. -1.
          4    1    1    2  501    0 -0.20508696702E+03 -0.11778152159E+03  0.67822499493E+01  0.23659913310E+03  0.00000000000E+00 0.  1.
</event>
<event>
 5    1  0.4881333E-005  0.4600935E+02  0.7818608E-02  0.1308948E+00
          4   -1    0    0  502    0 -0.00000000000E+00  0.00000000000E+00  0.19927876447E+03  0.19927876447E+03  0.00000000000E+00 0.  1.
         21   -1    0    0  501  502  0.00000000000E+00 -0.00000000000E+00 -0.20445641411E+03  0.20445641411E+03  0.00000000000E+00 0. -1.
        -13    1    1    2    0    0  0.27349477258E+02  0.35693879677E+02  0.17251103960E+03  0.17827539623E+03  0.10566000000E+00 0.  1.
         13    1    1    2    0    0 -0.71501412234E+02 -0.45933362433E+02 -0.75526897021E+02  0.11369542239E+03  0.10566000000E+00 0. -1.
          4    1    1    2  501    0  0.44151934976E+02  0.10239482756E+02 -0.10216179221E+03  0.11176435996E+03  0.00000000000E+00 0.  1.
</event>
<event>
 5    1  0.5621276E-005  0.2655546E+03  0.7818608E-02  0.1046935E+00
         -4   -1    0    0    0  501 -0.00000000000E+00  0.00000000000E+00  0.86048093172E+03  0.86048093172E+03  0.00000000000E+00 0. -1.
         21   -1    0    0  501  502  0.00000000000E+00 -0.00000000000E+00 -0.48230284905E+03  0.48230284905E+03  0.00000000000E+00 0. -1.
        -13    1    1    2    0    0 -0.17096624557E+02 -0.12502797278E+03  0.30205292029E+03  0.32735342730E+03  0.10566000000E+00 0.  1.
         13    1    1    2    0    0 -0.19484007415E+03 -0.46124787987E+02  0.48466516985E+03  0.52439535524E+03  0.10566000000E+00 0. -1.
         -4    1    1    2    0  502  0.21193669870E+03  0.17115276076E+03 -0.40854000748E+03  0.49103499823E+03  0.00000000000E+00 0. -1.
</event>
<event>
 5    1  0.4881333E-005  0.4602153E+03  0.7818608E-02  0.9850026E-01
         21   -1    0    0  501  502  0.00000000000E+00  0.00000000000E+00  0.21043533590E+03  0.21043533590E+03  0.00000000000E+00 0.  1.
          4   -1    0    0  502    0 -0.00000000000E+00 -0.00000000000E+00 -0.17051133686E+04  0.17051133686E+04  0.00000000000E+00 0.  1.
        -13    1    1    2    0    0  0.69137923567E+02  0.48923389202E+03 -0.87393867735E+03  0.10039415703E+04  0.10566000000E+00 0.  1.
         13    1    1    2    0    0 -0.16758903731E+03 -0.45374458083E+02 -0.32726339681E+03  0.37046763546E+03  0.10566000000E+00 0. -1.
          4    1    1    2  501    0  0.98451113745E+02 -0.44385943393E+03 -0.29347595853E+03  0.54113949877E+03  0.00000000000E+00 0.  1.
</event>
<event>
 5    1  0.4881333E-005  0.4867389E+02  0.7818608E-02  0.1297284E+00
         -4   -1    0    0    0  501 -0.00000000000E+00  0.00000000000E+00  0.15890146720E+03  0.15890146720E+03  0.00000000000E+00 0. -1.
         21   -1    0    0  501  502  0.00000000000E+00 -0.00000000000E+00 -0.30295435093E+02  0.30295435093E+02  0.00000000000E+00 0. -1.
        -13    1    1    2    0    0  0.35699988932E+02  0.20559378241E+02  0.43549505237E+02  0.59947875808E+02  0.10566000000E+00 0.  1.
         13    1    1    2    0    0 -0.55021424747E+02 -0.36486553961E+02  0.38605602884E+02  0.76478948340E+02  0.10566000000E+00 0. -1.
         -4    1    1    2    0  502  0.19321435815E+02  0.15927175720E+02  0.46450923985E+02  0.52770078145E+02  0.00000000000E+00 0. -1.
</event>
<event>
 5    1  0.4881333E-005  0.4251571E+03  0.7818608E-02  0.9705277E-01
         -4   -1    0    0    0  501 -0.00000000000E+00  0.00000000000E+00  0.32719432241E+04  0.32719432241E+04  0.00000000000E+00 0. -1.
         21   -1    0    0  501  502  0.00000000000E+00 -0.00000000000E+00 -0.17118055520E+03  0.17118055520E+03  0.00000000000E+00 0. -1.
        -13    1    1    2    0    0 -0.31570001370E+03 -0.17664437466E+03  0.13367268051E+04  0.13848134519E+04  0.10566000000E+00 0.  1.
         13    1    1    2    0    0 -0.25268218262E+03  0.31257049364E+03  0.36826314878E+03  0.54512966973E+03  0.10566000000E+00 0. -1.
         -4    1    1    2    0  502  0.56838219632E+03 -0.13592611898E+03  0.13957727150E+04  0.15131806577E+04  0.00000000000E+00 0. -1.
</event>
<event>
 5    1  0.4881333E-005  0.4362740E+03  0.7818608E-02  0.9909099E-01
         21   -1    0    0  501  502  0.00000000000E+00  0.00000000000E+00  0.80341914786E+03  0.80341914786E+03  0.00000000000E+00 0.  1.
          4   -1    0    0  502    0 -0.00000000000E+00 -0.00000000000E+00 -0.55728496519E+03  0.55728496519E+03  0.00000000000E+00 0.  1.
        -13    1    1    2    0    0  0.21020046388E+03 -0.51272123890E+03  0.95905883090E+02  0.56237465573E+03  0.10566000000E+00 0.  1.
         13    1    1    2    0    0 -0.96338476957E+02  0.13655721813E+03 -0.20781275152E+03  0.26667419603E+03  0.10566000000E+00 0. -1.
          4    1    1    2  501    0 -0.11386198692E+03  0.37616402077E+03  0.35804105110E+03  0.53165526129E+03  0.00000000000E+00 0.  1.
</event>
<event>
 5    1  0.4881333E-005  0.4994460E+03  0.7818608E-02  0.9732788E-01
         -4   -1    0    0    0  501 -0.00000000000E+00  0.00000000000E+00  0.13022493440E+04  0.13022493440E+04  0.00000000000E+00 0. -1.
         21   -1    0    0  501  502  0.00000000000E+00 -0.00000000000E+00 -0.52684712233E+03  0.52684712233E+03  0.00000000000E+00 0. -1.
        -13    1    1    2    0    0  0.20272825381E+03  0.66755508590E+01  0.78393789482E+03  0.80975424789E+03  0.10566000000E+00 0.  1.
         13    1    1    2    0    0 -0.53300273498E+03 -0.25324185080E+03 -0.96383112139E+02  0.59792396337E+03  0.10566000000E+00 0. -1.
         -4    1    1    2    0  502  0.33027448117E+03  0.24656629995E+03  0.87847438994E+02  0.42141825509E+03  0.00000000000E+00 0. -1.
</event>
<event>
 5    1  0.4881333E-005  0.7629992E+03  0.7818608E-02  0.9100445E-01
         21   -1    0    0  501  502  0.00000000000E+00  0.00000000000E+00  0.17351876254E+04  0.17351876254E+04  0.00000000000E+00 0.  1.
         -4   -1    0    0    0  501 -0.00000000000E+00 -0.00000000000E+00 -0.13459163976E+04  0.13459163976E+04  0.00000000000E+00 0. -1.
        -13    1    1    2    0    0 -0.84488890593E+03 -0.13385539635E+03 -0.89882684134E+03  0.12408240135E+04  0.10566000000E+00 0.  1.
         13    1    1    2    0    0  0.12191134797E+03  0.37772255176E+03  0.70132028093E+02  0.40305733513E+03  0.10566000000E+00 0. -1.
         -4    1    1    2    0  502  0.72297755796E+03 -0.24386715541E+03  0.12179660410E+04  0.14372226744E+04  0.00000000000E+00 0. -1.
</event>
<event>
 5    1  0.4881333E-005  0.1357841E+03  0.7818608E-02  0.1116045E+00
         21   -1    0    0  501  502  0.00000000000E+00  0.00000000000E+00  0.28048260835E+03  0.28048260835E+03  0.00000000000E+00 0. -1.
         -4   -1    0    0    0  501 -0.00000000000E+00 -0.00000000000E+00 -0.57471411629E+03  0.57471411629E+03  0.00000000000E+00 0. -1.
        -13    1    1    2    0    0 -0.11223380605E+03 -0.88597373509E+02  0.77123121979E+01  0.14319711148E+03  0.10566000000E+00 0.  1.
         13    1    1    2    0    0  0.10206815754E+03  0.88268371293E+02 -0.49785805189E+03  0.51582154390E+03  0.10566000000E+00 0. -1.
         -4    1    1    2    0  502  0.10165648512E+02  0.32900221553E+00  0.19591423176E+03  0.19617806926E+03  0.00000000000E+00 0. -1.
</event>
<event>
 5    1  0.4881333E-005  0.4282943E+03  0.7818608E-02  0.9897769E-01
         21   -1    0    0  501  502  0.00000000000E+00  0.00000000000E+00  0.25575728497E+03  0.25575728497E+03  0.00000000000E+00 0. -1.
         -4   -1    0    0    0  501 -0.00000000000E+00 -0.00000000000E+00 -0.15601190864E+04  0.15601190864E+04  0.00000000000E+00 0. -1.
        -13    1    1    2    0    0 -0.14745170818E+03 -0.10914838102E+03 -0.45865828812E+03  0.49398665138E+03  0.10566000000E+00 0.  1.
         13    1    1    2    0    0 -0.37068877028E+03 -0.10856390629E+03 -0.12094618427E+03  0.40475211774E+03  0.10566000000E+00 0. -1.
         -4    1    1    2    0  502  0.51814047845E+03  0.21771228730E+03 -0.72475732900E+03  0.91713760222E+03  0.00000000000E+00 0. -1.
</event>
<event>
 5    1  0.4881333E-005  0.1631821E+03  0.7818608E-02  0.1088792E+00
         21   -1    0    0  501  502  0.00000000000E+00  0.00000000000E+00  0.65260459554E+03  0.65260459554E+03  0.00000000000E+00 0.  1.
          4   -1    0    0  502    0 -0.00000000000E+00 -0.00000000000E+00 -0.92155846507E+02  0.92155846507E+02  0.00000000000E+00 0.  1.
        -13    1    1    2    0    0 -0.16347425186E+03 -0.46361402263E+01  0.10164078867E+03  0.19255177460E+03  0.10566000000E+00 0.  1.
         13    1    1    2    0    0  0.15150297828E+03 -0.10561688910E+03  0.20910268485E+03  0.27898391292E+03  0.10566000000E+00 0. -1.
          4    1    1    2  501    0  0.11971273573E+02  0.11025302933E+03  0.24970527552E+03  0.27322475453E+03  0.00000000000E+00 0.  1.
</event>
<event>
 5    1  0.4881333E-005  0.5233120E+03  0.7818608E-02  0.9428290E-01
         21   -1    0    0  501  502  0.00000000000E+00  0.00000000000E+00  0.22865078884E+03  0.22865078884E+03  0.00000000000E+00 0. -1.
         -4   -1    0    0    0  501 -0.00000000000E+00 -0.00000000000E+00 -0.24321369049E+04  0.24321369049E+04  0.00000000000E+00 0. -1.
        -13    1    1    2    0    0  0.15293204016E+03 -0.38344864829E+03 -0.67235819079E+03  0.78897821431E+03  0.10566000000E+00 0.  1.
         13    1    1    2    0    0 -0.88550494952E+02  0.69706261908E+03 -0.12972471315E+04  0.14753262746E+04  0.10566000000E+00 0. -1.
         -4    1    1    2    0  502 -0.64381545209E+02 -0.31361397080E+03 -0.23388079377E+03  0.39648320486E+03  0.00000000000E+00 0. -1.
</event>
<event>
 5    1  0.4881333E-005  0.2850139E+03  0.7818608E-02  0.1013690E+00
         21   -1    0    0  501  502  0.00000000000E+00  0.00000000000E+00  0.51147495056E+03  0.51147495056E+03  0.00000000000E+00 0.  1.
         -4   -1    0    0    0  501 -0.00000000000E+00 -0.00000000000E+00 -0.30598750112E+03  0.30598750112E+03  0.00000000000E+00 0. -1.
        -13    1    1    2    0    0  0.20200766549E+03 -0.16353978103E+03 -0.77642172375E+01  0.26002432796E+03  0.10566000000E+00 0.  1.
         13    1    1    2    0    0 -0.24239211783E+03  0.19969373220E+03 -0.23143675789E+02  0.31490818719E+03  0.10566000000E+00 0. -1.
         -4    1    1    2    0  502  0.40384452342E+02 -0.36153951163E+02  0.23639534247E+03  0.24252993654E+03  0.00000000000E+00 0. -1.
</event>
<event>
 5    1  0.4881333E-005  0.3943794E+03  0.7818608E-02  0.9927018E-01
         -4   -1    0    0    0  501 -0.00000000000E+00  0.00000000000E+00  0.10973311856E+04  0.10973311856E+04  0.00000000000E+00 0. -1.
         21   -1    0    0  501  502  0.00000000000E+00 -0.00000000000E+00 -0.42626763185E+03  0.42626763185E+03  0.00000000000E+00 0. -1.
        -13    1    1    2    0    0 -0.20867690401E+03 -0.43288584865E+02  0.41190669760E+03  0.46377482741E+03  0.10566000000E+00 0.  1.
         13    1    1    2    0    0 -0.19891901818E+03  0.32226434853E+03 -0.16086019009E+03  0.41145971619E+03  0.10566000000E+00 0. -1.
         -4    1    1    2    0  502  0.40759592219E+03 -0.27897576367E+03  0.42001704628E+03  0.64836427389E+03  0.00000000000E+00 0. -1.
</event>
<event>
 5    1  0.4881333E-005  0.6044149E+02  0.7818608E-02  0.1254292E+00
         21   -1    0    0  501  502  0.00000000000E+00  0.00000000000E+00  0.83788023949E+02  0.83788023949E+02  0.00000000000E+00 0.  1.
         -4   -1    0    0    0  501 -0.00000000000E+00 -0.00000000000E+00 -0.58062867506E+02  0.58062867506E+02  0.00000000000E+00 0. -1.
        -13    1    1    2    0    0 -0.47722267857E+02 -0.46751017395E+02 -0.49909619273E+01  0.66992487205E+02  0.10566000000E+00 0.  1.
         13    1    1    2    0    0  0.37284023242E+02  0.37533458872E+02  0.17672156670E+02  0.55777909690E+02  0.10566000000E+00 0. -1.
         -4    1    1    2    0  502  0.10438244615E+02  0.92175585237E+01  0.13043961701E+02  0.19080494559E+02  0.00000000000E+00 0. -1.
</event>
<event>
 5    1  0.4881333E-005  0.5024872E+03  0.7818608E-02  0.9691125E-01
         21   -1    0    0  501  502  0.00000000000E+00  0.00000000000E+00  0.72245085311E+03  0.72245085311E+03  0.00000000000E+00 0.  1.
          4   -1    0    0  502    0 -0.00000000000E+00 -0.00000000000E+00 -0.72199128606E+03  0.72199128606E+03  0.00000000000E+00 0.  1.
        -13    1    1    2    0    0  0.58772945324E+03  0.18546206926E+03  0.23484517836E+03  0.65952585870E+03  0.10566000000E+00 0.  1.
         13    1    1    2    0    0 -0.17858354737E+03 -0.14525686801E+03 -0.28977774430E+03  0.37008484615E+03  0.10566000000E+00 0. -1.
          4    1    1    2  501    0 -0.40914590587E+03 -0.40205201255E+02  0.55392132994E+02  0.41483143431E+03  0.00000000000E+00 0.  1.
</event>
<event>
 5    1  0.5833988E-005  0.4765722E+03  0.7818608E-02  0.9839117E-01
         -4   -1    0    0    0  501 -0.00000000000E+00  0.00000000000E+00  0.13496595787E+04  0.13496595787E+04  0.00000000000E+00 0. -1.
         21   -1    0    0  501  502  0.00000000000E+00 -0.00000000000E+00 -0.32049473946E+03  0.32049473946E+03  0.00000000000E+00 0. -1.
        -13    1    1    2    0    0 -0.10316894010E+02 -0.16190257186E+03  0.50096373504E+03  0.52657720808E+03  0.10566000000E+00 0.  1.
         13    1    1    2    0    0 -0.31747485675E+03 -0.24355922801E+03  0.47258237271E+03  0.61922975734E+03  0.10566000000E+00 0. -1.
         -4    1    1    2    0  502  0.32779175076E+03  0.40546179987E+03  0.55618731476E+02  0.52434735273E+03  0.00000000000E+00 0. -1.
</event>
<event>
 5    1  0.4881333E-005  0.9381426E+03  0.7818608E-02  0.8834988E-01
          4   -1    0    0  502    0 -0.00000000000E+00  0.00000000000E+00  0.20911003111E+04  0.20911003111E+04  0.00000000000E+00 0.  1.
         21   -1    0    0  501  502  0.00000000000E+00 -0.00000000000E+00 -0.10448914813E+04  0.10448914813E+04  0.00000000000E+00 0. -1.
        -13    1    1    2    0    0 -0.92945628517E+03  0.63142132503E+03 -0.32825577897E+03  0.11706125505E+04  0.10566000000E+00 0.  1.
         13    1    1    2    0    0  0.77141619102E+03 -0.47598035565E+03  0.14675802224E+04  0.17249440452E+04  0.10566000000E+00 0. -1.
          4    1    1    2  501    0  0.15804009415E+03 -0.15544096938E+03 -0.93115613600E+02  0.24043519671E+03  0.00000000000E+00 0.  1.
</event>
<event>
 5    1  0.4881333E-005  0.1808970E+03  0.7818608E-02  0.1080956E+00
         -4   -1    0    0    0  501 -0.00000000000E+00  0.00000000000E+00  0.26421479270E+03  0.26421479270E+03  0.00000000000E+00 0. -1.
         21   -1    0    0  501  502  0.00000000000E+00 -0.00000000000E+00 -0.78421531310E+03  0.78421531310E+03  0.00000000000E+00 0. -1.
        -13    1    1    2    0    0 -0.40904116391E+01  0.14894858958E+03  0.13151428062E+03  0.19874212179E+03  0.10566000000E+00 0.  1.
         13    1    1    2    0    0 -0.24767525380E+02 -0.30708244880E+03 -0.19234332612E+03  0.36319282336E+03  0.10566000000E+00 0. -1.
         -4    1    1    2    0  502  0.28857937019E+02  0.15813385922E+03 -0.45917147491E+03  0.48649516064E+03  0.00000000000E+00 0. -1.
</event>
<event>
 5    1  0.4881333E-005  0.1159412E+03  0.7818608E-02  0.1140580E+00
         21   -1    0    0  501  502  0.00000000000E+00  0.00000000000E+00  0.18735386290E+03  0.18735386290E+03  0.00000000000E+00 0. -1.
          4   -1    0    0  502    0 -0.00000000000E+00 -0.00000000000E+00 -0.30938564970E+03  0.30938564970E+03  0.00000000000E+00 0.  1.
        -13    1    1    2    0    0  0.45541519512E+02 -0.10291554058E+03 -0.20007503862E+03  0.22955537619E+03  0.10566000000E+00 0.  1.
         13    1    1    2    0    0 -0.42198055460E+02  0.11862856795E+03 -0.51946672093E+02  0.13620528964E+03  0.10566000000E+00 0. -1.
          4    1    1    2  501    0 -0.33434640521E+01 -0.15713027373E+02  0.12998992393E+03  0.13097884678E+03  0.00000000000E+00 0.  1.
</event>
<event>
 5    1  0.4881333E-005  0.5207525E+03  0.7818608E-02  0.9460665E-01
         -4   -1    0    0    0  501 -0.00000000000E+00  0.00000000000E+00  0.13235564588E+04  0.13235564588E+04  0.00000000000E+00 0. -1.
         21   -1    0    0  501  502  0.00000000000E+00 -0.00000000000E+00 -0.75813983070E+03  0.75813983070E+03  0.00000000000E+00 0.  1.
        -13    1    1    2    0    0 -0.48029283013E+03 -0.26236805469E+03  0.75479848416E+03  0.93232985667E+03  0.10566000000E+00 0.  1.
         13    1    1    2    0    0  0.15156824684E+02 -0.29479272446E+03  0.16875948107E+03  0.34001801915E+03  0.10566000000E+00 0. -1.
         -4    1    1    2    0  502  0.46513600544E+03  0.55716077915E+03 -0.35814133711E+03  0.80934841368E+03  0.00000000000E+00 0. -1.
</event>
<event>
 5    1  0.4881333E-005  0.5055146E+03  0.7818608E-02  0.9465967E-01
         21   -1    0    0  501  502  0.00000000000E+00  0.00000000000E+00  0.32137483826E+03  0.32137483826E+03  0.00000000000E+00 0. -1.
          4   -1    0    0  502    0 -0.00000000000E+00 -0.00000000000E+00 -0.19191208614E+04  0.19191208614E+04  0.00000000000E+00 0.  1.
        -13    1    1    2    0    0 -0.50971173141E+02 -0.53784863394E+03 -0.14185623480E+04  0.15179586160E+04  0.10566000000E+00 0.  1.
         13    1    1    2    0    0  0.22640217390E+03  0.37761684100E+03 -0.20089649265E+03  0.48395437272E+03  0.10566000000E+00 0. -1.
          4    1    1    2  501    0 -0.17543100076E+03  0.16023179294E+03  0.21712817554E+02  0.23858271091E+03  0.00000000000E+00 0.  1.
</event>
<event>
 5    1  0.4881333E-005  0.4966051E+03  0.7818608E-02  0.9485444E-01
         21   -1    0    0  501  502  0.00000000000E+00  0.00000000000E+00  0.51535983817E+03  0.51535983817E+03  0.00000000000E+00 0. -1.
          4   -1    0    0  502    0 -0.00000000000E+00 -0.00000000000E+00 -0.93232741141E+03  0.93232741141E+03  0.00000000000E+00 0.  1.
        -13    1    1    2    0    0 -0.22305887482E+03  0.46550262474E+03  0.62215550782E+02  0.51992186066E+03  0.10566000000E+00 0.  1.
         13    1    1    2    0    0  0.26736627025E+03 -0.40323391695E+03 -0.43881932028E+02  0.48580649375E+03  0.10566000000E+00 0. -1.
          4    1    1    2  501    0 -0.44307395427E+02 -0.62268707782E+02 -0.43530119200E+03  0.44195889517E+03  0.00000000000E+00 0.  1.
</event>
<event>
 5    1  0.1066232E-004  0.2574316E+03  0.7818608E-02  0.1082377E+00
         21   -1    0    0  501  502  0.00000000000E+00  0.00000000000E+00  0.22847523763E+03  0.22847523763E+03  0.00000000000E+00 0.  1.
          4   -1    0    0  502    0 -0.00000000000E+00 -0.00000000000E+00 -0.12503176122E+04  0.12503176122E+04  0.00000000000E+00 0.  1.
        -13    1    1    2    0    0 -0.20382782410E+03 -0.63979877343E+02 -0.10266299046E+04  0.10486220381E+04  0.10566000000E+00 0.  1.
         13    1    1    2    0    0 -0.49627532775E+02  0.23598668635E+01 -0.12812519788E+03  0.13742102633E+03  0.10566000000E+00 0. -1.
          4    1    1    2  501    0  0.25345535688E+03  0.61620010480E+02  0.13291272790E+03  0.29274978542E+03  0.00000000000E+00 0.  1.
</event>
<event>
 5    1  0.4881333E-005  0.1541526E+03  0.7818608E-02  0.1097087E+00
         -4   -1    0    0    0  501 -0.00000000000E+00  0.00000000000E+00  0.71714383109E+02  0.71714383109E+02  0.00000000000E+00 0. -1.
         21   -1    0    0  501  502  0.00000000000E+00 -0.00000000000E+00 -0.42684964983E+03  0.42684964983E+03  0.00000000000E+00 0.  1.
        -13    1    1    2    0    0 -0.11977650754E+03 -0.76259397315E+02 -0.12323786768E+03  0.18801460217E+03  0.10566000000E+00 0.  1.
         13    1    1    2    0    0  0.14732589017E+03  0.84058465388E+02 -0.16006082872E+03  0.23321711681E+03  0.10566000000E+00 0. -1.
         -4    1    1    2    0  502 -0.27549382634E+02 -0.77990680733E+01 -0.71836570325E+02  0.77332313960E+02  0.00000000000E+00 0. -1.
</event>
<event>
 5    1  0.4881333E-005  0.2786739E+03  0.7818608E-02  0.1016518E+00
         -4   -1    0    0    0  501 -0.00000000000E+00  0.00000000000E+00  0.29452893420E+03  0.29452893420E+03  0.00000000000E+00 0. -1.
         21   -1    0    0  501  502  0.00000000000E+00 -0.00000000000E+00 -0.30733215559E+03  0.30733215559E+03  0.00000000000E+00 0.  1.
        -13    1    1    2    0    0  0.32450241050E+02 -0.26694432239E+03 -0.28777529249E+02  0.27044490521E+03  0.10566000000E+00 0.  1.
         13    1    1    2    0    0 -0.38159852130E+02  0.28393522734E+03  0.52008019495E+02  0.29117045333E+03  0.10566000000E+00 0. -1.
         -4    1    1    2    0  502  0.57096110801E+01 -0.16990904953E+02 -0.36033711632E+02  0.40245731249E+02  0.00000000000E+00 0. -1.
</event>
<event>
 5    1  0.4881333E-005  0.2793287E+03  0.7818608E-02  0.1016222E+00
          4   -1    0    0  502    0 -0.00000000000E+00  0.00000000000E+00  0.81696323494E+03  0.81696323494E+03  0.00000000000E+00 0.  1.
         21   -1    0    0  501  502  0.00000000000E+00 -0.00000000000E+00 -0.20912396434E+03  0.20912396434E+03  0.00000000000E+00 0. -1.
        -13    1    1    2    0    0  0.10816036268E+02 -0.28553214956E+03  0.65733627947E+03  0.71675420511E+03  0.10566000000E+00 0.  1.
         13    1    1    2    0    0 -0.45631230123E+01  0.25179842596E+03 -0.33908147173E+01  0.25186261771E+03  0.10566000000E+00 0. -1.
          4    1    1    2  501    0 -0.62529132553E+01  0.33733723592E+02 -0.46106194150E+02  0.57470376461E+02  0.00000000000E+00 0.  1.
</event>
<event>
 5    1  0.4881333E-005  0.6310609E+03  0.7818608E-02  0.9229473E-01
         21   -1    0    0  501  502  0.00000000000E+00  0.00000000000E+00  0.15638384725E+04  0.15638384725E+04  0.00000000000E+00 0.  1.
         -4   -1    0    0    0  501 -0.00000000000E+00 -0.00000000000E+00 -0.58021431427E+03  0.58021431427E+03  0.00000000000E+00 0. -1.
        -13    1    1    2    0    0  0.49532742554E+03 -0.37244847845E+03  0.70296995884E+03  0.93714134568E+03  0.10566000000E+00 0.  1.
         13    1    1    2    0    0 -0.67949563424E+03 -0.35055284196E+02  0.27478281013E+01  0.68040484391E+03  0.10566000000E+00 0. -1.
         -4    1    1    2    0  502  0.18416820870E+03  0.40750376264E+03  0.27790637129E+03  0.52650659717E+03  0.00000000000E+00 0. -1.
</event>
<event>
 5    1  0.4881333E-005  0.2285495E+03  0.7818608E-02  0.1071561E+00
         21   -1    0    0  501  502  0.00000000000E+00  0.00000000000E+00  0.45122889985E+03  0.45122889985E+03  0.00000000000E+00 0. -1.
         -4   -1    0    0    0  501 -0.00000000000E+00 -0.00000000000E+00 -0.75075382620E+03  0.75075382620E+03  0.00000000000E+00 0. -1.
        -13    1    1    2    0    0  0.91542297771E+02 -0.30155176458E+02 -0.18209709096E+03  0.20603079539E+03  0.10566000000E+00 0.  1.
         13    1    1    2    0    0  0.46562561050E+02  0.21438883983E+03 -0.50192998752E+03  0.54778131611E+03  0.10566000000E+00 0. -1.
         -4    1    1    2    0  502 -0.13810485882E+03 -0.18423366338E+03  0.38450215213E+03  0.44817061455E+03  0.00000000000E+00 0. -1.
</event>
<event>
 5    1  0.4881333E-005  0.9750788E+02  0.7818608E-02  0.1256582E+00
         -4   -1    0    0    0  501 -0.00000000000E+00  0.00000000000E+00  0.24436023098E+03  0.24436023098E+03  0.00000000000E+00 0. -1.
         21   -1    0    0  501  502  0.00000000000E+00 -0.00000000000E+00 -0.85516971639E+02  0.85516971639E+02  0.00000000000E+00 0. -1.
        -13    1    1    2    0    0  0.15273762582E+01  0.13640140892E+02 -0.42161410601E+02  0.44339395911E+02  0.10566000000E+00 0.  1.
         13    1    1    2    0    0 -0.41233150934E+02  0.80167428633E+02  0.14087342219E+03  0.16724927979E+03  0.10566000000E+00 0. -1.
         -4    1    1    2    0  502  0.39705774676E+02 -0.93807569525E+02  0.60131247760E+02  0.11828852692E+03  0.00000000000E+00 0. -1.
</event>
<event>
 5    1  0.4881333E-005  0.4546645E+03  0.7818608E-02  0.9718991E-01
         21   -1    0    0  501  502  0.00000000000E+00  0.00000000000E+00  0.63157425849E+03  0.63157425849E+03  0.00000000000E+00 0. -1.
         -4   -1    0    0    0  501 -0.00000000000E+00 -0.00000000000E+00 -0.17244750523E+04  0.17244750523E+04  0.00000000000E+00 0. -1.
        -13    1    1    2    0    0  0.24683013324E+03 -0.13645020452E+03 -0.12805873346E+04  0.13112771277E+04  0.10566000000E+00 0.  1.
         13    1    1    2    0    0  0.37704400732E+03 -0.66107121795E+01  0.14244526984E+03  0.40310860948E+03  0.10566000000E+00 0. -1.
         -4    1    1    2    0  502 -0.62387414056E+03  0.14306091669E+03  0.45241270887E+02  0.64166357364E+03  0.00000000000E+00 0. -1.
</event>
<event>
 5    1  0.4881333E-005  0.9688531E+02  0.7818608E-02  0.1169814E+00
         21   -1    0    0  501  502  0.00000000000E+00  0.00000000000E+00  0.24212718626E+03  0.24212718626E+03  0.00000000000E+00 0.  1.
         -4   -1    0    0    0  501 -0.00000000000E+00 -0.00000000000E+00 -0.77511615250E+02  0.77511615250E+02  0.00000000000E+00 0. -1.
        -13    1    1    2    0    0  0.20358498815E+02  0.10885623440E+03  0.27465647712E+02  0.11409873448E+03  0.10566000000E+00 0.  1.
         13    1    1    2    0    0 -0.47185990008E+02 -0.73858651643E+02  0.35176656745E+02  0.94440597305E+02  0.10566000000E+00 0. -1.
         -4    1    1    2    0  502  0.26827491193E+02 -0.34997582755E+02  0.10197326655E+03  0.11109946973E+03  0.00000000000E+00 0. -1.
</event>
<event>
 5    1  0.4881333E-005  0.3994751E+02  0.7818608E-02  0.1339167E+00
         21   -1    0    0  501  502  0.00000000000E+00  0.00000000000E+00  0.70861552374E+02  0.70861552374E+02  0.00000000000E+00 0. -1.
         -4   -1    0    0    0  501 -0.00000000000E+00 -0.00000000000E+00 -0.20365692150E+03  0.20365692150E+03  0.00000000000E+00 0. -1.
        -13    1    1    2    0    0 -0.10173620021E+02 -0.38776385819E+02 -0.22330085505E+02  0.45888501002E+02  0.10566000000E+00 0.  1.
         13    1    1    2    0    0  0.21125906124E+02  0.34219178143E+02 -0.16653360475E+03  0.17132048546E+03  0.10566000000E+00 0. -1.
         -4    1    1    2    0  502 -0.10952286103E+02  0.45572076759E+01  0.56068321133E+02  0.57309487411E+02  0.00000000000E+00 0. -1.
</event>
<event>
 5    1  0.4881333E-005  0.1492828E+03  0.7818608E-02  0.1101821E+00
         21   -1    0    0  501  502  0.00000000000E+00  0.00000000000E+00  0.97486973689E+03  0.97486973689E+03  0.00000000000E+00 0. -1.
         -4   -1    0    0    0  501 -0.00000000000E+00 -0.00000000000E+00 -0.90707293313E+03  0.90707293313E+03  0.00000000000E+00 0. -1.
        -13    1    1    2    0    0  0.13675217357E+03  0.61267194867E+02 -0.62468892706E+03  0.64241037732E+03  0.10566000000E+00 0.  1.
         13    1    1    2    0    0 -0.17998096884E+03  0.75752303238E+02 -0.23240307156E+03  0.30355025848E+03  0.10566000000E+00 0. -1.
         -4    1    1    2    0  502  0.43228795271E+02 -0.13701949810E+03  0.92488880238E+03  0.93598203421E+03  0.00000000000E+00 0. -1.
</event>
<event>
 5    1  0.4881333E-005  0.6944156E+03  0.7818608E-02  0.9131119E-01
          4   -1    0    0  502    0 -0.00000000000E+00  0.00000000000E+00  0.22614450934E+04  0.22614450934E+04  0.00000000000E+00 0.  1.
         21   -1    0    0  501  502  0.00000000000E+00 -0.00000000000E+00 -0.31970964890E+03  0.31970964890E+03  0.00000000000E+00 0.  1.
        -13    1    1    2    0    0 -0.55400265731E+03  0.43591499454E+03  0.11664429891E+04  0.13629123540E+04  0.10566000000E+00 0.  1.
         13    1    1    2    0    0  0.52689518941E+03 -0.43298680900E+03  0.87813155646E+03  0.11118503312E+04  0.10566000000E+00 0. -1.
          4    1    1    2  501    0  0.27107467893E+02 -0.29281855357E+01 -0.10283910110E+03  0.10639205704E+03  0.00000000000E+00 0.  1.
</event>
<event>
 5    1  0.4881333E-005  0.6357315E+03  0.7818608E-02  0.9221817E-01
         21   -1    0    0  501  502  0.00000000000E+00  0.00000000000E+00  0.21552428865E+04  0.21552428865E+04  0.00000000000E+00 0.  1.
         -4   -1    0    0    0  501 -0.00000000000E+00 -0.00000000000E+00 -0.37438689207E+03  0.37438689207E+03  0.00000000000E+00 0. -1.
        -13    1    1    2    0    0 -0.57148076715E+03 -0.50423778919E+02  0.56412440235E+03  0.80459255353E+03  0.10566000000E+00 0.  1.
         13    1    1    2    0    0  0.76556443449E+03 -0.48169864354E+02  0.12853041107E+04  0.14968018931E+04  0.10566000000E+00 0. -1.
         -4    1    1    2    0  502 -0.19408366734E+03  0.98593643273E+02 -0.68572518596E+02  0.22823533190E+03  0.00000000000E+00 0. -1.
</event>
<event>
 5    1  0.4881333E-005  0.8573994E+02  0.7818608E-02  0.1190583E+00
         21   -1    0    0  501  502  0.00000000000E+00  0.00000000000E+00  0.18598758272E+03  0.18598758272E+03  0.00000000000E+00 0. -1.
          4   -1    0    0  502    0 -0.00000000000E+00 -0.00000000000E+00 -0.11022386909E+03  0.11022386909E+03  0.00000000000E+00 0.  1.
        -13    1    1    2    0    0 -0.47329974639E+02 -0.67686125124E+02 -0.64392221174E+02  0.10472777733E+03  0.10566000000E+00 0.  1.
         13    1    1    2    0    0  0.56835616743E+02  0.89673712454E+02  0.10870018071E+03  0.15194539311E+03  0.10566000000E+00 0. -1.
          4    1    1    2  501    0 -0.95056421043E+01 -0.21987587330E+02  0.31455754095E+02  0.39538281375E+02  0.00000000000E+00 0.  1.
</event>
<event>
 5    1  0.4881333E-005  0.4942682E+03  0.7818608E-02  0.9773483E-01
         -4   -1    0    0    0  501 -0.00000000000E+00  0.00000000000E+00  0.19629123987E+04  0.19629123987E+04  0.00000000000E+00 0. -1.
         21   -1    0    0  501  502  0.00000000000E+00 -0.00000000000E+00 -0.18510136770E+03  0.18510136770E+03  0.00000000000E+00 0. -1.
        -13    1    1    2    0    0  0.17462053606E+03  0.50927981329E+02  0.32825475656E+03  0.37528280971E+03  0.10566000000E+00 0.  1.
         13    1    1    2    0    0 -0.39388256441E+03 -0.39606914739E+03  0.54670670439E+03  0.78160250502E+03  0.10566000000E+00 0. -1.
         -4    1    1    2    0  502  0.21926202835E+03  0.34514116606E+03  0.90284957009E+03  0.99112845172E+03  0.00000000000E+00 0. -1.
</event>
<event>
 5    1  0.4881333E-005  0.1711065E+03  0.7818608E-02  0.1081977E+00
         21   -1    0    0  501  502  0.00000000000E+00  0.00000000000E+00  0.13024329126E+03  0.13024329126E+03  0.00000000000E+00 0.  1.
         -4   -1    0    0    0  501 -0.00000000000E+00 -0.00000000000E+00 -0.64100926865E+03  0.64100926865E+03  0.00000000000E+00 0. -1.
        -13    1    1    2    0    0 -0.15492336044E+03  0.57403763418E+02 -0.24510841123E+03  0.29559192154E+03  0.10566000000E+00 0.  1.
         13    1    1    2    0    0  0.16599251391E+03 -0.58490666202E+02 -0.34937894019E+03  0.39120369083E+03  0.10566000000E+00 0. -1.
         -4    1    1    2    0  502 -0.11069153470E+02  0.10869027840E+01  0.83721374028E+02  0.84456947526E+02  0.00000000000E+00 0. -1.
</event>
<event>
 5    1  0.4881333E-005  0.3286129E+03  0.7818608E-02  0.1030366E+00
         21   -1    0    0  501  502  0.00000000000E+00  0.00000000000E+00  0.41930608922E+03  0.41930608922E+03  0.00000000000E+00 0. -1.
         -4   -1    0    0    0  501 -0.00000000000E+00 -0.00000000000E+00 -0.74301851248E+03  0.74301851248E+03  0.00000000000E+00 0. -1.
        -13    1    1    2    0    0  0.11012304875E+03 -0.31673975676E+01 -0.49895837427E+02  0.12094099400E+03  0.10566000000E+00 0.  1.
         13    1    1    2    0    0 -0.16659159267E+03  0.32383115356E+03 -0.51884176352E+03  0.63388970768E+03  0.10566000000E+00 0. -1.
         -4    1    1    2    0  502  0.56468543920E+02 -0.32066375599E+03  0.24502517769E+03  0.40749390003E+03  0.00000000000E+00 0. -1.
</event>
<event>
 5    1  0.4881333E-005  0.4419473E+02  0.7818608E-02  0.1349216E+00
         -4   -1    0    0    0  501 -0.00000000000E+00  0.00000000000E+00  0.50521436026E+02  0.50521436026E+02  0.00000000000E+00 0. -1.
         21   -1    0    0  501  502  0.00000000000E+00 -0.00000000000E+00 -0.17400079597E+03  0.17400079597E+03  0.00000000000E+00 0.  1.
        -13    1    1    2    0    0  0.31656765380E+02  0.53174077034E+02 -0.10614861007E+03  0.12287054914E+03  0.10566000000E+00 0.  1.
         13    1    1    2    0    0 -0.21237591832E+02 -0.10225094694E+02  0.29167600511E+02  0.37501306003E+02  0.10566000000E+00 0. -1.
         -4    1    1    2    0  502 -0.10419173548E+02 -0.42948982340E+02 -0.46498350382E+02  0.64150376848E+02  0.00000000000E+00 0. -1.
</event>
<event>
 5    1  0.4881333E-005  0.9423065E+02  0.7818608E-02  0.1174471E+00
         21   -1    0    0  501  502  0.00000000000E+00  0.00000000000E+00  0.27846878789E+03  0.27846878789E+03  0.00000000000E+00 0. -1.
         -4   -1    0    0    0  501 -0.00000000000E+00 -0.00000000000E+00 -0.11501867190E+03  0.11501867190E+03  0.00000000000E+00 0. -1.
        -13    1    1    2    0    0 -0.14949911897E+02  0.83846102512E+02  0.28553465362E+02  0.89827503140E+02  0.10566000000E+00 0.  1.
         13    1    1    2    0    0 -0.60328271790E+02 -0.93166732802E+02 -0.36000065346E+02  0.11668571612E+03  0.10566000000E+00 0. -1.
         -4    1    1    2    0  502  0.75278183687E+02  0.93206302902E+01  0.17089671598E+03  0.18697424053E+03  0.00000000000E+00 0. -1.
</event>
<event>
 5    1  0.4881333E-005  0.7569106E+03  0.7818608E-02  0.9044271E-01
         21   -1    0    0  501  502  0.00000000000E+00  0.00000000000E+00  0.92816287495E+03  0.92816287495E+03  0.00000000000E+00 0. -1.
         -4   -1    0    0    0  501 -0.00000000000E+00 -0.00000000000E+00 -0.10782600602E+04  0.10782600602E+04  0.00000000000E+00 0. -1.
        -13    1    1    2    0    0  0.60636024020E+03  0.35974573761E+03 -0.31828512625E+03  0.77356006191E+03  0.10566000000E+00 0.  1.
         13    1    1    2    0    0 -0.87515176449E+03 -0.18912775859E+03  0.63008937583E+02  0.89756897080E+03  0.10566000000E+00 0. -1.
         -4    1    1    2    0  502  0.26879152429E+03 -0.17061797903E+03  0.10517900337E+03  0.33529390249E+03  0.00000000000E+00 0. -1.
</event>
<event>
 5    1  0.4881333E-005  0.7248329E+02  0.7818608E-02  0.1220359E+00
         -4   -1    0    0    0  501 -0.00000000000E+00  0.00000000000E+00  0.18385146231E+02  0.18385146231E+02  0.00000000000E+00 0. -1.
         21   -1    0    0  501  502  0.00000000000E+00 -0.00000000000E+00 -0.72976357058E+03  0.72976357058E+03  0.00000000000E+00 0.  1.
        -13    1    1    2    0    0 -0.31424527528E+02 -0.55991431433E+02 -0.32623015714E+03  0.33248859818E+03  0.10566000000E+00 0.  1.
         13    1    1    2    0    0  0.26623039130E+02  0.70102429891E+02 -0.78177214047E+02  0.10832739658E+03  0.10566000000E+00 0. -1.
         -4    1    1    2    0  502  0.48014883975E+01 -0.14110998458E+02 -0.30697105316E+03  0.30733272206E+03  0.00000000000E+00 0. -1.
</event>
<event>
 5    1  0.4881333E-005  0.4918745E+03  0.7818608E-02  0.9926208E-01
         21   -1    0    0  501  502  0.00000000000E+00  0.00000000000E+00  0.35604061959E+03  0.35604061959E+03  0.00000000000E+00 0.  1.
          4   -1    0    0  502    0 -0.00000000000E+00 -0.00000000000E+00 -0.11956253843E+04  0.11956253843E+04  0.00000000000E+00 0.  1.
        -13    1    1    2    0    0 -0.32351226045E+03  0.31133097262E+03 -0.12597323443E+03  0.46632223208E+03  0.10566000000E+00 0.  1.
         13    1    1    2    0    0 -0.50953726254E+02  0.97653242669E+02 -0.46460105326E+03  0.47747941094E+03  0.10566000000E+00 0. -1.
          4    1    1    2  501    0  0.37446598671E+03 -0.40898421528E+03 -0.24901047701E+03  0.60786436087E+03  0.00000000000E+00 0.  1.
</event>
<event>
 5    1  0.4881333E-005  0.3344897E+03  0.7818608E-02  0.1035753E+00
         21   -1    0    0  501  502  0.00000000000E+00  0.00000000000E+00  0.25275944238E+03  0.25275944238E+03  0.00000000000E+00 0.  1.
          4   -1    0    0  502    0 -0.00000000000E+00 -0.00000000000E+00 -0.12885081815E+04  0.12885081815E+04  0.00000000000E+00 0.  1.
        -13    1    1    2    0    0  0.38900842540E+02  0.32272053212E+03  0.66903580886E+02  0.33187033266E+03  0.10566000000E+00 0.  1.
         13    1    1    2    0    0  0.48500977217E+02  0.74067155178E+02 -0.15886468552E+03  0.18186887512E+03  0.10566000000E+00 0. -1.
          4    1    1    2  501    0 -0.87401819757E+02 -0.39678768730E+03 -0.94378763452E+03  0.10275284161E+04  0.00000000000E+00 0.  1.
</event>
<event>
 5    1  0.4881333E-005  0.2833971E+03  0.7818608E-02  0.1018679E+00
          4   -1    0    0  502    0 -0.00000000000E+00  0.00000000000E+00  0.12308020831E+04  0.12308020831E+04  0.00000000000E+00 0.  1.
         21   -1    0    0  501  502  0.00000000000E+00 -0.00000000000E+00 -0.43033217587E+03  0.43033217587E+03  0.00000000000E+00 0.  1.
        -13    1    1    2    0    0  0.95611539827E+02  0.24202065611E+03 -0.23228515345E+03  0.34881509172E+03  0.10566000000E+00 0.  1.
         13    1    1    2    0    0  0.57350293589E+02  0.24070969418E+03  0.58954500102E+03  0.63936963679E+03  0.10566000000E+00 0. -1.
          4    1    1    2  501    0 -0.15296183342E+03 -0.48273035030E+03  0.44321005971E+03  0.67294953050E+03  0.00000000000E+00 0.  1.
</event>
<event>
 5    1  0.4881333E-005  0.4970244E+03  0.7818608E-02  0.9588270E-01
          4   -1    0    0  502    0 -0.00000000000E+00  0.00000000000E+00  0.28600210580E+04  0.28600210580E+04  0.00000000000E+00 0.  1.
         21   -1    0    0  501  502  0.00000000000E+00 -0.00000000000E+00 -0.19179906343E+03  0.19179906343E+03  0.00000000000E+00 0.  1.
        -13    1    1    2    0    0 -0.25700436936E+03 -0.15281401857E+03  0.14386541777E+04  0.14693975719E+04  0.10566000000E+00 0.  1.
         13    1    1    2    0    0 -0.25532290086E+03 -0.22740543989E+03  0.29935269315E+03  0.45443928511E+03  0.10566000000E+00 0. -1.
          4    1    1    2  501    0  0.51232727022E+03  0.38021945846E+03  0.93021512374E+03  0.11279832644E+04  0.00000000000E+00 0.  1.
</event>
<event>
 5    1  0.4881333E-005  0.3040092E+03  0.7818608E-02  0.1082450E+00
          4   -1    0    0  502    0 -0.00000000000E+00  0.00000000000E+00  0.32629348218E+03  0.32629348218E+03  0.00000000000E+00 0.  1.
         21   -1    0    0  501  502  0.00000000000E+00 -0.00000000000E+00 -0.82602919686E+03  0.82602919686E+03  0.00000000000E+00 0.  1.
        -13    1    1    2    0    0 -0.24904213276E+03 -0.16898034525E+03 -0.67759650190E+03  0.74142657864E+03  0.10566000000E+00 0.  1.
         13    1    1    2    0    0 -0.12483516509E+02 -0.27395893701E+02  0.52748892475E+02  0.60735739046E+02  0.10566000000E+00 0. -1.
          4    1    1    2  501    0  0.26152564927E+03  0.19637623895E+03  0.12511189475E+03  0.35016036135E+03  0.00000000000E+00 0.  1.
</event>
<event>
 5    1  0.4881333E-005  0.7625595E+02  0.7818608E-02  0.1211209E+00
         21   -1    0    0  501  502  0.00000000000E+00  0.00000000000E+00  0.74318721368E+02  0.74318721368E+02  0.00000000000E+00 0.  1.
         -4   -1    0    0    0  501 -0.00000000000E+00 -0.00000000000E+00 -0.21955649029E+03  0.21955649029E+03  0.00000000000E+00 0. -1.
        -13    1    1    2    0    0 -0.65139536381E+02  0.26889904324E+02  0.11774555004E+02  0.71448425204E+02  0.10566000000E+00 0.  1.
         13    1    1    2    0    0  0.78605317468E+02  0.86183314278E+01 -0.16558278359E+03  0.18349588812E+03  0.10566000000E+00 0. -1.
         -4    1    1    2    0  502 -0.13465781087E+02 -0.35508235752E+02  0.85704596636E+01  0.38930898337E+02  0.00000000000E+00 0. -1.
</event>
<event>
 5    1  0.4881333E-005  0.3667755E+03  0.7818608E-02  0.1015568E+00
         21   -1    0    0  501  502  0.00000000000E+00  0.00000000000E+00  0.10680289816E+04  0.10680289816E+04  0.00000000000E+00 0.  1.
          4   -1    0    0  502    0 -0.00000000000E+00 -0.00000000000E+00 -0.53848668012E+03  0.53848668012E+03  0.00000000000E+00 0.  1.
        -13    1    1    2    0    0 -0.19964254281E+03 -0.27132385908E+03  0.62195687117E+03  0.70732180947E+03  0.10566000000E+00 0.  1.
         13    1    1    2    0    0 -0.64129872297E+02 -0.10843326859E+03 -0.34854731698E+03  0.37061524200E+03  0.10566000000E+00 0. -1.
          4    1    1    2  501    0  0.26377241511E+03  0.37975712767E+03  0.25613274733E+03  0.52857861028E+03  0.00000000000E+00 0.  1.
</event>
<event>
 5    1  0.4881333E-005  0.4537220E+03  0.7818608E-02  0.9905687E-01
         21   -1    0    0  501  502  0.00000000000E+00  0.00000000000E+00  0.47709402302E+03  0.47709402302E+03  0.00000000000E+00 0. -1.
         -4   -1    0    0    0  501 -0.00000000000E+00 -0.00000000000E+00 -0.74002603551E+03  0.74002603551E+03  0.00000000000E+00 0. -1.
        -13    1    1    2    0    0  0.14521004609E+03  0.38683943239E+02 -0.14547834612E+03  0.20915631787E+03  0.10566000000E+00 0.  1.
         13    1    1    2    0    0  0.10202019895E+03 -0.43253351580E+03 -0.26827545189E+03  0.51910027214E+03  0.10566000000E+00 0. -1.
         -4    1    1    2    0  502 -0.24723024504E+03  0.39384957256E+03  0.15082178552E+03  0.48886346852E+03  0.00000000000E+00 0. -1.
</event>
<event>
 5    1  0.4881333E-005  0.3672109E+02  0.7818608E-02  0.1357853E+00
         21   -1    0    0  501  502  0.00000000000E+00  0.00000000000E+00  0.21538086541E+03  0.21538086541E+03  0.00000000000E+00 0. -1.
          4   -1    0    0  502    0 -0.00000000000E+00 -0.00000000000E+00 -0.12571869535E+02  0.12571869535E+02  0.00000000000E+00 0.  1.
        -13    1    1    2    0    0  0.42210827181E+01  0.37030818360E+02  0.35001946994E+02  0.51129702768E+02  0.10566000000E+00 0.  1.
         13    1    1    2    0    0 -0.18224145496E+02 -0.32793770310E+02  0.87652055907E+02  0.95343824756E+02  0.10566000000E+00 0. -1.
          4    1    1    2  501    0  0.14003062778E+02 -0.42370480497E+01  0.80154992974E+02  0.81479207421E+02  0.00000000000E+00 0.  1.
</event>
<event>
 5    1  0.4881333E-005  0.4942125E+03  0.7818608E-02  0.9769936E-01
         21   -1    0    0  501  502  0.00000000000E+00  0.00000000000E+00  0.26306189672E+03  0.26306189672E+03  0.00000000000E+00 0.  1.
          4   -1    0    0  502    0 -0.00000000000E+00 -0.00000000000E+00 -0.18195411398E+04  0.18195411398E+04  0.00000000000E+00 0.  1.
        -13    1    1    2    0    0 -0.30182120570E+03  0.24597596044E+03 -0.52615005014E+03  0.65454877568E+03  0.10566000000E+00 0.  1.
         13    1    1    2    0    0 -0.16095795989E+03  0.89538311026E+02 -0.78449230175E+03  0.80582427158E+03  0.10566000000E+00 0. -1.
          4    1    1    2  501    0  0.46277916558E+03 -0.33551427147E+03 -0.24583689120E+03  0.62222998926E+03  0.00000000000E+00 0.  1.
</event>
<event>
 5    1  0.4881333E-005  0.7864322E+03  0.7818608E-02  0.9006228E-01
         -4   -1    0    0    0  501 -0.00000000000E+00  0.00000000000E+00  0.11536629952E+04  0.11536629952E+04  0.00000000000E+00 0. -1.
         21   -1    0    0  501  502  0.00000000000E+00 -0.00000000000E+00 -0.78465679440E+03  0.78465679440E+03  0.00000000000E+00 0.  1.
        -13    1    1    2    0    0  0.13958708123E+03 -0.63149476824E+03 -0.11026303083E+03  0.65607022695E+03  0.10566000000E+00 0.  1.
         13    1    1    2    0    0 -0.28241177245E+03  0.83097670530E+03  0.53872528533E+03  0.10298075734E+04  0.10566000000E+00 0. -1.
         -4    1    1    2    0  502  0.14282469122E+03 -0.19948193706E+03 -0.59456053676E+02  0.25244198929E+03  0.00000000000E+00 0. -1.
</event>
<event>
 5    1  0.4881334E-005  0.5456016E+03  0.7818608E-02  0.9597852E-01
         -4   -1    0    0    0  501 -0.00000000000E+00  0.00000000000E+00  0.30526695560E+04  0.30526695560E+04  0.00000000000E+00 0. -1.
         21   -1    0    0  501  502  0.00000000000E+00 -0.00000000000E+00 -0.57573386895E+03  0.57573386895E+03  0.00000000000E+00 0. -1.
        -13    1    1    2    0    0  0.41074524221E+03 -0.69387876786E+03  0.21616091297E+04  0.23071049909E+04  0.10566000000E+00 0.  1.
         13    1    1    2    0    0  0.25388793762E+02 -0.24389096338E+03  0.21535333744E+02  0.24615274654E+03  0.10566000000E+00 0. -1.
         -4    1    1    2    0  502 -0.43613403597E+03  0.93776973124E+03  0.29379122360E+03  0.10751456874E+04  0.00000000000E+00 0. -1.
</event>
<event>
 5    1  0.4881333E-005  0.1237519E+03  0.7818608E-02  0.1130326E+00
         -4   -1    0    0    0  501 -0.00000000000E+00  0.00000000000E+00  0.94720289564E+03  0.94720289564E+03  0.00000000000E+00 0. -1.
         21   -1    0    0  501  502  0.00000000000E+00 -0.00000000000E+00 -0.23414148211E+02  0.23414148211E+02  0.00000000000E+00 0.  1.
        -13    1    1    2    0    0  0.12869143427E+03 -0.21017557761E+02  0.38616729318E+03  0.40758853329E+03  0.10566000000E+00 0.  1.
         13    1    1    2    0    0 -0.11940777774E+03  0.96775648075E+01  0.53486363386E+03  0.54811585512E+03  0.10566000000E+00 0. -1.
         -4    1    1    2    0  502 -0.92836565349E+01  0.11339992954E+02  0.27578203903E+01  0.14912655436E+02  0.00000000000E+00 0. -1.
</event>
<event>
 5    1  0.4881333E-005  0.4605068E+03  0.7818608E-02  0.9621715E-01
         -4   -1    0    0    0  501 -0.00000000000E+00  0.00000000000E+00  0.18168261312E+04  0.18168261312E+04  0.00000000000E+00 0. -1.
         21   -1    0    0  501  502  0.00000000000E+00 -0.00000000000E+00 -0.34265515717E+03  0.34265515717E+03  0.00000000000E+00 0. -1.
        -13    1    1    2    0    0 -0.43246764724E+02 -0.37924228300E+03  0.82157373410E+03  0.90591302210E+03  0.10566000000E+00 0.  1.
         13    1    1    2    0    0 -0.42369105673E+03  0.34214354643E+03  0.55010930661E+03  0.77407788904E+03  0.10566000000E+00 0. -1.
         -4    1    1    2    0  502  0.46693782146E+03  0.37098736576E+02  0.10248793330E+03  0.47949037721E+03  0.00000000000E+00 0. -1.
</event>
<event>
 5    1  0.1154744E-004  0.2449141E+03  0.7818608E-02  0.1058774E+00
          4   -1    0    0  502    0 -0.00000000000E+00  0.00000000000E+00  0.12608671281E+04  0.12608671281E+04  0.00000000000E+00 0.  1.
         21   -1    0    0  501  502  0.00000000000E+00 -0.00000000000E+00 -0.37258953670E+03  0.37258953670E+03  0.00000000000E+00 0.  1.
        -13    1    1    2    0    0  0.83874885319E+02 -0.15251119094E+03  0.62986127389E+03  0.65346759312E+03  0.10566000000E+00 0.  1.
         13    1    1    2    0    0  0.11331005051E+03 -0.23320850585E+01  0.56937636446E+03  0.58054634762E+03  0.10566000000E+00 0. -1.
          4    1    1    2  501    0 -0.19718493583E+03  0.15484327600E+03 -0.31096004693E+03  0.39944272408E+03  0.00000000000E+00 0.  1.
</event>
<event>
 5    1  0.4881333E-005  0.1502436E+03  0.7818608E-02  0.1141831E+00
         21   -1    0    0  501  502  0.00000000000E+00  0.00000000000E+00  0.66160219024E+03  0.66160219024E+03  0.00000000000E+00 0. -1.
         -4   -1    0    0    0  501 -0.00000000000E+00 -0.00000000000E+00 -0.53062487994E+02  0.53062487994E+02  0.00000000000E+00 0. -1.
        -13    1    1    2    0    0 -0.51599074774E+02  0.17111216495E+01  0.57487817968E+02  0.77267411201E+02  0.10566000000E+00 0.  1.
         13    1    1    2    0    0  0.17725136086E+03  0.43605523682E+02  0.26607804033E+03  0.32267169280E+03  0.10566000000E+00 0. -1.
         -4    1    1    2    0  502 -0.12565228609E+03 -0.45316645332E+02  0.28497384395E+03  0.31472557424E+03  0.00000000000E+00 0. -1.
</event>
<event>
 5    1  0.4881333E-005  0.4931262E+03  0.7818608E-02  0.9968070E-01
         21   -1    0    0  501  502  0.00000000000E+00  0.00000000000E+00  0.10080995097E+04  0.10080995097E+04  0.00000000000E+00 0. -1.
         -4   -1    0    0    0  501 -0.00000000000E+00 -0.00000000000E+00 -0.52266087907E+03  0.52266087907E+03  0.00000000000E+00 0. -1.
        -13    1    1    2    0    0 -0.70853105443E+02  0.63514550209E+02 -0.24043498667E+03  0.25857930045E+03  0.10566000000E+00 0.  1.
         13    1    1    2    0    0 -0.19002340624E+03 -0.47445799337E+03  0.18257773370E+03  0.54272822148E+03  0.10566000000E+00 0. -1.
         -4    1    1    2    0  502  0.26087651168E+03  0.41094344316E+03  0.54329588362E+03  0.72945286686E+03  0.00000000000E+00 0. -1.
</event>
<event>
 5    1  0.4881333E-005  0.2920441E+02  0.7818608E-02  0.1411413E+00
         21   -1    0    0  501  502  0.00000000000E+00  0.00000000000E+00  0.38608504775E+02  0.38608504775E+02  0.00000000000E+00 0.  1.
         -4   -1    0    0    0  501 -0.00000000000E+00 -0.00000000000E+00 -0.18121096494E+03  0.18121096494E+03  0.00000000000E+00 0. -1.
        -13    1    1    2    0    0  0.18153845411E+02 -0.17443373933E+01  0.16341442698E+02  0.24487930285E+02  0.10566000000E+00 0.  1.
         13    1    1    2    0    0 -0.29758219503E+02 -0.30400316402E+01 -0.17352933307E+03  0.17608871065E+03  0.10566000000E+00 0. -1.
         -4    1    1    2    0  502  0.11604374092E+02  0.47843690335E+01  0.14585430204E+02  0.19242828777E+02  0.00000000000E+00 0. -1.
</event>
<event>
 5    1  0.4881333E-005  0.4607183E+03  0.7818608E-02  0.9772133E-01
         21   -1    0    0  501  502  0.00000000000E+00  0.00000000000E+00  0.40158849655E+03  0.40158849655E+03  0.00000000000E+00 0. -1.
         -4   -1    0    0    0  501 -0.00000000000E+00 -0.00000000000E+00 -0.15058276689E+04  0.15058276689E+04  0.00000000000E+00 0. -1.
        -13    1    1    2    0    0  0.13157550483E+02  0.22525610746E+03 -0.81237077066E+03  0.84312497014E+03  0.10566000000E+00 0.  1.
         13    1    1    2    0    0  0.37208252163E+03 -0.33534803992E+03  0.92155468839E+02  0.50930968220E+03  0.10566000000E+00 0. -1.
         -4    1    1    2    0  502 -0.38524007212E+03  0.11009193246E+03 -0.38402387051E+03  0.55498151310E+03  0.00000000000E+00 0. -1.
</event>
<event>
 5    1  0.4881333E-005  0.1374003E+03  0.7818608E-02  0.1114249E+00
         21   -1    0    0  501  502  0.00000000000E+00  0.00000000000E+00  0.28124966997E+03  0.28124966997E+03  0.00000000000E+00 0.  1.
         -4   -1    0    0    0  501 -0.00000000000E+00 -0.00000000000E+00 -0.24566403800E+03  0.24566403800E+03  0.00000000000E+00 0. -1.
        -13    1    1    2    0    0 -0.12065069974E+03 -0.56925495594E+02 -0.11250056458E+03  0.17450928798E+03  0.10566000000E+00 0.  1.
         13    1    1    2    0    0  0.12990445362E+03  0.62002663209E+02 -0.51246069260E+02  0.15279289281E+03  0.10566000000E+00 0. -1.
         -4    1    1    2    0  502 -0.92537538792E+01 -0.50771676154E+01  0.19933226581E+03  0.19961152718E+03  0.00000000000E+00 0. -1.
</event>
<event>
 5    1  0.4881333E-005  0.4374352E+03  0.7818608E-02  0.9781658E-01
          4   -1    0    0  502    0 -0.00000000000E+00  0.00000000000E+00  0.21839025708E+04  0.21839025708E+04  0.00000000000E+00 0.  1.
         21   -1    0    0  501  502  0.00000000000E+00 -0.00000000000E+00 -0.21832893129E+03  0.21832893129E+03  0.00000000000E+00 0. -1.
        -13    1    1    2    0    0  0.24401035515E+03  0.29737812205E+03  0.22866852449E+03  0.44750877774E+03  0.10566000000E+00 0.  1.
         13    1    1    2    0    0  0.35686071679E+02  0.25264060860E+03  0.73522150555E+03  0.77823611213E+03  0.10566000000E+00 0. -1.
          4    1    1    2  501    0 -0.27969642683E+03 -0.55001873066E+03  0.10016836095E+04  0.11764866122E+04  0.00000000000E+00 0.  1.
</event>
<event>
 5    1  0.4881333E-005  0.8407280E+02  0.7818608E-02  0.1193990E+00
          4   -1    0    0  502    0 -0.00000000000E+00  0.00000000000E+00  0.16321122721E+03  0.16321122721E+03  0.00000000000E+00 0.  1.
         21   -1    0    0  501  502  0.00000000000E+00 -0.00000000000E+00 -0.20608508278E+03  0.20608508278E+03  0.00000000000E+00 0. -1.
        -13    1    1    2    0    0  0.35735647494E+02 -0.80789511111E+02  0.13474410995E+03  0.16112097299E+03  0.10566000000E+00 0.  1.
         13    1    1    2    0    0 -0.21366635706E+02  0.57997750718E+02 -0.55335010204E+02  0.82959307664E+02  0.10566000000E+00 0. -1.
          4    1    1    2  501    0 -0.14369011788E+02  0.22791760393E+02 -0.12228295532E+03  0.12521602934E+03  0.00000000000E+00 0.  1.
</event>
<event>
 5    1  0.4881333E-005  0.3755524E+03  0.7818608E-02  0.1001940E+00
          4   -1    0    0  502    0 -0.00000000000E+00  0.00000000000E+00  0.34407468338E+03  0.34407468338E+03  0.00000000000E+00 0.  1.
         21   -1    0    0  501  502  0.00000000000E+00 -0.00000000000E+00 -0.10387504231E+04  0.10387504231E+04  0.00000000000E+00 0.  1.
        -13    1    1    2    0    0 -0.12130883096E+03  0.50709188575E+03 -0.21956459696E+02  0.52186215647E+03  0.10566000000E+00 0.  1.
         13    1    1    2    0    0  0.78128499249E+02 -0.16440950217E+03 -0.15764494014E+03  0.24080383119E+03  0.10566000000E+00 0. -1.
          4    1    1    2  501    0  0.43180331706E+02 -0.34268238358E+03 -0.51507433988E+03  0.62015911882E+03  0.00000000000E+00 0.  1.
</event>
<event>
 5    1  0.4881333E-005  0.3668770E+02  0.7818608E-02  0.1358058E+00
         21   -1    0    0  501  502  0.00000000000E+00  0.00000000000E+00  0.35171769088E+02  0.35171769088E+02  0.00000000000E+00 0. -1.
         -4   -1    0    0    0  501 -0.00000000000E+00 -0.00000000000E+00 -0.22081544429E+03  0.22081544429E+03  0.00000000000E+00 0. -1.
        -13    1    1    2    0    0  0.18970426767E+02 -0.27577508460E+02 -0.14336659544E+03  0.14722223988E+03  0.10566000000E+00 0.  1.
         13    1    1    2    0    0 -0.38621836151E+02  0.41232735236E+02 -0.57333994014E+02  0.80492128289E+02  0.10566000000E+00 0. -1.
         -4    1    1    2    0  502  0.19651409384E+02 -0.13655226777E+02  0.15056914254E+02  0.28272845204E+02  0.00000000000E+00 0. -1.
</event>
<event>
 5    1  0.4881333E-005  0.3411323E+03  0.7818608E-02  0.1013700E+00
         -4   -1    0    0    0  501 -0.00000000000E+00  0.00000000000E+00  0.23590605118E+04  0.23590605118E+04  0.00000000000E+00 0. -1.
         21   -1    0    0  501  502  0.00000000000E+00 -0.00000000000E+00 -0.14213935364E+03  0.14213935364E+03  0.00000000000E+00 0. -1.
        -13    1    1    2    0    0 -0.45029564097E+02 -0.15995460992E+03  0.32241503094E+03  0.36271835109E+03  0.10566000000E+00 0.  1.
         13    1    1    2    0    0  0.24686288486E+03  0.40749058162E+03  0.16977875023E+04  0.17633695790E+04  0.10566000000E+00 0. -1.
         -4    1    1    2    0  502 -0.20183332077E+03 -0.24753597169E+03  0.19671862496E+03  0.37511193538E+03  0.00000000000E+00 0. -1.
</event>
<event>
 5    1  0.4881333E-005  0.1352023E+03  0.7818608E-02  0.1116698E+00
         21   -1    0    0  501  502  0.00000000000E+00  0.00000000000E+00  0.88311861123E+02  0.88311861123E+02  0.00000000000E+00 0.  1.
         -4   -1    0    0    0  501 -0.00000000000E+00 -0.00000000000E+00 -0.34066617216E+03  0.34066617216E+03  0.00000000000E+00 0. -1.
        -13    1    1    2    0    0  0.39490819722E+02 -0.12873443677E+03 -0.32778990563E+02  0.13858771027E+03  0.10566000000E+00 0.  1.
         13    1    1    2    0    0 -0.27378761808E+01  0.13682082831E+03 -0.21148340258E+03  0.25189814560E+03  0.10566000000E+00 0. -1.
         -4    1    1    2    0  502 -0.36752943541E+02 -0.80863915413E+01 -0.80919178947E+01  0.38492177417E+02  0.00000000000E+00 0. -1.
</event>
<event>
 5    1  0.4881333E-005  0.3103095E+03  0.7818608E-02  0.1024041E+00
         21   -1    0    0  501  502  0.00000000000E+00  0.00000000000E+00  0.59581198513E+03  0.59581198513E+03  0.00000000000E+00 0.  1.
          4   -1    0    0  502    0 -0.00000000000E+00 -0.00000000000E+00 -0.58639365484E+03  0.58639365484E+03  0.00000000000E+00 0.  1.
        -13    1    1    2    0    0  0.40374323027E+03  0.10873291973E+02 -0.32853765456E+03  0.52063790305E+03  0.10566000000E+00 0.  1.
         13    1    1    2    0    0 -0.11792271952E+03 -0.10703285741E+03 -0.52980673865E+02  0.16783552458E+03  0.10566000000E+00 0. -1.
          4    1    1    2  501    0 -0.28582051075E+03  0.96159565435E+02  0.39093665871E+03  0.49373221235E+03  0.00000000000E+00 0.  1.
</event>
<event>
 5    1  0.4881333E-005  0.8340564E+02  0.7818608E-02  0.1195378E+00
          4   -1    0    0  502    0 -0.00000000000E+00  0.00000000000E+00  0.89621111115E+02  0.89621111115E+02  0.00000000000E+00 0.  1.
         21   -1    0    0  501  502  0.00000000000E+00 -0.00000000000E+00 -0.32178507645E+03  0.32178507645E+03  0.00000000000E+00 0. -1.
        -13    1    1    2    0    0 -0.32302301637E+01  0.83970990644E+02  0.61547809264E+02  0.10416192033E+03  0.10566000000E+00 0.  1.
         13    1    1    2    0    0  0.12339573781E+02 -0.75870123461E+02 -0.23403030121E+03  0.24633053762E+03  0.10566000000E+00 0. -1.
          4    1    1    2  501    0 -0.91093436178E+01 -0.81008671836E+01 -0.59681473395E+02  0.60913729625E+02  0.00000000000E+00 0.  1.
</event>
<event>
 5    1  0.4881333E-005  0.1718178E+03  0.7818608E-02  0.1081385E+00
         21   -1    0    0  501  502  0.00000000000E+00  0.00000000000E+00  0.25123673957E+03  0.25123673957E+03  0.00000000000E+00 0.  1.
         -4   -1    0    0    0  501 -0.00000000000E+00 -0.00000000000E+00 -0.46254591828E+03  0.46254591828E+03  0.00000000000E+00 0. -1.
        -13    1    1    2    0    0  0.71317465452E+02 -0.14532437109E+03  0.10722060092E+03  0.19416905556E+03  0.10566000000E+00 0.  1.
         13    1    1    2    0    0 -0.86099118876E+02  0.15009191316E+03 -0.40044957460E+03  0.43623447093E+03  0.10566000000E+00 0. -1.
         -4    1    1    2    0  502  0.14781653424E+02 -0.47675420621E+01  0.81919794977E+02  0.83379131348E+02  0.00000000000E+00 0. -1.
</event>
<event>
 5    1  0.4881333E-005  0.4836311E+03  0.7818608E-02  0.9578918E-01
          4   -1    0    0  502    0 -0.00000000000E+00  0.00000000000E+00  0.10300428919E+04  0.10300428919E+04  0.00000000000E+00 0.  1.
         21   -1    0    0  501  502  0.00000000000E+00 -0.00000000000E+00 -0.49566050136E+03  0.49566050136E+03  0.00000000000E+00 0.  1.
        -13    1    1    2    0    0  0.42283290484E+03 -0.16204065185E+03  0.21454932274E+03  0.50107510547E+03  0.10566000000E+00 0.  1.
         13    1    1    2    0    0  0.13190159833E+03  0.36032573340E+03  0.10838653963E+03  0.39872336141E+03  0.10566000000E+00 0. -1.
          4    1    1    2  501    0 -0.55473450316E+03 -0.19828508156E+03  0.21144652812E+03  0.62590492634E+03  0.00000000000E+00 0.  1.
</event>
<event>
 5    1  0.4881333E-005  0.8248240E+03  0.7818608E-02  0.8959296E-01
         -4   -1    0    0    0  501 -0.00000000000E+00  0.00000000000E+00  0.35340260184E+04  0.35340260184E+04  0.00000000000E+00 0. -1.
         21   -1    0    0  501  502  0.00000000000E+00 -0.00000000000E+00 -0.32984689137E+03  0.32984689137E+03  0.00000000000E+00 0. -1.
        -13    1    1    2    0    0  0.79605714720E+03 -0.11192943098E+03  0.18732094635E+04  0.20384182310E+04  0.10566000000E+00 0.  1.
         13    1    1    2    0    0 -0.87715406452E+03  0.13143583465E+03  0.55773076401E+03  0.10477300453E+04  0.10566000000E+00 0. -1.
         -4    1    1    2    0  502  0.81096917327E+02 -0.19506403671E+02  0.77323889951E+03  0.77772463347E+03  0.00000000000E+00 0. -1.
</event>
<event>
 5    1  0.4881333E-005  0.3881675E+03  0.7818608E-02  0.9910049E-01
         21   -1    0    0  501  502  0.00000000000E+00  0.00000000000E+00  0.97168961310E+03  0.97168961310E+03  0.00000000000E+00 0. -1.
         -4   -1    0    0    0  501 -0.00000000000E+00 -0.00000000000E+00 -0.69833107329E+03  0.69833107329E+03  0.00000000000E+00 0. -1.
        -13    1    1    2    0    0 -0.11312875369E+03  0.20771134677E+03 -0.39057116701E+03  0.45660482493E+03  0.10566000000E+00 0.  1.
         13    1    1    2    0    0 -0.25107768601E+03 -0.35052090519E+03 -0.13236977052E+02  0.43137007095E+03  0.10566000000E+00 0. -1.
         -4    1    1    2    0  502  0.36420643970E+03  0.14280955842E+03  0.67716668387E+03  0.78204579050E+03  0.00000000000E+00 0. -1.
</event>
<event>
 5    1  0.4881333E-005  0.4478732E+03  0.7818608E-02  0.1009261E+00
         21   -1    0    0  501  502  0.00000000000E+00  0.00000000000E+00  0.10998217686E+03  0.10998217686E+03  0.00000000000E+00 0. -1.
         -4   -1    0    0    0  501 -0.00000000000E+00 -0.00000000000E+00 -0.27873570304E+04  0.27873570304E+04  0.00000000000E+00 0. -1.
        -13    1    1    2    0    0  0.52657319731E+02  0.66282577951E+02 -0.43535877775E+03  0.44351262664E+03  0.10566000000E+00 0.  1.
         13    1    1    2    0    0  0.23183708629E+03 -0.40515632028E+03 -0.16498516695E+04  0.17146167562E+04  0.10566000000E+00 0. -1.
         -4    1    1    2    0  502 -0.28449440602E+03  0.33887374233E+03 -0.59216440631E+03  0.73920982434E+03  0.00000000000E+00 0. -1.
</event>
<event>
 5    1  0.4881333E-005  0.4907739E+03  0.7818608E-02  0.9755747E-01
         21   -1    0    0  501  502  0.00000000000E+00  0.00000000000E+00  0.22341994716E+03  0.22341994716E+03  0.00000000000E+00 0. -1.
         -4   -1    0    0    0  501 -0.00000000000E+00 -0.00000000000E+00 -0.18428021837E+04  0.18428021837E+04  0.00000000000E+00 0. -1.
        -13    1    1    2    0    0  0.18527963342E+03 -0.68369193329E+02 -0.59279732631E+03  0.62482923299E+03  0.10566000000E+00 0.  1.
         13    1    1    2    0    0 -0.23288335177E+03 -0.43687230944E+03 -0.40982170135E+03  0.64268647749E+03  0.10566000000E+00 0. -1.
         -4    1    1    2    0  502  0.47603718350E+02  0.50524150277E+03 -0.61676320891E+03  0.79870642040E+03  0.00000000000E+00 0. -1.
</event>
<event>
 5    1  0.4881333E-005  0.2654541E+03  0.7818608E-02  0.1022681E+00
         -4   -1    0    0    0  501 -0.00000000000E+00  0.00000000000E+00  0.63027166924E+02  0.63027166924E+02  0.00000000000E+00 0. -1.
         21   -1    0    0  501  502  0.00000000000E+00 -0.00000000000E+00 -0.16401671200E+04  0.16401671200E+04  0.00000000000E+00 0. -1.
        -13    1    1    2    0    0 -0.20917812862E+03 -0.13361293046E+03 -0.42705273316E+03  0.49394529327E+03  0.10566000000E+00 0.  1.
         13    1    1    2    0    0  0.26472166634E+03  0.13281817457E+03 -0.76772836285E+03  0.82287610150E+03  0.10566000000E+00 0. -1.
         -4    1    1    2    0  502 -0.55543537722E+02  0.79475589053E+00 -0.38235885701E+03  0.38637289210E+03  0.00000000000E+00 0. -1.
</event>
<event>
 5    1  0.4881333E-005  0.1307382E+03  0.7818608E-02  0.1121830E+00
         21   -1    0    0  501  502  0.00000000000E+00  0.00000000000E+00  0.52984001226E+02  0.52984001226E+02  0.00000000000E+00 0.  1.
         -4   -1    0    0    0  501 -0.00000000000E+00 -0.00000000000E+00 -0.40435085637E+03  0.40435085637E+03  0.00000000000E+00 0. -1.
        -13    1    1    2    0    0 -0.76576240559E+02 -0.99557622626E+02 -0.81462458087E+02  0.14970565815E+03  0.10566000000E+00 0.  1.
         13    1    1    2    0    0  0.71581477257E+02  0.11260405590E+03 -0.24878436887E+03  0.28230702196E+03  0.10566000000E+00 0. -1.
         -4    1    1    2    0  502  0.49947633018E+01 -0.13046433277E+02 -0.21120028187E+02  0.25322177480E+02  0.00000000000E+00 0. -1.
</event>
<event>
 5    1  0.4881333E-005  0.2939836E+03  0.7818608E-02  0.1021600E+00
         -4   -1    0    0    0  501 -0.00000000000E+00  0.00000000000E+00  0.12676888765E+04  0.12676888765E+04  0.00000000000E+00 0. -1.
         21   -1    0    0  501  502  0.00000000000E+00 -0.00000000000E+00 -0.55589357221E+03  0.55589357221E+03  0.00000000000E+00 0. -1.
        -13    1    1    2    0    0  0.15869984201E+03 -0.12526243388E+03  0.77672832497E+03  0.80261025359E+03  0.10566000000E+00 0.  1.
         13    1    1    2    0    0 -0.27649082807E+03 -0.12274972527E+03 -0.45353048830E+03  0.54516473477E+03  0.10566000000E+00 0. -1.
         -4    1    1    2    0  502  0.11779098605E+03  0.24801215916E+03  0.38859746763E+03  0.47580746036E+03  0.00000000000E+00 0. -1.
</event>
<event>
 5    1  0.4881333E-005  0.2399528E+03  0.7818608E-02  0.1035735E+00
          4   -1    0    0  502    0 -0.00000000000E+00  0.00000000000E+00  0.17981655845E+04  0.17981655845E+04  0.00000000000E+00 0.  1.
         21   -1    0    0  501  502  0.00000000000E+00 -0.00000000000E+00 -0.42051461549E+02  0.42051461549E+02  0.00000000000E+00 0. -1.
        -13    1    1    2    0    0 -0.18018577006E+03 -0.16426596838E+03  0.12891142569E+04  0.13119701973E+04  0.10566000000E+00 0.  1.
         13    1    1    2    0    0  0.17491544671E+03  0.15026092534E+03  0.44968687799E+03  0.50536329366E+03  0.10566000000E+00 0. -1.
          4    1    1    2  501    0  0.52703233448E+01  0.14005043041E+02  0.17312988154E+02  0.22883555177E+02  0.00000000000E+00 0.  1.
</event>
<event>
 5    1  0.4881333E-005  0.9414774E+02  0.7818608E-02  0.1181816E+00
         21   -1    0    0  501  502  0.00000000000E+00  0.00000000000E+00  0.57660106807E+03  0.57660106807E+03  0.00000000000E+00 0.  1.
          4   -1    0    0  502    0 -0.00000000000E+00 -0.00000000000E+00 -0.51992973650E+03  0.51992973650E+03  0.00000000000E+00 0.  1.
        -13    1    1    2    0    0 -0.87923591937E+02 -0.33283289093E+02  0.53903899776E+03  0.54717582880E+03  0.10566000000E+00 0.  1.
         13    1    1    2    0    0 -0.41439097691E+02  0.67764803771E+02 -0.43586538446E+02  0.90603890343E+02  0.10566000000E+00 0. -1.
          4    1    1    2  501    0  0.12936268963E+03 -0.34481514679E+02 -0.43878112774E+03  0.45875108543E+03  0.00000000000E+00 0.  1.
</event>
<event>
 5    1  0.4881333E-005  0.4489363E+03  0.7818608E-02  0.1003262E+00
         -4   -1    0    0    0  501 -0.00000000000E+00  0.00000000000E+00  0.23389009242E+03  0.23389009242E+03  0.00000000000E+00 0. -1.
         21   -1    0    0  501  502  0.00000000000E+00 -0.00000000000E+00 -0.23734215116E+04  0.23734215116E+04  0.00000000000E+00 0. -1.
        -13    1    1    2    0    0  0.87326874237E+02  0.52833192382E+02  0.11717832605E+03  0.15539659083E+03  0.10566000000E+00 0.  1.
         13    1    1    2    0    0 -0.46462408485E+03  0.90952089341E+02 -0.16967592867E+04  0.17615731353E+04  0.10566000000E+00 0. -1.
         -4    1    1    2    0  502  0.37729721062E+03 -0.14378528172E+03 -0.55995045847E+03  0.69034187786E+03  0.00000000000E+00 0. -1.
</event>
<event>
 5    1  0.4881333E-005  0.4605948E+03  0.7818608E-02  0.9604746E-01
          4   -1    0    0  502    0 -0.00000000000E+00  0.00000000000E+00  0.19169289375E+04  0.19169289375E+04  0.00000000000E+00 0.  1.
         21   -1    0    0  501  502  0.00000000000E+00 -0.00000000000E+00 -0.28559848185E+03  0.28559848185E+03  0.00000000000E+00 0.  1.
        -13    1    1    2    0    0  0.41440028534E+02  0.37533626860E+03  0.81205774214E+03  0.89556260431E+03  0.10566000000E+00 0.  1.
         13    1    1    2    0    0  0.40156071235E+03 -0.53811976562E+02  0.58490277414E+03  0.71151809596E+03  0.10566000000E+00 0. -1.
          4    1    1    2  501    0 -0.44300074088E+03 -0.32152429204E+03  0.23436993937E+03  0.59544671909E+03  0.00000000000E+00 0.  1.
</event>
<event>
 5    1  0.6508166E-005  0.4979570E+03  0.7818608E-02  0.1016762E+00
         21   -1    0    0  501  502  0.00000000000E+00  0.00000000000E+00  0.39810406835E+03  0.39810406835E+03  0.00000000000E+00 0. -1.
         -4   -1    0    0    0  501 -0.00000000000E+00 -0.00000000000E+00 -0.92804936341E+03  0.92804936341E+03  0.00000000000E+00 0. -1.
        -13    1    1    2    0    0 -0.88106650916E+01 -0.47660527470E+02 -0.29077609297E+03  0.29478789172E+03  0.10566000000E+00 0.  1.
         13    1    1    2    0    0 -0.41439073410E+03 -0.24216026229E+03 -0.18958442308E+03  0.51604606168E+03  0.10566000000E+00 0. -1.
         -4    1    1    2    0  502  0.42320139919E+03  0.28982078976E+03 -0.49584779012E+02  0.51531947835E+03  0.00000000000E+00 0. -1.
</event>
<event>
 5    1  0.4881333E-005  0.4273463E+03  0.7818608E-02  0.9653236E-01
         -4   -1    0    0    0  501 -0.00000000000E+00  0.00000000000E+00  0.35329067638E+04  0.35329067638E+04  0.00000000000E+00 0. -1.
         21   -1    0    0  501  502  0.00000000000E+00 -0.00000000000E+00 -0.16072964336E+03  0.16072964336E+03  0.00000000000E+00 0. -1.
        -13    1    1    2    0    0 -0.40473584810E+03  0.61150508612E+02  0.12273594773E+04  0.12938167525E+04  0.10566000000E+00 0.  1.
         13    1    1    2    0    0  0.50585891901E+03  0.81167622792E+02  0.40985895689E+03  0.65609892900E+03  0.10566000000E+00 0. -1.
         -4    1    1    2    0  502 -0.10112307091E+03 -0.14231813140E+03  0.17349586863E+04  0.17437207257E+04  0.00000000000E+00 0. -1.
</event>
<event>
 5    1  0.4881333E-005  0.1185100E+03  0.7818608E-02  0.1162302E+00
         21   -1    0    0  501  502  0.00000000000E+00  0.00000000000E+00  0.22923591426E+04  0.22923591426E+04  0.00000000000E+00 0. -1.
          4   -1    0    0  502    0 -0.00000000000E+00 -0.00000000000E+00 -0.81317507386E+02  0.81317507386E+02  0.00000000000E+00 0.  1.
        -13    1    1    2    0    0 -0.83683436205E+02  0.42433790365E+01 -0.36146127069E+02  0.91255013160E+02  0.10566000000E+00 0.  1.
         13    1    1    2    0    0  0.22204871836E+03  0.79939679829E+02  0.12329069802E+04  0.12552910494E+04  0.10566000000E+00 0. -1.
          4    1    1    2  501    0 -0.13836528216E+03 -0.84183058866E+02  0.10142807821E+04  0.10271305874E+04  0.00000000000E+00 0.  1.
</event>
<event>
 5    1  0.4881333E-005  0.4845229E+03  0.7818608E-02  0.9698491E-01
         21   -1    0    0  501  502  0.00000000000E+00  0.00000000000E+00  0.47410430634E+03  0.47410430634E+03  0.00000000000E+00 0.  1.
          4   -1    0    0  502    0 -0.00000000000E+00 -0.00000000000E+00 -0.12679288658E+04  0.12679288658E+04  0.00000000000E+00 0.  1.
        -13    1    1    2    0    0 -0.48927814707E+03 -0.28048282945E+03 -0.12015325753E+03  0.57662859734E+03  0.10566000000E+00 0.  1.
         13    1    1    2    0    0  0.23263991850E+03 -0.92231896743E+02 -0.66746357157E+03  0.71283636621E+03  0.10566000000E+00 0. -1.
          4    1    1    2  501    0  0.25663822856E+03  0.37271472619E+03 -0.62077303217E+01  0.45256820856E+03  0.00000000000E+00 0.  1.
</event>
<event>
 5    1  0.4881333E-005  0.1620550E+03  0.7818608E-02  0.1089795E+00
         21   -1    0    0  501  502  0.00000000000E+00  0.00000000000E+00  0.34838027329E+03  0.34838027329E+03  0.00000000000E+00 0.  1.
         -4   -1    0    0    0  501 -0.00000000000E+00 -0.00000000000E+00 -0.18147297437E+03  0.18147297437E+03  0.00000000000E+00 0. -1.
        -13    1    1    2    0    0  0.12416719427E+03 -0.78643081336E+02  0.19650405163E+03  0.24538964902E+03  0.10566000000E+00 0.  1.
         13    1    1    2    0    0 -0.12812736459E+03  0.10433681657E+03 -0.11096860079E+03  0.19903978088E+03  0.10566000000E+00 0. -1.
         -4    1    1    2    0  502  0.39601703178E+01 -0.25693735234E+02  0.81371848073E+02  0.85423817744E+02  0.00000000000E+00 0. -1.
</event>
<event>
 5    1  0.4881333E-005  0.4798682E+03  0.7818608E-02  0.1025152E+00
         21   -1    0    0  501  502  0.00000000000E+00  0.00000000000E+00  0.12576433420E+04  0.12576433420E+04  0.00000000000E+00 0.  1.
          4   -1    0    0  502    0 -0.00000000000E+00 -0.00000000000E+00 -0.21565113934E+03  0.21565113934E+03  0.00000000000E+00 0.  1.
        -13    1    1    2    0    0  0.40306975718E+03  0.28610808011E+03  0.40495546449E+03  0.63899295931E+03  0.10566000000E+00 0.  1.
         13    1    1    2    0    0 -0.39503079242E+02  0.13023120609E+02 -0.70511674844E+00  0.41600520353E+02  0.10566000000E+00 0. -1.
          4    1    1    2  501    0 -0.36356667794E+03 -0.29913120072E+03  0.63774185494E+03  0.79270100170E+03  0.00000000000E+00 0.  1.
</event>
<event>
 5    1  0.4881333E-005  0.3474443E+02  0.7818608E-02  0.1413674E+00
         21   -1    0    0  501  502  0.00000000000E+00  0.00000000000E+00  0.14942576639E+03  0.14942576639E+03  0.00000000000E+00 0.  1.
          4   -1    0    0  502    0 -0.00000000000E+00 -0.00000000000E+00 -0.37092969684E+02  0.37092969684E+02  0.00000000000E+00 0.  1.
        -13    1    1    2    0    0 -0.74398542986E+01  0.27386372686E+02 -0.19448805207E+02  0.34403953681E+02  0.10566000000E+00 0.  1.
         13    1    1    2    0    0 -0.16665618176E+02 -0.12281326718E+01  0.11768058844E+01  0.16752527426E+02  0.10566000000E+00 0. -1.
          4    1    1    2  501    0  0.24105472474E+02 -0.26158240014E+02  0.13060479603E+03  0.13536225496E+03  0.00000000000E+00 0.  1.
</event>
<event>
 5    1  0.4881333E-005  0.1766532E+03  0.7818608E-02  0.1077438E+00
         21   -1    0    0  501  502  0.00000000000E+00  0.00000000000E+00  0.61918005917E+03  0.61918005917E+03  0.00000000000E+00 0.  1.
          4   -1    0    0  502    0 -0.00000000000E+00 -0.00000000000E+00 -0.58167999420E+03  0.58167999420E+03  0.00000000000E+00 0.  1.
        -13    1    1    2    0    0  0.17948888879E+03 -0.19084564959E+03  0.51733161577E+03  0.57988820906E+03  0.10566000000E+00 0.  1.
         13    1    1    2    0    0 -0.52317996203E+02  0.16132350420E+03 -0.57744965470E+02  0.17915618307E+03  0.10566000000E+00 0. -1.
          4    1    1    2  501    0 -0.12717089259E+03  0.29522145394E+02 -0.42208658533E+03  0.44181566123E+03  0.00000000000E+00 0.  1.
</event>
<event>
 5    1  0.4881333E-005  0.3928519E+03  0.7818608E-02  0.9832134E-01
         21   -1    0    0  501  502  0.00000000000E+00  0.00000000000E+00  0.43585152895E+03  0.43585152895E+03  0.00000000000E+00 0. -1.
         -4   -1    0    0    0  501 -0.00000000000E+00 -0.00000000000E+00 -0.11542016153E+04  0.11542016153E+04  0.00000000000E+00 0. -1.
        -13    1    1    2    0    0 -0.10561958996E+03 -0.27711475500E+03 -0.42178614736E+03  0.51560803959E+03  0.10566000000E+00 0.  1.
         13    1    1    2    0    0  0.38111079704E+02  0.61279531414E+03 -0.37995330028E+03  0.72203536824E+03  0.10566000000E+00 0. -1.
         -4    1    1    2    0  502  0.67508510258E+02 -0.33568055914E+03  0.83389361300E+02  0.35240973642E+03  0.00000000000E+00 0. -1.
</event>
<event>
 5    1  0.4881333E-005  0.3523899E+03  0.7818608E-02  0.1015275E+00
         -4   -1    0    0    0  501 -0.00000000000E+00  0.00000000000E+00  0.92891707544E+03  0.92891707544E+03  0.00000000000E+00 0. -1.
         21   -1    0    0  501  502  0.00000000000E+00 -0.00000000000E+00 -0.75535743593E+03  0.75535743593E+03  0.00000000000E+00 0. -1.
        -13    1    1    2    0    0  0.13588243089E+03  0.45730931275E+02  0.63990723079E+03  0.65577178064E+03  0.10566000000E+00 0.  1.
         13    1    1    2    0    0 -0.15211316084E+03 -0.38715487663E+03  0.39675040948E+02  0.41785336212E+03  0.10566000000E+00 0. -1.
         -4    1    1    2    0  502  0.16230729946E+02  0.34142394536E+03 -0.50602263222E+03  0.61064936861E+03  0.00000000000E+00 0. -1.
</event>
<event>
 5    1  0.4881333E-005  0.6154700E+03  0.7818608E-02  0.9255543E-01
         21   -1    0    0  501  502  0.00000000000E+00  0.00000000000E+00  0.92229955005E+03  0.92229955005E+03  0.00000000000E+00 0. -1.
         -4   -1    0    0    0  501 -0.00000000000E+00 -0.00000000000E+00 -0.66090808039E+03  0.66090808039E+03  0.00000000000E+00 0. -1.
        -13    1    1    2    0    0 -0.25754896162E+03 -0.60593100542E+03 -0.80665428734E+02  0.66331800331E+03  0.10566000000E+00 0.  1.
         13    1    1    2    0    0  0.25165676364E+03  0.51490501460E+03  0.75434102661E+01  0.57316246820E+03  0.10566000000E+00 0. -1.
         -4    1    1    2    0  502  0.58921979821E+01  0.91025990820E+02  0.33451348813E+03  0.34672715893E+03  0.00000000000E+00 0. -1.
</event>
<event>
 5    1  0.4881333E-005  0.1474040E+03  0.7818608E-02  0.1103700E+00
         -4   -1    0    0    0  501 -0.00000000000E+00  0.00000000000E+00  0.67605445677E+03  0.67605445677E+03  0.00000000000E+00 0. -1.
         21   -1    0    0  501  502  0.00000000000E+00 -0.00000000000E+00 -0.86118679295E+02  0.86118679295E+02  0.00000000000E+00 0. -1.
        -13    1    1    2    0    0 -0.34294885315E+01 -0.13430754791E+03  0.64770785333E+02  0.14914940366E+03  0.10566000000E+00 0.  1.
         13    1    1    2    0    0  0.57639623988E+01  0.15038441787E+03  0.55716716082E+03  0.57713425879E+03  0.10566000000E+00 0. -1.
         -4    1    1    2    0  502 -0.23344738673E+01 -0.16076869967E+02 -0.32002168680E+02  0.35889473616E+02  0.00000000000E+00 0. -1.
</event>
<event>
 5    1  0.4881333E-005  0.4421190E+03  0.7818608E-02  0.9742487E-01
         -4   -1    0    0    0  501 -0.00000000000E+00  0.00000000000E+00  0.19101141807E+04  0.19101141807E+04  0.00000000000E+00 0. -1.
         21   -1    0    0  501  502  0.00000000000E+00 -0.00000000000E+00 -0.23810731735E+03  0.23810731735E+03  0.00000000000E+00 0. -1.
        -13    1    1    2    0    0 -0.27915669517E+03 -0.45076306858E+02  0.55727002548E+03  0.62490817435E+03  0.10566000000E+00 0.  1.
         13    1    1    2    0    0 -0.17040707728E+03 -0.20128326610E+03  0.94836305904E+03  0.98435056160E+03  0.10566000000E+00 0. -1.
         -4    1    1    2    0  502  0.44956377245E+03  0.24635957296E+03  0.16637377886E+03  0.53896276215E+03  0.00000000000E+00 0. -1.
</event>
<event>
 5    1  0.4881333E-005  0.4819027E+03  0.7818608E-02  0.9899827E-01
         -4   -1    0    0    0  501 -0.00000000000E+00  0.00000000000E+00  0.10184896040E+04  0.10184896040E+04  0.00000000000E+00 0. -1.
         21   -1    0    0  501  502  0.00000000000E+00 -0.00000000000E+00 -0.40153009602E+03  0.40153009602E+03  0.00000000000E+00 0. -1.
        -13    1    1    2    0    0  0.42939907076E+02  0.12048141017E+03  0.36356193728E+03  0.38540485106E+03  0.10566000000E+00 0.  1.
         13    1    1    2    0    0 -0.21008274504E+03 -0.48644837654E+03 -0.47810184096E+02  0.53202688623E+03  0.10566000000E+00 0. -1.
         -4    1    1    2    0  502  0.16714283797E+03  0.36596696636E+03  0.30120775485E+03  0.50258796278E+03  0.00000000000E+00 0. -1.
</event>
<event>
 5    1  0.4881333E-005  0.4489115E+03  0.7818608E-02  0.9713955E-01
         21   -1    0    0  501  502  0.00000000000E+00  0.00000000000E+00  0.25164940139E+03  0.25164940139E+03  0.00000000000E+00 0. -1.
         -4   -1    0    0    0  501 -0.00000000000E+00 -0.00000000000E+00 -0.18365569342E+04  0.18365569342E+04  0.00000000000E+00 0. -1.
        -13    1    1    2    0    0  0.27721196593E+03 -0.10985285857E+03 -0.40809618981E+03  0.50542718160E+03  0.10566000000E+00 0.  1.
         13    1    1    2    0    0  0.40420143317E+02 -0.40487624694E+03 -0.25481001455E+03  0.48009032275E+03  0.10566000000E+00 0. -1.
         -4    1    1    2    0  502 -0.31763210924E+03  0.51472910551E+03 -0.92200132846E+03  0.11026888313E+04  0.00000000000E+00 0. -1.
</event>
<event>
 5    1  0.4881333E-005  0.6469299E+03  0.7818608E-02  0.9203737E-01
          4   -1    0    0  502    0 -0.00000000000E+00  0.00000000000E+00  0.53578167889E+03  0.53578167889E+03  0.00000000000E+00 0.  1.
         21   -1    0    0  501  502  0.00000000000E+00 -0.00000000000E+00 -0.15685704561E+04  0.15685704561E+04  0.00000000000E+00 0. -1.
        -13    1    1    2    0    0  0.62959164655E+03  0.19955088373E+03  0.11244579850E+03  0.66996288358E+03  0.10566000000E+00 0.  1.
         13    1    1    2    0    0 -0.60138248590E+03 -0.13464664658E+03 -0.52340055593E+03  0.80854113494E+03  0.10566000000E+00 0. -1.
          4    1    1    2  501    0 -0.28209160654E+02 -0.64904237151E+02 -0.62183401978E+03  0.62584811648E+03  0.00000000000E+00 0.  1.
</event>
<event>
 5    1  0.4881333E-005  0.4866348E+03  0.7818608E-02  0.9821378E-01
         21   -1    0    0  501  502  0.00000000000E+00  0.00000000000E+00  0.20436367398E+03  0.20436367398E+03  0.00000000000E+00 0.  1.
          4   -1    0    0  502    0 -0.00000000000E+00 -0.00000000000E+00 -0.16579350023E+04  0.16579350023E+04  0.00000000000E+00 0.  1.
        -13    1    1    2    0    0 -0.56436527798E+03 -0.35077440297E+02 -0.71857750689E+03  0.91438079506E+03  0.10566000000E+00 0.  1.
         13    1    1    2    0    0  0.15085975892E+03 -0.58560769726E+02 -0.12233748005E+03  0.20286572110E+03  0.10566000000E+00 0. -1.
          4    1    1    2  501    0  0.41350551906E+03  0.93638210023E+02 -0.61265634139E+03  0.74505216013E+03  0.00000000000E+00 0.  1.
</event>
<event>
 5    1  0.4881333E-005  0.1437815E+03  0.7818608E-02  0.1158118E+00
         -4   -1    0    0    0  501 -0.00000000000E+00  0.00000000000E+00  0.75521331964E+03  0.75521331964E+03  0.00000000000E+00 0. -1.
         21   -1    0    0  501  502  0.00000000000E+00 -0.00000000000E+00 -0.19618476641E+03  0.19618476641E+03  0.00000000000E+00 0. -1.
        -13    1    1    2    0    0  0.19426777522E+02 -0.34210087057E+02 -0.31496531609E+02  0.50396154702E+02  0.10566000000E+00 0.  1.
         13    1    1    2    0    0 -0.14962283379E+03  0.91623396468E+02  0.69988406636E+03  0.72153971247E+03  0.10566000000E+00 0. -1.
         -4    1    1    2    0  502  0.13019605626E+03 -0.57413309410E+02 -0.10935898152E+03  0.17946221888E+03  0.00000000000E+00 0. -1.
</event>
<event>
 5    1  0.4881333E-005  0.3070450E+03  0.7818608E-02  0.1015427E+00
          4   -1    0    0  502    0 -0.00000000000E+00  0.00000000000E+00  0.19577755527E+04  0.19577755527E+04  0.00000000000E+00 0.  1.
         21   -1    0    0  501  502  0.00000000000E+00 -0.00000000000E+00 -0.30939851549E+03  0.30939851549E+03  0.00000000000E+00 0.  1.
        -13    1    1    2    0    0 -0.28351618971E+03 -0.70760903666E+02  0.83332702157E+03  0.88307557511E+03  0.10566000000E+00 0.  1.
         13    1    1    2    0    0  0.29852808424E+01  0.21566732679E+03  0.99673959869E+03  0.10198093677E+04  0.10566000000E+00 0. -1.
          4    1    1    2  501    0  0.28053090887E+03 -0.14490642312E+03 -0.18168958302E+03  0.36428912538E+03  0.00000000000E+00 0.  1.
</event>
<event>
 5    1  0.4881333E-005  0.7611538E+02  0.7818608E-02  0.1227628E+00
         21   -1    0    0  501  502  0.00000000000E+00  0.00000000000E+00  0.44568412353E+03  0.44568412353E+03  0.00000000000E+00 0. -1.
          4   -1    0    0  502    0 -0.00000000000E+00 -0.00000000000E+00 -0.26615615034E+02  0.26615615034E+02  0.00000000000E+00 0.  1.
        -13    1    1    2    0    0  0.87835500168E+02  0.34501888757E+02  0.17161070489E+03  0.19584611463E+03  0.10566000000E+00 0.  1.
         13    1    1    2    0    0 -0.48200550316E+02  0.22961463810E+02  0.10313715320E+03  0.11613701135E+03  0.10566000000E+00 0. -1.
          4    1    1    2  501    0 -0.39634949852E+02 -0.57463352566E+02  0.14432065040E+03  0.16031661259E+03  0.00000000000E+00 0.  1.
</event>
<event>
 5    1  0.4881333E-005  0.4905474E+03  0.7818608E-02  0.9746543E-01
         21   -1    0    0  501  502  0.00000000000E+00  0.00000000000E+00  0.59043072312E+03  0.59043072312E+03  0.00000000000E+00 0.  1.
          4   -1    0    0  502    0 -0.00000000000E+00 -0.00000000000E+00 -0.69878349634E+03  0.69878349634E+03  0.00000000000E+00 0.  1.
        -13    1    1    2    0    0  0.22153790722E+03 -0.47728274489E+03  0.67509425419E+02  0.53050485068E+03  0.10566000000E+00 0.  1.
         13    1    1    2    0    0 -0.20412488256E+03  0.25500067142E+01 -0.19631255620E+03  0.28321740960E+03  0.10566000000E+00 0. -1.
          4    1    1    2  501    0 -0.17413024667E+02  0.47473273818E+03  0.20450357561E+02  0.47549195918E+03  0.00000000000E+00 0.  1.
</event>
<event>
 5    1  0.4881333E-005  0.3771855E+03  0.7818608E-02  0.9797350E-01
         21   -1    0    0  501  502  0.00000000000E+00  0.00000000000E+00  0.90891229805E+03  0.90891229805E+03  0.00000000000E+00 0. -1.
         -4   -1    0    0    0  501 -0.00000000000E+00 -0.00000000000E+00 -0.15195515871E+04  0.15195515871E+04  0.00000000000E+00 0. -1.
        -13    1    1    2    0    0 -0.32979033342E+03  0.19414278414E+03 -0.11684787312E+04  0.12295509917E+04  0.10566000000E+00 0.  1.
         13    1    1    2    0    0  0.73382078845E+02 -0.32684938802E+03  0.77060678058E+03  0.84026797713E+03  0.10566000000E+00 0. -1.
         -4    1    1    2    0  502  0.25640825457E+03  0.13270660388E+03 -0.21276733839E+03  0.35864491633E+03  0.00000000000E+00 0. -1.
</event>
<event>
 5    1  0.4881333E-005  0.4752030E+03  0.7818608E-02  0.1037002E+00
         -4   -1    0    0    0  501 -0.00000000000E+00  0.00000000000E+00  0.10836814406E+04  0.10836814406E+04  0.00000000000E+00 0. -1.
         21   -1    0    0  501  502  0.00000000000E+00 -0.00000000000E+00 -0.24756377661E+03  0.24756377661E+03  0.00000000000E+00 0. -1.
        -13    1    1    2    0    0  0.25581083518E+01  0.29611088148E+02  0.94238607247E+01  0.31179813576E+02  0.10566000000E+00 0.  1.
         13    1    1    2    0    0 -0.46838313827E+03  0.69981963984E+02  0.62156368988E+03  0.78142285047E+03  0.10566000000E+00 0. -1.
         -4    1    1    2    0  502  0.46582502992E+03 -0.99593052133E+02  0.20513011339E+03  0.51864255317E+03  0.00000000000E+00 0. -1.
</event>
<event>
 5    1  0.4881333E-005  0.4912119E+03  0.7818608E-02  0.9807245E-01
          4   -1    0    0  502    0 -0.00000000000E+00  0.00000000000E+00  0.13931410071E+04  0.13931410071E+04  0.00000000000E+00 0.  1.
         21   -1    0    0  501  502  0.00000000000E+00 -0.00000000000E+00 -0.28922035041E+03  0.28922035041E+03  0.00000000000E+00 0.  1.
        -13    1    1    2    0    0 -0.43320436215E+03  0.89756666129E+02  0.25192995335E+03  0.50910803476E+03  0.10566000000E+00 0.  1.
         13    1    1    2    0    0 -0.13603805022E+03 -0.93551188800E+02  0.44170248938E+03  0.47154986621E+03  0.10566000000E+00 0. -1.
          4    1    1    2  501    0  0.56924241237E+03  0.37945226710E+01  0.41028821401E+03  0.70170345659E+03  0.00000000000E+00 0.  1.
</event>
<event>
 5    1  0.4881333E-005  0.5458048E+03  0.7818608E-02  0.9382858E-01
          4   -1    0    0  502    0 -0.00000000000E+00  0.00000000000E+00  0.26526219253E+04  0.26526219253E+04  0.00000000000E+00 0.  1.
         21   -1    0    0  501  502  0.00000000000E+00 -0.00000000000E+00 -0.21560570170E+03  0.21560570170E+03  0.00000000000E+00 0.  1.
        -13    1    1    2    0    0 -0.49604670248E+03  0.16239044201E+03  0.13619019365E+04  0.14584957602E+04  0.10566000000E+00 0.  1.
         13    1    1    2    0    0  0.52844095900E+03 -0.24458070161E+03  0.11531682062E+04  0.12918461556E+04  0.10566000000E+00 0. -1.
          4    1    1    2  501    0 -0.32394256518E+02  0.82190259600E+02 -0.78053919084E+02  0.11788571123E+03  0.00000000000E+00 0.  1.
</event>
<event>
 5    1  0.4881333E-005  0.4726000E+03  0.7818608E-02  0.9631935E-01
          4   -1    0    0  502    0 -0.00000000000E+00  0.00000000000E+00  0.65166129653E+03  0.65166129653E+03  0.00000000000E+00 0.  1.
         21   -1    0    0  501  502  0.00000000000E+00 -0.00000000000E+00 -0.79654626847E+03  0.79654626847E+03  0.00000000000E+00 0. -1.
        -13    1    1    2    0    0 -0.44750130939E+03 -0.19931730131E+03  0.20008681209E+03  0.52916873683E+03  0.10566000000E+00 0.  1.
         13    1    1    2    0    0 -0.37189013327E+02  0.33856742716E+03 -0.19704299861E+03  0.39349317644E+03  0.10566000000E+00 0. -1.
          4    1    1    2  501    0  0.48469032272E+03 -0.13925012585E+03 -0.14792878544E+03  0.52554565172E+03  0.00000000000E+00 0.  1.
</event>
<event>
 5    1  0.4881333E-005  0.3726102E+03  0.7818608E-02  0.9983568E-01
         -4   -1    0    0    0  501 -0.00000000000E+00  0.00000000000E+00  0.19478165066E+04  0.19478165066E+04  0.00000000000E+00 0. -1.
         21   -1    0    0  501  502  0.00000000000E+00 -0.00000000000E+00 -0.25368117043E+03  0.25368117043E+03  0.00000000000E+00 0. -1.
        -13    1    1    2    0    0  0.20917648905E+03  0.13130095013E+02  0.86318976928E+03  0.88827011202E+03  0.10566000000E+00 0.  1.
         13    1    1    2    0    0 -0.53516936693E+03 -0.10212842822E+03  0.80800067176E+03  0.97452632795E+03  0.10566000000E+00 0. -1.
         -4    1    1    2    0  502  0.32599287789E+03  0.88998333208E+02  0.22944895111E+02  0.33870123702E+03  0.00000000000E+00 0. -1.
</event>
<event>
 5    1  0.4881333E-005  0.4860284E+03  0.7818608E-02  0.1016149E+00
         -4   -1    0    0    0  501 -0.00000000000E+00  0.00000000000E+00  0.17511555696E+04  0.17511555696E+04  0.00000000000E+00 0. -1.
         21   -1    0    0  501  502  0.00000000000E+00 -0.00000000000E+00 -0.15335345519E+03  0.15335345519E+03  0.00000000000E+00 0. -1.
        -13    1    1    2    0    0 -0.46544567052E+02  0.25657165676E+02  0.70894428461E+02  0.88604277682E+02  0.10566000000E+00 0.  1.
         13    1    1    2    0    0  0.19100989858E+03  0.44273551953E+03  0.88991199850E+03  0.10121476660E+04  0.10566000000E+00 0. -1.
         -4    1    1    2    0  502 -0.14446533152E+03 -0.46839268520E+03  0.63699568744E+03  0.80375708107E+03  0.00000000000E+00 0. -1.
</event>
<event>
 5    1  0.4881333E-005  0.9925602E+02  0.7818608E-02  0.1175430E+00
         -4   -1    0    0    0  501 -0.00000000000E+00  0.00000000000E+00  0.16028534060E+03  0.16028534060E+03  0.00000000000E+00 0. -1.
         21   -1    0    0  501  502  0.00000000000E+00 -0.00000000000E+00 -0.16988080771E+03  0.16988080771E+03  0.00000000000E+00 0.  1.
        -13    1    1    2    0    0  0.70451656817E+02 -0.35328159888E+02 -0.63128833295E+02  0.10097908490E+03  0.10566000000E+00 0.  1.
         13    1    1    2    0    0 -0.13595070291E+03 -0.18844164291E+02  0.41182009756E+02  0.14329572653E+03  0.10566000000E+00 0. -1.
         -4    1    1    2    0  502  0.65499046093E+02  0.54172324179E+02  0.12351356437E+02  0.85891336885E+02  0.00000000000E+00 0. -1.
</event>
<event>
 5    1  0.4881333E-005  0.1075783E+03  0.7818608E-02  0.1164890E+00
          4   -1    0    0  502    0 -0.00000000000E+00  0.00000000000E+00  0.83614974682E+03  0.83614974682E+03  0.00000000000E+00 0.  1.
         21   -1    0    0  501  502  0.00000000000E+00 -0.00000000000E+00 -0.37371356719E+02  0.37371356719E+02  0.00000000000E+00 0.  1.
        -13    1    1    2    0    0  0.88905803487E+02 -0.52171526074E+02  0.51743073182E+03  0.52759897974E+03  0.10566000000E+00 0.  1.
         13    1    1    2    0    0  0.26397790896E+02  0.75172554119E+02  0.80962123339E+02  0.11358975674E+03  0.10566000000E+00 0. -1.
          4    1    1    2  501    0 -0.11530359438E+03 -0.23001028044E+02  0.20038553494E+03  0.23233236706E+03  0.00000000000E+00 0.  1.
</event>
<event>
 5    1  0.4881333E-005  0.2772744E+03  0.7818608E-02  0.1017153E+00
         21   -1    0    0  501  502  0.00000000000E+00  0.00000000000E+00  0.13522628175E+03  0.13522628175E+03  0.00000000000E+00 0. -1.
          4   -1    0    0  502    0 -0.00000000000E+00 -0.00000000000E+00 -0.71789696768E+03  0.71789696768E+03  0.00000000000E+00 0.  1.
        -13    1    1    2    0    0 -0.17756639997E+03  0.20520359001E+03 -0.37606060602E+03  0.46374554479E+03  0.10566000000E+00 0.  1.
         13    1    1    2    0    0  0.17320755682E+03 -0.22910867360E+03 -0.21985665586E+03  0.36170236708E+03  0.10566000000E+00 0. -1.
          4    1    1    2  501    0  0.43588431440E+01  0.23905083590E+02  0.13246575948E+02  0.27675337565E+02  0.00000000000E+00 0.  1.
</event>
<event>
 5    1  0.4881333E-005  0.4803518E+02  0.7818608E-02  0.1300002E+00
         -4   -1    0    0    0  501 -0.00000000000E+00  0.00000000000E+00  0.18601318452E+03  0.18601318452E+03  0.00000000000E+00 0. -1.
         21   -1    0    0  501  502  0.00000000000E+00 -0.00000000000E+00 -0.45114666855E+02  0.45114666855E+02  0.00000000000E+00 0.  1.
        -13    1    1    2    0    0 -0.38245545392E+02  0.47919472611E+02  0.63756564195E+00  0.61314070585E+02  0.10566000000E+00 0.  1.
         13    1    1    2    0    0  0.37580041162E+02 -0.27601570868E+02  0.14195292523E+03  0.14941469256E+03  0.10566000000E+00 0. -1.
         -4    1    1    2    0  502  0.66550423004E+00 -0.20317901743E+02 -0.16919732089E+01  0.20399088227E+02  0.00000000000E+00 0. -1.
</event>
<event>
 5    1  0.4881333E-005  0.4346677E+03  0.7818608E-02  0.9644302E-01
         21   -1    0    0  501  502  0.00000000000E+00  0.00000000000E+00  0.33672503174E+03  0.33672503174E+03  0.00000000000E+00 0. -1.
          4   -1    0    0  502    0 -0.00000000000E+00 -0.00000000000E+00 -0.18415241150E+04  0.18415241150E+04  0.00000000000E+00 0.  1.
        -13    1    1    2    0    0  0.20593428537E+03 -0.33621724650E+03 -0.11178237012E+04  0.11853188621E+04  0.10566000000E+00 0.  1.
         13    1    1    2    0    0  0.28754853679E+03  0.30488076256E+03 -0.15620518148E+03  0.44725441336E+03  0.10566000000E+00 0. -1.
          4    1    1    2  501    0 -0.49348282216E+03  0.31336483945E+02 -0.23077020054E+03  0.54567587123E+03  0.00000000000E+00 0.  1.
</event>
<event>
 5    1  0.4881333E-005  0.4868078E+02  0.7818608E-02  0.1371044E+00
          4   -1    0    0  502    0 -0.00000000000E+00  0.00000000000E+00  0.59529242778E+02  0.59529242778E+02  0.00000000000E+00 0.  1.
         21   -1    0    0  501  502  0.00000000000E+00 -0.00000000000E+00 -0.27188811325E+03  0.27188811325E+03  0.00000000000E+00 0.  1.
        -13    1    1    2    0    0 -0.94217058965E+01  0.83035048574E+01  0.45159245793E+02  0.46873077342E+02  0.10566000000E+00 0.  1.
         13    1    1    2    0    0  0.37152561084E+02  0.31706714976E+02 -0.44634327649E+02  0.66165421017E+02  0.10566000000E+00 0. -1.
          4    1    1    2  501    0 -0.27730855188E+02 -0.40010219834E+02 -0.21288378862E+03  0.21837885767E+03  0.00000000000E+00 0.  1.
</event>
<event>
 5    1  0.4881333E-005  0.4116559E+03  0.7818608E-02  0.9695973E-01
         -4   -1    0    0    0  501 -0.00000000000E+00  0.00000000000E+00  0.28750506770E+03  0.28750506770E+03  0.00000000000E+00 0. -1.
         21   -1    0    0  501  502  0.00000000000E+00 -0.00000000000E+00 -0.29064760338E+04  0.29064760338E+04  0.00000000000E+00 0. -1.
        -13    1    1    2    0    0  0.49412423956E+02  0.39687128761E+03 -0.39336852071E+02  0.40186540740E+03  0.10566000000E+00 0.  1.
         13    1    1    2    0    0 -0.10298296387E+03 -0.42523365173E+03 -0.34638144679E+03  0.55804056059E+03  0.10566000000E+00 0. -1.
         -4    1    1    2    0  502  0.53570539912E+02  0.28362364125E+02 -0.22332526673E+04  0.22340751335E+04  0.00000000000E+00 0. -1.
</event>
<event>
 5    1  0.4881333E-005  0.5976554E+02  0.7818608E-02  0.1256455E+00
         21   -1    0    0  501  502  0.00000000000E+00  0.00000000000E+00  0.58522680131E+03  0.58522680131E+03  0.00000000000E+00 0.  1.
         -4   -1    0    0    0  501 -0.00000000000E+00 -0.00000000000E+00 -0.46903308418E+02  0.46903308418E+02  0.00000000000E+00 0. -1.
        -13    1    1    2    0    0 -0.60490434530E+02 -0.16244220411E+02  0.20870700487E+03  0.21790271318E+03  0.10566000000E+00 0.  1.
         13    1    1    2    0    0  0.55268194079E+02 -0.25482624020E+02 -0.18476948820E+02  0.63603036134E+02  0.10566000000E+00 0. -1.
         -4    1    1    2    0  502  0.52222404518E+01  0.41726844431E+02  0.34809343684E+03  0.35062436041E+03  0.00000000000E+00 0. -1.
</event>
<event>
 5    1  0.4881333E-005  0.4948150E+03  0.7818608E-02  0.9550224E-01
         -4   -1    0    0    0  501 -0.00000000000E+00  0.00000000000E+00  0.37005716807E+04  0.37005716807E+04  0.00000000000E+00 0. -1.
         21   -1    0    0  501  502  0.00000000000E+00 -0.00000000000E+00 -0.14524536701E+03  0.14524536701E+03  0.00000000000E+00 0. -1.
        -13    1    1    2    0    0  0.32546627501E+03  0.22747989302E+03  0.10354033917E+04  0.11089344402E+04  0.10566000000E+00 0.  1.
         13    1    1    2    0    0 -0.60296776530E+03  0.98992997716E+02  0.11605660061E+04  0.13115956714E+04  0.10566000000E+00 0. -1.
         -4    1    1    2    0  502  0.27750149029E+03 -0.32647289073E+03  0.13593569159E+04  0.14252869361E+04  0.00000000000E+00 0. -1.
</event>
<event>
 5    1  0.4881333E-005  0.2341456E+03  0.7818608E-02  0.1038953E+00
         21   -1    0    0  501  502  0.00000000000E+00  0.00000000000E+00  0.32735320099E+03  0.32735320099E+03  0.00000000000E+00 0.  1.
          4   -1    0    0  502    0 -0.00000000000E+00 -0.00000000000E+00 -0.29868057847E+03  0.29868057847E+03  0.00000000000E+00 0.  1.
        -13    1    1    2    0    0  0.21975737512E+03  0.85164498234E+02 -0.97068442321E+02  0.25488936686E+03  0.10566000000E+00 0.  1.
         13    1    1    2    0    0 -0.21234000856E+03 -0.93834157005E+02 -0.12450542275E+02  0.23248259166E+03  0.10566000000E+00 0. -1.
          4    1    1    2  501    0 -0.74173665573E+01  0.86696587707E+01  0.13819160711E+03  0.13866182094E+03  0.00000000000E+00 0.  1.
</event>
<event>
 5    1  0.4881333E-005  0.4631797E+03  0.7818608E-02  0.9867524E-01
         -4   -1    0    0    0  501 -0.00000000000E+00  0.00000000000E+00  0.14777984074E+04  0.14777984074E+04  0.00000000000E+00 0. -1.
         21   -1    0    0  501  502  0.00000000000E+00 -0.00000000000E+00 -0.23149683883E+03  0.23149683883E+03  0.00000000000E+00 0. -1.
        -13    1    1    2    0    0  0.12130588417E+03 -0.10516882982E+03  0.10886691719E+03  0.19397839344E+03  0.10566000000E+00 0.  1.
         13    1    1    2    0    0 -0.26197775846E+03  0.49759213529E+03  0.80579409043E+03  0.98261610325E+03  0.10566000000E+00 0. -1.
         -4    1    1    2    0  502  0.14067187429E+03 -0.39242330546E+03  0.33164056094E+03  0.53270074953E+03  0.00000000000E+00 0. -1.
</event>
<event>
 5    1  0.4881333E-005  0.8420641E+03  0.7818608E-02  0.8939083E-01
          4   -1    0    0  502    0 -0.00000000000E+00  0.00000000000E+00  0.17789996238E+04  0.17789996238E+04  0.00000000000E+00 0.  1.
         21   -1    0    0  501  502  0.00000000000E+00 -0.00000000000E+00 -0.66128004288E+03  0.66128004288E+03  0.00000000000E+00 0. -1.
        -13    1    1    2    0    0  0.65472533061E+03 -0.53171824533E+03  0.83105964419E+03  0.11840817938E+04  0.10566000000E+00 0.  1.
         13    1    1    2    0    0 -0.70106052935E+03  0.46704872194E+03  0.53332316121E+03  0.99702255738E+03  0.10566000000E+00 0. -1.
          4    1    1    2  501    0  0.46335198737E+02  0.64669523387E+02 -0.24666322446E+03  0.25917531556E+03  0.00000000000E+00 0.  1.
</event>
<event>
 5    1  0.4881333E-005  0.6286950E+03  0.7818608E-02  0.9233378E-01
          4   -1    0    0  502    0 -0.00000000000E+00  0.00000000000E+00  0.10189538947E+04  0.10189538947E+04  0.00000000000E+00 0.  1.
         21   -1    0    0  501  502  0.00000000000E+00 -0.00000000000E+00 -0.51008633327E+03  0.51008633327E+03  0.00000000000E+00 0. -1.
        -13    1    1    2    0    0  0.60363297017E+03 -0.16389806180E+03  0.48460308387E+03  0.79124932695E+03  0.10566000000E+00 0.  1.
         13    1    1    2    0    0 -0.60697113534E+03  0.18458118435E+03  0.11492442682E+03  0.64474165973E+03  0.10566000000E+00 0. -1.
          4    1    1    2  501    0  0.33381651657E+01 -0.20683122549E+02 -0.90659949264E+02  0.93049241295E+02  0.00000000000E+00 0.  1.
</event>
<event>
 5    1  0.4881333E-005  0.5932023E+02  0.7818608E-02  0.1257897E+00
         21   -1    0    0  501  502  0.00000000000E+00  0.00000000000E+00  0.10807244939E+03  0.10807244939E+03  0.00000000000E+00 0.  1.
         -4   -1    0    0    0  501 -0.00000000000E+00 -0.00000000000E+00 -0.17754851129E+03  0.17754851129E+03  0.00000000000E+00 0. -1.
        -13    1    1    2    0    0  0.21143374056E+01  0.47906524923E+02  0.89607376712E+02  0.10163168147E+03  0.10566000000E+00 0.  1.
         13    1    1    2    0    0 -0.29130737765E+01 -0.59891418663E+02 -0.16102030980E+03  0.17182263926E+03  0.10566000000E+00 0. -1.
         -4    1    1    2    0  502  0.79873637085E+00  0.11984893740E+02  0.19368711901E+01  0.12166639953E+02  0.00000000000E+00 0. -1.
</event>
<event>
 5    1  0.4881333E-005  0.5466393E+03  0.7818608E-02  0.9381216E-01
         21   -1    0    0  501  502  0.00000000000E+00  0.00000000000E+00  0.39996131465E+03  0.39996131465E+03  0.00000000000E+00 0.  1.
          4   -1    0    0  502    0 -0.00000000000E+00 -0.00000000000E+00 -0.14811896287E+04  0.14811896287E+04  0.00000000000E+00 0.  1.
        -13    1    1    2    0    0  0.26310835638E+03  0.69323485450E+03 -0.50429350796E+03  0.89672321484E+03  0.10566000000E+00 0.  1.
         13    1    1    2    0    0 -0.12865668208E+02 -0.44163989514E+03 -0.29578781798E+03  0.53169706303E+03  0.10566000000E+00 0. -1.
          4    1    1    2  501    0 -0.25024268817E+03 -0.25159495936E+03 -0.28114698813E+03  0.45273066551E+03  0.00000000000E+00 0.  1.
</event>
<event>
 5    1  0.4881333E-005  0.3642274E+03  0.7818608E-02  0.9838457E-01
          4   -1    0    0  502    0 -0.00000000000E+00  0.00000000000E+00  0.32385811617E+03  0.32385811617E+03  0.00000000000E+00 0.  1.
         21   -1    0    0  501  502  0.00000000000E+00 -0.00000000000E+00 -0.22662991881E+04  0.22662991881E+04  0.00000000000E+00 0.  1.
        -13    1    1    2    0    0 -0.33013014034E+03  0.40842565694E+03 -0.17508649608E+04  0.18279293063E+04  0.10566000000E+00 0.  1.
         13    1    1    2    0    0  0.35268294963E+03 -0.68961926842E+02  0.22837532839E+02  0.36008689838E+03  0.10566000000E+00 0. -1.
          4    1    1    2  501    0 -0.22552809293E+02 -0.33946373009E+03 -0.21441364401E+03  0.40214109961E+03  0.00000000000E+00 0.  1.
</event>
<event>
 5    1  0.4881333E-005  0.2333257E+03  0.7818608E-02  0.1069205E+00
         21   -1    0    0  501  502  0.00000000000E+00  0.00000000000E+00  0.26848416497E+03  0.26848416497E+03  0.00000000000E+00 0. -1.
         -4   -1    0    0    0  501 -0.00000000000E+00 -0.00000000000E+00 -0.70632990437E+03  0.70632990437E+03  0.00000000000E+00 0. -1.
        -13    1    1    2    0    0 -0.92596355895E+02  0.28547770768E+02 -0.12032493136E+02  0.97641448146E+02  0.10566000000E+00 0.  1.
         13    1    1    2    0    0  0.17797407512E+03  0.18751339782E+03 -0.55434763274E+03  0.61166768336E+03  0.10566000000E+00 0. -1.
         -4    1    1    2    0  502 -0.85377719221E+02 -0.21606116859E+03  0.12853438647E+03  0.26550493784E+03  0.00000000000E+00 0. -1.
</event>
<event>
 5    1  0.4881333E-005  0.3775957E+03  0.7818608E-02  0.9796077E-01
         -4   -1    0    0    0  501 -0.00000000000E+00  0.00000000000E+00  0.13914636203E+04  0.13914636203E+04  0.00000000000E+00 0. -1.
         21   -1    0    0  501  502  0.00000000000E+00 -0.00000000000E+00 -0.36901095330E+03  0.36901095330E+03  0.00000000000E+00 0. -1.
        -13    1    1    2    0    0 -0.27473501060E+03 -0.23297931795E+03  0.23287385634E+03  0.42893931129E+03  0.10566000000E+00 0.  1.
         13    1    1    2    0    0  0.10538164604E+03  0.39056348106E+03  0.96162036373E+03  0.10432443909E+04  0.10566000000E+00 0. -1.
         -4    1    1    2    0  502  0.16935336455E+03 -0.15758416311E+03 -0.17204155307E+03  0.28829087140E+03  0.00000000000E+00 0. -1.
</event>
<event>
 5    1  0.4881333E-005  0.9778133E+02  0.7818608E-02  0.1168279E+00
          4   -1    0    0  502    0 -0.00000000000E+00  0.00000000000E+00  0.14481632805E+03  0.14481632805E+03  0.00000000000E+00 0.  1.
         21   -1    0    0  501  502  0.00000000000E+00 -0.00000000000E+00 -0.83612109359E+03  0.83612109359E+03  0.00000000000E+00 0. -1.
        -13    1    1    2    0    0  0.12151271193E+02  0.95441641953E+02  0.11183996640E+03  0.14752948742E+03  0.10566000000E+00 0.  1.
         13    1    1    2    0    0 -0.67998891153E+02 -0.13647639988E+03 -0.51908736335E+03  0.54101881564E+03  0.10566000000E+00 0. -1.
          4    1    1    2  501    0  0.55847619960E+02  0.41034757926E+02 -0.28405736859E+03  0.29238911858E+03  0.00000000000E+00 0.  1.
</event>
<event>
 5    1  0.4881333E-005  0.3967355E+03  0.7818608E-02  0.1001850E+00
         -4   -1    0    0    0  501 -0.00000000000E+00  0.00000000000E+00  0.34361883874E+03  0.34361883874E+03  0.00000000000E+00 0. -1.
         21   -1    0    0  501  502  0.00000000000E+00 -0.00000000000E+00 -0.95825679814E+03  0.95825679814E+03  0.00000000000E+00 0. -1.
        -13    1    1    2    0    0  0.54220166924E+02  0.14505083178E+03 -0.28999996411E+02  0.15754548949E+03  0.10566000000E+00 0.  1.
         13    1    1    2    0    0 -0.37678122567E+03 -0.32834755438E+03 -0.63482915476E+02  0.50379192154E+03  0.10566000000E+00 0. -1.
         -4    1    1    2    0  502  0.32256105875E+03  0.18329672259E+03 -0.52215504752E+03  0.64053822586E+03  0.00000000000E+00 0. -1.
</event>
<event>
 5    1  0.4881333E-005  0.5081916E+03  0.7818608E-02  0.9660246E-01
         -4   -1    0    0    0  501 -0.00000000000E+00  0.00000000000E+00  0.13890527632E+04  0.13890527632E+04  0.00000000000E+00 0. -1.
         21   -1    0    0  501  502  0.00000000000E+00 -0.00000000000E+00 -0.30765720777E+03  0.30765720777E+03  0.00000000000E+00 0. -1.
        -13    1    1    2    0    0  0.21766869744E+03  0.11870963142E+03  0.26159744885E+03  0.36042318855E+03  0.10566000000E+00 0.  1.
         13    1    1    2    0    0  0.85948463886E+02  0.42383875121E+03  0.36617282849E+03  0.56666478359E+03  0.10566000000E+00 0. -1.
         -4    1    1    2    0  502 -0.30361716132E+03 -0.54254838263E+03  0.45362527806E+03  0.76962199880E+03  0.00000000000E+00 0. -1.
</event>
<event>
 5    1  0.4881333E-005  0.3187189E+03  0.7818608E-02  0.9998645E-01
         21   -1    0    0  501  502  0.00000000000E+00  0.00000000000E+00  0.49332399420E+03  0.49332399420E+03  0.00000000000E+00 0. -1.
         -4   -1    0    0    0  501 -0.00000000000E+00 -0.00000000000E+00 -0.91438365901E+03  0.91438365901E+03  0.00000000000E+00 0. -1.
        -13    1    1    2    0    0 -0.23612514970E+03  0.14768838898E+03 -0.16674855869E+03  0.32461059680E+03  0.10566000000E+00 0.  1.
         13    1    1    2    0    0  0.38406389106E+03 -0.35004423879E+03  0.20597401244E+03  0.55898242056E+03  0.10566000000E+00 0. -1.
         -4    1    1    2    0  502 -0.14793874136E+03  0.20235584981E+03 -0.46028511856E+03  0.52411463586E+03  0.00000000000E+00 0. -1.
</event>
<event>
 5    1  0.4881333E-005  0.4105024E+03  0.7818608E-02  0.9939810E-01
         21   -1    0    0  501  502  0.00000000000E+00  0.00000000000E+00  0.30656339289E+03  0.30656339289E+03  0.00000000000E+00 0.  1.
          4   -1    0    0  502    0 -0.00000000000E+00 -0.00000000000E+00 -0.12182837819E+04  0.12182837819E+04  0.00000000000E+00 0.  1.
        -13    1    1    2    0    0 -0.37757790160E+03 -0.10979198615E+03 -0.47204657276E+01  0.39324502026E+03  0.10566000000E+00 0.  1.
         13    1    1    2    0    0 -0.22706857431E+02 -0.17968858648E+03 -0.27829630769E+03  0.33204282182E+03  0.10566000000E+00 0. -1.
          4    1    1    2  501    0  0.40028475903E+03  0.28948057263E+03 -0.62870361558E+03  0.79955933269E+03  0.00000000000E+00 0.  1.
</event>
<event>
 5    1  0.4881333E-005  0.4641094E+03  0.7818608E-02  0.1004032E+00
         21   -1    0    0  501  502  0.00000000000E+00  0.00000000000E+00  0.62578501213E+03  0.62578501213E+03  0.00000000000E+00 0.  1.
          4   -1    0    0  502    0 -0.00000000000E+00 -0.00000000000E+00 -0.88033093385E+03  0.88033093385E+03  0.00000000000E+00 0.  1.
        -13    1    1    2    0    0  0.35206532869E+03 -0.24461950049E+03 -0.76820956316E+02  0.43553434558E+03  0.10566000000E+00 0.  1.
         13    1    1    2    0    0 -0.20580865008E+01 -0.90068370329E+02 -0.48746814597E+03  0.49572346279E+03  0.10566000000E+00 0. -1.
          4    1    1    2  501    0 -0.35000724219E+03  0.33468787082E+03  0.30974318057E+03  0.57485813761E+03  0.00000000000E+00 0.  1.
</event>
<event>
 5    1  0.4881333E-005  0.3151444E+03  0.7818608E-02  0.1001243E+00
          4   -1    0    0  502    0 -0.00000000000E+00  0.00000000000E+00  0.17047310238E+04  0.17047310238E+04  0.00000000000E+00 0.  1.
         21   -1    0    0  501  502  0.00000000000E+00 -0.00000000000E+00 -0.10185050515E+03  0.10185050515E+03  0.00000000000E+00 0.  1.
        -13    1    1    2    0    0  0.31358292222E+03  0.78477375684E+01  0.11136890321E+04  0.11570216538E+04  0.10566000000E+00 0.  1.
         13    1    1    2    0    0 -0.31768007929E+03  0.65739475634E+02  0.47387816347E+03  0.57428463014E+03  0.10566000000E+00 0. -1.
          4    1    1    2  501    0  0.40971570647E+01 -0.73587213202E+02  0.15313323107E+02  0.75275244984E+02  0.00000000000E+00 0.  1.
</event>
<event>
 5    1  0.4881333E-005  0.1961858E+03  0.7818608E-02  0.1097804E+00
         -4   -1    0    0    0  501 -0.00000000000E+00  0.00000000000E+00  0.48368613398E+03  0.48368613398E+03  0.00000000000E+00 0. -1.
         21   -1    0    0  501  502  0.00000000000E+00 -0.00000000000E+00 -0.80409169147E+03  0.80409169147E+03  0.00000000000E+00 0. -1.
        -13    1    1    2    0    0  0.30047358795E+02 -0.66898888795E+02  0.16415772903E+03  0.17979453901E+03  0.10566000000E+00 0.  1.
         13    1    1    2    0    0 -0.16023094919E+03 -0.11219326678E+03 -0.74262701942E+03  0.76795584985E+03  0.10566000000E+00 0. -1.
         -4    1    1    2    0  502  0.13018359040E+03  0.17909215558E+03  0.25806373290E+03  0.34002743659E+03  0.00000000000E+00 0. -1.
</event>
<event>
 5    1  0.4881333E-005  0.2079225E+03  0.7818608E-02  0.1054836E+00
         21   -1    0    0  501  502  0.00000000000E+00  0.00000000000E+00  0.58375232123E+03  0.58375232123E+03  0.00000000000E+00 0.  1.
         -4   -1    0    0    0  501 -0.00000000000E+00 -0.00000000000E+00 -0.10188710320E+03  0.10188710320E+03  0.00000000000E+00 0. -1.
        -13    1    1    2    0    0  0.19673719989E+03 -0.82478758430E+02  0.37403122152E+03  0.43058987128E+03  0.10566000000E+00 0.  1.
         13    1    1    2    0    0 -0.18658023587E+03  0.87336280769E+02  0.73193765318E+02  0.21862559045E+03  0.10566000000E+00 0. -1.
         -4    1    1    2    0  502 -0.10156964017E+02 -0.48575223394E+01  0.34640231193E+02  0.36423962696E+02  0.00000000000E+00 0. -1.
</event>
<event>
 5    1  0.4881333E-005  0.2147661E+02  0.7818608E-02  0.1493513E+00
         -4   -1    0    0    0  501 -0.00000000000E+00  0.00000000000E+00  0.42599676903E+02  0.42599676903E+02  0.00000000000E+00 0. -1.
         21   -1    0    0  501  502  0.00000000000E+00 -0.00000000000E+00 -0.12830855524E+03  0.12830855524E+03  0.00000000000E+00 0.  1.
        -13    1    1    2    0    0 -0.20442536396E+02 -0.12749273756E+01 -0.10257486121E+03  0.10459988551E+03  0.10566000000E+00 0.  1.
         13    1    1    2    0    0  0.12428067149E+02  0.21968941001E+02  0.31016403231E+02  0.39988994176E+02  0.10566000000E+00 0. -1.
         -4    1    1    2    0  502  0.80144692473E+01 -0.20694013625E+02 -0.14150420365E+02  0.26319352457E+02  0.00000000000E+00 0. -1.
</event>
<event>
 5    1  0.4881333E-005  0.3787807E+03  0.7818608E-02  0.1016040E+00
         21   -1    0    0  501  502  0.00000000000E+00  0.00000000000E+00  0.26884150987E+03  0.26884150987E+03  0.00000000000E+00 0.  1.
          4   -1    0    0  502    0 -0.00000000000E+00 -0.00000000000E+00 -0.15642517104E+04  0.15642517104E+04  0.00000000000E+00 0.  1.
        -13    1    1    2    0    0  0.13852411779E+03 -0.37248527581E+03 -0.74046020148E+03  0.84036630885E+03  0.10566000000E+00 0.  1.
         13    1    1    2    0    0  0.88037275993E+02  0.70318214493E+02 -0.60171390394E+03  0.61217223606E+03  0.10566000000E+00 0. -1.
          4    1    1    2  501    0 -0.22656139379E+03  0.30216706132E+03  0.46763904927E+02  0.38055467531E+03  0.00000000000E+00 0.  1.
</event>
<event>
 5    1  0.4881333E-005  0.3078860E+03  0.7818608E-02  0.1025291E+00
         -4   -1    0    0    0  501 -0.00000000000E+00  0.00000000000E+00  0.14198704286E+04  0.14198704286E+04  0.00000000000E+00 0. -1.
         21   -1    0    0  501  502  0.00000000000E+00 -0.00000000000E+00 -0.33772281812E+03  0.33772281812E+03  0.00000000000E+00 0.  1.
        -13    1    1    2    0    0  0.15480134364E+03  0.24974122005E+02 -0.10942612707E+03  0.19120996630E+03  0.10566000000E+00 0.  1.
         13    1    1    2    0    0 -0.34195136389E+03 -0.25348839273E+03  0.11975524419E+04  0.12709519907E+04  0.10566000000E+00 0. -1.
         -4    1    1    2    0  502  0.18715002025E+03  0.22851427073E+03 -0.59787043661E+01  0.29543128966E+03  0.00000000000E+00 0. -1.
</event>
<event>
 5    1  0.4881333E-005  0.3899765E+03  0.7818608E-02  0.9758448E-01
         21   -1    0    0  501  502  0.00000000000E+00  0.00000000000E+00  0.31080072635E+03  0.31080072635E+03  0.00000000000E+00 0.  1.
          4   -1    0    0  502    0 -0.00000000000E+00 -0.00000000000E+00 -0.17219539077E+04  0.17219539077E+04  0.00000000000E+00 0.  1.
        -13    1    1    2    0    0 -0.24564755915E+03  0.55597970865E+03 -0.16699910909E+03  0.63035297521E+03  0.10566000000E+00 0.  1.
         13    1    1    2    0    0  0.22691894396E+03 -0.26428781353E+03 -0.57646508531E+03  0.67353712685E+03  0.10566000000E+00 0. -1.
          4    1    1    2  501    0  0.18728615188E+02 -0.29169189513E+03 -0.66768898700E+03  0.72886453204E+03  0.00000000000E+00 0.  1.
</event>
<event>
 5    1  0.5263570E-005  0.3513424E+03  0.7818608E-02  0.1019181E+00
          4   -1    0    0  502    0 -0.00000000000E+00  0.00000000000E+00  0.26575934902E+04  0.26575934902E+04  0.00000000000E+00 0.  1.
         21   -1    0    0  501  502  0.00000000000E+00 -0.00000000000E+00 -0.13021458022E+03  0.13021458022E+03  0.00000000000E+00 0.  1.
        -13    1    1    2    0    0  0.28578426781E+03  0.10014692323E+03  0.17381306476E+04  0.17643129578E+04  0.10566000000E+00 0.  1.
         13    1    1    2    0    0  0.76415753931E+02 -0.10246219769E+03  0.60263481787E+03  0.61604107354E+03  0.10566000000E+00 0. -1.
          4    1    1    2  501    0 -0.36220002174E+03  0.23152744668E+01  0.18661344447E+03  0.40745403900E+03  0.00000000000E+00 0.  1.
</event>
<event>
 5    1  0.4881333E-005  0.3700059E+03  0.7818608E-02  0.1007838E+00
          4   -1    0    0  502    0 -0.00000000000E+00  0.00000000000E+00  0.34317714199E+03  0.34317714199E+03  0.00000000000E+00 0.  1.
         21   -1    0    0  501  502  0.00000000000E+00 -0.00000000000E+00 -0.11261219732E+04  0.11261219732E+04  0.00000000000E+00 0.  1.
        -13    1    1    2    0    0 -0.40263117243E+02  0.34840377135E+03 -0.74190577167E+03  0.82062810804E+03  0.10566000000E+00 0.  1.
         13    1    1    2    0    0 -0.12012632632E+03  0.10136407881E+03  0.44951947203E+02  0.16347996657E+03  0.10566000000E+00 0. -1.
          4    1    1    2  501    0  0.16038944357E+03 -0.44976785016E+03 -0.85991006778E+02  0.48519104061E+03  0.00000000000E+00 0.  1.
</event>
<event>
 5    1  0.4881333E-005  0.4855125E+03  0.7818608E-02  0.9864019E-01
          4   -1    0    0  502    0 -0.00000000000E+00  0.00000000000E+00  0.18493073925E+04  0.18493073925E+04  0.00000000000E+00 0.  1.
         21   -1    0    0  501  502  0.00000000000E+00 -0.00000000000E+00 -0.18072469946E+03  0.18072469946E+03  0.00000000000E+00 0.  1.
        -13    1    1    2    0    0 -0.98179065287E+02 -0.39728605699E+03  0.75343257079E+03  0.85740071718E+03  0.10566000000E+00 0.  1.
         13    1    1    2    0    0 -0.67709179372E+02 -0.12373887594E+03  0.38908044846E+03  0.41385921389E+03  0.10566000000E+00 0. -1.
          4    1    1    2  501    0  0.16588824466E+03  0.52102493293E+03  0.52606967380E+03  0.75877216089E+03  0.00000000000E+00 0.  1.
</event>
<event>
 5    1  0.4881333E-005  0.3884945E+03  0.7818608E-02  0.9945918E-01
         21   -1    0    0  501  502  0.00000000000E+00  0.00000000000E+00  0.19196857096E+03  0.19196857096E+03  0.00000000000E+00 0. -1.
         -4   -1    0    0    0  501 -0.00000000000E+00 -0.00000000000E+00 -0.22955918510E+04  0.22955918510E+04  0.00000000000E+00 0. -1.
        -13    1    1    2    0    0  0.18247290594E+03  0.10270271986E+03 -0.82993878163E+03  0.85594544364E+03  0.10566000000E+00 0.  1.
         13    1    1    2    0    0 -0.11062014042E+03  0.36173605576E+03 -0.13821792773E+03  0.40273315758E+03  0.10566000000E+00 0. -1.
         -4    1    1    2    0  502 -0.71852765522E+02 -0.46443877563E+03 -0.11354665706E+04  0.12288818207E+04  0.00000000000E+00 0. -1.
</event>
<event>
 5    1  0.4881333E-005  0.4727076E+03  0.7818608E-02  0.9565861E-01
          4   -1    0    0  502    0 -0.00000000000E+00  0.00000000000E+00  0.11066876340E+04  0.11066876340E+04  0.00000000000E+00 0.  1.
         21   -1    0    0  501  502  0.00000000000E+00 -0.00000000000E+00 -0.57915478831E+03  0.57915478831E+03  0.00000000000E+00 0. -1.
        -13    1    1    2    0    0 -0.17822324777E+03  0.29608037029E+03  0.40755467609E+03  0.53434814202E+03  0.10566000000E+00 0.  1.
         13    1    1    2    0    0 -0.38657824285E+03 -0.30962834348E+03  0.27384333751E+03  0.56595285457E+03  0.10566000000E+00 0. -1.
          4    1    1    2  501    0  0.56480149062E+03  0.13547973190E+02 -0.15386516788E+03  0.58554142575E+03  0.00000000000E+00 0.  1.
</event>
<event>
 5    1  0.4881333E-005  0.1244664E+03  0.7818608E-02  0.1129429E+00
         21   -1    0    0  501  502  0.00000000000E+00  0.00000000000E+00  0.16699863366E+03  0.16699863366E+03  0.00000000000E+00 0.  1.
         -4   -1    0    0    0  501 -0.00000000000E+00 -0.00000000000E+00 -0.35779528669E+03  0.35779528669E+03  0.00000000000E+00 0. -1.
        -13    1    1    2    0    0 -0.12533469076E+03 -0.99551545130E+02  0.22024036250E+02  0.16156845046E+03  0.10566000000E+00 0.  1.
         13    1    1    2    0    0  0.58846477580E+02  0.10540893407E+03 -0.25647830665E+03  0.28346972370E+03  0.10566000000E+00 0. -1.
         -4    1    1    2    0  502  0.66488213181E+02 -0.58573889362E+01  0.43657617373E+02  0.79755746200E+02  0.00000000000E+00 0. -1.
</event>
<event>
 5    1  0.4881333E-005  0.4943681E+03  0.7818608E-02  0.9853546E-01
         -4   -1    0    0    0  501 -0.00000000000E+00  0.00000000000E+00  0.21175754813E+04  0.21175754813E+04  0.00000000000E+00 0. -1.
         21   -1    0    0  501  502  0.00000000000E+00 -0.00000000000E+00 -0.16233079922E+03  0.16233079922E+03  0.00000000000E+00 0. -1.
        -13    1    1    2    0    0 -0.12084998852E+03  0.67478293739E+02  0.44409978232E+03  0.46516950424E+03  0.10566000000E+00 0.  1.
         13    1    1    2    0    0 -0.44085292638E+03 -0.29680296585E+02  0.67010381424E+03  0.80266515791E+03  0.10566000000E+00 0. -1.
         -4    1    1    2    0  502  0.56170291490E+03 -0.37797997154E+02  0.84104108557E+03  0.10120716184E+04  0.00000000000E+00 0. -1.
</event>
<event>
 5    1  0.4881333E-005  0.5842089E+03  0.7818608E-02  0.9310352E-01
         21   -1    0    0  501  502  0.00000000000E+00  0.00000000000E+00  0.31728544591E+03  0.31728544591E+03  0.00000000000E+00 0.  1.
          4   -1    0    0  502    0 -0.00000000000E+00 -0.00000000000E+00 -0.21355795661E+04  0.21355795661E+04  0.00000000000E+00 0.  1.
        -13    1    1    2    0    0  0.56530425862E+03 -0.39027905416E+03 -0.11454582358E+04  0.13356501136E+04  0.10566000000E+00 0.  1.
         13    1    1    2    0    0 -0.18107520603E+03  0.46387441227E+03 -0.33337030570E+03  0.59925242802E+03  0.10566000000E+00 0. -1.
          4    1    1    2  501    0 -0.38422905259E+03 -0.73595358103E+02 -0.33946557870E+03  0.51796247037E+03  0.00000000000E+00 0.  1.
</event>
<event>
 5    1  0.4881333E-005  0.4504496E+03  0.7818608E-02  0.9593736E-01
         -4   -1    0    0    0  501 -0.00000000000E+00  0.00000000000E+00  0.20901710980E+04  0.20901710980E+04  0.00000000000E+00 0. -1.
         21   -1    0    0  501  502  0.00000000000E+00 -0.00000000000E+00 -0.22752283206E+03  0.22752283206E+03  0.00000000000E+00 0. -1.
        -13    1    1    2    0    0 -0.32196931946E+03  0.47002526604E+01  0.42943468702E+03  0.53674993864E+03  0.10566000000E+00 0.  1.
         13    1    1    2    0    0  0.60414182993E+03  0.31755546584E+02  0.13579877937E+04  0.14866494625E+04  0.10566000000E+00 0. -1.
         -4    1    1    2    0  502 -0.28217251047E+03 -0.36455799244E+02  0.75225785192E+02  0.29429452887E+03  0.00000000000E+00 0. -1.
</event>
<event>
 5    1  0.4881333E-005  0.1046555E+03  0.7818608E-02  0.1157075E+00
         21   -1    0    0  501  502  0.00000000000E+00  0.00000000000E+00  0.13831960068E+04  0.13831960068E+04  0.00000000000E+00 0. -1.
         -4   -1    0    0    0  501 -0.00000000000E+00 -0.00000000000E+00 -0.18483029056E+03  0.18483029056E+03  0.00000000000E+00 0. -1.
        -13    1    1    2    0    0 -0.84032452442E+02 -0.92698337737E+02  0.12228932115E+03  0.17495463445E+03  0.10566000000E+00 0.  1.
         13    1    1    2    0    0  0.86957099625E+02  0.54848954315E+02 -0.14149852420E+03  0.17490508420E+03  0.10566000000E+00 0. -1.
         -4    1    1    2    0  502 -0.29246471830E+01  0.37849383422E+02  0.12175749193E+04  0.12181665787E+04  0.00000000000E+00 0. -1.
</event>
<event>
 5    1  0.4881333E-005  0.4620186E+03  0.7818608E-02  0.9846649E-01
         21   -1    0    0  501  502  0.00000000000E+00  0.00000000000E+00  0.86567130451E+03  0.86567130451E+03  0.00000000000E+00 0. -1.
         -4   -1    0    0    0  501 -0.00000000000E+00 -0.00000000000E+00 -0.44209957917E+03  0.44209957917E+03  0.00000000000E+00 0. -1.
        -13    1    1    2    0    0  0.16189164429E+03  0.62585920255E+02 -0.66035421159E+02  0.18570565397E+03  0.10566000000E+00 0.  1.
         13    1    1    2    0    0 -0.89947224373E+02  0.41867568167E+03 -0.49439285329E+01  0.42825726286E+03  0.10566000000E+00 0. -1.
         -4    1    1    2    0  502 -0.71944419915E+02 -0.48126160193E+03  0.49455107504E+03  0.69380796685E+03  0.00000000000E+00 0. -1.
</event>
<event>
 5    1  0.4881333E-005  0.4892758E+02  0.7818608E-02  0.1296218E+00
         21   -1    0    0  501  502  0.00000000000E+00  0.00000000000E+00  0.16985979792E+03  0.16985979792E+03  0.00000000000E+00 0. -1.
         -4   -1    0    0    0  501 -0.00000000000E+00 -0.00000000000E+00 -0.36790960376E+02  0.36790960376E+02  0.00000000000E+00 0. -1.
        -13    1    1    2    0    0 -0.25612852132E+02 -0.31600799053E+02  0.39161135343E+02  0.56464452362E+02  0.10566000000E+00 0.  1.
         13    1    1    2    0    0  0.46478563938E+02  0.28707820352E+02  0.70663321784E+00  0.54634296460E+02  0.10566000000E+00 0. -1.
         -4    1    1    2    0  502 -0.20865711805E+02  0.28929787006E+01  0.93201068979E+02  0.95552009470E+02  0.00000000000E+00 0. -1.
</event>
<event>
 5    1  0.4881333E-005  0.4250524E+03  0.7818608E-02  0.9830185E-01
         -4   -1    0    0    0  501 -0.00000000000E+00  0.00000000000E+00  0.43263065744E+03  0.43263065744E+03  0.00000000000E+00 0. -1.
         21   -1    0    0  501  502  0.00000000000E+00 -0.00000000000E+00 -0.92334397185E+03  0.92334397185E+03  0.00000000000E+00 0. -1.
        -13    1    1    2    0    0  0.22940944725E+03  0.54053266579E+02 -0.76866534007E+02  0.24790910699E+03  0.10566000000E+00 0.  1.
         13    1    1    2    0    0 -0.49172583554E+03  0.24240013653E+03 -0.18397754024E+02  0.54853496884E+03  0.10566000000E+00 0. -1.
         -4    1    1    2    0  502  0.26231638829E+03 -0.29645340311E+03 -0.39544902638E+03  0.55953055345E+03  0.00000000000E+00 0. -1.
</event>
<event>
 5    1  0.4881333E-005  0.1669879E+03  0.7818608E-02  0.1085468E+00
         21   -1    0    0  501  502  0.00000000000E+00  0.00000000000E+00  0.54859501772E+03  0.54859501772E+03  0.00000000000E+00 0. -1.
          4   -1    0    0  502    0 -0.00000000000E+00 -0.00000000000E+00 -0.10128567714E+03  0.10128567714E+03  0.00000000000E+00 0.  1.
        -13    1    1    2    0    0  0.14910100587E+03 -0.77692117711E+02 -0.15364068881E+01  0.16813550136E+03  0.10566000000E+00 0.  1.
         13    1    1    2    0    0 -0.14689255037E+03  0.67258524314E+02  0.39337909478E+03  0.42526257045E+03  0.10566000000E+00 0. -1.
          4    1    1    2  501    0 -0.22084555012E+01  0.10433593397E+02  0.55466652691E+02  0.56482623059E+02  0.00000000000E+00 0.  1.
</event>
<event>
 5    1  0.4881333E-005  0.3985158E+03  0.7818608E-02  0.9733342E-01
         21   -1    0    0  501  502  0.00000000000E+00  0.00000000000E+00  0.11827893715E+04  0.11827893715E+04  0.00000000000E+00 0. -1.
         -4   -1    0    0    0  501 -0.00000000000E+00 -0.00000000000E+00 -0.23171869485E+04  0.23171869485E+04  0.00000000000E+00 0. -1.
        -13    1    1    2    0    0 -0.72495742640E+02 -0.48305461082E+03 -0.30727753550E+03  0.57707615158E+03  0.10566000000E+00 0.  1.
         13    1    1    2    0    0 -0.38482222627E+02  0.38512298784E+03 -0.18496516439E+04  0.18897120977E+04  0.10566000000E+00 0. -1.
         -4    1    1    2    0  502  0.11097796527E+03  0.97931622988E+02  0.10225316024E+04  0.10331880707E+04  0.00000000000E+00 0. -1.
</event>
<event>
 5    1  0.4881333E-005  0.1206240E+03  0.7818608E-02  0.1134330E+00
         -4   -1    0    0    0  501 -0.00000000000E+00  0.00000000000E+00  0.20606931235E+03  0.20606931235E+03  0.00000000000E+00 0. -1.
         21   -1    0    0  501  502  0.00000000000E+00 -0.00000000000E+00 -0.20018777618E+03  0.20018777618E+03  0.00000000000E+00 0. -1.
        -13    1    1    2    0    0  0.10892342589E+03 -0.15869695957E+02 -0.91017425836E+02  0.14282976905E+03  0.10566000000E+00 0.  1.
         13    1    1    2    0    0 -0.10743208322E+03  0.61748945511E+02  0.14912934613E+03  0.19389212933E+03  0.10566000000E+00 0. -1.
         -4    1    1    2    0  502 -0.14913426746E+01 -0.45879249554E+02 -0.52230384119E+02  0.69535190141E+02  0.00000000000E+00 0. -1.
</event>
<event>
 5    1  0.4881333E-005  0.4784141E+03  0.7818608E-02  0.9561090E-01
         21   -1    0    0  501  502  0.00000000000E+00  0.00000000000E+00  0.11420846087E+04  0.11420846087E+04  0.00000000000E+00 0. -1.
         -4   -1    0    0    0  501 -0.00000000000E+00 -0.00000000000E+00 -0.54008246844E+03  0.54008246844E+03  0.00000000000E+00 0. -1.
        -13    1    1    2    0    0  0.39936545211E+03 -0.13796681196E+03 -0.30496064441E-01  0.42252528639E+03  0.10566000000E+00 0.  1.
         13    1    1    2    0    0 -0.16150341786E+03 -0.43268189246E+03  0.39482212712E+03  0.60760307543E+03  0.10566000000E+00 0. -1.
         -4    1    1    2    0  502 -0.23786203426E+03  0.57064870442E+03  0.20721050925E+03  0.65203871537E+03  0.00000000000E+00 0. -1.
</event>
<event>
 5    1  0.4881333E-005  0.3590303E+03  0.7818608E-02  0.1041395E+00
          4   -1    0    0  502    0 -0.00000000000E+00  0.00000000000E+00  0.11755575113E+04  0.11755575113E+04  0.00000000000E+00 0.  1.
         21   -1    0    0  501  502  0.00000000000E+00 -0.00000000000E+00 -0.21067639486E+03  0.21067639486E+03  0.00000000000E+00 0.  1.
        -13    1    1    2    0    0  0.29409784460E+03 -0.20327621097E+03  0.72481674233E+03  0.80819185920E+03  0.10566000000E+00 0.  1.
         13    1    1    2    0    0 -0.36027715714E+02 -0.48372312619E+02  0.20753639793E+03  0.21612321614E+03  0.10566000000E+00 0. -1.
          4    1    1    2  501    0 -0.25807012889E+03  0.25164852359E+03  0.32527976162E+02  0.36191883079E+03  0.00000000000E+00 0.  1.
</event>
<event>
 5    1  0.4881333E-005  0.3805203E+03  0.7818608E-02  0.9787052E-01
          4   -1    0    0  502    0 -0.00000000000E+00  0.00000000000E+00  0.20362793137E+04  0.20362793137E+04  0.00000000000E+00 0.  1.
         21   -1    0    0  501  502  0.00000000000E+00 -0.00000000000E+00 -0.22067446745E+03  0.22067446745E+03  0.00000000000E+00 0.  1.
        -13    1    1    2    0    0 -0.42876334472E+03  0.37820155946E+03  0.55375862533E+03  0.79594161321E+03  0.10566000000E+00 0.  1.
         13    1    1    2    0    0  0.33159608796E+03 -0.95406701822E+02  0.10188905718E+04  0.10757306413E+04  0.10566000000E+00 0. -1.
          4    1    1    2  501    0  0.97167256761E+02 -0.28279485764E+03  0.24295564916E+03  0.38528152662E+03  0.00000000000E+00 0.  1.
</event>
<event>
 5    1  0.4881333E-005  0.4798532E+03  0.7818608E-02  0.9725312E-01
          4   -1    0    0  502    0 -0.00000000000E+00  0.00000000000E+00  0.18539741452E+04  0.18539741452E+04  0.00000000000E+00 0.  1.
         21   -1    0    0  501  502  0.00000000000E+00 -0.00000000000E+00 -0.23714947408E+03  0.23714947408E+03  0.00000000000E+00 0.  1.
        -13    1    1    2    0    0 -0.54587450113E+02 -0.44796112238E+03  0.39759222669E+03  0.60143873068E+03  0.10566000000E+00 0.  1.
         13    1    1    2    0    0  0.21039234060E+03 -0.10403779731E+03  0.15665253060E+03  0.28218580184E+03  0.10566000000E+00 0. -1.
          4    1    1    2  501    0 -0.15580489049E+03  0.55199891970E+03  0.10625799139E+04  0.12074990868E+04  0.00000000000E+00 0.  1.
</event>
<event>
 5    1  0.4881333E-005  0.3812617E+03  0.7818608E-02  0.9945380E-01
         -4   -1    0    0    0  501 -0.00000000000E+00  0.00000000000E+00  0.13159260130E+04  0.13159260130E+04  0.00000000000E+00 0. -1.
         21   -1    0    0  501  502  0.00000000000E+00 -0.00000000000E+00 -0.36951912602E+03  0.36951912602E+03  0.00000000000E+00 0. -1.
        -13    1    1    2    0    0 -0.20297367606E+03  0.89746606812E+02  0.51868611873E+03  0.56417024694E+03  0.10566000000E+00 0.  1.
         13    1    1    2    0    0  0.12917236655E+03  0.30486030953E+03  0.59931353042E+03  0.68469119135E+03  0.10566000000E+00 0. -1.
         -4    1    1    2    0  502  0.73801309502E+02 -0.39460691634E+03 -0.17159276216E+03  0.43658370072E+03  0.00000000000E+00 0. -1.
</event>
<event>
 5    1  0.4881333E-005  0.3769810E+03  0.7818608E-02  0.9797985E-01
         -4   -1    0    0    0  501 -0.00000000000E+00  0.00000000000E+00  0.52144689132E+03  0.52144689132E+03  0.00000000000E+00 0. -1.
         21   -1    0    0  501  502  0.00000000000E+00 -0.00000000000E+00 -0.14165301125E+04  0.14165301125E+04  0.00000000000E+00 0. -1.
        -13    1    1    2    0    0 -0.47333265687E+03 -0.25446478553E+03 -0.24350050364E+02  0.53794894484E+03  0.10566000000E+00 0.  1.
         13    1    1    2    0    0  0.27978535262E+03  0.15423097775E+03  0.15237772956E+03  0.35395765519E+03  0.10566000000E+00 0. -1.
         -4    1    1    2    0  502  0.19354730425E+03  0.10023380778E+03 -0.10231109004E+04  0.10460704038E+04  0.00000000000E+00 0. -1.
</event>
<event>
 5    1  0.4881333E-005  0.4780931E+03  0.7818608E-02  0.9761823E-01
         21   -1    0    0  501  502  0.00000000000E+00  0.00000000000E+00  0.27111878752E+03  0.27111878752E+03  0.00000000000E+00 0. -1.
         -4   -1    0    0    0  501 -0.00000000000E+00 -0.00000000000E+00 -0.19917045108E+04  0.19917045108E+04  0.00000000000E+00 0. -1.
        -13    1    1    2    0    0  0.10964929277E+03  0.17816763329E+03 -0.92578260916E+03  0.94912597875E+03  0.10566000000E+00 0.  1.
         13    1    1    2    0    0  0.20309937543E+03  0.35750733729E+03 -0.21216474542E+03  0.46268211861E+03  0.10566000000E+00 0. -1.
         -4    1    1    2    0  502 -0.31274866820E+03 -0.53567497058E+03 -0.58263836865E+03  0.85101520091E+03  0.00000000000E+00 0. -1.
</event>
<event>
 5    1  0.4881333E-005  0.4591833E+03  0.7818608E-02  0.9572222E-01
          4   -1    0    0  502    0 -0.00000000000E+00  0.00000000000E+00  0.15262826863E+04  0.15262826863E+04  0.00000000000E+00 0.  1.
         21   -1    0    0  501  502  0.00000000000E+00 -0.00000000000E+00 -0.50041427730E+03  0.50041427730E+03  0.00000000000E+00 0.  1.
        -13    1    1    2    0    0 -0.30210853482E+03 -0.41631525847E+03  0.56078765591E+03  0.76096699496E+03  0.10566000000E+00 0.  1.
         13    1    1    2    0    0  0.13944883399E+03  0.41321897843E+03  0.78998476046E+03  0.90237012049E+03  0.10566000000E+00 0. -1.
          4    1    1    2  501    0  0.16265970083E+03  0.30962800409E+01 -0.32490400737E+03  0.36335984813E+03  0.00000000000E+00 0.  1.
</event>
<event>
 5    1  0.4881333E-005  0.9106472E+02  0.7818608E-02  0.1180250E+00
         21   -1    0    0  501  502  0.00000000000E+00  0.00000000000E+00  0.43865838215E+03  0.43865838215E+03  0.00000000000E+00 0. -1.
          4   -1    0    0  502    0 -0.00000000000E+00 -0.00000000000E+00 -0.25327121887E+02  0.25327121887E+02  0.00000000000E+00 0.  1.
        -13    1    1    2    0    0  0.95184521118E+01  0.93395405851E+02  0.21270901757E+03  0.23250470981E+03  0.10566000000E+00 0.  1.
         13    1    1    2    0    0  0.87464874883E+01 -0.89553780790E+02  0.12775919024E+03  0.15626516743E+03  0.10566000000E+00 0. -1.
          4    1    1    2  501    0 -0.18264939600E+02 -0.38416250611E+01  0.72863052456E+02  0.75215626800E+02  0.00000000000E+00 0.  1.
</event>
<event>
 5    1  0.4881333E-005  0.5400131E+03  0.7818608E-02  0.9394334E-01
          4   -1    0    0  502    0 -0.00000000000E+00  0.00000000000E+00  0.27425708048E+04  0.27425708048E+04  0.00000000000E+00 0.  1.
         21   -1    0    0  501  502  0.00000000000E+00 -0.00000000000E+00 -0.64016158661E+03  0.64016158661E+03  0.00000000000E+00 0.  1.
        -13    1    1    2    0    0  0.33565153219E+03  0.28887879703E+03  0.44396122116E+03  0.62706816814E+03  0.10566000000E+00 0.  1.
         13    1    1    2    0    0 -0.27752638003E+03 -0.52407777445E+03  0.21378199114E+04  0.22185473603E+04  0.10566000000E+00 0. -1.
          4    1    1    2  501    0 -0.58125152161E+02  0.23519897742E+03 -0.47937191431E+03  0.53711686300E+03  0.00000000000E+00 0.  1.
</event>
<event>
 5    1  0.4881333E-005  0.1031568E+03  0.7818608E-02  0.1159436E+00
         -4   -1    0    0    0  501 -0.00000000000E+00  0.00000000000E+00  0.25666638628E+03  0.25666638628E+03  0.00000000000E+00 0. -1.
         21   -1    0    0  501  502  0.00000000000E+00 -0.00000000000E+00 -0.17140195039E+03  0.17140195039E+03  0.00000000000E+00 0. -1.
        -13    1    1    2    0    0 -0.58384682575E+02 -0.40337852723E+02 -0.79331347882E+02  0.10643959528E+03  0.10566000000E+00 0.  1.
         13    1    1    2    0    0  0.97014589846E+02  0.46267608839E+02  0.22518904254E+03  0.24952482505E+03  0.10566000000E+00 0. -1.
         -4    1    1    2    0  502 -0.38629907272E+02 -0.59297561167E+01 -0.60593258773E+02  0.72103916344E+02  0.00000000000E+00 0. -1.
</event>
<event>
 5    1  0.4881333E-005  0.2154023E+03  0.7818608E-02  0.1050061E+00
         21   -1    0    0  501  502  0.00000000000E+00  0.00000000000E+00  0.50318983765E+03  0.50318983765E+03  0.00000000000E+00 0. -1.
         -4   -1    0    0    0  501 -0.00000000000E+00 -0.00000000000E+00 -0.22745440981E+03  0.22745440981E+03  0.00000000000E+00 0. -1.
        -13    1    1    2    0    0 -0.17194901668E+03  0.43478529177E+02  0.59151612076E+02  0.18696462556E+03  0.10566000000E+00 0.  1.
         13    1    1    2    0    0  0.26120268565E+03 -0.18094197865E+03  0.20755439630E+03  0.37953350473E+03  0.10566000000E+00 0. -1.
         -4    1    1    2    0  502 -0.89253668966E+02  0.13746344947E+03  0.90294194565E+01  0.16414611716E+03  0.00000000000E+00 0. -1.
</event>
<event>
 5    1  0.4881333E-005  0.3262495E+02  0.7818608E-02  0.1384992E+00
         -4   -1    0    0    0  501 -0.00000000000E+00  0.00000000000E+00  0.18298954410E+03  0.18298954410E+03  0.00000000000E+00 0. -1.
         21   -1    0    0  501  502  0.00000000000E+00 -0.00000000000E+00 -0.16542440973E+02  0.16542440973E+02  0.00000000000E+00 0.  1.
        -13    1    1    2    0    0 -0.83326461967E+01  0.26012649976E+02  0.58476238183E+02  0.64541246870E+02  0.10566000000E+00 0.  1.
         13    1    1    2    0    0 -0.50319727785E+01 -0.40634076789E+02  0.10765584107E+03  0.11517916576E+03  0.10566000000E+00 0. -1.
         -4    1    1    2    0  502  0.13364618975E+02  0.14621426813E+02  0.31502387608E+00  0.19811572437E+02  0.00000000000E+00 0. -1.
</event>
<event>
 5    1  0.4881333E-005  0.3066156E+03  0.7818608E-02  0.1004794E+00
         21   -1    0    0  501  502  0.00000000000E+00  0.00000000000E+00  0.12636601934E+04  0.12636601934E+04  0.00000000000E+00 0. -1.
         -4   -1    0    0    0  501 -0.00000000000E+00 -0.00000000000E+00 -0.56352494964E+03  0.56352494964E+03  0.00000000000E+00 0. -1.
        -13    1    1    2    0    0 -0.30444273724E+03 -0.14888843003E+02 -0.27136551526E+03  0.40810086001E+03  0.10566000000E+00 0.  1.
         13    1    1    2    0    0 -0.34513974799E+02 -0.40984511450E+01 -0.19814315422E+03  0.20116841821E+03  0.10566000000E+00 0. -1.
         -4    1    1    2    0  502  0.33895671204E+03  0.18987294148E+02  0.11696439133E+04  0.12179158648E+04  0.00000000000E+00 0. -1.
</event>
<event>
 5    1  0.4881333E-005  0.4253935E+03  0.7818608E-02  0.9658448E-01
          4   -1    0    0  502    0 -0.00000000000E+00  0.00000000000E+00  0.33622294521E+04  0.33622294521E+04  0.00000000000E+00 0.  1.
         21   -1    0    0  501  502  0.00000000000E+00 -0.00000000000E+00 -0.62196813240E+02  0.62196813240E+02  0.00000000000E+00 0. -1.
        -13    1    1    2    0    0 -0.38761121007E+03 -0.18229607498E+03  0.19845451965E+04  0.20302448023E+04  0.10566000000E+00 0.  1.
         13    1    1    2    0    0  0.38611965264E+03  0.16841121591E+03  0.13143099602E+04  0.13801671661E+04  0.10566000000E+00 0. -1.
          4    1    1    2  501    0  0.14915574375E+01  0.13884859067E+02  0.11774821965E+01  0.14014296958E+02  0.00000000000E+00 0.  1.
</event>
<event>
 5    1  0.4881333E-005  0.4644441E+03  0.7818608E-02  0.9713002E-01
         -4   -1    0    0    0  501 -0.00000000000E+00  0.00000000000E+00  0.40907266846E+04  0.40907266846E+04  0.00000000000E+00 0. -1.
         21   -1    0    0  501  502  0.00000000000E+00 -0.00000000000E+00 -0.11053574363E+03  0.11053574363E+03  0.00000000000E+00 0. -1.
        -13    1    1    2    0    0 -0.80763720439E+02 -0.25779483460E+03  0.13796158995E+04  0.14058168432E+04  0.10566000000E+00 0.  1.
         13    1    1    2    0    0 -0.40998315436E+03  0.18660495058E+03  0.17849097654E+04  0.18408722053E+04  0.10566000000E+00 0. -1.
         -4    1    1    2    0  502  0.49074687479E+03  0.71189884023E+02  0.81566527604E+03  0.95457337971E+03  0.00000000000E+00 0. -1.
</event>
<event>
 5    1  0.4881333E-005  0.4059947E+02  0.7818608E-02  0.1390580E+00
          4   -1    0    0  502    0 -0.00000000000E+00  0.00000000000E+00  0.41769585561E+02  0.41769585561E+02  0.00000000000E+00 0.  1.
         21   -1    0    0  501  502  0.00000000000E+00 -0.00000000000E+00 -0.66930230617E+02  0.66930230617E+02  0.00000000000E+00 0.  1.
        -13    1    1    2    0    0 -0.36915378818E+02 -0.28389624704E+02 -0.14745617750E+02  0.48848340719E+02  0.10566000000E+00 0.  1.
         13    1    1    2    0    0  0.19299118196E+01  0.15271432193E+02  0.89097625815E+01  0.17785843645E+02  0.10566000000E+00 0. -1.
          4    1    1    2  501    0  0.34985466998E+02  0.13118192511E+02 -0.19324789888E+02  0.42065631815E+02  0.00000000000E+00 0.  1.
</event>
<event>
 5    1  0.4881333E-005  0.9240588E+02  0.7818608E-02  0.1177771E+00
         21   -1    0    0  501  502  0.00000000000E+00  0.00000000000E+00  0.13743367054E+03  0.13743367054E+03  0.00000000000E+00 0. -1.
          4   -1    0    0  502    0 -0.00000000000E+00 -0.00000000000E+00 -0.13458529575E+03  0.13458529575E+03  0.00000000000E+00 0.  1.
        -13    1    1    2    0    0  0.81561959052E+02  0.59061622068E+02 -0.83972320116E+02  0.13111822938E+03  0.10566000000E+00 0.  1.
         13    1    1    2    0    0 -0.51583747898E+02 -0.51161545584E+02  0.35305908274E+02  0.80776884793E+02  0.10566000000E+00 0. -1.
          4    1    1    2  501    0 -0.29978211154E+02 -0.79000764841E+01  0.51514786627E+02  0.60123852120E+02  0.00000000000E+00 0.  1.
</event>
<event>
 5    1  0.4881333E-005  0.2600354E+03  0.7818608E-02  0.1025320E+00
         21   -1    0    0  501  502  0.00000000000E+00  0.00000000000E+00  0.37044595757E+03  0.37044595757E+03  0.00000000000E+00 0. -1.
          4   -1    0    0  502    0 -0.00000000000E+00 -0.00000000000E+00 -0.31997288626E+03  0.31997288626E+03  0.00000000000E+00 0.  1.
        -13    1    1    2    0    0 -0.24815631445E+03 -0.62024724823E+02 -0.17334059931E+03  0.30899125785E+03  0.10566000000E+00 0.  1.
         13    1    1    2    0    0  0.26565864577E+03  0.73166224213E+02  0.17004512734E+03  0.32379494890E+03  0.10566000000E+00 0. -1.
          4    1    1    2  501    0 -0.17502331315E+02 -0.11141499390E+02  0.53768543289E+02  0.57632637086E+02  0.00000000000E+00 0.  1.
</event>
<event>
 5    1  0.4881333E-005  0.5136198E+03  0.7818608E-02  0.9946415E-01
         21   -1    0    0  501  502  0.00000000000E+00  0.00000000000E+00  0.10246698954E+04  0.10246698954E+04  0.00000000000E+00 0.  1.
          4   -1    0    0  502    0 -0.00000000000E+00 -0.00000000000E+00 -0.32420955949E+03  0.32420955949E+03  0.00000000000E+00 0.  1.
        -13    1    1    2    0    0 -0.48221091173E+03 -0.10846867882E+03  0.29223982679E+03  0.57419242872E+03  0.10566000000E+00 0.  1.
         13    1    1    2    0    0 -0.14204182884E+02 -0.89340565339E+02 -0.16663178999E+02  0.91984608087E+02  0.10566000000E+00 0. -1.
          4    1    1    2  501    0  0.49641509461E+03  0.19780924416E+03  0.42488368814E+03  0.68270241810E+03  0.00000000000E+00 0.  1.
</event>
<event>
 5    1  0.4881333E-005  0.1061410E+03  0.7818608E-02  0.1154776E+00
          4   -1    0    0  502    0 -0.00000000000E+00  0.00000000000E+00  0.80946991812E+03  0.80946991812E+03  0.00000000000E+00 0.  1.
         21   -1    0    0  501  502  0.00000000000E+00 -0.00000000000E+00 -0.38916886585E+02  0.38916886585E+02  0.00000000000E+00 0. -1.
        -13    1    1    2    0    0  0.47764974018E+02 -0.91177769393E+02  0.62151209081E+03  0.62997791117E+03  0.10566000000E+00 0.  1.
         13    1    1    2    0    0 -0.76847473800E+02  0.10269944760E+03  0.12288695108E+03  0.17763424410E+03  0.10566000000E+00 0. -1.
          4    1    1    2  501    0  0.29082499782E+02 -0.11521678206E+02  0.26153989639E+02  0.40774649432E+02  0.00000000000E+00 0.  1.
</event>
<event>
 5    1  0.4881333E-005  0.4394244E+03  0.7818608E-02  0.9955409E-01
         21   -1    0    0  501  502  0.00000000000E+00  0.00000000000E+00  0.17676088170E+03  0.17676088170E+03  0.00000000000E+00 0.  1.
          4   -1    0    0  502    0 -0.00000000000E+00 -0.00000000000E+00 -0.18213651214E+04  0.18213651214E+04  0.00000000000E+00 0.  1.
        -13    1    1    2    0    0  0.30451897398E+03  0.33445358933E+03 -0.32544066680E+03  0.55722764442E+03  0.10566000000E+00 0.  1.
         13    1    1    2    0    0 -0.12886012802E+03  0.55288973401E+02 -0.46572736238E+03  0.48637823801E+03  0.10566000000E+00 0. -1.
          4    1    1    2  501    0 -0.17565884596E+03 -0.38974256273E+03 -0.85343621051E+03  0.95452012068E+03  0.00000000000E+00 0.  1.
</event>
<event>
 5    1  0.4881333E-005  0.6703137E+03  0.7818608E-02  0.9167191E-01
         21   -1    0    0  501  502  0.00000000000E+00  0.00000000000E+00  0.53935284770E+03  0.53935284770E+03  0.00000000000E+00 0. -1.
         -4   -1    0    0    0  501 -0.00000000000E+00 -0.00000000000E+00 -0.21568737431E+04  0.21568737431E+04  0.00000000000E+00 0. -1.
        -13    1    1    2    0    0 -0.60336162326E+03 -0.25451733750E+03 -0.12834233497E+04  0.14408330331E+04  0.10566000000E+00 0.  1.
         13    1    1    2    0    0  0.53630562261E+03  0.50900644249E+03 -0.54466114151E+03  0.91835017808E+03  0.10566000000E+00 0. -1.
         -4    1    1    2    0  502  0.67056000652E+02 -0.25448910499E+03  0.21056359590E+03  0.33704337955E+03  0.00000000000E+00 0. -1.
</event>
<event>
 5    1  0.6526639E-005  0.3943309E+03  0.7818608E-02  0.9808609E-01
         21   -1    0    0  501  502  0.00000000000E+00  0.00000000000E+00  0.43337852552E+03  0.43337852552E+03  0.00000000000E+00 0. -1.
         -4   -1    0    0    0  501 -0.00000000000E+00 -0.00000000000E+00 -0.14262815845E+04  0.14262815845E+04  0.00000000000E+00 0. -1.
        -13    1    1    2    0    0  0.24487062089E+03  0.20234136980E+03 -0.69854525684E+03  0.76737809320E+03  0.10566000000E+00 0.  1.
         13    1    1    2    0    0  0.93874705081E+02  0.10144194739E+03 -0.55224151055E+03  0.56927464908E+03  0.10566000000E+00 0. -1.
         -4    1    1    2    0  502 -0.33874532597E+03 -0.30378331718E+03  0.25788370839E+03  0.52300736775E+03  0.00000000000E+00 0. -1.
</event>
<event>
 5    1  0.4881333E-005  0.6216220E+03  0.7818608E-02  0.9245160E-01
         21   -1    0    0  501  502  0.00000000000E+00  0.00000000000E+00  0.43785844867E+03  0.43785844867E+03  0.00000000000E+00 0.  1.
          4   -1    0    0  502    0 -0.00000000000E+00 -0.00000000000E+00 -0.14817539364E+04  0.14817539364E+04  0.00000000000E+00 0.  1.
        -13    1    1    2    0    0 -0.72869257180E+03 -0.31216659118E+03 -0.48825089917E+03  0.93103694694E+03  0.10566000000E+00 0.  1.
         13    1    1    2    0    0  0.45093481662E+03  0.21235129731E+03 -0.22956857109E+03  0.54875953049E+03  0.10566000000E+00 0. -1.
          4    1    1    2  501    0  0.27775775518E+03  0.99815293878E+02 -0.32607601751E+03  0.43981590768E+03  0.00000000000E+00 0.  1.
</event>
<event>
 5    1  0.4881333E-005  0.1222167E+03  0.7818608E-02  0.1132275E+00
         21   -1    0    0  501  502  0.00000000000E+00  0.00000000000E+00  0.30565930361E+03  0.30565930361E+03  0.00000000000E+00 0.  1.
         -4   -1    0    0    0  501 -0.00000000000E+00 -0.00000000000E+00 -0.13009104693E+03  0.13009104693E+03  0.00000000000E+00 0. -1.
        -13    1    1    2    0    0  0.10881440152E+03  0.20475206020E+02  0.24563763719E+03  0.26943954426E+03  0.10566000000E+00 0.  1.
         13    1    1    2    0    0 -0.12263102038E+03 -0.16408044357E+02 -0.81301782011E+02  0.14804587803E+03  0.10566000000E+00 0. -1.
         -4    1    1    2    0  502  0.13816618861E+02 -0.40671616628E+01  0.11232401502E+02  0.18264928257E+02  0.00000000000E+00 0. -1.
</event>
<event>
 5    1  0.4881333E-005  0.1056403E+03  0.7818608E-02  0.1155546E+00
         -4   -1    0    0    0  501 -0.00000000000E+00  0.00000000000E+00  0.94795146591E+02  0.94795146591E+02  0.00000000000E+00 0. -1.
         21   -1    0    0  501  502  0.00000000000E+00 -0.00000000000E+00 -0.22036147679E+03  0.22036147679E+03  0.00000000000E+00 0.  1.
        -13    1    1    2    0    0  0.85661705227E+02  0.78440180196E+02 -0.12330564935E+03  0.16939623354E+03  0.10566000000E+00 0.  1.
         13    1    1    2    0    0 -0.70847600702E+02 -0.74741269439E+02  0.32338540114E+02  0.10794180017E+03  0.10566000000E+00 0. -1.
         -4    1    1    2    0  502 -0.14814104525E+02 -0.36989107563E+01 -0.34599220960E+02  0.37818589671E+02  0.00000000000E+00 0. -1.
</event>
<event>
 5    1  0.4881333E-005  0.2542663E+03  0.7818608E-02  0.1040031E+00
          4   -1    0    0  502    0 -0.00000000000E+00  0.00000000000E+00  0.13027844695E+04  0.13027844695E+04  0.00000000000E+00 0.  1.
         21   -1    0    0  501  502  0.00000000000E+00 -0.00000000000E+00 -0.13116907333E+03  0.13116907333E+03  0.00000000000E+00 0.  1.
        -13    1    1    2    0    0 -0.33181461037E+03 -0.21835940080E+02  0.56275602095E+03  0.65366053438E+03  0.10566000000E+00 0.  1.
         13    1    1    2    0    0  0.11919033606E+03  0.13080337724E+03  0.47396129036E+03  0.50592012772E+03  0.10566000000E+00 0. -1.
          4    1    1    2  501    0  0.21262427431E+03 -0.10896743716E+03  0.13489808490E+03  0.27437288077E+03  0.00000000000E+00 0.  1.
</event>
<event>
 5    1  0.4881333E-005  0.5570289E+03  0.7818608E-02  0.9651576E-01
         -4   -1    0    0    0  501 -0.00000000000E+00  0.00000000000E+00  0.27210752225E+04  0.27210752225E+04  0.00000000000E+00 0. -1.
         21   -1    0    0  501  502  0.00000000000E+00 -0.00000000000E+00 -0.20115537543E+03  0.20115537543E+03  0.00000000000E+00 0. -1.
        -13    1    1    2    0    0 -0.15860880716E+03  0.11188273931E+03  0.10268187808E+04  0.10450030244E+04  0.10566000000E+00 0.  1.
         13    1    1    2    0    0  0.31771005802E+03  0.44945690232E+03  0.64675939281E+03  0.84926374665E+03  0.10566000000E+00 0. -1.
         -4    1    1    2    0  502 -0.15910125086E+03 -0.56133964163E+03  0.84634167338E+03  0.10279638269E+04  0.00000000000E+00 0. -1.
</event>
<event>
 5    1  0.4881333E-005  0.3828536E+03  0.7818608E-02  0.9952684E-01
         21   -1    0    0  501  502  0.00000000000E+00  0.00000000000E+00  0.21968403948E+04  0.21968403948E+04  0.00000000000E+00 0. -1.
         -4   -1    0    0    0  501 -0.00000000000E+00 -0.00000000000E+00 -0.37692205159E+03  0.37692205159E+03  0.00000000000E+00 0. -1.
        -13    1    1    2    0    0  0.20926100168E+03  0.44472454277E+02 -0.20668986307E+03  0.29747046353E+03  0.10566000000E+00 0.  1.
         13    1    1    2    0    0 -0.62071134707E+02 -0.40317534637E+03  0.29915999277E+03  0.50586549410E+03  0.10566000000E+00 0. -1.
         -4    1    1    2    0  502 -0.14718986698E+03  0.35870289209E+03  0.17274482135E+04  0.17704264887E+04  0.00000000000E+00 0. -1.
</event>
<event>
 5    1  0.4881333E-005  0.4038498E+03  0.7818608E-02  0.9775443E-01
         -4   -1    0    0    0  501 -0.00000000000E+00  0.00000000000E+00  0.24878705500E+04  0.24878705500E+04  0.00000000000E+00 0. -1.
         21   -1    0    0  501  502  0.00000000000E+00 -0.00000000000E+00 -0.34624059680E+03  0.34624059680E+03  0.00000000000E+00 0. -1.
        -13    1    1    2    0    0  0.93921003124E+02 -0.31763510476E+03  0.16310135188E+04  0.16643071605E+04  0.10566000000E+00 0.  1.
         13    1    1    2    0    0  0.30998902292E+03  0.37552272709E+03  0.57850222718E+03  0.75615828430E+03  0.10566000000E+00 0. -1.
         -4    1    1    2    0  502 -0.40391002605E+03 -0.57887622325E+02 -0.67885792809E+02  0.41364570205E+03  0.00000000000E+00 0. -1.
</event>
<event>
 5    1  0.4881333E-005  0.5781544E+02  0.7818608E-02  0.1262877E+00
          4   -1    0    0  502    0 -0.00000000000E+00  0.00000000000E+00  0.29477651913E+02  0.29477651913E+02  0.00000000000E+00 0.  1.
         21   -1    0    0  501  502  0.00000000000E+00 -0.00000000000E+00 -0.23000611466E+03  0.23000611466E+03  0.00000000000E+00 0.  1.
        -13    1    1    2    0    0 -0.72151341540E+02  0.22230185327E+02 -0.13922541529E+03  0.15837842230E+03  0.10566000000E+00 0.  1.
         13    1    1    2    0    0  0.51717838369E+02 -0.25705021538E+01 -0.43462926558E+02  0.67604581471E+02  0.10566000000E+00 0. -1.
          4    1    1    2  501    0  0.20433503171E+02 -0.19659683173E+02 -0.17840120903E+02  0.33500762799E+02  0.00000000000E+00 0.  1.
</event>
<event>
 5    1  0.4881333E-005  0.1185039E+03  0.7818608E-02  0.1158310E+00
          4   -1    0    0  502    0 -0.00000000000E+00  0.00000000000E+00  0.14841548787E+03  0.14841548787E+03  0.00000000000E+00 0.  1.
         21   -1    0    0  501  502  0.00000000000E+00 -0.00000000000E+00 -0.48180046335E+03  0.48180046335E+03  0.00000000000E+00 0.  1.
        -13    1    1    2    0    0 -0.12243684392E+03 -0.52377390509E+01  0.71679305523E+02  0.14197235175E+03  0.10566000000E+00 0.  1.
         13    1    1    2    0    0  0.25556446770E+02 -0.65103594978E+02 -0.44045955653E+01  0.70078682042E+02  0.10566000000E+00 0. -1.
          4    1    1    2  501    0  0.96880397145E+02  0.70341334029E+02 -0.40065968544E+03  0.41816491742E+03  0.00000000000E+00 0.  1.
</event>
<event>
 5    1  0.4881333E-005  0.4744712E+03  0.7818608E-02  0.1000307E+00
          4   -1    0    0  502    0 -0.00000000000E+00  0.00000000000E+00  0.22277769120E+04  0.22277769120E+04  0.00000000000E+00 0.  1.
         21   -1    0    0  501  502  0.00000000000E+00 -0.00000000000E+00 -0.12609915965E+03  0.12609915965E+03  0.00000000000E+00 0.  1.
        -13    1    1    2    0    0 -0.28692265644E+02 -0.43563875080E+03  0.83803995529E+03  0.94494197977E+03  0.10566000000E+00 0.  1.
         13    1    1    2    0    0 -0.44157832495E+02 -0.84355637657E+02  0.14915704969E+03  0.17695656080E+03  0.10566000000E+00 0. -1.
          4    1    1    2  501    0  0.72850098139E+02  0.51999438846E+03  0.11144807474E+04  0.12319775311E+04  0.00000000000E+00 0.  1.
</event>
<event>
 5    1  0.6213967E-005  0.1686552E+03  0.7818608E-02  0.1084255E+00
          4   -1    0    0  502    0 -0.00000000000E+00  0.00000000000E+00  0.13684490744E+04  0.13684490744E+04  0.00000000000E+00 0.  1.
         21   -1    0    0  501  502  0.00000000000E+00 -0.00000000000E+00 -0.37859661874E+03  0.37859661874E+03  0.00000000000E+00 0.  1.
        -13    1    1    2    0    0  0.16876767205E+02 -0.20546282049E+03  0.66921118109E+03  0.70024525128E+03  0.10566000000E+00 0.  1.
         13    1    1    2    0    0 -0.14221975012E+03  0.91584854066E+02  0.65258563803E+03  0.67415300114E+03  0.10566000000E+00 0. -1.
          4    1    1    2  501    0  0.12534298292E+03  0.11387796642E+03 -0.33194436349E+03  0.37264744069E+03  0.00000000000E+00 0.  1.
</event>
<event>
 5    1  0.4881333E-005  0.4934763E+03  0.7818608E-02  0.1005254E+00
         21   -1    0    0  501  502  0.00000000000E+00  0.00000000000E+00  0.38717075202E+03  0.38717075202E+03  0.00000000000E+00 0.  1.
          4   -1    0    0  502    0 -0.00000000000E+00 -0.00000000000E+00 -0.96413715747E+03  0.96413715747E+03  0.00000000000E+00 0.  1.
        -13    1    1    2    0    0  0.41247575122E+03 -0.34216799994E+03 -0.21859529296E+03  0.57879106661E+03  0.10566000000E+00 0.  1.
         13    1    1    2    0    0 -0.46662396508E+02  0.54873824585E+02 -0.29429486620E+03  0.30298183990E+03  0.10566000000E+00 0. -1.
          4    1    1    2  501    0 -0.36581335471E+03  0.28729417536E+03 -0.64076246293E+02  0.46953500297E+03  0.00000000000E+00 0.  1.
</event>
<event>
 5    1  0.4881333E-005  0.2516173E+02  0.7818608E-02  0.1497697E+00
         -4   -1    0    0    0  501 -0.00000000000E+00  0.00000000000E+00  0.29533529117E+02  0.29533529117E+02  0.00000000000E+00 0. -1.
         21   -1    0    0  501  502  0.00000000000E+00 -0.00000000000E+00 -0.41113652649E+02  0.41113652649E+02  0.00000000000E+00 0. -1.
        -13    1    1    2    0    0 -0.85081004232E+01 -0.84325398916E+01  0.30511105164E+01  0.12361874504E+02  0.10566000000E+00 0.  1.
         13    1    1    2    0    0  0.96664729986E+01  0.30830281878E+02 -0.16072423729E+01  0.32350291698E+02  0.10566000000E+00 0. -1.
         -4    1    1    2    0  502 -0.11583725753E+01 -0.22397741986E+02 -0.13023991675E+02  0.25935015563E+02  0.00000000000E+00 0. -1.
</event>
<event>
 5    1  0.4881333E-005  0.1107527E+04  0.7818608E-02  0.8679653E-01
         -4   -1    0    0    0  501 -0.00000000000E+00  0.00000000000E+00  0.18703222159E+04  0.18703222159E+04  0.00000000000E+00 0. -1.
         21   -1    0    0  501  502  0.00000000000E+00 -0.00000000000E+00 -0.83579912923E+03  0.83579912923E+03  0.00000000000E+00 0.  1.
        -13    1    1    2    0    0  0.30163763232E+03 -0.98514865135E+03  0.61808273996E+03  0.12014696880E+04  0.10566000000E+00 0.  1.
         13    1    1    2    0    0 -0.30686943356E+03  0.11804357863E+04  0.46167688341E+03  0.13041253968E+04  0.10566000000E+00 0. -1.
         -4    1    1    2    0  502  0.52318012372E+01 -0.19528713497E+03 -0.45236536711E+02  0.20052626033E+03  0.00000000000E+00 0. -1.
</event>
<event>
 5    1  0.4881333E-005  0.4559270E+03  0.7818608E-02  0.9902574E-01
         21   -1    0    0  501  502  0.00000000000E+00  0.00000000000E+00  0.45238740539E+03  0.45238740539E+03  0.00000000000E+00 0.  1.
          4   -1    0    0  502    0 -0.00000000000E+00 -0.00000000000E+00 -0.94367279576E+03  0.94367279576E+03  0.00000000000E+00 0.  1.
        -13    1    1    2    0    0 -0.44570760220E+03  0.54325618443E+02  0.89365441568E+02  0.45781298888E+03  0.10566000000E+00 0.  1.
         13    1    1    2    0    0  0.62020392199E+01  0.14952520565E+03 -0.38978450410E+03  0.41752631440E+03  0.10566000000E+00 0. -1.
          4    1    1    2  501    0  0.43950556298E+03 -0.20385082409E+03 -0.19086632785E+03  0.52072089787E+03  0.00000000000E+00 0.  1.
</event>
<event>
 5    1  0.4881333E-005  0.6700857E+03  0.7818608E-02  0.9183255E-01
          4   -1    0    0  502    0 -0.00000000000E+00  0.00000000000E+00  0.15905557975E+04  0.15905557975E+04  0.00000000000E+00 0.  1.
         21   -1    0    0  501  502  0.00000000000E+00 -0.00000000000E+00 -0.10853356662E+04  0.10853356662E+04  0.00000000000E+00 0. -1.
        -13    1    1    2    0    0  0.12517753237E+03 -0.55414476915E+03  0.59909236412E+03  0.82562552752E+03  0.10566000000E+00 0.  1.
         13    1    1    2    0    0 -0.76369324387E+03  0.81806503654E+03  0.12360272206E+03  0.11259375732E+04  0.10566000000E+00 0. -1.
          4    1    1    2  501    0  0.63851571150E+03 -0.26392026739E+03 -0.21747495489E+03  0.72432836295E+03  0.00000000000E+00 0.  1.
</event>
<event>
 5    1  0.4881333E-005  0.1254114E+03  0.7818608E-02  0.1128253E+00
          4   -1    0    0  502    0 -0.00000000000E+00  0.00000000000E+00  0.50408659262E+02  0.50408659262E+02  0.00000000000E+00 0.  1.
         21   -1    0    0  501  502  0.00000000000E+00 -0.00000000000E+00 -0.62287334874E+03  0.62287334874E+03  0.00000000000E+00 0. -1.
        -13    1    1    2    0    0 -0.30938864728E+02 -0.12677256664E+03 -0.83397935281E+02  0.15486679365E+03  0.10566000000E+00 0.  1.
         13    1    1    2    0    0  0.10769933631E+02  0.11562631004E+03 -0.22366422816E+03  0.25201415271E+03  0.10566000000E+00 0. -1.
          4    1    1    2  501    0  0.20168931098E+02  0.11146256599E+02 -0.26540252604E+03  0.26640106164E+03  0.00000000000E+00 0.  1.
</event>
<event>
 5    1  0.4881333E-005  0.1829473E+03  0.7818608E-02  0.1072500E+00
         21   -1    0    0  501  502  0.00000000000E+00  0.00000000000E+00  0.45110152931E+02  0.45110152931E+02  0.00000000000E+00 0. -1.
          4   -1    0    0  502    0 -0.00000000000E+00 -0.00000000000E+00 -0.87906061529E+03  0.87906061529E+03  0.00000000000E+00 0.  1.
        -13    1    1    2    0    0 -0.17468956040E+03  0.33496401495E+02 -0.40407223014E+03  0.44148933142E+03  0.10566000000E+00 0.  1.
         13    1    1    2    0    0  0.18646512255E+03 -0.26947544626E+02 -0.42971994194E+03  0.46920640634E+03  0.10566000000E+00 0. -1.
          4    1    1    2  501    0 -0.11775562143E+02 -0.65488568688E+01 -0.15829028295E+00  0.13475030460E+02  0.00000000000E+00 0.  1.
</event>
<event>
 5    1  0.4881333E-005  0.3585960E+03  0.7818608E-02  0.9856891E-01
          4   -1    0    0  502    0 -0.00000000000E+00  0.00000000000E+00  0.21048677033E+04  0.21048677033E+04  0.00000000000E+00 0.  1.
         21   -1    0    0  501  502  0.00000000000E+00 -0.00000000000E+00 -0.16233596704E+03  0.16233596704E+03  0.00000000000E+00 0. -1.
        -13    1    1    2    0    0 -0.79065716619E+02 -0.35178041918E+03  0.10379011230E+04  0.10987445578E+04  0.10566000000E+00 0.  1.
         13    1    1    2    0    0  0.59790806771E+02  0.35182100845E+03  0.10048838368E+04  0.10663697760E+04  0.10566000000E+00 0. -1.
          4    1    1    2  501    0  0.19274909849E+02 -0.40589261346E-01 -0.10025322358E+03  0.10208933654E+03  0.00000000000E+00 0.  1.
</event>
<event>
 5    1  0.4881333E-005  0.3197870E+03  0.7818608E-02  0.1003439E+00
          4   -1    0    0  502    0 -0.00000000000E+00  0.00000000000E+00  0.48918096009E+03  0.48918096009E+03  0.00000000000E+00 0.  1.
         21   -1    0    0  501  502  0.00000000000E+00 -0.00000000000E+00 -0.28376327787E+04  0.28376327787E+04  0.00000000000E+00 0.  1.
        -13    1    1    2    0    0  0.53249860227E+02 -0.55565461873E+02  0.70367767926E+02  0.10428183971E+03  0.10566000000E+00 0.  1.
         13    1    1    2    0    0  0.26404221693E+03 -0.95444006671E+02  0.34027439104E+03  0.44115136075E+03  0.10566000000E+00 0. -1.
          4    1    1    2  501    0 -0.31729207716E+03  0.15100946854E+03 -0.27590939776E+04  0.27813805384E+04  0.00000000000E+00 0.  1.
</event>
<event>
 5    1  0.4881333E-005  0.5669021E+02  0.7818608E-02  0.1266714E+00
         21   -1    0    0  501  502  0.00000000000E+00  0.00000000000E+00  0.96398138323E+02  0.96398138323E+02  0.00000000000E+00 0.  1.
         -4   -1    0    0    0  501 -0.00000000000E+00 -0.00000000000E+00 -0.10021211074E+03  0.10021211074E+03  0.00000000000E+00 0. -1.
        -13    1    1    2    0    0 -0.45414180320E+02 -0.15443020155E+02  0.72896167632E+02  0.87262804591E+02  0.10566000000E+00 0.  1.
         13    1    1    2    0    0  0.50075300283E+02  0.28996954666E+02 -0.75270688816E+02  0.94942334273E+02  0.10566000000E+00 0. -1.
         -4    1    1    2    0  502 -0.46611199627E+01 -0.13553934511E+02 -0.14394512352E+01  0.14405110201E+02  0.00000000000E+00 0. -1.
</event>
<event>
 5    1  0.4881333E-005  0.4338362E+03  0.7818608E-02  0.1002417E+00
          4   -1    0    0  502    0 -0.00000000000E+00  0.00000000000E+00  0.53759609631E+03  0.53759609631E+03  0.00000000000E+00 0.  1.
         21   -1    0    0  501  502  0.00000000000E+00 -0.00000000000E+00 -0.59129430015E+03  0.59129430015E+03  0.00000000000E+00 0.  1.
        -13    1    1    2    0    0 -0.31426844300E+03 -0.25671956715E+03 -0.23022938935E+03  0.46655672036E+03  0.10566000000E+00 0.  1.
         13    1    1    2    0    0 -0.68730952725E+02 -0.93759952963E+02  0.80912302456E+01  0.11653476654E+03  0.10566000000E+00 0. -1.
          4    1    1    2  501    0  0.38299939573E+03  0.35047952012E+03  0.16843995527E+03  0.54579890956E+03  0.00000000000E+00 0.  1.
</event>
<event>
 5    1  0.4881333E-005  0.4355687E+02  0.7818608E-02  0.1320504E+00
         21   -1    0    0  501  502  0.00000000000E+00  0.00000000000E+00  0.55133472584E+03  0.55133472584E+03  0.00000000000E+00 0.  1.
          4   -1    0    0  502    0 -0.00000000000E+00 -0.00000000000E+00 -0.45006957495E+02  0.45006957495E+02  0.00000000000E+00 0.  1.
        -13    1    1    2    0    0  0.26931025476E+02  0.32622719705E+02 -0.27008502476E+02  0.50189564096E+02  0.10566000000E+00 0.  1.
         13    1    1    2    0    0 -0.47162603880E+02 -0.38763766157E+02  0.14613748174E+03  0.15837649922E+03  0.10566000000E+00 0. -1.
          4    1    1    2  501    0  0.20231578404E+02  0.61410464528E+01  0.38719878909E+03  0.38777562003E+03  0.00000000000E+00 0.  1.
</event>
<event>
 5    1  0.4881333E-005  0.3330077E+03  0.7818608E-02  0.1037759E+00
          4   -1    0    0  502    0 -0.00000000000E+00  0.00000000000E+00  0.38919352989E+03  0.38919352989E+03  0.00000000000E+00 0.  1.
         21   -1    0    0  501  502  0.00000000000E+00 -0.00000000000E+00 -0.51414492927E+03  0.51414492927E+03  0.00000000000E+00 0.  1.
        -13    1    1    2    0    0 -0.35625748575E+03  0.62268662209E+02  0.13613793391E+03  0.38643282814E+03  0.10566000000E+00 0.  1.
         13    1    1    2    0    0  0.29936900498E+02 -0.78911318934E+02  0.19036082780E+02  0.86519349737E+02  0.10566000000E+00 0. -1.
          4    1    1    2  501    0  0.32632058526E+03  0.16642656725E+02 -0.28012541607E+03  0.43038628128E+03  0.00000000000E+00 0.  1.
</event>
<event>
 5    1  0.4881333E-005  0.5432349E+03  0.7818608E-02  0.9532822E-01
          4   -1    0    0  502    0 -0.00000000000E+00  0.00000000000E+00  0.19560322452E+04  0.19560322452E+04  0.00000000000E+00 0.  1.
         21   -1    0    0  501  502  0.00000000000E+00 -0.00000000000E+00 -0.64603063243E+03  0.64603063243E+03  0.00000000000E+00 0.  1.
        -13    1    1    2    0    0  0.50470094827E+02 -0.37167808239E+03  0.77553958484E+03  0.86148330583E+03  0.10566000000E+00 0.  1.
         13    1    1    2    0    0  0.58964016430E+03  0.67502379729E+03  0.51125398197E+03  0.10318494539E+04  0.10566000000E+00 0. -1.
          4    1    1    2  501    0 -0.64011025913E+03 -0.30334571490E+03  0.23208045934E+02  0.70873011788E+03  0.00000000000E+00 0.  1.
</event>
<event>
 5    1  0.4881333E-005  0.2098956E+03  0.7818608E-02  0.1053556E+00
         -4   -1    0    0    0  501 -0.00000000000E+00  0.00000000000E+00  0.19176282017E+03  0.19176282017E+03  0.00000000000E+00 0. -1.
         21   -1    0    0  501  502  0.00000000000E+00 -0.00000000000E+00 -0.87109210252E+03  0.87109210252E+03  0.00000000000E+00 0.  1.
        -13    1    1    2    0    0  0.11841396973E+03 -0.21640477234E+03  0.51500984215E+01  0.24673756990E+03  0.10566000000E+00 0.  1.
         13    1    1    2    0    0 -0.31536801834E+02  0.17407982645E+03 -0.63963748694E+02  0.18812157812E+03  0.10566000000E+00 0. -1.
         -4    1    1    2    0  502 -0.86877167897E+02  0.42324945899E+02 -0.62051563208E+03  0.62799577467E+03  0.00000000000E+00 0. -1.
</event>
<event>
 5    1  0.4881333E-005  0.3334055E+02  0.7818608E-02  0.1379934E+00
         -4   -1    0    0    0  501 -0.00000000000E+00  0.00000000000E+00  0.10726387635E+03  0.10726387635E+03  0.00000000000E+00 0. -1.
         21   -1    0    0  501  502  0.00000000000E+00 -0.00000000000E+00 -0.74039998701E+02  0.74039998701E+02  0.00000000000E+00 0. -1.
        -13    1    1    2    0    0  0.19551161446E+01  0.24007323832E+02  0.18824420009E+02  0.30570312877E+02  0.10566000000E+00 0.  1.
         13    1    1    2    0    0 -0.70833875580E+01 -0.41308131072E+02  0.75866048378E+02  0.86672974638E+02  0.10566000000E+00 0. -1.
         -4    1    1    2    0  502  0.51282714134E+01  0.17300807240E+02 -0.61466590737E+02  0.64060587538E+02  0.00000000000E+00 0. -1.
</event>
<event>
 5    1  0.4881333E-005  0.9183753E+03  0.7818608E-02  0.9245962E-01
         -4   -1    0    0    0  501 -0.00000000000E+00  0.00000000000E+00  0.18081705634E+04  0.18081705634E+04  0.00000000000E+00 0. -1.
         21   -1    0    0  501  502  0.00000000000E+00 -0.00000000000E+00 -0.91709819740E+03  0.91709819740E+03  0.00000000000E+00 0.  1.
        -13    1    1    2    0    0 -0.36158684748E+03  0.95707189869E+03  0.79094877595E+03  0.12931866241E+04  0.10566000000E+00 0.  1.
         13    1    1    2    0    0 -0.65478899761E+02 -0.14403554667E+03  0.42848960881E+03  0.45676808233E+03  0.10566000000E+00 0. -1.
         -4    1    1    2    0  502  0.42706574724E+03 -0.81303635202E+03 -0.32836601880E+03  0.97531405428E+03  0.00000000000E+00 0. -1.
</event>
<event>
 5    1  0.4881333E-005  0.8588265E+02  0.7818608E-02  0.1190296E+00
          4   -1    0    0  502    0 -0.00000000000E+00  0.00000000000E+00  0.31447260534E+03  0.31447260534E+03  0.00000000000E+00 0.  1.
         21   -1    0    0  501  502  0.00000000000E+00 -0.00000000000E+00 -0.55300557297E+02  0.55300557297E+02  0.00000000000E+00 0.  1.
        -13    1    1    2    0    0 -0.65675060235E+02  0.73062878898E+02  0.15158905902E+03  0.18063956319E+03  0.10566000000E+00 0.  1.
         13    1    1    2    0    0  0.79789057583E+02 -0.18709253620E+02  0.10462270515E+03  0.13289940360E+03  0.10566000000E+00 0. -1.
          4    1    1    2  501    0 -0.14113997348E+02 -0.54353625278E+02  0.29602838715E+01  0.56234195847E+02  0.00000000000E+00 0.  1.
</event>
<event>
 5    1  0.4881333E-005  0.5684569E+02  0.7818608E-02  0.1266178E+00
         -4   -1    0    0    0  501 -0.00000000000E+00  0.00000000000E+00  0.11903049792E+03  0.11903049792E+03  0.00000000000E+00 0. -1.
         21   -1    0    0  501  502  0.00000000000E+00 -0.00000000000E+00 -0.97961189586E+02  0.97961189586E+02  0.00000000000E+00 0. -1.
        -13    1    1    2    0    0  0.17985615380E+02  0.38759489868E+02 -0.43981765518E+01  0.42955040873E+02  0.10566000000E+00 0.  1.
         13    1    1    2    0    0 -0.32053042604E+01 -0.64268608969E+02  0.85586215156E+02  0.10707819322E+03  0.10566000000E+00 0. -1.
         -4    1    1    2    0  502 -0.14780311119E+02  0.25509119102E+02 -0.60118730271E+02  0.66958453414E+02  0.00000000000E+00 0. -1.
</event>
<event>
 5    1  0.4881333E-005  0.8109414E+02  0.7818608E-02  0.1200299E+00
         21   -1    0    0  501  502  0.00000000000E+00  0.00000000000E+00  0.14366771145E+03  0.14366771145E+03  0.00000000000E+00 0. -1.
          4   -1    0    0  502    0 -0.00000000000E+00 -0.00000000000E+00 -0.14367385049E+03  0.14367385049E+03  0.00000000000E+00 0.  1.
        -13    1    1    2    0    0 -0.55963680001E+02  0.55609879036E+02 -0.97145679131E+02  0.12514665902E+03  0.10566000000E+00 0.  1.
         13    1    1    2    0    0  0.70688275108E+02 -0.58675765954E+02  0.35078120806E+02  0.98336989334E+02  0.10566000000E+00 0. -1.
          4    1    1    2  501    0 -0.14724595106E+02  0.30658869177E+01  0.62061419289E+02  0.63857913588E+02  0.00000000000E+00 0.  1.
</event>
<event>
 5    1  0.4881333E-005  0.4802568E+03  0.7818608E-02  0.9606304E-01
         21   -1    0    0  501  502  0.00000000000E+00  0.00000000000E+00  0.18065835521E+03  0.18065835521E+03  0.00000000000E+00 0. -1.
         -4   -1    0    0    0  501 -0.00000000000E+00 -0.00000000000E+00 -0.32977844031E+04  0.32977844031E+04  0.00000000000E+00 0. -1.
        -13    1    1    2    0    0  0.21125789361E+03 -0.28582699017E+03 -0.16568830255E+04  0.16945761527E+04  0.10566000000E+00 0.  1.
         13    1    1    2    0    0  0.36697888049E+03  0.35879462006E+02 -0.74160248103E+03  0.82821198105E+03  0.10566000000E+00 0. -1.
         -4    1    1    2    0  502 -0.57823677410E+03  0.24994752816E+03 -0.71864054132E+03  0.95565462453E+03  0.00000000000E+00 0. -1.
</event>
<event>
 5    1  0.4881333E-005  0.4946069E+03  0.7818608E-02  0.9569237E-01
         -4   -1    0    0    0  501 -0.00000000000E+00  0.00000000000E+00  0.17943754031E+04  0.17943754031E+04  0.00000000000E+00 0. -1.
         21   -1    0    0  501  502  0.00000000000E+00 -0.00000000000E+00 -0.37741562112E+03  0.37741562112E+03  0.00000000000E+00 0. -1.
        -13    1    1    2    0    0 -0.45645560120E+02  0.36855100030E+03  0.94229184432E+03  0.10128313226E+04  0.10566000000E+00 0.  1.
         13    1    1    2    0    0 -0.14132767770E+03  0.28962135555E+03  0.32676090786E+03  0.45894089395E+03  0.10566000000E+00 0. -1.
         -4    1    1    2    0  502  0.18697323782E+03 -0.65817235584E+03  0.14790702981E+03  0.70001880769E+03  0.00000000000E+00 0. -1.
</event>
<event>
 5    1  0.4881333E-005  0.4864165E+03  0.7818608E-02  0.9508252E-01
         21   -1    0    0  501  502  0.00000000000E+00  0.00000000000E+00  0.25813339059E+03  0.25813339059E+03  0.00000000000E+00 0. -1.
          4   -1    0    0  502    0 -0.00000000000E+00 -0.00000000000E+00 -0.15137348612E+04  0.15137348612E+04  0.00000000000E+00 0.  1.
        -13    1    1    2    0    0  0.50736538214E+03  0.59308094878E+01 -0.96383996129E+03  0.10892393161E+04  0.10566000000E+00 0.  1.
         13    1    1    2    0    0 -0.44261593970E+03  0.10883178094E+03 -0.30764305361E+03  0.54990679776E+03  0.10566000000E+00 0. -1.
          4    1    1    2  501    0 -0.64749442437E+02 -0.11476259043E+03  0.15881544303E+02  0.13272213797E+03  0.00000000000E+00 0.  1.
</event>
<event>
 5    1  0.4881333E-005  0.7014032E+02  0.7818608E-02  0.1226360E+00
         -4   -1    0    0    0  501 -0.00000000000E+00  0.00000000000E+00  0.13629907143E+03  0.13629907143E+03  0.00000000000E+00 0. -1.
         21   -1    0    0  501  502  0.00000000000E+00 -0.00000000000E+00 -0.28900365585E+03  0.28900365585E+03  0.00000000000E+00 0.  1.
        -13    1    1    2    0    0  0.10942697583E+01 -0.57212357136E+02 -0.81380343480E+02  0.99484786296E+02  0.10566000000E+00 0.  1.
         13    1    1    2    0    0  0.17209163690E+02  0.69701913230E+02  0.11641613866E+03  0.13677441474E+03  0.10566000000E+00 0. -1.
         -4    1    1    2    0  502 -0.18303433448E+02 -0.12489556094E+02 -0.18774037960E+03  0.18904352625E+03  0.00000000000E+00 0. -1.
</event>
<event>
 5    1  0.4881333E-005  0.4895579E+03  0.7818608E-02  0.9501605E-01
         21   -1    0    0  501  502  0.00000000000E+00  0.00000000000E+00  0.95417578864E+03  0.95417578864E+03  0.00000000000E+00 0. -1.
          4   -1    0    0  502    0 -0.00000000000E+00 -0.00000000000E+00 -0.67308854368E+03  0.67308854368E+03  0.00000000000E+00 0.  1.
        -13    1    1    2    0    0  0.15639665123E+03 -0.12257629780E+03 -0.24630983449E+03  0.31647023087E+03  0.10566000000E+00 0.  1.
         13    1    1    2    0    0  0.28912722388E+03 -0.39407330739E+03  0.80788615448E+02  0.49539391875E+03  0.10566000000E+00 0. -1.
          4    1    1    2  501    0 -0.44552387511E+03  0.51664960519E+03  0.44660846400E+03  0.81540018270E+03  0.00000000000E+00 0.  1.
</event>
<event>
 5    1  0.4881333E-005  0.4673454E+02  0.7818608E-02  0.1305687E+00
         21   -1    0    0  501  502  0.00000000000E+00  0.00000000000E+00  0.40453224109E+02  0.40453224109E+02  0.00000000000E+00 0. -1.
          4   -1    0    0  502    0 -0.00000000000E+00 -0.00000000000E+00 -0.75037701972E+02  0.75037701972E+02  0.00000000000E+00 0.  1.
        -13    1    1    2    0    0  0.16200981648E+02 -0.43824631645E+02 -0.16756231839E+02  0.49637209981E+02  0.10566000000E+00 0.  1.
         13    1    1    2    0    0 -0.41094718253E+01  0.47373654800E+02 -0.22248815218E+02  0.52499255903E+02  0.10566000000E+00 0. -1.
          4    1    1    2  501    0 -0.12091509823E+02 -0.35490231545E+01  0.44205691942E+01  0.13354460197E+02  0.00000000000E+00 0.  1.
</event>
<event>
 5    1  0.4881333E-005  0.1683024E+03  0.7818608E-02  0.1084342E+00
         21   -1    0    0  501  502  0.00000000000E+00  0.00000000000E+00  0.22167568452E+03  0.22167568452E+03  0.00000000000E+00 0.  1.
          4   -1    0    0  502    0 -0.00000000000E+00 -0.00000000000E+00 -0.64757807737E+03  0.64757807737E+03  0.00000000000E+00 0.  1.
        -13    1    1    2    0    0 -0.15699101588E+03  0.62135033334E+02 -0.54282304407E+03  0.56847498606E+03  0.10566000000E+00 0.  1.
         13    1    1    2    0    0  0.16061424817E+03 -0.42448883926E+02 -0.15502998806E+02  0.16685082738E+03  0.10566000000E+00 0. -1.
          4    1    1    2  501    0 -0.36232322933E+01 -0.19686149407E+02  0.13242365003E+03  0.13392794845E+03  0.00000000000E+00 0.  1.
</event>
<event>
 5    1  0.4881333E-005  0.4142597E+02  0.7818608E-02  0.1349862E+00
          4   -1    0    0  502    0 -0.00000000000E+00  0.00000000000E+00  0.41982589498E+03  0.41982589498E+03  0.00000000000E+00 0.  1.
         21   -1    0    0  501  502  0.00000000000E+00 -0.00000000000E+00 -0.62408051969E+02  0.62408051969E+02  0.00000000000E+00 0. -1.
        -13    1    1    2    0    0  0.54545906747E+02  0.42312786743E+02  0.38552436245E+03  0.39165632010E+03  0.10566000000E+00 0.  1.
         13    1    1    2    0    0 -0.23887448824E+02 -0.17318978515E+02 -0.39602536655E+02  0.49385517124E+02  0.10566000000E+00 0. -1.
          4    1    1    2  501    0 -0.30658457923E+02 -0.24993808227E+02  0.11496017216E+02  0.41192109727E+02  0.00000000000E+00 0.  1.
</event>
<event>
 5    1  0.4881333E-005  0.5037415E+03  0.7818608E-02  0.9968393E-01
         -4   -1    0    0    0  501 -0.00000000000E+00  0.00000000000E+00  0.90995389670E+03  0.90995389670E+03  0.00000000000E+00 0. -1.
         21   -1    0    0  501  502  0.00000000000E+00 -0.00000000000E+00 -0.33334934082E+03  0.33334934082E+03  0.00000000000E+00 0. -1.
        -13    1    1    2    0    0  0.31016423353E+02 -0.83600676578E+02  0.60903901812E+02  0.10798327677E+03  0.10566000000E+00 0.  1.
         13    1    1    2    0    0  0.11636246621E+03  0.52776364624E+03  0.23253524265E+03  0.58834287629E+03  0.10566000000E+00 0. -1.
         -4    1    1    2    0  502 -0.14737888957E+03 -0.44416296967E+03  0.28316541142E+03  0.54697708447E+03  0.00000000000E+00 0. -1.
</event>
<event>
 5    1  0.4881333E-005  0.1086729E+03  0.7818608E-02  0.1150952E+00
         21   -1    0    0  501  502  0.00000000000E+00  0.00000000000E+00  0.30978271096E+03  0.30978271096E+03  0.00000000000E+00 0. -1.
         -4   -1    0    0    0  501 -0.00000000000E+00 -0.00000000000E+00 -0.13588520413E+03  0.13588520413E+03  0.00000000000E+00 0. -1.
        -13    1    1    2    0    0  0.21549535550E+02 -0.98636186032E+02  0.60098338117E+01  0.10114152927E+03  0.10566000000E+00 0.  1.
         13    1    1    2    0    0 -0.78119042733E+01  0.11424735002E+03 -0.50497150316E+02  0.12515373023E+03  0.10566000000E+00 0. -1.
         -4    1    1    2    0  502 -0.13737631277E+02 -0.15611163990E+02  0.21838482334E+03  0.21937265559E+03  0.00000000000E+00 0. -1.
</event>
<event>
 5    1  0.4881333E-005  0.6675841E+02  0.7818608E-02  0.1272681E+00
         21   -1    0    0  501  502  0.00000000000E+00  0.00000000000E+00  0.10774642953E+03  0.10774642953E+03  0.00000000000E+00 0. -1.
         -4   -1    0    0    0  501 -0.00000000000E+00 -0.00000000000E+00 -0.23680881642E+03  0.23680881642E+03  0.00000000000E+00 0. -1.
        -13    1    1    2    0    0 -0.22902747412E+02  0.20516899181E+02  0.30597661202E+02  0.43378647122E+02  0.10566000000E+00 0.  1.
         13    1    1    2    0    0 -0.32092544312E+02 -0.59204272396E+02 -0.20782654618E+03  0.21846501260E+03  0.10566000000E+00 0. -1.
         -4    1    1    2    0  502  0.54995291724E+02  0.38687373215E+02  0.48166498085E+02  0.82711586225E+02  0.00000000000E+00 0. -1.
</event>
<event>
 5    1  0.4881333E-005  0.4092693E+03  0.7818608E-02  0.9876355E-01
         -4   -1    0    0    0  501 -0.00000000000E+00  0.00000000000E+00  0.33189540058E+04  0.33189540058E+04  0.00000000000E+00 0. -1.
         21   -1    0    0  501  502  0.00000000000E+00 -0.00000000000E+00 -0.12803963294E+03  0.12803963294E+03  0.00000000000E+00 0. -1.
        -13    1    1    2    0    0  0.21766676787E+03 -0.60441596753E+02  0.10458629262E+04  0.10699819064E+04  0.10566000000E+00 0.  1.
         13    1    1    2    0    0 -0.26962194729E+03  0.35596328067E+03  0.37914804689E+03  0.58579783566E+03  0.10566000000E+00 0. -1.
         -4    1    1    2    0  502  0.51955179418E+02 -0.29552168392E+03  0.17659033998E+04  0.17912138967E+04  0.00000000000E+00 0. -1.
</event>
<event>
 5    1  0.4881333E-005  0.3840612E+03  0.7818608E-02  0.9776240E-01
         21   -1    0    0  501  502  0.00000000000E+00  0.00000000000E+00  0.18897172905E+03  0.18897172905E+03  0.00000000000E+00 0.  1.
         -4   -1    0    0    0  501 -0.00000000000E+00 -0.00000000000E+00 -0.15322270257E+04  0.15322270257E+04  0.00000000000E+00 0. -1.
        -13    1    1    2    0    0 -0.36066248143E+02  0.36714369212E+03 -0.30706343835E+03  0.47998253224E+03  0.10566000000E+00 0.  1.
         13    1    1    2    0    0  0.47698171253E+02 -0.38702466191E+03 -0.11033421617E+04  0.11702252524E+04  0.10566000000E+00 0. -1.
         -4    1    1    2    0  502 -0.11631923109E+02  0.19880969793E+02  0.67150303371E+02  0.70990970115E+02  0.00000000000E+00 0. -1.
</event>
<event>
 5    1  0.4881333E-005  0.4724994E+03  0.7818608E-02  0.9807430E-01
         -4   -1    0    0    0  501 -0.00000000000E+00  0.00000000000E+00  0.20527653767E+04  0.20527653767E+04  0.00000000000E+00 0. -1.
         21   -1    0    0  501  502  0.00000000000E+00 -0.00000000000E+00 -0.17385453752E+03  0.17385453752E+03  0.00000000000E+00 0. -1.
        -13    1    1    2    0    0 -0.14024921044E+03 -0.12123594717E+03  0.28564725428E+03  0.34053246682E+03  0.10566000000E+00 0.  1.
         13    1    1    2    0    0  0.31853414194E+03 -0.33528591698E+03  0.10878314270E+04  0.11820566274E+04  0.10566000000E+00 0. -1.
         -4    1    1    2    0  502 -0.17828493150E+03  0.45652186414E+03  0.50543215790E+03  0.70403081997E+03  0.00000000000E+00 0. -1.
</event>
<event>
 5    1  0.4881333E-005  0.3304691E+03  0.7818608E-02  0.1007877E+00
         21   -1    0    0  501  502  0.00000000000E+00  0.00000000000E+00  0.11340645194E+04  0.11340645194E+04  0.00000000000E+00 0.  1.
          4   -1    0    0  502    0 -0.00000000000E+00 -0.00000000000E+00 -0.31047792234E+03  0.31047792234E+03  0.00000000000E+00 0.  1.
        -13    1    1    2    0    0 -0.33172995141E+03 -0.22720332271E+03 -0.50485202563E+02  0.40523434869E+03  0.10566000000E+00 0.  1.
         13    1    1    2    0    0  0.20695817333E+03 -0.75607470211E+02  0.24102663505E+03  0.32656090554E+03  0.10566000000E+00 0. -1.
          4    1    1    2  501    0  0.12477177808E+03  0.30281079292E+03  0.63304516455E+03  0.71274718749E+03  0.00000000000E+00 0.  1.
</event>
<event>
 5    1  0.4881333E-005  0.3743677E+02  0.7818608E-02  0.1369893E+00
         21   -1    0    0  501  502  0.00000000000E+00  0.00000000000E+00  0.14018859516E+03  0.14018859516E+03  0.00000000000E+00 0. -1.
         -4   -1    0    0    0  501 -0.00000000000E+00 -0.00000000000E+00 -0.30401035031E+03  0.30401035031E+03  0.00000000000E+00 0. -1.
        -13    1    1    2    0    0  0.13969599254E+02  0.24301121313E+02 -0.11794959913E+01  0.28055241493E+02  0.10566000000E+00 0.  1.
         13    1    1    2    0    0 -0.46904229378E+02 -0.41611669866E+02 -0.28315696395E+03  0.29001623265E+03  0.10566000000E+00 0. -1.
         -4    1    1    2    0  502  0.32934630124E+02  0.17310548554E+02  0.12051470479E+03  0.12612747132E+03  0.00000000000E+00 0. -1.
</event>
<event>
 5    1  0.4881333E-005  0.8596369E+02  0.7818608E-02  0.1190133E+00
          4   -1    0    0  502    0 -0.00000000000E+00  0.00000000000E+00  0.15601246528E+03  0.15601246528E+03  0.00000000000E+00 0.  1.
         21   -1    0    0  501  502  0.00000000000E+00 -0.00000000000E+00 -0.89995929485E+02  0.89995929485E+02  0.00000000000E+00 0. -1.
        -13    1    1    2    0    0 -0.13340550650E+02 -0.93905800154E+02  0.31530905608E+02  0.99952382497E+02  0.10566000000E+00 0.  1.
         13    1    1    2    0    0  0.47812571877E+02  0.68932388676E+02  0.53432429246E+02  0.99462313955E+02  0.10566000000E+00 0. -1.
          4    1    1    2  501    0 -0.34472021227E+02  0.24973411478E+02 -0.18946799056E+02  0.46593698317E+02  0.00000000000E+00 0.  1.
</event>
<event>
 5    1  0.4881333E-005  0.5047139E+03  0.7818608E-02  0.9920512E-01
         -4   -1    0    0    0  501 -0.00000000000E+00  0.00000000000E+00  0.15057962459E+04  0.15057962459E+04  0.00000000000E+00 0. -1.
         21   -1    0    0  501  502  0.00000000000E+00 -0.00000000000E+00 -0.20994941233E+03  0.20994941233E+03  0.00000000000E+00 0. -1.
        -13    1    1    2    0    0 -0.99847997516E+02  0.28750952095E+02  0.74602443315E+02  0.12791315635E+03  0.10566000000E+00 0.  1.
         13    1    1    2    0    0  0.53205167279E+03 -0.16264775968E+03  0.58736101426E+03  0.80902796520E+03  0.10566000000E+00 0. -1.
         -4    1    1    2    0  502 -0.43220367527E+03  0.13389680758E+03  0.63388337603E+03  0.77880453671E+03  0.00000000000E+00 0. -1.
</event>
<event>
 5    1  0.4881333E-005  0.9894154E+02  0.7818608E-02  0.1166319E+00
         21   -1    0    0  501  502  0.00000000000E+00  0.00000000000E+00  0.10070960863E+04  0.10070960863E+04  0.00000000000E+00 0.  1.
          4   -1    0    0  502    0 -0.00000000000E+00 -0.00000000000E+00 -0.24532573614E+02  0.24532573614E+02  0.00000000000E+00 0.  1.
        -13    1    1    2    0    0  0.39649194155E+02 -0.80919145396E+02  0.18383189628E+03  0.20472944083E+03  0.10566000000E+00 0.  1.
         13    1    1    2    0    0 -0.54356931095E+02  0.94140984726E+02  0.19829832419E+03  0.22614030491E+03  0.10566000000E+00 0. -1.
          4    1    1    2  501    0  0.14707736940E+02 -0.13221839330E+02  0.60043329216E+03  0.60075891412E+03  0.00000000000E+00 0.  1.
</event>
<event>
 5    1  0.4881333E-005  0.4634717E+03  0.7818608E-02  0.9869238E-01
         21   -1    0    0  501  502  0.00000000000E+00  0.00000000000E+00  0.28684986266E+03  0.28684986266E+03  0.00000000000E+00 0.  1.
          4   -1    0    0  502    0 -0.00000000000E+00 -0.00000000000E+00 -0.14140115013E+04  0.14140115013E+04  0.00000000000E+00 0.  1.
        -13    1    1    2    0    0  0.49227098390E+03 -0.18793030289E+03 -0.56616522789E+03  0.77342846907E+03  0.10566000000E+00 0.  1.
         13    1    1    2    0    0 -0.13904141969E+03 -0.77789810497E+02 -0.44176658809E+03  0.46961846272E+03  0.10566000000E+00 0. -1.
          4    1    1    2  501    0 -0.35322956421E+03  0.26572011339E+03 -0.11922982267E+03  0.45781443218E+03  0.00000000000E+00 0.  1.
</event>
<event>
 5    1  0.4881333E-005  0.4129447E+03  0.7818608E-02  0.1071146E+00
         -4   -1    0    0    0  501 -0.00000000000E+00  0.00000000000E+00  0.18713579502E+03  0.18713579502E+03  0.00000000000E+00 0. -1.
         21   -1    0    0  501  502  0.00000000000E+00 -0.00000000000E+00 -0.22142066644E+04  0.22142066644E+04  0.00000000000E+00 0. -1.
        -13    1    1    2    0    0  0.11043202835E+02  0.12306044802E+02  0.81062453706E+02  0.82731636224E+02  0.10566000000E+00 0.  1.
         13    1    1    2    0    0 -0.20331032135E+03 -0.36389105422E+03 -0.16851974373E+04  0.17359845046E+04  0.10566000000E+00 0. -1.
         -4    1    1    2    0  502  0.19226711852E+03  0.35158500942E+03 -0.42293588575E+03  0.58262631864E+03  0.00000000000E+00 0. -1.
</event>
<event>
 5    1  0.4881333E-005  0.9137511E+02  0.7818608E-02  0.1179672E+00
         21   -1    0    0  501  502  0.00000000000E+00  0.00000000000E+00  0.82323832099E+02  0.82323832099E+02  0.00000000000E+00 0.  1.
         -4   -1    0    0    0  501 -0.00000000000E+00 -0.00000000000E+00 -0.17177016890E+03  0.17177016890E+03  0.00000000000E+00 0. -1.
        -13    1    1    2    0    0 -0.86978508121E+02  0.34011320491E+02 -0.21604028568E+01  0.93416857692E+02  0.10566000000E+00 0.  1.
         13    1    1    2    0    0  0.89204075934E+02 -0.17984291758E+02 -0.10346926072E+03  0.13779223850E+03  0.10566000000E+00 0. -1.
         -4    1    1    2    0  502 -0.22255678134E+01 -0.16027028733E+02  0.16183326780E+02  0.22884904801E+02  0.00000000000E+00 0. -1.
</event>
<event>
 5    1  0.4881333E-005  0.2046585E+02  0.7818608E-02  0.1516296E+00
          4   -1    0    0  502    0 -0.00000000000E+00  0.00000000000E+00  0.25001663294E+03  0.25001663294E+03  0.00000000000E+00 0.  1.
         21   -1    0    0  501  502  0.00000000000E+00 -0.00000000000E+00 -0.44528451535E+01  0.44528451535E+01  0.00000000000E+00 0.  1.
        -13    1    1    2    0    0  0.22742207774E+01 -0.29937027656E+02  0.11834747234E+03  0.12209640895E+03  0.10566000000E+00 0.  1.
         13    1    1    2    0    0 -0.98375030593E+01  0.13889321820E+02  0.83063571448E+02  0.84789491051E+02  0.10566000000E+00 0. -1.
          4    1    1    2  501    0  0.75632822819E+01  0.16047705836E+02  0.44152743993E+02  0.47583578087E+02  0.00000000000E+00 0.  1.
</event>
<event>
 5    1  0.4881333E-005  0.2198263E+03  0.7818608E-02  0.1047333E+00
         21   -1    0    0  501  502  0.00000000000E+00  0.00000000000E+00  0.80517839778E+02  0.80517839778E+02  0.00000000000E+00 0.  1.
          4   -1    0    0  502    0 -0.00000000000E+00 -0.00000000000E+00 -0.16908475145E+04  0.16908475145E+04  0.00000000000E+00 0.  1.
        -13    1    1    2    0    0 -0.63164165033E+02 -0.32779604092E+03 -0.45998248294E+03  0.56835187337E+03  0.10566000000E+00 0.  1.
         13    1    1    2    0    0 -0.17935251615E+02  0.18905593217E+03 -0.56841426921E+03  0.59929843262E+03  0.10566000000E+00 0. -1.
          4    1    1    2  501    0  0.81099416648E+02  0.13874010875E+03 -0.58193292262E+03  0.60371504834E+03  0.00000000000E+00 0.  1.
</event>
<event>
 5    1  0.4881333E-005  0.3561287E+03  0.7818608E-02  0.1019069E+00
         -4   -1    0    0    0  501 -0.00000000000E+00  0.00000000000E+00  0.10234039936E+04  0.10234039936E+04  0.00000000000E+00 0. -1.
         21   -1    0    0  501  502  0.00000000000E+00 -0.00000000000E+00 -0.49160455374E+03  0.49160455374E+03  0.00000000000E+00 0. -1.
        -13    1    1    2    0    0 -0.10859904460E+03 -0.58106708417E+02  0.50612150295E+03  0.52089262709E+03  0.10566000000E+00 0.  1.
         13    1    1    2    0    0  0.21147188261E+03  0.38458514436E+03  0.31960878308E+03  0.54293266229E+03  0.10566000000E+00 0. -1.
         -4    1    1    2    0  502 -0.10287283801E+03 -0.32647843595E+03 -0.29393084616E+03  0.45118325796E+03  0.00000000000E+00 0. -1.
</event>
<event>
 5    1  0.4881333E-005  0.5587125E+03  0.7818608E-02  0.9579808E-01
         21   -1    0    0  501  502  0.00000000000E+00  0.00000000000E+00  0.53791036125E+03  0.53791036125E+03  0.00000000000E+00 0. -1.
         -4   -1    0    0    0  501 -0.00000000000E+00 -0.00000000000E+00 -0.33867858924E+04  0.33867858924E+04  0.00000000000E+00 0. -1.
        -13    1    1    2    0    0 -0.15236860097E+03 -0.10828967764E+04 -0.18127197419E+04  0.21170343626E+04  0.10566000000E+00 0.  1.
         13    1    1    2    0    0 -0.63642841855E+02  0.27273899342E+03 -0.91940058612E+03  0.96111103353E+03  0.10566000000E+00 0. -1.
         -4    1    1    2    0  502  0.21601144282E+03  0.81015778298E+03 -0.11675520312E+03  0.84655085743E+03  0.00000000000E+00 0. -1.
</event>
<event>
 5    1  0.4881333E-005  0.4130335E+03  0.7818608E-02  0.9692140E-01
         -4   -1    0    0    0  501 -0.00000000000E+00  0.00000000000E+00  0.24558955641E+04  0.24558955641E+04  0.00000000000E+00 0. -1.
         21   -1    0    0  501  502  0.00000000000E+00 -0.00000000000E+00 -0.11857284373E+03  0.11857284373E+03  0.00000000000E+00 0. -1.
        -13    1    1    2    0    0 -0.23157324340E+03  0.32520352499E+03  0.16216413869E+04  0.16700611661E+04  0.10566000000E+00 0.  1.
         13    1    1    2    0    0  0.22527621661E+03 -0.39246495462E+03  0.70241307707E+03  0.83556104289E+03  0.10566000000E+00 0. -1.
         -4    1    1    2    0  502  0.62970267899E+01  0.67261429631E+02  0.13268256387E+02  0.68846198806E+02  0.00000000000E+00 0. -1.
</event>
<event>
 5    1  0.4881333E-005  0.1604160E+03  0.7818608E-02  0.1102991E+00
         21   -1    0    0  501  502  0.00000000000E+00  0.00000000000E+00  0.56438904413E+03  0.56438904413E+03  0.00000000000E+00 0. -1.
          4   -1    0    0  502    0 -0.00000000000E+00 -0.00000000000E+00 -0.18033429878E+03  0.18033429878E+03  0.00000000000E+00 0.  1.
        -13    1    1    2    0    0 -0.84720802371E+02  0.27393972687E+02 -0.12021094571E+03  0.14959520957E+03  0.10566000000E+00 0.  1.
         13    1    1    2    0    0 -0.31798431055E+02  0.11214918809E+03  0.29907086221E+03  0.32098593800E+03  0.10566000000E+00 0. -1.
          4    1    1    2  501    0  0.11651923343E+03 -0.13954316078E+03  0.20519482886E+03  0.27414219534E+03  0.00000000000E+00 0.  1.
</event>
<event>
 5    1  0.4881333E-005  0.3829444E+03  0.7818608E-02  0.1002778E+00
          4   -1    0    0  502    0 -0.00000000000E+00  0.00000000000E+00  0.70763533456E+03  0.70763533456E+03  0.00000000000E+00 0.  1.
         21   -1    0    0  501  502  0.00000000000E+00 -0.00000000000E+00 -0.58830113234E+03  0.58830113234E+03  0.00000000000E+00 0.  1.
        -13    1    1    2    0    0 -0.81346873168E+02  0.49517189194E+03  0.19244951191E+03  0.53744705985E+03  0.10566000000E+00 0.  1.
         13    1    1    2    0    0 -0.45796426207E+02 -0.16065775662E+03  0.23358927460E+03  0.28717971340E+03  0.10566000000E+00 0. -1.
          4    1    1    2  501    0  0.12714329937E+03 -0.33451413532E+03 -0.30670458429E+03  0.47130969365E+03  0.00000000000E+00 0.  1.
</event>
<event>
 5    1  0.4881333E-005  0.9339320E+02  0.7818608E-02  0.1175975E+00
          4   -1    0    0  502    0 -0.00000000000E+00  0.00000000000E+00  0.19815732691E+03  0.19815732691E+03  0.00000000000E+00 0.  1.
         21   -1    0    0  501  502  0.00000000000E+00 -0.00000000000E+00 -0.87987982341E+02  0.87987982341E+02  0.00000000000E+00 0.  1.
        -13    1    1    2    0    0 -0.22038025101E+02 -0.79238182629E+02  0.38369167565E+02  0.90755541540E+02  0.10566000000E+00 0.  1.
         13    1    1    2    0    0  0.65059905437E+02  0.84402369164E+02  0.97980204665E+02  0.14476423207E+03  0.10566000000E+00 0. -1.
          4    1    1    2  501    0 -0.43021880335E+02 -0.51641865358E+01 -0.26180027665E+02  0.50625535639E+02  0.00000000000E+00 0.  1.
</event>
<event>
 5    1  0.4881333E-005  0.4929612E+03  0.7818608E-02  0.9707252E-01
          4   -1    0    0  502    0 -0.00000000000E+00  0.00000000000E+00  0.11300366476E+04  0.11300366476E+04  0.00000000000E+00 0.  1.
         21   -1    0    0  501  502  0.00000000000E+00 -0.00000000000E+00 -0.35438510556E+03  0.35438510556E+03  0.00000000000E+00 0.  1.
        -13    1    1    2    0    0 -0.33067923083E+03  0.24265529562E+03  0.24676348041E+03  0.47866749693E+03  0.10566000000E+00 0.  1.
         13    1    1    2    0    0 -0.22713019750E+03  0.39194801218E+02  0.14391692252E+03  0.27172863451E+03  0.10566000000E+00 0. -1.
          4    1    1    2  501    0  0.55780942833E+03 -0.28185009684E+03  0.38497113913E+03  0.73402562175E+03  0.00000000000E+00 0.  1.
</event>
<event>
 5    1  0.4881333E-005  0.4984522E+03  0.7818608E-02  0.9757099E-01
         -4   -1    0    0    0  501 -0.00000000000E+00  0.00000000000E+00  0.14259975820E+04  0.14259975820E+04  0.00000000000E+00 0. -1.
         21   -1    0    0  501  502  0.00000000000E+00 -0.00000000000E+00 -0.49595623130E+03  0.49595623130E+03  0.00000000000E+00 0. -1.
        -13    1    1    2    0    0  0.17932435083E+03  0.55202852434E+02  0.87388149226E+03  0.89379720933E+03  0.10566000000E+00 0.  1.
         13    1    1    2    0    0  0.20295279575E+03 -0.43661477904E+03 -0.24769043810E+02  0.48211598114E+03  0.10566000000E+00 0. -1.
         -4    1    1    2    0  502 -0.38227714659E+03  0.38141192660E+03  0.80928902247E+02  0.54604062283E+03  0.00000000000E+00 0. -1.
</event>
<event>
 5    1  0.4881333E-005  0.4984014E+03  0.7818608E-02  0.9486437E-01
          4   -1    0    0  502    0 -0.00000000000E+00  0.00000000000E+00  0.31534246327E+04  0.31534246327E+04  0.00000000000E+00 0.  1.
         21   -1    0    0  501  502  0.00000000000E+00 -0.00000000000E+00 -0.22404762037E+03  0.22404762037E+03  0.00000000000E+00 0. -1.
        -13    1    1    2    0    0 -0.16900509042E+03  0.54083641244E+03  0.59195816313E+03  0.81943957903E+03  0.10566000000E+00 0.  1.
         13    1    1    2    0    0 -0.31642505651E+03 -0.42787059627E+03  0.10416011766E+04  0.11696713580E+04  0.10566000000E+00 0. -1.
          4    1    1    2  501    0  0.48543014693E+03 -0.11296581617E+03  0.12958176726E+04  0.13883613160E+04  0.00000000000E+00 0.  1.
</event>
<event>
 5    1  0.4881333E-005  0.3899936E+03  0.7818608E-02  0.9758397E-01
         21   -1    0    0  501  502  0.00000000000E+00  0.00000000000E+00  0.62555161677E+03  0.62555161677E+03  0.00000000000E+00 0. -1.
         -4   -1    0    0    0  501 -0.00000000000E+00 -0.00000000000E+00 -0.80417767310E+03  0.80417767310E+03  0.00000000000E+00 0. -1.
        -13    1    1    2    0    0 -0.59158131149E+02  0.31399126684E+03 -0.20174949818E+03  0.37787970481E+03  0.10566000000E+00 0.  1.
         13    1    1    2    0    0  0.10987341712E+03 -0.47189650416E+03 -0.38011962478E+03  0.61583229757E+03  0.10566000000E+00 0. -1.
         -4    1    1    2    0  502 -0.50715285970E+02  0.15790523732E+03  0.40324306663E+03  0.43601728749E+03  0.00000000000E+00 0. -1.
</event>
<event>
 5    1  0.4881333E-005  0.3604270E+03  0.7818608E-02  0.1024633E+00
         -4   -1    0    0    0  501 -0.00000000000E+00  0.00000000000E+00  0.59841715927E+03  0.59841715927E+03  0.00000000000E+00 0. -1.
         21   -1    0    0  501  502  0.00000000000E+00 -0.00000000000E+00 -0.51629165138E+03  0.51629165138E+03  0.00000000000E+00 0. -1.
        -13    1    1    2    0    0  0.76045626818E+02  0.64577210212E+02 -0.17511620036E+02  0.10129077666E+03  0.10566000000E+00 0.  1.
         13    1    1    2    0    0 -0.27439874605E+02  0.35025299684E+03 -0.27980090657E+03  0.44913101317E+03  0.10566000000E+00 0. -1.
         -4    1    1    2    0  502 -0.48605752213E+02 -0.41483020705E+03  0.37943803450E+03  0.56428702081E+03  0.00000000000E+00 0. -1.
</event>
<event>
 5    1  0.4881333E-005  0.4621546E+03  0.7818608E-02  0.9686558E-01
         21   -1    0    0  501  502  0.00000000000E+00  0.00000000000E+00  0.56369344446E+03  0.56369344446E+03  0.00000000000E+00 0. -1.
         -4   -1    0    0    0  501 -0.00000000000E+00 -0.00000000000E+00 -0.80415973244E+03  0.80415973244E+03  0.00000000000E+00 0. -1.
        -13    1    1    2    0    0  0.25902461348E+03  0.15260329372E+03 -0.19251203976E+02  0.30125095130E+03  0.10566000000E+00 0.  1.
         13    1    1    2    0    0  0.26083721409E+03  0.37542180022E+02 -0.40513661619E+03  0.48330234479E+03  0.10566000000E+00 0. -1.
         -4    1    1    2    0  502 -0.51986182757E+03 -0.19014547374E+03  0.18392153219E+03  0.58329988081E+03  0.00000000000E+00 0. -1.
</event>
<event>
 5    1  0.4881333E-005  0.3946235E+03  0.7818608E-02  0.9750211E-01
         21   -1    0    0  501  502  0.00000000000E+00  0.00000000000E+00  0.54473206485E+03  0.54473206485E+03  0.00000000000E+00 0.  1.
          4   -1    0    0  502    0 -0.00000000000E+00 -0.00000000000E+00 -0.11964137785E+04  0.11964137785E+04  0.00000000000E+00 0.  1.
        -13    1    1    2    0    0 -0.91388900633E+02 -0.20769550941E+03 -0.45510049414E+03  0.50853301438E+03  0.10566000000E+00 0.  1.
         13    1    1    2    0    0  0.34686398977E+03 -0.17206223851E+03 -0.53711935856E+03  0.66213084646E+03  0.10566000000E+00 0. -1.
          4    1    1    2  501    0 -0.25547508914E+03  0.37975774791E+03  0.34053813902E+03  0.57048198254E+03  0.00000000000E+00 0.  1.
</event>
<event>
 5    1  0.4881333E-005  0.1350557E+03  0.7818608E-02  0.1116863E+00
         21   -1    0    0  501  502  0.00000000000E+00  0.00000000000E+00  0.16728237578E+03  0.16728237578E+03  0.00000000000E+00 0. -1.
         -4   -1    0    0    0  501 -0.00000000000E+00 -0.00000000000E+00 -0.42729234040E+03  0.42729234040E+03  0.00000000000E+00 0. -1.
        -13    1    1    2    0    0  0.67030820355E+02  0.11898561301E+03 -0.23608524572E+03  0.27273973196E+03  0.10566000000E+00 0.  1.
         13    1    1    2    0    0 -0.15780565764E+02 -0.13124726013E+03  0.11376498295E+03  0.17440571108E+03  0.10566000000E+00 0. -1.
         -4    1    1    2    0  502 -0.51250254591E+02  0.12261647120E+02 -0.13768970184E+03  0.14742927314E+03  0.00000000000E+00 0. -1.
</event>
<event>
 5    1  0.4881333E-005  0.4903141E+03  0.7818608E-02  0.9832410E-01
         21   -1    0    0  501  502  0.00000000000E+00  0.00000000000E+00  0.16823061069E+04  0.16823061069E+04  0.00000000000E+00 0.  1.
          4   -1    0    0  502    0 -0.00000000000E+00 -0.00000000000E+00 -0.20967419650E+03  0.20967419650E+03  0.00000000000E+00 0.  1.
        -13    1    1    2    0    0 -0.47047566746E+03  0.31324741238E+03  0.75120860324E+03  0.94009875639E+03  0.10566000000E+00 0.  1.
         13    1    1    2    0    0  0.67719128822E+02 -0.13652198051E+03  0.74561418918E+02  0.16965714817E+03  0.10566000000E+00 0. -1.
          4    1    1    2  501    0  0.40275653864E+03 -0.17672543187E+03  0.64686188826E+03  0.78222439885E+03  0.00000000000E+00 0.  1.
</event>
<event>
 5    1  0.4881333E-005  0.3603805E+03  0.7818608E-02  0.9878344E-01
         -4   -1    0    0    0  501 -0.00000000000E+00  0.00000000000E+00  0.28738313947E+04  0.28738313947E+04  0.00000000000E+00 0. -1.
         21   -1    0    0  501  502  0.00000000000E+00 -0.00000000000E+00 -0.18582632321E+03  0.18582632321E+03  0.00000000000E+00 0. -1.
        -13    1    1    2    0    0 -0.14216677014E+03  0.29633371100E+03  0.11209083780E+04  0.11681013063E+04  0.10566000000E+00 0.  1.
         13    1    1    2    0    0 -0.62811753789E+02 -0.56178715366E+03  0.14141442063E+04  0.15229425366E+04  0.10566000000E+00 0. -1.
         -4    1    1    2    0  502  0.20497852393E+03  0.26545344266E+03  0.15295248721E+03  0.36861387499E+03  0.00000000000E+00 0. -1.
</event>
<event>
 5    1  0.4881333E-005  0.1489287E+03  0.7818608E-02  0.1102173E+00
         21   -1    0    0  501  502  0.00000000000E+00  0.00000000000E+00  0.26948928984E+03  0.26948928984E+03  0.00000000000E+00 0. -1.
         -4   -1    0    0    0  501 -0.00000000000E+00 -0.00000000000E+00 -0.12396975290E+03  0.12396975290E+03  0.00000000000E+00 0. -1.
        -13    1    1    2    0    0  0.60116020571E+02 -0.13432565448E+03 -0.63170406248E+01  0.14729980837E+03  0.10566000000E+00 0.  1.
         13    1    1    2    0    0 -0.39867261721E+02  0.14816063880E+03  0.85968024382E+02  0.17587349381E+03  0.10566000000E+00 0. -1.
         -4    1    1    2    0  502 -0.20248758849E+02 -0.13834984316E+02  0.65868553190E+02  0.70285740554E+02  0.00000000000E+00 0. -1.
</event>
<event>
 5    1  0.4881333E-005  0.5285077E+03  0.7818608E-02  0.9763321E-01
         21   -1    0    0  501  502  0.00000000000E+00  0.00000000000E+00  0.40771308792E+03  0.40771308792E+03  0.00000000000E+00 0. -1.
          4   -1    0    0  502    0 -0.00000000000E+00 -0.00000000000E+00 -0.10396327403E+04  0.10396327403E+04  0.00000000000E+00 0.  1.
        -13    1    1    2    0    0  0.25699216856E+03 -0.53305700399E+03 -0.82550322522E+02  0.59750256160E+03  0.10566000000E+00 0.  1.
         13    1    1    2    0    0 -0.18296570970E+01  0.15405901588E+03 -0.27964551630E+03  0.31927911608E+03  0.10566000000E+00 0. -1.
          4    1    1    2  501    0 -0.25516251146E+03  0.37899798811E+03 -0.26972381360E+03  0.53056415057E+03  0.00000000000E+00 0.  1.
</event>
<event>
 5    1  0.4881333E-005  0.6076382E+02  0.7818608E-02  0.1300030E+00
          4   -1    0    0  502    0 -0.00000000000E+00  0.00000000000E+00  0.22035991604E+03  0.22035991604E+03  0.00000000000E+00 0.  1.
         21   -1    0    0  501  502  0.00000000000E+00 -0.00000000000E+00 -0.50475469900E+02  0.50475469900E+02  0.00000000000E+00 0.  1.
        -13    1    1    2    0    0 -0.47785257861E+02 -0.12009840718E+02  0.17457510057E+03  0.18139499455E+03  0.10566000000E+00 0.  1.
         13    1    1    2    0    0 -0.41012711204E+01 -0.23359755631E+02  0.86471471622E+01  0.25244463275E+02  0.10566000000E+00 0. -1.
          4    1    1    2  501    0  0.51886528981E+02  0.35369596349E+02 -0.13337801595E+02  0.64195928119E+02  0.00000000000E+00 0.  1.
</event>
<event>
 5    1  0.4881333E-005  0.3289367E+03  0.7818608E-02  0.1024118E+00
         -4   -1    0    0    0  501 -0.00000000000E+00  0.00000000000E+00  0.76668160029E+03  0.76668160029E+03  0.00000000000E+00 0. -1.
         21   -1    0    0  501  502  0.00000000000E+00 -0.00000000000E+00 -0.43315768365E+03  0.43315768365E+03  0.00000000000E+00 0. -1.
        -13    1    1    2    0    0  0.10782945091E+03  0.78507110021E+02  0.10156065682E+03  0.16764586182E+03  0.10566000000E+00 0.  1.
         13    1    1    2    0    0 -0.10659257102E+03 -0.39745788759E+03  0.47700778174E+03  0.62997712943E+03  0.10566000000E+00 0. -1.
         -4    1    1    2    0  502 -0.12368798907E+01  0.31895077757E+03 -0.24504452192E+03  0.40221629269E+03  0.00000000000E+00 0. -1.
</event>
<event>
 5    1  0.4881333E-005  0.5881962E+02  0.7818608E-02  0.1259535E+00
         -4   -1    0    0    0  501 -0.00000000000E+00  0.00000000000E+00  0.37397883719E+03  0.37397883719E+03  0.00000000000E+00 0. -1.
         21   -1    0    0  501  502  0.00000000000E+00 -0.00000000000E+00 -0.74484731117E+02  0.74484731117E+02  0.00000000000E+00 0.  1.
        -13    1    1    2    0    0 -0.50320556395E+02 -0.26269046325E+02 -0.31683247176E+02  0.65008157229E+02  0.10566000000E+00 0.  1.
         13    1    1    2    0    0  0.56662372646E+02  0.16363735001E+02  0.35341319360E+03  0.35830056220E+03  0.10566000000E+00 0. -1.
         -4    1    1    2    0  502 -0.63418162515E+01  0.99053113237E+01 -0.22235840354E+02  0.25154848877E+02  0.00000000000E+00 0. -1.
</event>
<event>
 5    1  0.4881333E-005  0.3677671E+03  0.7818608E-02  0.9827051E-01
         -4   -1    0    0    0  501 -0.00000000000E+00  0.00000000000E+00  0.61399364974E+03  0.61399364974E+03  0.00000000000E+00 0. -1.
         21   -1    0    0  501  502  0.00000000000E+00 -0.00000000000E+00 -0.11456030647E+04  0.11456030647E+04  0.00000000000E+00 0. -1.
        -13    1    1    2    0    0 -0.15732391643E+03  0.30617249668E+03  0.24626842650E+03  0.42324999877E+03  0.10566000000E+00 0.  1.
         13    1    1    2    0    0  0.75189255615E+02 -0.41526749174E+03  0.11153674839E+03  0.43650998987E+03  0.10566000000E+00 0. -1.
         -4    1    1    2    0  502  0.82134660820E+02  0.10909499506E+03 -0.88941458989E+03  0.89983672584E+03  0.00000000000E+00 0. -1.
</event>
<event>
 5    1  0.4881333E-005  0.5713115E+03  0.7818608E-02  0.9334029E-01
         21   -1    0    0  501  502  0.00000000000E+00  0.00000000000E+00  0.14278621679E+04  0.14278621679E+04  0.00000000000E+00 0.  1.
         -4   -1    0    0    0  501 -0.00000000000E+00 -0.00000000000E+00 -0.26713299506E+03  0.26713299506E+03  0.00000000000E+00 0. -1.
        -13    1    1    2    0    0  0.83980824539E+02 -0.57010197990E+03  0.43788203401E+03  0.72374700914E+03  0.10566000000E+00 0.  1.
         13    1    1    2    0    0 -0.78317024672E+02  0.56038229812E+03  0.52121644901E+03  0.76930388943E+03  0.10566000000E+00 0. -1.
         -4    1    1    2    0  502 -0.56637998669E+01  0.97196817767E+01  0.20163068987E+03  0.20194426444E+03  0.00000000000E+00 0. -1.
</event>
<event>
 5    1  0.4881333E-005  0.1204124E+03  0.7818608E-02  0.1134606E+00
         21   -1    0    0  501  502  0.00000000000E+00  0.00000000000E+00  0.22421900159E+03  0.22421900159E+03  0.00000000000E+00 0.  1.
         -4   -1    0    0    0  501 -0.00000000000E+00 -0.00000000000E+00 -0.13295556226E+03  0.13295556226E+03  0.00000000000E+00 0. -1.
        -13    1    1    2    0    0  0.66299466869E+02 -0.72978791082E+02  0.58587197864E+02  0.11469086351E+03  0.10566000000E+00 0.  1.
         13    1    1    2    0    0 -0.12645712952E+03  0.52517629778E+02 -0.43137307465E+02  0.14356303669E+03  0.10566000000E+00 0. -1.
         -4    1    1    2    0  502  0.60157662647E+02  0.20461161304E+02  0.75813548924E+02  0.98920663653E+02  0.00000000000E+00 0. -1.
</event>
<event>
 5    1  0.4881333E-005  0.4912432E+03  0.7818608E-02  0.9861022E-01
         -4   -1    0    0    0  501 -0.00000000000E+00  0.00000000000E+00  0.23884142448E+04  0.23884142448E+04  0.00000000000E+00 0. -1.
         21   -1    0    0  501  502  0.00000000000E+00 -0.00000000000E+00 -0.15462026979E+03  0.15462026979E+03  0.00000000000E+00 0. -1.
        -13    1    1    2    0    0 -0.10367805413E+03  0.90401899072E+02  0.69100667154E+03  0.70456502435E+03  0.10566000000E+00 0.  1.
         13    1    1    2    0    0  0.27314124723E+02 -0.54115747530E+03  0.87472500185E+03  0.10289515608E+04  0.10566000000E+00 0. -1.
         -4    1    1    2    0  502  0.76363929405E+02  0.45075557623E+03  0.66806230165E+03  0.80951792945E+03  0.00000000000E+00 0. -1.
</event>
<event>
 5    1  0.4881333E-005  0.1456526E+03  0.7818608E-02  0.1105480E+00
         21   -1    0    0  501  502  0.00000000000E+00  0.00000000000E+00  0.10434406415E+04  0.10434406415E+04  0.00000000000E+00 0.  1.
          4   -1    0    0  502    0 -0.00000000000E+00 -0.00000000000E+00 -0.35841436039E+03  0.35841436039E+03  0.00000000000E+00 0.  1.
        -13    1    1    2    0    0 -0.15763414996E+03 -0.12152310745E+03 -0.21729634900E+03  0.29467627209E+03  0.10566000000E+00 0.  1.
         13    1    1    2    0    0  0.85148169393E+02  0.64087346471E+02 -0.71912085251E+02  0.12856421702E+03  0.10566000000E+00 0. -1.
          4    1    1    2  501    0  0.72485980570E+02  0.57435760981E+02  0.97423471536E+03  0.97861451278E+03  0.00000000000E+00 0.  1.
</event>
<event>
 5    1  0.4881333E-005  0.3137002E+03  0.7818608E-02  0.1004762E+00
          4   -1    0    0  502    0 -0.00000000000E+00  0.00000000000E+00  0.32046776797E+04  0.32046776797E+04  0.00000000000E+00 0.  1.
         21   -1    0    0  501  502  0.00000000000E+00 -0.00000000000E+00 -0.15150396841E+03  0.15150396841E+03  0.00000000000E+00 0.  1.
        -13    1    1    2    0    0  0.27601706448E+03 -0.16684779614E+03  0.10549438501E+03  0.33934154386E+03  0.10566000000E+00 0.  1.
         13    1    1    2    0    0  0.59338131436E+02  0.27866532785E+03  0.11533809089E+04  0.11880500456E+04  0.10566000000E+00 0. -1.
          4    1    1    2  501    0 -0.33535519591E+03 -0.11181753171E+03  0.17942984175E+04  0.18287900587E+04  0.00000000000E+00 0.  1.
</event>
<event>
 5    1  0.4881333E-005  0.4687587E+03  0.7818608E-02  0.9792583E-01
         21   -1    0    0  501  502  0.00000000000E+00  0.00000000000E+00  0.13979693492E+03  0.13979693492E+03  0.00000000000E+00 0. -1.
         -4   -1    0    0    0  501 -0.00000000000E+00 -0.00000000000E+00 -0.28086872437E+04  0.28086872437E+04  0.00000000000E+00 0. -1.
        -13    1    1    2    0    0 -0.18202813139E+03 -0.82209795812E+02 -0.75734725878E+03  0.78324170771E+03  0.10566000000E+00 0.  1.
         13    1    1    2    0    0  0.57706947863E+03 -0.57449009218E+02 -0.13049404275E+04  0.14279982851E+04  0.10566000000E+00 0. -1.
         -4    1    1    2    0  502 -0.39504134724E+03  0.13965880503E+03 -0.60660262245E+03  0.73724418575E+03  0.00000000000E+00 0. -1.
</event>
<event>
 5    1  0.4881333E-005  0.8125216E+02  0.7818608E-02  0.1199956E+00
         21   -1    0    0  501  502  0.00000000000E+00  0.00000000000E+00  0.55117749208E+02  0.55117749208E+02  0.00000000000E+00 0.  1.
          4   -1    0    0  502    0 -0.00000000000E+00 -0.00000000000E+00 -0.36182418156E+03  0.36182418156E+03  0.00000000000E+00 0.  1.
        -13    1    1    2    0    0  0.13087774995E+02  0.82349048866E+02 -0.29541068651E+03  0.30695299407E+03  0.10566000000E+00 0.  1.
         13    1    1    2    0    0 -0.92739363480E+01 -0.72430495399E+02 -0.37227808911E+02  0.81964037720E+02  0.10566000000E+00 0. -1.
          4    1    1    2  501    0 -0.38138386474E+01 -0.99185534668E+01  0.25932063062E+02  0.28024898979E+02  0.00000000000E+00 0.  1.
</event>
<event>
 5    1  0.4881333E-005  0.4657800E+03  0.7818608E-02  0.9885986E-01
          4   -1    0    0  502    0 -0.00000000000E+00  0.00000000000E+00  0.33773842547E+04  0.33773842547E+04  0.00000000000E+00 0.  1.
         21   -1    0    0  501  502  0.00000000000E+00 -0.00000000000E+00 -0.94908983584E+02  0.94908983584E+02  0.00000000000E+00 0.  1.
        -13    1    1    2    0    0  0.47610861212E+03  0.43741243561E+02  0.18112935735E+04  0.18733331598E+04  0.10566000000E+00 0.  1.
         13    1    1    2    0    0 -0.46825296344E+02  0.14079222354E+03  0.49409896928E+03  0.51589617289E+03  0.10566000000E+00 0. -1.
          4    1    1    2  501    0 -0.42928331577E+03 -0.18453346710E+03  0.97708272837E+03  0.10830639057E+04  0.00000000000E+00 0.  1.
</event>
<event>
 5    1  0.4881333E-005  0.1922794E+03  0.7818608E-02  0.1079362E+00
         -4   -1    0    0    0  501 -0.00000000000E+00  0.00000000000E+00  0.10013024293E+04  0.10013024293E+04  0.00000000000E+00 0. -1.
         21   -1    0    0  501  502  0.00000000000E+00 -0.00000000000E+00 -0.34557676564E+03  0.34557676564E+03  0.00000000000E+00 0. -1.
        -13    1    1    2    0    0  0.10969256984E+03  0.69317059861E+02  0.19243851671E+03  0.23209891974E+03  0.10566000000E+00 0.  1.
         13    1    1    2    0    0 -0.98328031497E+02  0.12546196997E+03  0.75067859666E+03  0.76741610247E+03  0.10566000000E+00 0. -1.
         -4    1    1    2    0  502 -0.11364538339E+02 -0.19477902983E+03 -0.28739144967E+03  0.34736417278E+03  0.00000000000E+00 0. -1.
</event>
<event>
 5    1  0.4881333E-005  0.5519091E+03  0.7818608E-02  0.9370921E-01
          4   -1    0    0  502    0 -0.00000000000E+00  0.00000000000E+00  0.76859556361E+03  0.76859556361E+03  0.00000000000E+00 0.  1.
         21   -1    0    0  501  502  0.00000000000E+00 -0.00000000000E+00 -0.65918509757E+03  0.65918509757E+03  0.00000000000E+00 0. -1.
        -13    1    1    2    0    0 -0.11190639997E+03 -0.53339928964E+03 -0.31452199678E+03  0.62925506924E+03  0.10566000000E+00 0.  1.
         13    1    1    2    0    0  0.12368788186E+03  0.53977407072E+03  0.48492742192E+03  0.73607700361E+03  0.10566000000E+00 0. -1.
          4    1    1    2  501    0 -0.11781481896E+02 -0.63747810811E+01 -0.60994959101E+02  0.62448588336E+02  0.00000000000E+00 0.  1.
</event>
<event>
 5    1  0.4881333E-005  0.5160359E+03  0.7818608E-02  0.9443501E-01
         21   -1    0    0  501  502  0.00000000000E+00  0.00000000000E+00  0.15463250032E+03  0.15463250032E+03  0.00000000000E+00 0. -1.
          4   -1    0    0  502    0 -0.00000000000E+00 -0.00000000000E+00 -0.35376760379E+04  0.35376760379E+04  0.00000000000E+00 0.  1.
        -13    1    1    2    0    0  0.11655668817E+03 -0.49986777288E+03 -0.13584859116E+04  0.14522180398E+04  0.10566000000E+00 0.  1.
         13    1    1    2    0    0 -0.23020224786E+02  0.52103718016E+03 -0.20694805705E+04  0.21341882570E+04  0.10566000000E+00 0. -1.
          4    1    1    2  501    0 -0.93536463382E+02 -0.21169407277E+02  0.44922944476E+02  0.10590224137E+03  0.00000000000E+00 0.  1.
</event>
<event>
 5    1  0.4881333E-005  0.7255752E+02  0.7818608E-02  0.1220173E+00
          4   -1    0    0  502    0 -0.00000000000E+00  0.00000000000E+00  0.19801230583E+02  0.19801230583E+02  0.00000000000E+00 0.  1.
         21   -1    0    0  501  502  0.00000000000E+00 -0.00000000000E+00 -0.36827357146E+03  0.36827357146E+03  0.00000000000E+00 0. -1.
        -13    1    1    2    0    0 -0.56663361640E+02  0.40396584535E+02 -0.14360503359E+03  0.15957768463E+03  0.10566000000E+00 0.  1.
         13    1    1    2    0    0  0.67548564445E+02 -0.33540171595E+02 -0.11377550075E+03  0.13650138243E+03  0.10566000000E+00 0. -1.
          4    1    1    2  501    0 -0.10885202805E+02 -0.68564129401E+01 -0.91091806531E+02  0.91995734986E+02  0.00000000000E+00 0.  1.
</event>
<event>
 5    1  0.4881333E-005  0.4514055E+03  0.7818608E-02  0.9591357E-01
         -4   -1    0    0    0  501 -0.00000000000E+00  0.00000000000E+00  0.10353584966E+04  0.10353584966E+04  0.00000000000E+00 0. -1.
         21   -1    0    0  501  502  0.00000000000E+00 -0.00000000000E+00 -0.66606537789E+03  0.66606537789E+03  0.00000000000E+00 0. -1.
        -13    1    1    2    0    0  0.38391294055E+03 -0.11737428615E+03  0.49158871965E+03  0.63468523649E+03  0.10566000000E+00 0.  1.
         13    1    1    2    0    0 -0.60264565424E+03  0.36500725675E+03  0.24958008325E+02  0.70500708890E+03  0.10566000000E+00 0. -1.
         -4    1    1    2    0  502  0.21873271368E+03 -0.24763297060E+03 -0.14725360927E+03  0.36173154909E+03  0.00000000000E+00 0. -1.
</event>
<event>
 5    1  0.4881333E-005  0.3858055E+03  0.7818608E-02  0.9929413E-01
         21   -1    0    0  501  502  0.00000000000E+00  0.00000000000E+00  0.18315357318E+04  0.18315357318E+04  0.00000000000E+00 0. -1.
         -4   -1    0    0    0  501 -0.00000000000E+00 -0.00000000000E+00 -0.32661222889E+03  0.32661222889E+03  0.00000000000E+00 0. -1.
        -13    1    1    2    0    0  0.73779134290E+02 -0.21344894748E+03 -0.10155820297E+03  0.24762450119E+03  0.10566000000E+00 0.  1.
         13    1    1    2    0    0 -0.33202635387E+03  0.44974440730E+03  0.50004822553E+03  0.75003984599E+03  0.10566000000E+00 0. -1.
         -4    1    1    2    0  502  0.25824721958E+03 -0.23629545982E+03  0.11064334804E+04  0.11604836135E+04  0.00000000000E+00 0. -1.
</event>
<event>
 5    1  0.4881333E-005  0.4134886E+03  0.7818608E-02  0.9912578E-01
          4   -1    0    0  502    0 -0.00000000000E+00  0.00000000000E+00  0.45743722771E+03  0.45743722771E+03  0.00000000000E+00 0.  1.
         21   -1    0    0  501  502  0.00000000000E+00 -0.00000000000E+00 -0.90021608567E+03  0.90021608567E+03  0.00000000000E+00 0.  1.
        -13    1    1    2    0    0  0.35899271598E+03  0.32353917964E+03  0.18167946850E+02  0.48361498772E+03  0.10566000000E+00 0.  1.
         13    1    1    2    0    0  0.21814436866E+02 -0.19280103281E+03  0.71250737362E+02  0.20669974999E+03  0.10566000000E+00 0. -1.
          4    1    1    2  501    0 -0.38080715285E+03 -0.13073814683E+03 -0.53219754217E+03  0.66733857568E+03  0.00000000000E+00 0.  1.
</event>
<event>
 5    1  0.4881333E-005  0.2951310E+03  0.7818608E-02  0.1035783E+00
         21   -1    0    0  501  502  0.00000000000E+00  0.00000000000E+00  0.14803134873E+04  0.14803134873E+04  0.00000000000E+00 0. -1.
         -4   -1    0    0    0  501 -0.00000000000E+00 -0.00000000000E+00 -0.25262654744E+03  0.25262654744E+03  0.00000000000E+00 0. -1.
        -13    1    1    2    0    0 -0.81641818746E+02 -0.99583714585E+02 -0.13844017286E+02  0.12951436506E+03  0.10566000000E+00 0.  1.
         13    1    1    2    0    0 -0.84088826264E+02  0.33941428839E+03  0.22915447326E+02  0.35042562515E+03  0.10566000000E+00 0. -1.
         -4    1    1    2    0  502  0.16573064501E+03 -0.23983057381E+03  0.12186155098E+04  0.12530000445E+04  0.00000000000E+00 0. -1.
</event>
<event>
 5    1  0.4881333E-005  0.3955915E+03  0.7818608E-02  0.9741865E-01
         21   -1    0    0  501  502  0.00000000000E+00  0.00000000000E+00  0.22712114460E+03  0.22712114460E+03  0.00000000000E+00 0.  1.
          4   -1    0    0  502    0 -0.00000000000E+00 -0.00000000000E+00 -0.30343836654E+04  0.30343836654E+04  0.00000000000E+00 0.  1.
        -13    1    1    2    0    0  0.98874838244E+02  0.94068368430E+02  0.14604280640E+03  0.19988397645E+03  0.10566000000E+00 0.  1.
         13    1    1    2    0    0 -0.75042574859E+02 -0.44443428616E+03 -0.14844269771E+04  0.15513467325E+04  0.10566000000E+00 0. -1.
          4    1    1    2  501    0 -0.23832263385E+02  0.35036591773E+03 -0.14688783501E+04  0.15102741011E+04  0.00000000000E+00 0.  1.
</event>
<event>
 5    1  0.4881333E-005  0.4756723E+03  0.7818608E-02  0.9540971E-01
          4   -1    0    0  502    0 -0.00000000000E+00  0.00000000000E+00  0.35366683835E+04  0.35366683835E+04  0.00000000000E+00 0.  1.
         21   -1    0    0  501  502  0.00000000000E+00 -0.00000000000E+00 -0.19192902650E+03  0.19192902650E+03  0.00000000000E+00 0.  1.
        -13    1    1    2    0    0 -0.36679135539E+03  0.53714660367E+02  0.59300110053E+03  0.69933645660E+03  0.10566000000E+00 0.  1.
         13    1    1    2    0    0 -0.20883876589E+03  0.41223087006E+03  0.15521937511E+04  0.16195225755E+04  0.10566000000E+00 0. -1.
          4    1    1    2  501    0  0.57563012127E+03 -0.46594553043E+03  0.11995445054E+04  0.14097383779E+04  0.00000000000E+00 0.  1.
</event>
<event>
 5    1  0.4881333E-005  0.6607834E+03  0.7818608E-02  0.9181895E-01
         21   -1    0    0  501  502  0.00000000000E+00  0.00000000000E+00  0.16513589983E+04  0.16513589983E+04  0.00000000000E+00 0. -1.
         -4   -1    0    0    0  501 -0.00000000000E+00 -0.00000000000E+00 -0.42970684061E+03  0.42970684061E+03  0.00000000000E+00 0. -1.
        -13    1    1    2    0    0  0.37187409656E+03 -0.39452483776E+03  0.45968927608E+03  0.71081251608E+03  0.10566000000E+00 0.  1.
         13    1    1    2    0    0 -0.62831630417E+03  0.54631879185E+03  0.63120549144E+03  0.10448282079E+04  0.10566000000E+00 0. -1.
         -4    1    1    2    0  502  0.25644220760E+03 -0.15179395409E+03  0.13075739014E+03  0.32542511491E+03  0.00000000000E+00 0. -1.
</event>
<event>
 5    1  0.4881333E-005  0.3209558E+03  0.7818608E-02  0.9990119E-01
          4   -1    0    0  502    0 -0.00000000000E+00  0.00000000000E+00  0.10122960738E+04  0.10122960738E+04  0.00000000000E+00 0.  1.
         21   -1    0    0  501  502  0.00000000000E+00 -0.00000000000E+00 -0.13715396419E+03  0.13715396419E+03  0.00000000000E+00 0. -1.
        -13    1    1    2    0    0 -0.16671891952E+02 -0.32987267858E+03  0.37749508204E+03  0.50159394352E+03  0.10566000000E+00 0.  1.
         13    1    1    2    0    0  0.54906334754E+01  0.31445078242E+03  0.52650165559E+03  0.61328088680E+03  0.10566000000E+00 0. -1.
          4    1    1    2  501    0  0.11181258477E+02  0.15421896162E+02 -0.28854628053E+02  0.34575207627E+02  0.00000000000E+00 0.  1.
</event>
<event>
 5    1  0.4881333E-005  0.1718967E+03  0.7818608E-02  0.1081319E+00
         21   -1    0    0  501  502  0.00000000000E+00  0.00000000000E+00  0.17971941016E+04  0.17971941016E+04  0.00000000000E+00 0. -1.
          4   -1    0    0  502    0 -0.00000000000E+00 -0.00000000000E+00 -0.20816317363E+02  0.20816317363E+02  0.00000000000E+00 0.  1.
        -13    1    1    2    0    0  0.13559588807E+03  0.88056288312E+02  0.92030380597E+03  0.93439780673E+03  0.10566000000E+00 0.  1.
         13    1    1    2    0    0 -0.16222131292E+03 -0.76545510556E+02  0.60974405669E+03  0.63558067574E+03  0.10566000000E+00 0. -1.
          4    1    1    2  501    0  0.26625424851E+02 -0.11510777756E+02  0.24632992157E+03  0.24803193648E+03  0.00000000000E+00 0.  1.
</event>
<event>
 5    1  0.4881333E-005  0.8657402E+02  0.7818608E-02  0.1188911E+00
         -4   -1    0    0    0  501 -0.00000000000E+00  0.00000000000E+00  0.29926264640E+02  0.29926264640E+02  0.00000000000E+00 0. -1.
         21   -1    0    0  501  502  0.00000000000E+00 -0.00000000000E+00 -0.33311496773E+03  0.33311496773E+03  0.00000000000E+00 0.  1.
        -13    1    1    2    0    0  0.90703364836E+02 -0.24069104563E+02 -0.16480207504E+03  0.18964745527E+03  0.10566000000E+00 0.  1.
         13    1    1    2    0    0 -0.79362123314E+02  0.22372265945E+02 -0.83606525055E+02  0.11742626238E+03  0.10566000000E+00 0. -1.
         -4    1    1    2    0  502 -0.11341241522E+02  0.16968386182E+01 -0.54780102992E+02  0.55967514724E+02  0.00000000000E+00 0. -1.
</event>
<event>
 5    1  0.4881333E-005  0.4716856E+03  0.7818608E-02  0.9655143E-01
         21   -1    0    0  501  502  0.00000000000E+00  0.00000000000E+00  0.49468427915E+03  0.49468427915E+03  0.00000000000E+00 0.  1.
          4   -1    0    0  502    0 -0.00000000000E+00 -0.00000000000E+00 -0.16501540167E+04  0.16501540167E+04  0.00000000000E+00 0.  1.
        -13    1    1    2    0    0  0.41602105337E+03 -0.20212870376E+03 -0.30922320529E+03  0.55637085796E+03  0.10566000000E+00 0.  1.
         13    1    1    2    0    0  0.79153707867E+02  0.30559815750E+03 -0.10088655522E+04  0.10571022925E+04  0.10566000000E+00 0. -1.
          4    1    1    2  501    0 -0.49517476124E+03 -0.10346945374E+03  0.16261901994E+03  0.53136514533E+03  0.00000000000E+00 0.  1.
</event>
<event>
 5    1  0.4881333E-005  0.7998946E+02  0.7818608E-02  0.1202714E+00
         21   -1    0    0  501  502  0.00000000000E+00  0.00000000000E+00  0.13660322289E+03  0.13660322289E+03  0.00000000000E+00 0.  1.
          4   -1    0    0  502    0 -0.00000000000E+00 -0.00000000000E+00 -0.24214629452E+03  0.24214629452E+03  0.00000000000E+00 0.  1.
        -13    1    1    2    0    0 -0.58982226569E+02 -0.58057073125E+02 -0.18756010644E+03  0.20500812540E+03  0.10566000000E+00 0.  1.
         13    1    1    2    0    0  0.60145002554E+02  0.39482506492E+02 -0.16223967094E+02  0.73753087552E+02  0.10566000000E+00 0. -1.
          4    1    1    2  501    0 -0.11627759854E+01  0.18574566633E+02  0.98241001904E+02  0.99988304459E+02  0.00000000000E+00 0.  1.
</event>
<event>
 5    1  0.4881333E-005  0.2172234E+03  0.7818608E-02  0.1048929E+00
          4   -1    0    0  502    0 -0.00000000000E+00  0.00000000000E+00  0.22202408209E+04  0.22202408209E+04  0.00000000000E+00 0.  1.
         21   -1    0    0  501  502  0.00000000000E+00 -0.00000000000E+00 -0.26537033521E+03  0.26537033521E+03  0.00000000000E+00 0.  1.
        -13    1    1    2    0    0 -0.23242262158E+03 -0.63064376810E+02  0.98197730083E+03  0.10110770599E+04  0.10566000000E+00 0.  1.
         13    1    1    2    0    0  0.20170338523E+03 -0.10335378189E+03  0.11831336120E+04  0.12046457632E+04  0.10566000000E+00 0. -1.
          4    1    1    2  501    0  0.30719236343E+02  0.16641815870E+03 -0.21024042717E+03  0.26988833291E+03  0.00000000000E+00 0.  1.
</event>
<event>
 5    1  0.4881333E-005  0.4228695E+03  0.7818608E-02  0.9969469E-01
         -4   -1    0    0    0  501 -0.00000000000E+00  0.00000000000E+00  0.91343380643E+03  0.91343380643E+03  0.00000000000E+00 0. -1.
         21   -1    0    0  501  502  0.00000000000E+00 -0.00000000000E+00 -0.36581939767E+03  0.36581939767E+03  0.00000000000E+00 0.  1.
        -13    1    1    2    0    0 -0.67277291351E+02  0.13429292596E+03  0.90576142053E+02  0.17539918064E+03  0.10566000000E+00 0.  1.
         13    1    1    2    0    0 -0.13608578031E+03  0.27670948258E+03  0.55503067819E+03  0.63493821924E+03  0.10566000000E+00 0. -1.
         -4    1    1    2    0  502  0.20336307166E+03 -0.41100240855E+03 -0.97992411480E+02  0.46891580423E+03  0.00000000000E+00 0. -1.
</event>
<event>
 5    1  0.4881333E-005  0.3758444E+03  0.7818608E-02  0.1014271E+00
         21   -1    0    0  501  502  0.00000000000E+00  0.00000000000E+00  0.20109837216E+03  0.20109837216E+03  0.00000000000E+00 0. -1.
         -4   -1    0    0    0  501 -0.00000000000E+00 -0.00000000000E+00 -0.19126786061E+04  0.19126786061E+04  0.00000000000E+00 0. -1.
        -13    1    1    2    0    0 -0.10852555297E+03  0.55759834123E+02 -0.70507043504E+03  0.71554963789E+03  0.10566000000E+00 0.  1.
         13    1    1    2    0    0  0.18451952239E+03  0.31798276987E+03 -0.94228775975E+03  0.10114676116E+04  0.10566000000E+00 0. -1.
         -4    1    1    2    0  502 -0.75993969417E+02 -0.37374260399E+03 -0.64222039117E+02  0.38675972869E+03  0.00000000000E+00 0. -1.
</event>
<event>
 5    1  0.4881333E-005  0.4798646E+03  0.7818608E-02  0.9830399E-01
         -4   -1    0    0    0  501 -0.00000000000E+00  0.00000000000E+00  0.26826365268E+04  0.26826365268E+04  0.00000000000E+00 0. -1.
         21   -1    0    0  501  502  0.00000000000E+00 -0.00000000000E+00 -0.14641096189E+03  0.14641096189E+03  0.00000000000E+00 0. -1.
        -13    1    1    2    0    0  0.16081431802E+03 -0.30501281026E+02  0.80056904487E+03  0.81713057695E+03  0.10566000000E+00 0.  1.
         13    1    1    2    0    0 -0.27992616324E+03  0.43555909667E+03  0.55964780284E+03  0.76241462338E+03  0.10566000000E+00 0. -1.
         -4    1    1    2    0  502  0.11911184522E+03 -0.40505781565E+03  0.11760087172E+04  0.12495022884E+04  0.00000000000E+00 0. -1.
</event>
<event>
 5    1  0.4881333E-005  0.6460157E+02  0.7818608E-02  0.1241646E+00
         -4   -1    0    0    0  501 -0.00000000000E+00  0.00000000000E+00  0.10718551316E+03  0.10718551316E+03  0.00000000000E+00 0. -1.
         21   -1    0    0  501  502  0.00000000000E+00 -0.00000000000E+00 -0.55621955381E+02  0.55621955381E+02  0.00000000000E+00 0.  1.
        -13    1    1    2    0    0 -0.62390328770E+02  0.23673977018E+02  0.31631223164E+02  0.73848193985E+02  0.10566000000E+00 0.  1.
         13    1    1    2    0    0  0.50905711254E+02 -0.38414646672E+02  0.26627773543E+02  0.69109521812E+02  0.10566000000E+00 0. -1.
         -4    1    1    2    0  502  0.11484617516E+02  0.14740669654E+02 -0.66954389316E+01  0.19849752740E+02  0.00000000000E+00 0. -1.
</event>
<event>
 5    1  0.4881333E-005  0.3356549E+03  0.7818608E-02  0.1019799E+00
          4   -1    0    0  502    0 -0.00000000000E+00  0.00000000000E+00  0.33161244546E+03  0.33161244546E+03  0.00000000000E+00 0.  1.
         21   -1    0    0  501  502  0.00000000000E+00 -0.00000000000E+00 -0.10789232845E+04  0.10789232845E+04  0.00000000000E+00 0.  1.
        -13    1    1    2    0    0 -0.22543871027E+02 -0.29606551492E+03  0.19002269342E+03  0.35252184390E+03  0.10566000000E+00 0.  1.
         13    1    1    2    0    0  0.14104718211E+03 -0.27786676682E+02 -0.23281104464E+03  0.27361907948E+03  0.10566000000E+00 0. -1.
          4    1    1    2  501    0 -0.11850331109E+03  0.32385219160E+03 -0.70452248779E+03  0.78439480655E+03  0.00000000000E+00 0.  1.
</event>
<event>
 5    1  0.4881333E-005  0.2965286E+03  0.7818608E-02  0.1017756E+00
         -4   -1    0    0    0  501 -0.00000000000E+00  0.00000000000E+00  0.93702570792E+03  0.93702570792E+03  0.00000000000E+00 0. -1.
         21   -1    0    0  501  502  0.00000000000E+00 -0.00000000000E+00 -0.49361276760E+03  0.49361276760E+03  0.00000000000E+00 0. -1.
        -13    1    1    2    0    0 -0.21211013444E+03 -0.66887001695E+02  0.30637762978E+03  0.37859192190E+03  0.10566000000E+00 0.  1.
         13    1    1    2    0    0  0.45640762630E+03 -0.74183236651E+02  0.43985273150E+03  0.63818610962E+03  0.10566000000E+00 0. -1.
         -4    1    1    2    0  502 -0.24429749186E+03  0.14107023835E+03 -0.30281742096E+03  0.41386044400E+03  0.00000000000E+00 0. -1.
</event>
<event>
 5    1  0.4881333E-005  0.2110046E+03  0.7818608E-02  0.1052843E+00
         21   -1    0    0  501  502  0.00000000000E+00  0.00000000000E+00  0.90987178089E+02  0.90987178089E+02  0.00000000000E+00 0. -1.
          4   -1    0    0  502    0 -0.00000000000E+00 -0.00000000000E+00 -0.17474730488E+04  0.17474730488E+04  0.00000000000E+00 0.  1.
        -13    1    1    2    0    0  0.19427030511E+02  0.21449728157E+03 -0.10937747486E+04  0.11147778725E+04  0.10566000000E+00 0.  1.
         13    1    1    2    0    0 -0.78161680659E+01 -0.20425790158E+03 -0.62600009304E+03  0.65852753207E+03  0.10566000000E+00 0. -1.
          4    1    1    2  501    0 -0.11610862445E+02 -0.10239379990E+02  0.63288970901E+02  0.65154822285E+02  0.00000000000E+00 0.  1.
</event>
<event>
 5    1  0.4881333E-005  0.4987755E+03  0.7818608E-02  0.9922701E-01
         21   -1    0    0  501  502  0.00000000000E+00  0.00000000000E+00  0.59068993435E+02  0.59068993435E+02  0.00000000000E+00 0. -1.
         -4   -1    0    0    0  501 -0.00000000000E+00 -0.00000000000E+00 -0.52360234908E+04  0.52360234908E+04  0.00000000000E+00 0. -1.
        -13    1    1    2    0    0  0.61531952191E+02 -0.87389354775E+02 -0.52169621256E+03  0.53253171721E+03  0.10566000000E+00 0.  1.
         13    1    1    2    0    0  0.44072025323E+03 -0.11048022741E+03 -0.24832690512E+04  0.25244931005E+04  0.10566000000E+00 0. -1.
         -4    1    1    2    0  502 -0.50225220543E+03  0.19786958218E+03 -0.21719892335E+04  0.22380676665E+04  0.00000000000E+00 0. -1.
</event>
<event>
 5    1  0.4881333E-005  0.4816265E+03  0.7818608E-02  0.1007483E+00
          4   -1    0    0  502    0 -0.00000000000E+00  0.00000000000E+00  0.95223247620E+03  0.95223247620E+03  0.00000000000E+00 0.  1.
         21   -1    0    0  501  502  0.00000000000E+00 -0.00000000000E+00 -0.38826140581E+03  0.38826140581E+03  0.00000000000E+00 0.  1.
        -13    1    1    2    0    0 -0.37642865987E+03 -0.29626887778E+03  0.61729100608E+03  0.78135906039E+03  0.10566000000E+00 0.  1.
         13    1    1    2    0    0  0.45112209156E+02 -0.56227563039E+02 -0.16654508274E+02  0.73986715497E+02  0.10566000000E+00 0. -1.
          4    1    1    2  501    0  0.33131645072E+03  0.35249644082E+03 -0.36665427416E+02  0.48514810612E+03  0.00000000000E+00 0.  1.
</event>
<event>
 5    1  0.4881333E-005  0.4749705E+03  0.7818608E-02  0.9828931E-01
          4   -1    0    0  502    0 -0.00000000000E+00  0.00000000000E+00  0.41316944073E+03  0.41316944073E+03  0.00000000000E+00 0.  1.
         21   -1    0    0  501  502  0.00000000000E+00 -0.00000000000E+00 -0.88480409609E+03  0.88480409609E+03  0.00000000000E+00 0.  1.
        -13    1    1    2    0    0  0.51999640323E+03  0.92742320785E+02 -0.39839079039E+03  0.66159854177E+03  0.10566000000E+00 0.  1.
         13    1    1    2    0    0 -0.14041590827E+03 -0.95183819799E+02 -0.17465165525E+03  0.24347443129E+03  0.10566000000E+00 0. -1.
          4    1    1    2  501    0 -0.37958049496E+03  0.24414990136E+01  0.10140779028E+03  0.39290056375E+03  0.00000000000E+00 0.  1.
</event>
<event>
 5    1  0.2014036E-004  0.6155558E+03  0.7818608E-02  0.9297632E-01
         -4   -1    0    0    0  501 -0.00000000000E+00  0.00000000000E+00  0.17557370946E+04  0.17557370946E+04  0.00000000000E+00 0. -1.
         21   -1    0    0  501  502  0.00000000000E+00 -0.00000000000E+00 -0.58595758795E+03  0.58595758795E+03  0.00000000000E+00 0. -1.
        -13    1    1    2    0    0  0.19434287358E+03 -0.59011199131E+03  0.95413053356E+03  0.11385808715E+04  0.10566000000E+00 0.  1.
         13    1    1    2    0    0  0.32444040155E+03  0.25879275143E+03 -0.19967498259E+03  0.46054898999E+03  0.10566000000E+00 0. -1.
         -4    1    1    2    0  502 -0.51878327513E+03  0.33131923988E+03  0.41532395570E+03  0.74256482104E+03  0.00000000000E+00 0. -1.
</event>
<event>
 5    1  0.4881333E-005  0.4149579E+03  0.7818608E-02  0.1038283E+00
          4   -1    0    0  502    0 -0.00000000000E+00  0.00000000000E+00  0.29135214195E+04  0.29135214195E+04  0.00000000000E+00 0.  1.
         21   -1    0    0  501  502  0.00000000000E+00 -0.00000000000E+00 -0.92690965277E+02  0.92690965277E+02  0.00000000000E+00 0.  1.
        -13    1    1    2    0    0 -0.68254368361E+02  0.42885011630E+03  0.20490183320E+04  0.20945279223E+04  0.10566000000E+00 0.  1.
         13    1    1    2    0    0 -0.29540973384E+02 -0.31150455410E+02  0.22194357009E+03  0.22605746935E+03  0.10566000000E+00 0. -1.
          4    1    1    2  501    0  0.97795341745E+02 -0.39769966089E+03  0.54986855209E+03  0.68562699313E+03  0.00000000000E+00 0.  1.
</event>
<event>
 5    1  0.4881333E-005  0.4149035E+03  0.7818608E-02  0.9835103E-01
          4   -1    0    0  502    0 -0.00000000000E+00  0.00000000000E+00  0.13134280494E+04  0.13134280494E+04  0.00000000000E+00 0.  1.
         21   -1    0    0  501  502  0.00000000000E+00 -0.00000000000E+00 -0.34556870134E+03  0.34556870134E+03  0.00000000000E+00 0.  1.
        -13    1    1    2    0    0 -0.33404465097E+03  0.27429017550E+03  0.56006722994E+03  0.70745759056E+03  0.10566000000E+00 0.  1.
         13    1    1    2    0    0 -0.90549901094E+02 -0.23218979342E+03  0.45850395238E+03  0.52185943536E+03  0.10566000000E+00 0. -1.
          4    1    1    2  501    0  0.42459455206E+03 -0.42100382078E+02 -0.50711834236E+02  0.42967972485E+03  0.00000000000E+00 0.  1.
</event>
<event>
 5    1  0.4881333E-005  0.5894311E+02  0.7818608E-02  0.1259129E+00
         21   -1    0    0  501  502  0.00000000000E+00  0.00000000000E+00  0.31144479864E+03  0.31144479864E+03  0.00000000000E+00 0.  1.
         -4   -1    0    0    0  501 -0.00000000000E+00 -0.00000000000E+00 -0.33413623299E+03  0.33413623299E+03  0.00000000000E+00 0. -1.
        -13    1    1    2    0    0 -0.10727826095E+02  0.71751473021E+02  0.15418892777E+03  0.17040421575E+03  0.10566000000E+00 0.  1.
         13    1    1    2    0    0 -0.24639432474E+02 -0.53510298830E+02 -0.32064216553E+03  0.32600899250E+03  0.10566000000E+00 0. -1.
         -4    1    1    2    0  502  0.35367258569E+02 -0.18241174191E+02  0.14376180341E+03  0.14916782339E+03  0.00000000000E+00 0. -1.
</event>
<event>
 5    1  0.4881333E-005  0.2654234E+03  0.7818608E-02  0.1022696E+00
         21   -1    0    0  501  502  0.00000000000E+00  0.00000000000E+00  0.42896101597E+03  0.42896101597E+03  0.00000000000E+00 0.  1.
          4   -1    0    0  502    0 -0.00000000000E+00 -0.00000000000E+00 -0.15181121890E+04  0.15181121890E+04  0.00000000000E+00 0.  1.
        -13    1    1    2    0    0 -0.30312009906E+03  0.29853738096E+03  0.26016760775E+03  0.49869184630E+03  0.10566000000E+00 0.  1.
         13    1    1    2    0    0  0.25549965527E+03 -0.50916275554E+02 -0.84960372994E+03  0.88865012803E+03  0.10566000000E+00 0. -1.
          4    1    1    2  501    0  0.47620443788E+02 -0.24762110540E+03 -0.49971505086E+03  0.55973123065E+03  0.00000000000E+00 0.  1.
</event>
<event>
 5    1  0.4881333E-005  0.4406319E+02  0.7818608E-02  0.1318049E+00
         21   -1    0    0  501  502  0.00000000000E+00  0.00000000000E+00  0.22940735680E+02  0.22940735680E+02  0.00000000000E+00 0. -1.
          4   -1    0    0  502    0 -0.00000000000E+00 -0.00000000000E+00 -0.12204721272E+03  0.12204721272E+03  0.00000000000E+00 0.  1.
        -13    1    1    2    0    0  0.14458838881E+02  0.42856177655E+02 -0.43526291088E+02  0.62771483692E+02  0.10566000000E+00 0.  1.
         13    1    1    2    0    0 -0.11398178999E+01 -0.43986012907E+02 -0.52497648881E+02  0.68498779685E+02  0.10566000000E+00 0. -1.
          4    1    1    2  501    0 -0.13319020981E+02  0.11298352518E+01 -0.30825370713E+01  0.13717685023E+02  0.00000000000E+00 0.  1.
</event>
<event>
 5    1  0.4881333E-005  0.3032827E+03  0.7818608E-02  0.1022853E+00
         21   -1    0    0  501  502  0.00000000000E+00  0.00000000000E+00  0.14897061819E+04  0.14897061819E+04  0.00000000000E+00 0. -1.
         -4   -1    0    0    0  501 -0.00000000000E+00 -0.00000000000E+00 -0.26637889407E+03  0.26637889407E+03  0.00000000000E+00 0. -1.
        -13    1    1    2    0    0 -0.17661382660E+03  0.12307760126E+02  0.40202017860E+02  0.18154927185E+03  0.10566000000E+00 0.  1.
         13    1    1    2    0    0  0.61383086979E+02  0.27588075859E+03 -0.63652942941E+02  0.28970637659E+03  0.10566000000E+00 0. -1.
         -4    1    1    2    0  502  0.11523073962E+03 -0.28818851872E+03  0.12467782129E+04  0.12848294275E+04  0.00000000000E+00 0. -1.
</event>
<event>
 5    1  0.4881333E-005  0.4176516E+03  0.7818608E-02  0.9716204E-01
         -4   -1    0    0    0  501 -0.00000000000E+00  0.00000000000E+00  0.18942550556E+04  0.18942550556E+04  0.00000000000E+00 0. -1.
         21   -1    0    0  501  502  0.00000000000E+00 -0.00000000000E+00 -0.48108864521E+03  0.48108864521E+03  0.00000000000E+00 0. -1.
        -13    1    1    2    0    0  0.21555561498E+02  0.44477947102E+03  0.13393009606E+04  0.14113895615E+04  0.10566000000E+00 0.  1.
         13    1    1    2    0    0 -0.37956157760E+03 -0.16631935879E+03  0.24241426896E+03  0.48009770803E+03  0.10566000000E+00 0. -1.
         -4    1    1    2    0  502  0.35800601611E+03 -0.27846011224E+03 -0.16854881915E+03  0.48385643130E+03  0.00000000000E+00 0. -1.
</event>
<event>
 5    1  0.4881333E-005  0.1943758E+03  0.7818608E-02  0.1098950E+00
         21   -1    0    0  501  502  0.00000000000E+00  0.00000000000E+00  0.16147858945E+03  0.16147858945E+03  0.00000000000E+00 0.  1.
          4   -1    0    0  502    0 -0.00000000000E+00 -0.00000000000E+00 -0.36990223637E+03  0.36990223637E+03  0.00000000000E+00 0.  1.
        -13    1    1    2    0    0 -0.12043075713E+03 -0.18105447312E+03  0.59574652722E+01  0.21753112893E+03  0.10566000000E+00 0.  1.
         13    1    1    2    0    0  0.10844151240E+02  0.72283163346E+02 -0.51483911312E+02  0.89403890337E+02  0.10566000000E+00 0. -1.
          4    1    1    2  501    0  0.10958660589E+03  0.10877130977E+03 -0.16289720089E+03  0.22444580655E+03  0.00000000000E+00 0.  1.
</event>
<event>
 5    1  0.4881333E-005  0.8311940E+02  0.7818608E-02  0.1195978E+00
         21   -1    0    0  501  502  0.00000000000E+00  0.00000000000E+00  0.80499703973E+02  0.80499703973E+02  0.00000000000E+00 0. -1.
          4   -1    0    0  502    0 -0.00000000000E+00 -0.00000000000E+00 -0.18766983981E+03  0.18766983981E+03  0.00000000000E+00 0.  1.
        -13    1    1    2    0    0 -0.91390738367E+02  0.32339902436E+02 -0.85328355853E+02  0.12914749640E+03  0.10566000000E+00 0.  1.
         13    1    1    2    0    0  0.73733558693E+02  0.29805107886E+01 -0.51199916579E+02  0.89816277722E+02  0.10566000000E+00 0. -1.
          4    1    1    2  501    0  0.17657179674E+02 -0.35320413224E+02  0.29358136592E+02  0.49205769667E+02  0.00000000000E+00 0.  1.
</event>
<event>
 5    1  0.4881333E-005  0.5460113E+03  0.7818608E-02  0.9382451E-01
          4   -1    0    0  502    0 -0.00000000000E+00  0.00000000000E+00  0.20020252957E+04  0.20020252957E+04  0.00000000000E+00 0.  1.
         21   -1    0    0  501  502  0.00000000000E+00 -0.00000000000E+00 -0.34826599715E+03  0.34826599715E+03  0.00000000000E+00 0. -1.
        -13    1    1    2    0    0 -0.54274654715E+03  0.13298999783E+03  0.19459436474E+03  0.59171541464E+03  0.10566000000E+00 0.  1.
         13    1    1    2    0    0  0.33881745246E+03 -0.47468461585E+03  0.89250349135E+03  0.10661544184E+04  0.10566000000E+00 0. -1.
          4    1    1    2  501    0  0.20392909469E+03  0.34169461802E+03  0.56666144245E+03  0.69242145981E+03  0.00000000000E+00 0.  1.
</event>
<event>
 5    1  0.4881333E-005  0.4177366E+03  0.7818608E-02  0.9679174E-01
         21   -1    0    0  501  502  0.00000000000E+00  0.00000000000E+00  0.13464716474E+03  0.13464716474E+03  0.00000000000E+00 0.  1.
         -4   -1    0    0    0  501 -0.00000000000E+00 -0.00000000000E+00 -0.24883558688E+04  0.24883558688E+04  0.00000000000E+00 0. -1.
        -13    1    1    2    0    0 -0.27620809024E+03  0.36370658922E+03 -0.59357185238E+03  0.74893320614E+03  0.10566000000E+00 0.  1.
         13    1    1    2    0    0  0.27855609920E+03 -0.29629094912E+03 -0.17602469970E+04  0.18066132205E+04  0.10566000000E+00 0. -1.
         -4    1    1    2    0  502 -0.23480089587E+01 -0.67415640104E+02  0.11014534380E+00  0.67456606857E+02  0.00000000000E+00 0. -1.
</event>
<event>
 5    1  0.4881333E-005  0.3175856E+02  0.7818608E-02  0.1439340E+00
          4   -1    0    0  502    0 -0.00000000000E+00  0.00000000000E+00  0.10021442887E+03  0.10021442887E+03  0.00000000000E+00 0.  1.
         21   -1    0    0  501  502  0.00000000000E+00 -0.00000000000E+00 -0.49884390112E+03  0.49884390112E+03  0.00000000000E+00 0. -1.
        -13    1    1    2    0    0  0.21267522939E+02 -0.20927717069E+00  0.92302760682E+02  0.94721497679E+02  0.10566000000E+00 0.  1.
         13    1    1    2    0    0 -0.66342095657E+02 -0.13278379470E+02 -0.31805526072E+03  0.32517187618E+03  0.10566000000E+00 0. -1.
          4    1    1    2  501    0  0.45074572718E+02  0.13487656641E+02 -0.17287697221E+03  0.17916495613E+03  0.00000000000E+00 0.  1.
</event>
<event>
 5    1  0.4881333E-005  0.1643137E+03  0.7818608E-02  0.1087794E+00
         -4   -1    0    0    0  501 -0.00000000000E+00  0.00000000000E+00  0.16397150487E+04  0.16397150487E+04  0.00000000000E+00 0. -1.
         21   -1    0    0  501  502  0.00000000000E+00 -0.00000000000E+00 -0.33536619507E+02  0.33536619507E+02  0.00000000000E+00 0.  1.
        -13    1    1    2    0    0 -0.16828253472E+03  0.99649550182E+02  0.75118297210E+03  0.77622478258E+03  0.10566000000E+00 0.  1.
         13    1    1    2    0    0  0.10141922340E+03 -0.10973811274E+03  0.78726159130E+03  0.80131712609E+03  0.10566000000E+00 0. -1.
         -4    1    1    2    0  502  0.66863311328E+02  0.10088562563E+02  0.67733865784E+02  0.95709759535E+02  0.00000000000E+00 0. -1.
</event>
<event>
 5    1  0.4881333E-005  0.2284305E+03  0.7818608E-02  0.1123110E+00
         21   -1    0    0  501  502  0.00000000000E+00  0.00000000000E+00  0.14570545853E+03  0.14570545853E+03  0.00000000000E+00 0.  1.
          4   -1    0    0  502    0 -0.00000000000E+00 -0.00000000000E+00 -0.18914268292E+04  0.18914268292E+04  0.00000000000E+00 0.  1.
        -13    1    1    2    0    0  0.15866416434E+03  0.16409136125E+03  0.41132366848E+02  0.23193140074E+03  0.10566000000E+00 0.  1.
         13    1    1    2    0    0 -0.14695676868E+02  0.18602933422E+02 -0.13804269313E+03  0.14006365817E+03  0.10566000000E+00 0. -1.
          4    1    1    2  501    0 -0.14396848747E+03 -0.18269429467E+03 -0.16488110444E+04  0.16651372288E+04  0.00000000000E+00 0.  1.
</event>
<event>
 5    1  0.4881333E-005  0.4540970E+03  0.7818608E-02  0.9942623E-01
         21   -1    0    0  501  502  0.00000000000E+00  0.00000000000E+00  0.14199995980E+03  0.14199995980E+03  0.00000000000E+00 0. -1.
         -4   -1    0    0    0  501 -0.00000000000E+00 -0.00000000000E+00 -0.22998515141E+04  0.22998515141E+04  0.00000000000E+00 0. -1.
        -13    1    1    2    0    0  0.83680036338E+02 -0.10280840068E+03 -0.23175619296E+03  0.26698850139E+03  0.10566000000E+00 0.  1.
         13    1    1    2    0    0 -0.41590814009E+03 -0.19999217760E+03 -0.50378752252E+03  0.68321177618E+03  0.10566000000E+00 0. -1.
         -4    1    1    2    0  502  0.33222810375E+03  0.30280057829E+03 -0.14223078388E+04  0.14916511963E+04  0.00000000000E+00 0. -1.
</event>
<event>
 5    1  0.4881333E-005  0.2128020E+03  0.7818608E-02  0.1051697E+00
         21   -1    0    0  501  502  0.00000000000E+00  0.00000000000E+00  0.66444726258E+02  0.66444726258E+02  0.00000000000E+00 0. -1.
          4   -1    0    0  502    0 -0.00000000000E+00 -0.00000000000E+00 -0.97169816673E+03  0.97169816673E+03  0.00000000000E+00 0.  1.
        -13    1    1    2    0    0 -0.18386460494E+03 -0.10772227269E+03 -0.57874379900E+03  0.61672901426E+03  0.10566000000E+00 0.  1.
         13    1    1    2    0    0  0.20668672656E+03  0.63127655096E+02 -0.27152656738E+03  0.34703197509E+03  0.10566000000E+00 0. -1.
          4    1    1    2  501    0 -0.22822121617E+02  0.44594617590E+02 -0.54983074093E+02  0.74381903645E+02  0.00000000000E+00 0.  1.
</event>
<event>
 5    1  0.4881333E-005  0.4481210E+03  0.7818608E-02  0.9782480E-01
         21   -1    0    0  501  502  0.00000000000E+00  0.00000000000E+00  0.32032786619E+03  0.32032786619E+03  0.00000000000E+00 0. -1.
         -4   -1    0    0    0  501 -0.00000000000E+00 -0.00000000000E+00 -0.10592160112E+04  0.10592160112E+04  0.00000000000E+00 0. -1.
        -13    1    1    2    0    0 -0.44430490904E+02 -0.23245195217E+03 -0.16161366504E+03  0.28657802861E+03  0.10566000000E+00 0.  1.
         13    1    1    2    0    0  0.14085096166E+03 -0.32148970312E+03 -0.31868214970E+03  0.47408116005E+03  0.10566000000E+00 0. -1.
         -4    1    1    2    0  502 -0.96420470752E+02  0.55394165529E+03 -0.25859233024E+03  0.61888468870E+03  0.00000000000E+00 0. -1.
</event>
<event>
 5    1  0.4881333E-005  0.3172050E+02  0.7818608E-02  0.1391603E+00
          4   -1    0    0  502    0 -0.00000000000E+00  0.00000000000E+00  0.18145656500E+03  0.18145656500E+03  0.00000000000E+00 0.  1.
         21   -1    0    0  501  502  0.00000000000E+00 -0.00000000000E+00 -0.92391896521E+01  0.92391896521E+01  0.00000000000E+00 0. -1.
        -13    1    1    2    0    0 -0.63733060327E+01 -0.31415543683E+02  0.10388976611E+03  0.10872281307E+03  0.10566000000E+00 0.  1.
         13    1    1    2    0    0 -0.43970063162E+01  0.31892874294E+02  0.38103553403E+02  0.49883675097E+02  0.10566000000E+00 0. -1.
          4    1    1    2  501    0  0.10770312349E+02 -0.47733061051E+00  0.30224055829E+02  0.32089266482E+02  0.00000000000E+00 0.  1.
</event>
<event>
 5    1  0.4881333E-005  0.9018995E+02  0.7818608E-02  0.1181893E+00
         21   -1    0    0  501  502  0.00000000000E+00  0.00000000000E+00  0.56894972656E+02  0.56894972656E+02  0.00000000000E+00 0. -1.
          4   -1    0    0  502    0 -0.00000000000E+00 -0.00000000000E+00 -0.20743812152E+03  0.20743812152E+03  0.00000000000E+00 0.  1.
        -13    1    1    2    0    0 -0.51613378038E+02  0.84149213482E+02 -0.85833144664E+02  0.13081426073E+03  0.10566000000E+00 0.  1.
         13    1    1    2    0    0  0.41979214770E+02 -0.71953787356E+02 -0.77203468412E+02  0.11357811711E+03  0.10566000000E+00 0. -1.
          4    1    1    2  501    0  0.96341632676E+01 -0.12195426126E+02  0.12493464210E+02  0.19940716342E+02  0.00000000000E+00 0.  1.
</event>
<event>
 5    1  0.4881333E-005  0.4031296E+03  0.7818608E-02  0.9856434E-01
          4   -1    0    0  502    0 -0.00000000000E+00  0.00000000000E+00  0.79769523950E+03  0.79769523950E+03  0.00000000000E+00 0.  1.
         21   -1    0    0  501  502  0.00000000000E+00 -0.00000000000E+00 -0.51813339464E+03  0.51813339464E+03  0.00000000000E+00 0.  1.
        -13    1    1    2    0    0 -0.38162005697E+03 -0.44905617525E+03  0.17977049191E+03  0.61611910970E+03  0.10566000000E+00 0.  1.
         13    1    1    2    0    0  0.11886440584E+03  0.22309929077E+03  0.21774159563E+03  0.33363670984E+03  0.10566000000E+00 0. -1.
          4    1    1    2  501    0  0.26275565113E+03  0.22595688448E+03 -0.11795024269E+03  0.36607281461E+03  0.00000000000E+00 0.  1.
</event>
<event>
 5    1  0.4881333E-005  0.3958777E+03  0.7818608E-02  0.9741027E-01
         21   -1    0    0  501  502  0.00000000000E+00  0.00000000000E+00  0.45379992077E+03  0.45379992077E+03  0.00000000000E+00 0.  1.
         -4   -1    0    0    0  501 -0.00000000000E+00 -0.00000000000E+00 -0.74468529135E+03  0.74468529135E+03  0.00000000000E+00 0. -1.
        -13    1    1    2    0    0 -0.37049915905E+02  0.37690451235E+03  0.27342114548E+03  0.46710688462E+03  0.10566000000E+00 0.  1.
         13    1    1    2    0    0  0.13081072781E+02 -0.39868157997E+03 -0.57269625200E+03  0.69792487052E+03  0.10566000000E+00 0. -1.
         -4    1    1    2    0  502  0.23968843124E+02  0.21777067616E+02  0.83897359432E+01  0.33453456979E+02  0.00000000000E+00 0. -1.
</event>
<event>
 5    1  0.4881333E-005  0.6303346E+02  0.7818608E-02  0.1246285E+00
         21   -1    0    0  501  502  0.00000000000E+00  0.00000000000E+00  0.16735060856E+03  0.16735060856E+03  0.00000000000E+00 0. -1.
          4   -1    0    0  502    0 -0.00000000000E+00 -0.00000000000E+00 -0.47889713883E+02  0.47889713883E+02  0.00000000000E+00 0.  1.
        -13    1    1    2    0    0 -0.49341794860E+02 -0.54472991800E+02  0.61851293752E+01  0.73757620251E+02  0.10566000000E+00 0.  1.
         13    1    1    2    0    0  0.42968820732E+02  0.17154004397E+02  0.70874573047E+02  0.84639208944E+02  0.10566000000E+00 0. -1.
          4    1    1    2  501    0  0.63729741280E+01  0.37318987402E+02  0.42401192252E+02  0.56843493246E+02  0.00000000000E+00 0.  1.
</event>
<event>
 5    1  0.4881333E-005  0.6681962E+02  0.7818608E-02  0.1243493E+00
         21   -1    0    0  501  502  0.00000000000E+00  0.00000000000E+00  0.14988000233E+03  0.14988000233E+03  0.00000000000E+00 0.  1.
          4   -1    0    0  502    0 -0.00000000000E+00 -0.00000000000E+00 -0.26406770245E+03  0.26406770245E+03  0.00000000000E+00 0.  1.
        -13    1    1    2    0    0  0.65990173867E+01 -0.10744166933E+03 -0.21808074186E+03  0.24320049440E+03  0.10566000000E+00 0.  1.
         13    1    1    2    0    0 -0.28702309494E+02  0.48240894182E+02  0.89960126221E+02  0.10603698372E+03  0.10566000000E+00 0. -1.
          4    1    1    2  501    0  0.22103292107E+02  0.59200775146E+02  0.13932915521E+02  0.64710226663E+02  0.00000000000E+00 0.  1.
</event>
<event>
 5    1  0.4881333E-005  0.4676142E+03  0.7818608E-02  0.9551928E-01
         -4   -1    0    0    0  501 -0.00000000000E+00  0.00000000000E+00  0.29128678299E+04  0.29128678299E+04  0.00000000000E+00 0. -1.
         21   -1    0    0  501  502  0.00000000000E+00 -0.00000000000E+00 -0.23564354664E+03  0.23564354664E+03  0.00000000000E+00 0.  1.
        -13    1    1    2    0    0  0.37932503538E+03  0.50322174782E+03  0.12555177202E+04  0.14047933538E+04  0.10566000000E+00 0.  1.
         13    1    1    2    0    0 -0.27108279689E+03 -0.30402700993E+03  0.14582642553E+04  0.15140848573E+04  0.10566000000E+00 0. -1.
         -4    1    1    2    0  502 -0.10824223848E+03 -0.19919473789E+03 -0.36557692317E+02  0.22963316542E+03  0.00000000000E+00 0. -1.
</event>
<event>
 5    1  0.4881333E-005  0.3536944E+03  0.7818608E-02  0.1040813E+00
         21   -1    0    0  501  502  0.00000000000E+00  0.00000000000E+00  0.22286418111E+03  0.22286418111E+03  0.00000000000E+00 0. -1.
         -4   -1    0    0    0  501 -0.00000000000E+00 -0.00000000000E+00 -0.14657888902E+04  0.14657888902E+04  0.00000000000E+00 0. -1.
        -13    1    1    2    0    0  0.56241823703E+02  0.30974228208E+02 -0.34905668272E+03  0.35491284066E+03  0.10566000000E+00 0.  1.
         13    1    1    2    0    0  0.17132586043E+03 -0.30397658746E+03 -0.91341248510E+03  0.97779174432E+03  0.10566000000E+00 0. -1.
         -4    1    1    2    0  502 -0.22756768413E+03  0.27300235925E+03  0.19544458774E+02  0.35594848628E+03  0.00000000000E+00 0. -1.
</event>
<event>
 5    1  0.4881333E-005  0.9343244E+02  0.7818608E-02  0.1175904E+00
         -4   -1    0    0    0  501 -0.00000000000E+00  0.00000000000E+00  0.21164137632E+03  0.21164137632E+03  0.00000000000E+00 0. -1.
         21   -1    0    0  501  502  0.00000000000E+00 -0.00000000000E+00 -0.32085457610E+03  0.32085457610E+03  0.00000000000E+00 0. -1.
        -13    1    1    2    0    0  0.76158005686E+02  0.52021431210E+02 -0.14231520042E+03  0.16958743636E+03  0.10566000000E+00 0.  1.
         13    1    1    2    0    0 -0.83528823674E+02 -0.42171344951E+02  0.18669091405E+03  0.20882766884E+03  0.10566000000E+00 0. -1.
         -4    1    1    2    0  502  0.73708179877E+01 -0.98500862584E+01 -0.15358891341E+03  0.15408084722E+03  0.00000000000E+00 0. -1.
</event>
<event>
 5    1  0.4881333E-005  0.4960763E+03  0.7818608E-02  0.9489910E-01
         21   -1    0    0  501  502  0.00000000000E+00  0.00000000000E+00  0.11338376711E+04  0.11338376711E+04  0.00000000000E+00 0.  1.
          4   -1    0    0  502    0 -0.00000000000E+00 -0.00000000000E+00 -0.87552196229E+03  0.87552196229E+03  0.00000000000E+00 0.  1.
        -13    1    1    2    0    0  0.48494962512E+02  0.33324915766E+03  0.28856841983E+02  0.33799332976E+03  0.10566000000E+00 0.  1.
         13    1    1    2    0    0 -0.43490607555E+03  0.24478762282E+03 -0.46969889772E+03  0.68533301433E+03  0.10566000000E+00 0. -1.
          4    1    1    2  501    0  0.38641111304E+03 -0.57803678048E+03  0.69915776454E+03  0.98603328929E+03  0.00000000000E+00 0.  1.
</event>
<event>
 5    1  0.4881333E-005  0.4485390E+03  0.7818608E-02  0.9598512E-01
          4   -1    0    0  502    0 -0.00000000000E+00  0.00000000000E+00  0.12622257630E+04  0.12622257630E+04  0.00000000000E+00 0.  1.
         21   -1    0    0  501  502  0.00000000000E+00 -0.00000000000E+00 -0.18917615655E+03  0.18917615655E+03  0.00000000000E+00 0. -1.
        -13    1    1    2    0    0 -0.41374326933E+03  0.17249738339E+03  0.67694408329E+03  0.81190648677E+03  0.10566000000E+00 0.  1.
         13    1    1    2    0    0  0.42352221950E+03 -0.15011265881E+03  0.41258763819E+03  0.61002741831E+03  0.10566000000E+00 0. -1.
          4    1    1    2  501    0 -0.97789501702E+01 -0.22384724578E+02 -0.16482115024E+02  0.29468014465E+02  0.00000000000E+00 0.  1.
</event>
<event>
 5    1  0.4881333E-005  0.4561896E+03  0.7818608E-02  0.9805103E-01
         21   -1    0    0  501  502  0.00000000000E+00  0.00000000000E+00  0.41913148029E+03  0.41913148029E+03  0.00000000000E+00 0.  1.
          4   -1    0    0  502    0 -0.00000000000E+00 -0.00000000000E+00 -0.14018108038E+04  0.14018108038E+04  0.00000000000E+00 0.  1.
        -13    1    1    2    0    0 -0.41784029607E+03  0.20270758744E+02  0.66561706103E+02  0.42359401384E+03  0.10566000000E+00 0.  1.
         13    1    1    2    0    0 -0.13835989072E+03  0.15481289636E+03 -0.67080393910E+03  0.70220255490E+03  0.10566000000E+00 0. -1.
          4    1    1    2  501    0  0.55620018679E+03 -0.17508365511E+03 -0.37843709049E+03  0.69514571532E+03  0.00000000000E+00 0.  1.
</event>
<event>
 5    1  0.4881333E-005  0.4215566E+03  0.7818608E-02  0.9887378E-01
         -4   -1    0    0    0  501 -0.00000000000E+00  0.00000000000E+00  0.21574685741E+04  0.21574685741E+04  0.00000000000E+00 0. -1.
         21   -1    0    0  501  502  0.00000000000E+00 -0.00000000000E+00 -0.17364636640E+03  0.17364636640E+03  0.00000000000E+00 0. -1.
        -13    1    1    2    0    0 -0.19731798292E+03 -0.27375369363E+02  0.47040337521E+03  0.51084551854E+03  0.10566000000E+00 0.  1.
         13    1    1    2    0    0 -0.34428502214E+03  0.16402106792E+03  0.30263018512E+03  0.48684712930E+03  0.10566000000E+00 0. -1.
         -4    1    1    2    0  502  0.54160300506E+03 -0.13664569856E+03  0.12107886473E+04  0.13334222927E+04  0.00000000000E+00 0. -1.
</event>
<event>
 5    1  0.4881333E-005  0.8556264E+02  0.7818608E-02  0.1190942E+00
         21   -1    0    0  501  502  0.00000000000E+00  0.00000000000E+00  0.41302052042E+03  0.41302052042E+03  0.00000000000E+00 0.  1.
         -4   -1    0    0    0  501 -0.00000000000E+00 -0.00000000000E+00 -0.54350750223E+02  0.54350750223E+02  0.00000000000E+00 0. -1.
        -13    1    1    2    0    0 -0.74536820995E+02 -0.41780267187E+02  0.27989008947E+03  0.29264278866E+03  0.10566000000E+00 0.  1.
         13    1    1    2    0    0  0.65991808532E+02  0.54749754084E+02 -0.84176821753E+01  0.86158707643E+02  0.10566000000E+00 0. -1.
         -4    1    1    2    0  502  0.85450124635E+01 -0.12969486897E+02  0.87197362908E+02  0.88569774340E+02  0.00000000000E+00 0. -1.
</event>
<event>
 5    1  0.4881333E-005  0.4885652E+03  0.7818608E-02  0.9722237E-01
         21   -1    0    0  501  502  0.00000000000E+00  0.00000000000E+00  0.87000016015E+03  0.87000016015E+03  0.00000000000E+00 0. -1.
         -4   -1    0    0    0  501 -0.00000000000E+00 -0.00000000000E+00 -0.45462359737E+03  0.45462359737E+03  0.00000000000E+00 0. -1.
        -13    1    1    2    0    0 -0.10088057900E+03 -0.20084813842E+03  0.84817611095E+02  0.24023093940E+03  0.10566000000E+00 0.  1.
         13    1    1    2    0    0  0.52092534120E+03 -0.44747842866E+02  0.56348972070E+02  0.52587146563E+03  0.10566000000E+00 0. -1.
         -4    1    1    2    0  502 -0.42004476220E+03  0.24559598129E+03  0.27420997962E+03  0.55852135250E+03  0.00000000000E+00 0. -1.
</event>
<event>
 5    1  0.4881333E-005  0.4949311E+03  0.7818608E-02  0.9808737E-01
         21   -1    0    0  501  502  0.00000000000E+00  0.00000000000E+00  0.25207931855E+03  0.25207931855E+03  0.00000000000E+00 0. -1.
         -4   -1    0    0    0  501 -0.00000000000E+00 -0.00000000000E+00 -0.20061604925E+04  0.20061604925E+04  0.00000000000E+00 0. -1.
        -13    1    1    2    0    0 -0.15741700179E+03  0.31753510558E+02 -0.95379433740E+03  0.96721871730E+03  0.10566000000E+00 0.  1.
         13    1    1    2    0    0 -0.35210258987E+02 -0.49777297167E+03 -0.30863665271E+03  0.58674891412E+03  0.10566000000E+00 0. -1.
         -4    1    1    2    0  502  0.19262726078E+03  0.46601946111E+03 -0.49165018386E+03  0.70427217964E+03  0.00000000000E+00 0. -1.
</event>
<event>
 5    1  0.4881333E-005  0.3557534E+02  0.7818608E-02  0.1390890E+00
         -4   -1    0    0    0  501 -0.00000000000E+00  0.00000000000E+00  0.11653301595E+02  0.11653301595E+02  0.00000000000E+00 0. -1.
         21   -1    0    0  501  502  0.00000000000E+00 -0.00000000000E+00 -0.36250595036E+03  0.36250595036E+03  0.00000000000E+00 0. -1.
        -13    1    1    2    0    0 -0.26044938111E+02  0.37292130790E+02 -0.17664217554E+03  0.18240480028E+03  0.10566000000E+00 0.  1.
         13    1    1    2    0    0  0.28981347598E+02  0.70887755542E+01 -0.37091484798E+02  0.47602086677E+02  0.10566000000E+00 0. -1.
         -4    1    1    2    0  502 -0.29364094864E+01 -0.44380906344E+02 -0.13711898842E+03  0.14415236500E+03  0.00000000000E+00 0. -1.
</event>
<event>
 5    1  0.4881333E-005  0.3851101E+03  0.7818608E-02  0.1032988E+00
         -4   -1    0    0    0  501 -0.00000000000E+00  0.00000000000E+00  0.29748066303E+03  0.29748066303E+03  0.00000000000E+00 0. -1.
         21   -1    0    0  501  502  0.00000000000E+00 -0.00000000000E+00 -0.14964648468E+04  0.14964648468E+04  0.00000000000E+00 0. -1.
        -13    1    1    2    0    0 -0.61175059089E+02 -0.15619389368E+02  0.12801875366E+03  0.14274160442E+03  0.10566000000E+00 0.  1.
         13    1    1    2    0    0 -0.15564017043E+03 -0.31327064451E+03 -0.10192558939E+03  0.36435037574E+03  0.10566000000E+00 0. -1.
         -4    1    1    2    0  502  0.21681522952E+03  0.32889003388E+03 -0.12250773480E+04  0.12868535296E+04  0.00000000000E+00 0. -1.
</event>
<event>
 5    1  0.4881333E-005  0.5010482E+03  0.7818608E-02  0.9648993E-01
         -4   -1    0    0    0  501 -0.00000000000E+00  0.00000000000E+00  0.11757260221E+04  0.11757260221E+04  0.00000000000E+00 0. -1.
         21   -1    0    0  501  502  0.00000000000E+00 -0.00000000000E+00 -0.40351426369E+03  0.40351426369E+03  0.00000000000E+00 0. -1.
        -13    1    1    2    0    0  0.15771092951E+03  0.21808058795E+03 -0.22206668315E+02  0.27004634308E+03  0.10566000000E+00 0.  1.
         13    1    1    2    0    0 -0.57735122681E+03 -0.21089772260E+03  0.40079621647E+03  0.73379146002E+03  0.10566000000E+00 0. -1.
         -4    1    1    2    0  502  0.41964029730E+03 -0.71828653489E+01  0.39362221022E+03  0.57540248266E+03  0.00000000000E+00 0. -1.
</event>
<event>
 5    1  0.4881333E-005  0.5011679E+03  0.7818608E-02  0.9903396E-01
         -4   -1    0    0    0  501 -0.00000000000E+00  0.00000000000E+00  0.51479131985E+03  0.51479131985E+03  0.00000000000E+00 0. -1.
         21   -1    0    0  501  502  0.00000000000E+00 -0.00000000000E+00 -0.80529387471E+03  0.80529387471E+03  0.00000000000E+00 0. -1.
        -13    1    1    2    0    0 -0.84344982056E+02 -0.74241378818E+02  0.17224136565E+03  0.20565251647E+03  0.10566000000E+00 0.  1.
         13    1    1    2    0    0 -0.22862360693E+03  0.45777662676E+03 -0.30098575620E+03  0.59365025920E+03  0.10566000000E+00 0. -1.
         -4    1    1    2    0  502  0.31296858898E+03 -0.38353524794E+03 -0.16175816431E+03  0.52078241889E+03  0.00000000000E+00 0. -1.
</event>
<event>
 5    1  0.4881333E-005  0.5086519E+03  0.7818608E-02  0.9497855E-01
          4   -1    0    0  502    0 -0.00000000000E+00  0.00000000000E+00  0.17537180635E+04  0.17537180635E+04  0.00000000000E+00 0.  1.
         21   -1    0    0  501  502  0.00000000000E+00 -0.00000000000E+00 -0.40840088215E+03  0.40840088215E+03  0.00000000000E+00 0.  1.
        -13    1    1    2    0    0 -0.43060933887E+03 -0.25996898276E+03  0.63099532642E+03  0.80694695479E+03  0.10566000000E+00 0.  1.
         13    1    1    2    0    0  0.45714299707E+03 -0.29822455696E+03  0.54484182325E+03  0.77121347866E+03  0.10566000000E+00 0. -1.
          4    1    1    2  501    0 -0.26533658204E+02  0.55819353972E+03  0.16948003165E+03  0.58395851216E+03  0.00000000000E+00 0.  1.
</event>
<event>
 5    1  0.4881333E-005  0.2388941E+02  0.7818608E-02  0.1461992E+00
         -4   -1    0    0    0  501 -0.00000000000E+00  0.00000000000E+00  0.88540462672E+02  0.88540462672E+02  0.00000000000E+00 0. -1.
         21   -1    0    0  501  502  0.00000000000E+00 -0.00000000000E+00 -0.20536560100E+02  0.20536560100E+02  0.00000000000E+00 0.  1.
        -13    1    1    2    0    0 -0.19458070645E+02 -0.10180386591E+02  0.15376041116E+02  0.26808405190E+02  0.10566000000E+00 0.  1.
         13    1    1    2    0    0  0.13840177269E+02  0.21679359019E+02  0.61522952308E+02  0.66683055861E+02  0.10566000000E+00 0. -1.
         -4    1    1    2    0  502  0.56178933760E+01 -0.11498972427E+02 -0.88950908523E+01  0.15585561720E+02  0.00000000000E+00 0. -1.
</event>
<event>
 5    1  0.4881333E-005  0.1066372E+03  0.7818608E-02  0.1154018E+00
          4   -1    0    0  502    0 -0.00000000000E+00  0.00000000000E+00  0.38941129461E+02  0.38941129461E+02  0.00000000000E+00 0.  1.
         21   -1    0    0  501  502  0.00000000000E+00 -0.00000000000E+00 -0.66741115552E+03  0.66741115552E+03  0.00000000000E+00 0. -1.
        -13    1    1    2    0    0 -0.84244341848E+02  0.70825801442E+02 -0.12493376905E+03  0.16649883212E+03  0.10566000000E+00 0.  1.
         13    1    1    2    0    0  0.10252279494E+03 -0.31622342927E+02 -0.15421768148E+03  0.18786697555E+03  0.10566000000E+00 0. -1.
          4    1    1    2  501    0 -0.18278453093E+02 -0.39203458515E+02 -0.34931857552E+03  0.35198647731E+03  0.00000000000E+00 0.  1.
</event>
<event>
 5    1  0.4881333E-005  0.3686188E+03  0.7818608E-02  0.9837461E-01
          4   -1    0    0  502    0 -0.00000000000E+00  0.00000000000E+00  0.14371383656E+04  0.14371383656E+04  0.00000000000E+00 0.  1.
         21   -1    0    0  501  502  0.00000000000E+00 -0.00000000000E+00 -0.93270575530E+03  0.93270575530E+03  0.00000000000E+00 0.  1.
        -13    1    1    2    0    0  0.67544813346E+03 -0.69687501930E+02  0.11945382280E+04  0.13740480771E+04  0.10566000000E+00 0.  1.
         13    1    1    2    0    0 -0.34682651233E+03 -0.63280875787E+02 -0.25796028415E+03  0.43684850722E+03  0.10566000000E+00 0. -1.
          4    1    1    2  501    0 -0.32862162114E+03  0.13296837772E+03 -0.43214533353E+03  0.55894753657E+03  0.00000000000E+00 0.  1.
</event>
<event>
 5    1  0.4881333E-005  0.2949576E+02  0.7818608E-02  0.1409004E+00
         21   -1    0    0  501  502  0.00000000000E+00  0.00000000000E+00  0.13143291383E+03  0.13143291383E+03  0.00000000000E+00 0. -1.
         -4   -1    0    0    0  501 -0.00000000000E+00 -0.00000000000E+00 -0.15468832994E+02  0.15468832994E+02  0.00000000000E+00 0. -1.
        -13    1    1    2    0    0  0.21256536222E+02  0.44352212271E+01  0.46722896793E+02  0.51522342418E+02  0.10566000000E+00 0.  1.
         13    1    1    2    0    0 -0.32784729934E+02 -0.35046467101E+01  0.91954262761E+01  0.34229929796E+02  0.10566000000E+00 0. -1.
         -4    1    1    2    0  502  0.11528193712E+02 -0.93057451695E+00  0.60045757768E+02  0.61149474610E+02  0.00000000000E+00 0. -1.
</event>
<event>
 5    1  0.4881333E-005  0.9900632E+02  0.7818608E-02  0.1166210E+00
         21   -1    0    0  501  502  0.00000000000E+00  0.00000000000E+00  0.73808689748E+03  0.73808689748E+03  0.00000000000E+00 0. -1.
          4   -1    0    0  502    0 -0.00000000000E+00 -0.00000000000E+00 -0.23627663088E+03  0.23627663088E+03  0.00000000000E+00 0.  1.
        -13    1    1    2    0    0  0.34302228787E+02 -0.91454193936E+02 -0.20543527274E+03  0.22747345986E+03  0.10566000000E+00 0.  1.
         13    1    1    2    0    0 -0.10439521977E+03  0.12128745044E+03  0.41233887810E+03  0.44230348078E+03  0.10566000000E+00 0. -1.
          4    1    1    2  501    0  0.70092990985E+02 -0.29833256506E+02  0.29490666124E+03  0.30458658772E+03  0.00000000000E+00 0.  1.
</event>
<event>
 5    1  0.4881333E-005  0.6205991E+03  0.7818608E-02  0.9246878E-01
         21   -1    0    0  501  502  0.00000000000E+00  0.00000000000E+00  0.33668228230E+03  0.33668228230E+03  0.00000000000E+00 0.  1.
         -4   -1    0    0    0  501 -0.00000000000E+00 -0.00000000000E+00 -0.27313144771E+04  0.27313144771E+04  0.00000000000E+00 0. -1.
        -13    1    1    2    0    0  0.26227037145E+03 -0.37966861540E+03 -0.74588333334E+02  0.46743709298E+03  0.10566000000E+00 0.  1.
         13    1    1    2    0    0 -0.50317633768E+03  0.43095291529E+03 -0.22485092118E+04  0.23440777565E+04  0.10566000000E+00 0. -1.
         -4    1    1    2    0  502  0.24090596623E+03 -0.51284299889E+02 -0.71534649638E+02  0.25648190985E+03  0.00000000000E+00 0. -1.
</event>
<event>
 5    1  0.4881333E-005  0.5012735E+03  0.7818608E-02  0.9929648E-01
         21   -1    0    0  501  502  0.00000000000E+00  0.00000000000E+00  0.34746689617E+03  0.34746689617E+03  0.00000000000E+00 0. -1.
         -4   -1    0    0    0  501 -0.00000000000E+00 -0.00000000000E+00 -0.12384531669E+04  0.12384531669E+04  0.00000000000E+00 0. -1.
        -13    1    1    2    0    0  0.79670302003E+02 -0.65096307300E+02 -0.45191481136E+03  0.46347804062E+03  0.10566000000E+00 0.  1.
         13    1    1    2    0    0 -0.53882199431E+03 -0.65054182381E+02 -0.32194214369E+03  0.63103719640E+03  0.10566000000E+00 0. -1.
         -4    1    1    2    0  502  0.45915169231E+03  0.13015048968E+03 -0.11712931573E+03  0.49140482610E+03  0.00000000000E+00 0. -1.
</event>
<event>
 5    1  0.4881333E-005  0.2074790E+03  0.7818608E-02  0.1078586E+00
         21   -1    0    0  501  502  0.00000000000E+00  0.00000000000E+00  0.41102676222E+03  0.41102676222E+03  0.00000000000E+00 0.  1.
          4   -1    0    0  502    0 -0.00000000000E+00 -0.00000000000E+00 -0.71661328272E+03  0.71661328272E+03  0.00000000000E+00 0.  1.
        -13    1    1    2    0    0 -0.20525553039E+03  0.54960142258E+02  0.34714552874E+03  0.40701410207E+03  0.10566000000E+00 0.  1.
         13    1    1    2    0    0  0.95122608335E+02 -0.45768192356E+02 -0.68057307137E+02  0.12559795487E+03  0.10566000000E+00 0. -1.
          4    1    1    2  501    0  0.11013292205E+03 -0.91919499017E+01 -0.58467474210E+03  0.59502798801E+03  0.00000000000E+00 0.  1.
</event>
<event>
 5    1  0.4881333E-005  0.4052236E+03  0.7818608E-02  0.9775235E-01
          4   -1    0    0  502    0 -0.00000000000E+00  0.00000000000E+00  0.20737420826E+04  0.20737420826E+04  0.00000000000E+00 0.  1.
         21   -1    0    0  501  502  0.00000000000E+00 -0.00000000000E+00 -0.36048350425E+03  0.36048350425E+03  0.00000000000E+00 0.  1.
        -13    1    1    2    0    0  0.35216718451E+03  0.65231259240E+02  0.71348427917E+03  0.79833368388E+03  0.10566000000E+00 0.  1.
         13    1    1    2    0    0 -0.11085044570E+03 -0.39076522877E+03  0.11375452432E+04  0.12078884372E+04  0.10566000000E+00 0. -1.
          4    1    1    2  501    0 -0.24131673881E+03  0.32553396953E+03 -0.13777094393E+03  0.42800346581E+03  0.00000000000E+00 0.  1.
</event>
<event>
 5    1  0.4881333E-005  0.1236263E+03  0.7818608E-02  0.1130484E+00
         -4   -1    0    0    0  501 -0.00000000000E+00  0.00000000000E+00  0.37351906836E+03  0.37351906836E+03  0.00000000000E+00 0. -1.
         21   -1    0    0  501  502  0.00000000000E+00 -0.00000000000E+00 -0.86890352803E+03  0.86890352803E+03  0.00000000000E+00 0. -1.
        -13    1    1    2    0    0 -0.55490034802E+02 -0.98788408296E+02 -0.52677136745E+02  0.12495273297E+03  0.10566000000E+00 0.  1.
         13    1    1    2    0    0  0.13566408816E+03  0.16777499166E+03 -0.75632391113E+03  0.78649797352E+03  0.10566000000E+00 0. -1.
         -4    1    1    2    0  502 -0.80174053362E+02 -0.68986583364E+02  0.31361658820E+03  0.33097188991E+03  0.00000000000E+00 0. -1.
</event>
<event>
 5    1  0.4881333E-005  0.5611430E+03  0.7818608E-02  0.9353167E-01
         21   -1    0    0  501  502  0.00000000000E+00  0.00000000000E+00  0.33778379161E+03  0.33778379161E+03  0.00000000000E+00 0.  1.
          4   -1    0    0  502    0 -0.00000000000E+00 -0.00000000000E+00 -0.22386294597E+04  0.22386294597E+04  0.00000000000E+00 0.  1.
        -13    1    1    2    0    0  0.13699096819E+03  0.76141867407E+03 -0.61081421123E+03  0.98570732695E+03  0.10566000000E+00 0.  1.
         13    1    1    2    0    0 -0.28406154006E+03 -0.41948561064E+03 -0.99197866613E+03  0.11138585284E+04  0.10566000000E+00 0. -1.
          4    1    1    2  501    0  0.14707057186E+03 -0.34193306343E+03 -0.29805279071E+03  0.47684739595E+03  0.00000000000E+00 0.  1.
</event>
<event>
 5    1  0.4881333E-005  0.2461597E+02  0.7818608E-02  0.1454220E+00
         -4   -1    0    0    0  501 -0.00000000000E+00  0.00000000000E+00  0.21065869440E+03  0.21065869440E+03  0.00000000000E+00 0. -1.
         21   -1    0    0  501  502  0.00000000000E+00 -0.00000000000E+00 -0.11701218750E+02  0.11701218750E+02  0.00000000000E+00 0. -1.
        -13    1    1    2    0    0 -0.30956337578E+02 -0.90377131077E+01  0.53924466158E+02  0.62831793774E+02  0.10566000000E+00 0.  1.
         13    1    1    2    0    0  0.22507278182E+02 -0.82309546966E+01  0.13633827752E+03  0.13842854932E+03  0.10566000000E+00 0. -1.
         -4    1    1    2    0  502  0.84490593966E+01  0.17268667804E+02  0.86947319764E+01  0.21099570056E+02  0.00000000000E+00 0. -1.
</event>
<event>
 5    1  0.4881333E-005  0.1718459E+03  0.7818608E-02  0.1084784E+00
         21   -1    0    0  501  502  0.00000000000E+00  0.00000000000E+00  0.24315617051E+03  0.24315617051E+03  0.00000000000E+00 0. -1.
         -4   -1    0    0    0  501 -0.00000000000E+00 -0.00000000000E+00 -0.51149176848E+03  0.51149176848E+03  0.00000000000E+00 0. -1.
        -13    1    1    2    0    0 -0.12958988496E+03  0.87147553481E+02 -0.62273002000E+00  0.15616860542E+03  0.10566000000E+00 0.  1.
         13    1    1    2    0    0  0.19096069469E+03  0.77182401657E+02 -0.34892108548E+03  0.40517779442E+03  0.10566000000E+00 0. -1.
         -4    1    1    2    0  502 -0.61370809726E+02 -0.16432995514E+03  0.81208217528E+02  0.19330153915E+03  0.00000000000E+00 0. -1.
</event>
<event>
 5    1  0.4881333E-005  0.2961672E+03  0.7818608E-02  0.1008900E+00
          4   -1    0    0  502    0 -0.00000000000E+00  0.00000000000E+00  0.35653671449E+04  0.35653671449E+04  0.00000000000E+00 0.  1.
         21   -1    0    0  501  502  0.00000000000E+00 -0.00000000000E+00 -0.78963923717E+02  0.78963923717E+02  0.00000000000E+00 0.  1.
        -13    1    1    2    0    0 -0.17067963162E+03 -0.33427669522E+03  0.60351511471E+03  0.71070595218E+03  0.10566000000E+00 0.  1.
         13    1    1    2    0    0  0.26722511082E+03  0.11555230363E+03  0.12585148088E+04  0.12917511873E+04  0.10566000000E+00 0. -1.
          4    1    1    2  501    0 -0.96545479204E+02  0.21872439159E+03  0.16243732977E+04  0.16418739291E+04  0.00000000000E+00 0.  1.
</event>
<event>
 5    1  0.4881333E-005  0.1630544E+03  0.7818608E-02  0.1088905E+00
          4   -1    0    0  502    0 -0.00000000000E+00  0.00000000000E+00  0.44713883335E+03  0.44713883335E+03  0.00000000000E+00 0.  1.
         21   -1    0    0  501  502  0.00000000000E+00 -0.00000000000E+00 -0.29182790369E+03  0.29182790369E+03  0.00000000000E+00 0. -1.
        -13    1    1    2    0    0 -0.73191340033E+02 -0.14637534864E+03  0.40085514789E+03  0.43297525992E+03  0.10566000000E+00 0.  1.
         13    1    1    2    0    0  0.55409062686E+02  0.14346271885E+03 -0.24330297053E+03  0.28783339376E+03  0.10566000000E+00 0. -1.
          4    1    1    2  501    0  0.17782277347E+02  0.29126297940E+01 -0.22412476966E+01  0.18158083357E+02  0.00000000000E+00 0.  1.
</event>
<event>
 5    1  0.4881333E-005  0.4007999E+03  0.7818608E-02  0.9726739E-01
          4   -1    0    0  502    0 -0.00000000000E+00  0.00000000000E+00  0.14903242652E+04  0.14903242652E+04  0.00000000000E+00 0.  1.
         21   -1    0    0  501  502  0.00000000000E+00 -0.00000000000E+00 -0.15980726891E+03  0.15980726891E+03  0.00000000000E+00 0.  1.
        -13    1    1    2    0    0  0.19032534293E+03  0.35918658685E+03  0.98388912989E+03  0.10645546352E+04  0.10566000000E+00 0.  1.
         13    1    1    2    0    0 -0.17065000560E+03 -0.35000064979E+03  0.38109232046E+03  0.54484240579E+03  0.10566000000E+00 0. -1.
          4    1    1    2  501    0 -0.19675337338E+02 -0.91859370621E+01 -0.34464454015E+02  0.40734493118E+02  0.00000000000E+00 0.  1.
</event>
<event>
 5    1  0.4881333E-005  0.1360357E+03  0.7818608E-02  0.1115763E+00
         21   -1    0    0  501  502  0.00000000000E+00  0.00000000000E+00  0.14023952029E+03  0.14023952029E+03  0.00000000000E+00 0.  1.
         -4   -1    0    0    0  501 -0.00000000000E+00 -0.00000000000E+00 -0.21095309619E+03  0.21095309619E+03  0.00000000000E+00 0. -1.
        -13    1    1    2    0    0  0.85817780870E+02  0.10736588798E+03 -0.33501610383E+02  0.14147259267E+03  0.10566000000E+00 0.  1.
         13    1    1    2    0    0 -0.97155029361E+02 -0.94438528439E+02 -0.84310688674E+02  0.15958082207E+03  0.10566000000E+00 0. -1.
         -4    1    1    2    0  502  0.11337248491E+02 -0.12927359544E+02  0.47098723159E+02  0.50139201742E+02  0.00000000000E+00 0. -1.
</event>
<event>
 5    1  0.4881333E-005  0.4898093E+03  0.7818608E-02  0.9740261E-01
         -4   -1    0    0    0  501 -0.00000000000E+00  0.00000000000E+00  0.22870883655E+04  0.22870883655E+04  0.00000000000E+00 0. -1.
         21   -1    0    0  501  502  0.00000000000E+00 -0.00000000000E+00 -0.17264792437E+03  0.17264792437E+03  0.00000000000E+00 0. -1.
        -13    1    1    2    0    0 -0.16722448900E+03  0.12630123477E+03  0.26439130930E+03  0.33737043028E+03  0.10566000000E+00 0.  1.
         13    1    1    2    0    0 -0.14928179024E+03  0.39671650618E+03  0.65818133211E+03  0.78286123692E+03  0.10566000000E+00 0. -1.
         -4    1    1    2    0  502  0.31650627924E+03 -0.52301774096E+03  0.11918677997E+04  0.13395046226E+04  0.00000000000E+00 0. -1.
</event>
<event>
 5    1  0.4881333E-005  0.1274228E+03  0.7818608E-02  0.1125788E+00
         21   -1    0    0  501  502  0.00000000000E+00  0.00000000000E+00  0.15694736726E+03  0.15694736726E+03  0.00000000000E+00 0.  1.
         -4   -1    0    0    0  501 -0.00000000000E+00 -0.00000000000E+00 -0.87102081790E+03  0.87102081790E+03  0.00000000000E+00 0. -1.
        -13    1    1    2    0    0 -0.34825081513E+02  0.13940396803E+03  0.81406345900E+02  0.16514616835E+03  0.10566000000E+00 0.  1.
         13    1    1    2    0    0 -0.55686183536E+02 -0.11537865822E+03 -0.74597539689E+03  0.75689661760E+03  0.10566000000E+00 0. -1.
         -4    1    1    2    0  502  0.90511265050E+02 -0.24025309815E+02 -0.49504399645E+02  0.10592539921E+03  0.00000000000E+00 0. -1.
</event>
<event>
 5    1  0.4881333E-005  0.4898394E+03  0.7818608E-02  0.9779959E-01
         -4   -1    0    0    0  501 -0.00000000000E+00  0.00000000000E+00  0.23376749169E+04  0.23376749169E+04  0.00000000000E+00 0. -1.
         21   -1    0    0  501  502  0.00000000000E+00 -0.00000000000E+00 -0.15378694889E+03  0.15378694889E+03  0.00000000000E+00 0. -1.
        -13    1    1    2    0    0  0.10987797965E+03 -0.14605223243E+03  0.27034667916E+03  0.32633075722E+03  0.10566000000E+00 0.  1.
         13    1    1    2    0    0 -0.51062912117E+03  0.28959583423E+03  0.11340466678E+04  0.12769767823E+04  0.10566000000E+00 0. -1.
         -4    1    1    2    0  502  0.40075114152E+03 -0.14354360180E+03  0.77949462104E+03  0.88815432627E+03  0.00000000000E+00 0. -1.
</event>
