<event>
 6    1  0.5496865E-006  0.1361039E+03  0.7818608E-02  0.1134306E+00
         21   -1    0    0  503  502  0.00000000000E+00  0.00000000000E+00  0.89556353324E+02  0.89556353324E+02  0.00000000000E+00 0.  1.
         21   -1    0    0  501  503 -0.00000000000E+00 -0.00000000000E+00 -0.76886584308E+03  0.76886584308E+03  0.00000000000E+00 0.  1.
        -13    1    1    2    0    0  0.20141664408E+03  0.78129834685E-01 -0.16065233443E+03  0.25763900003E+03  0.10566000000E+00 0.  1.
         13    1    1    2    0    0 -0.60635220595E+02  0.51861390567E+01 -0.10135017812E+03  0.11821757815E+03  0.10566000000E+00 0. -1.
          4    1    1    2  501    0 -0.67398991680E+01 -0.11042518423E+02 -0.31131502999E+03  0.31158371484E+03  0.00000000000E+00 0.  1.
         -4    1    1    2    0  502 -0.13404152432E+03  0.57782495311E+01 -0.10599194721E+03  0.17098190338E+03  0.00000000000E+00 0. -1.
</event>
<event>
 6    1  0.5496865E-006  0.2212855E+03  0.7818608E-02  0.1055322E+00
         21   -1    0    0  503  502  0.00000000000E+00  0.00000000000E+00  0.28796410398E+03  0.28796410398E+03  0.00000000000E+00 0. -1.
         21   -1    0    0  501  503 -0.00000000000E+00 -0.00000000000E+00 -0.73067989452E+03  0.73067989452E+03  0.00000000000E+00 0. -1.
        -13    1    1    2    0    0  0.13350662432E+03  0.21573541957E+03  0.22508745119E+02  0.25470069644E+03  0.10566000000E+00 0.  1.
         13    1    1    2    0    0  0.95851871609E+02 -0.96571834537E+02 -0.22607612254E+03  0.26386383773E+03  0.10566000000E+00 0. -1.
          4    1    1    2  501    0  0.14404906052E+02 -0.15477557285E+02 -0.23418150592E+03  0.23513407624E+03  0.00000000000E+00 0.  1.
         -4    1    1    2    0  502 -0.24376340198E+03 -0.10368602775E+03 -0.49669072110E+01  0.26494538808E+03  0.00000000000E+00 0. -1.
</event>
<event>
 6    1  0.5496865E-006  0.1719324E+03  0.7818608E-02  0.1081289E+00
         21   -1    0    0  503  502  0.00000000000E+00  0.00000000000E+00  0.38783219911E+03  0.38783219911E+03  0.00000000000E+00 0. -1.
         21   -1    0    0  501  503 -0.00000000000E+00 -0.00000000000E+00 -0.27530599425E+03  0.27530599425E+03  0.00000000000E+00 0. -1.
        -13    1    1    2    0    0  0.12617509761E+03 -0.11883329447E+03 -0.64087555677E+02  0.18479375825E+03  0.10566000000E+00 0.  1.
         13    1    1    2    0    0 -0.94898185931E+02  0.14567917126E+03 -0.78398432718E+02  0.19072076984E+03  0.10566000000E+00 0. -1.
          4    1    1    2  501    0 -0.33588846041E+02 -0.42027023021E+02  0.29053916083E+02  0.61144184369E+02  0.00000000000E+00 0.  1.
         -4    1    1    2    0  502  0.23119343586E+01  0.15181146228E+02  0.22595827717E+03  0.22647948089E+03  0.00000000000E+00 0. -1.
</event>
<event>
 6    1  0.5496865E-006  0.8175809E+02  0.7818608E-02  0.1256292E+00
         21   -1    0    0  501  502  0.00000000000E+00  0.00000000000E+00  0.23984807695E+02  0.23984807695E+02  0.00000000000E+00 0. -1.
         21   -1    0    0  502  503 -0.00000000000E+00 -0.00000000000E+00 -0.56161032283E+03  0.56161032283E+03  0.00000000000E+00 0.  1.
        -13    1    1    2    0    0 -0.12185679135E+02  0.66930018106E+01 -0.59454837887E+02  0.61058791025E+02  0.10566000000E+00 0.  1.
         13    1    1    2    0    0  0.84463339965E+02 -0.89610863598E+01 -0.21317945093E+03  0.22947733294E+03  0.10566000000E+00 0. -1.
          4    1    1    2  501    0  0.44184729386E+01 -0.23004397996E+02 -0.16441895469E+03  0.16607925184E+03  0.00000000000E+00 0.  1.
         -4    1    1    2    0  503 -0.76696133768E+02  0.25272482545E+02 -0.10057227162E+03  0.12897975472E+03  0.00000000000E+00 0. -1.
</event>
<event>
 6    1  0.5496865E-006  0.1169185E+03  0.7818608E-02  0.1139249E+00
         21   -1    0    0  501  502  0.00000000000E+00  0.00000000000E+00  0.17212009858E+03  0.17212009858E+03  0.00000000000E+00 0. -1.
         21   -1    0    0  502  503 -0.00000000000E+00 -0.00000000000E+00 -0.20525191176E+03  0.20525191176E+03  0.00000000000E+00 0. -1.
        -13    1    1    2    0    0 -0.99878931673E+02 -0.58317283938E+02  0.38465241410E+02  0.12188639202E+03  0.10566000000E+00 0.  1.
         13    1    1    2    0    0  0.12145175310E+03  0.13446700925E+02  0.91639380223E+01  0.12253705979E+03  0.10566000000E+00 0. -1.
          4    1    1    2  501    0 -0.13143015061E+02  0.84919200057E+01  0.20055928410E+02  0.25437999423E+02  0.00000000000E+00 0.  1.
         -4    1    1    2    0  503 -0.84298063708E+01  0.36378663007E+02 -0.10081692102E+03  0.10751055912E+03  0.00000000000E+00 0. -1.
</event>
<event>
 6    1  0.5496865E-006  0.1711150E+03  0.7818608E-02  0.1138607E+00
         21   -1    0    0  501  502  0.00000000000E+00  0.00000000000E+00  0.93306070434E+02  0.93306070434E+02  0.00000000000E+00 0.  1.
         21   -1    0    0  502  503 -0.00000000000E+00 -0.00000000000E+00 -0.15624009369E+04  0.15624009369E+04  0.00000000000E+00 0.  1.
        -13    1    1    2    0    0  0.15146526679E+03 -0.76770735147E+02 -0.28076596131E+03  0.32812346612E+03  0.10566000000E+00 0.  1.
         13    1    1    2    0    0  0.21762076534E+02  0.33160516465E+02 -0.18955599624E+02  0.43960593131E+02  0.10566000000E+00 0. -1.
          4    1    1    2  501    0 -0.15384247274E+03  0.76185189165E+02 -0.72925834429E+02  0.18652041924E+03  0.00000000000E+00 0.  1.
         -4    1    1    2    0  503 -0.19384870585E+02 -0.32574970482E+02 -0.10964474711E+04  0.10971025289E+04  0.00000000000E+00 0. -1.
</event>
<event>
 6    1  0.5496865E-006  0.1117261E+03  0.7818608E-02  0.1146489E+00
         21   -1    0    0  501  502  0.00000000000E+00  0.00000000000E+00  0.35848782571E+03  0.35848782571E+03  0.00000000000E+00 0. -1.
         21   -1    0    0  502  503 -0.00000000000E+00 -0.00000000000E+00 -0.25611069032E+03  0.25611069032E+03  0.00000000000E+00 0. -1.
        -13    1    1    2    0    0  0.13709394005E+03  0.37519224547E+02 -0.82833797182E+02  0.16451106263E+03  0.10566000000E+00 0.  1.
         13    1    1    2    0    0 -0.15951479756E+03  0.70718669363E+01  0.12068991387E+03  0.20015256285E+03  0.10566000000E+00 0. -1.
          4    1    1    2  501    0  0.77795390968E+02 -0.33030702360E+02  0.13517698284E+03  0.15942385908E+03  0.00000000000E+00 0.  1.
         -4    1    1    2    0  503 -0.55374533454E+02 -0.11560389124E+02 -0.70655964131E+02  0.90511031478E+02  0.00000000000E+00 0. -1.
</event>
<event>
 6    1  0.5496865E-006  0.1708989E+03  0.7818608E-02  0.1145619E+00
         21   -1    0    0  501  502  0.00000000000E+00  0.00000000000E+00  0.43615053372E+03  0.43615053372E+03  0.00000000000E+00 0. -1.
         21   -1    0    0  502  503 -0.00000000000E+00 -0.00000000000E+00 -0.22786569875E+03  0.22786569875E+03  0.00000000000E+00 0. -1.
        -13    1    1    2    0    0 -0.32643375875E+01  0.31693550240E+02 -0.58347987063E+02  0.66480341343E+02  0.10566000000E+00 0.  1.
         13    1    1    2    0    0 -0.64866886880E+02 -0.18352818454E+03  0.32407794409E+03  0.37804342679E+03  0.10566000000E+00 0. -1.
          4    1    1    2  501    0 -0.95165782309E+01  0.32100235147E+01  0.29104185636E+02  0.30788360361E+02  0.00000000000E+00 0.  1.
         -4    1    1    2    0  503  0.77647802698E+02  0.14862461079E+03 -0.86549307689E+02  0.18870410398E+03  0.00000000000E+00 0. -1.
</event>
<event>
 6    1  0.5496865E-006  0.1649519E+03  0.7818608E-02  0.1087234E+00
         21   -1    0    0  501  502  0.00000000000E+00  0.00000000000E+00  0.50986884333E+03  0.50986884333E+03  0.00000000000E+00 0. -1.
         21   -1    0    0  502  503 -0.00000000000E+00 -0.00000000000E+00 -0.16636786875E+03  0.16636786875E+03  0.00000000000E+00 0.  1.
        -13    1    1    2    0    0 -0.13684568380E+03 -0.54222040039E+01  0.15638842935E+02  0.13784312113E+03  0.10566000000E+00 0.  1.
         13    1    1    2    0    0  0.19930868085E+03  0.94601069737E+02  0.10738851453E+03  0.24536832899E+03  0.10566000000E+00 0. -1.
          4    1    1    2  501    0 -0.43111481663E+02 -0.90884705063E+02  0.24316748509E+03  0.26315215232E+03  0.00000000000E+00 0.  1.
         -4    1    1    2    0  503 -0.19351515382E+02  0.17058393297E+01 -0.22693867981E+02  0.29873109636E+02  0.00000000000E+00 0. -1.
</event>
<event>
 6    1  0.5496865E-006  0.6016638E+02  0.7818608E-02  0.1255169E+00
         21   -1    0    0  503  502  0.00000000000E+00  0.00000000000E+00  0.35855179105E+03  0.35855179105E+03  0.00000000000E+00 0.  1.
         21   -1    0    0  501  503 -0.00000000000E+00 -0.00000000000E+00 -0.28745313272E+03  0.28745313272E+03  0.00000000000E+00 0.  1.
        -13    1    1    2    0    0  0.10684208877E+03 -0.19493006795E+02  0.19755673148E+03  0.22544152804E+03  0.10566000000E+00 0.  1.
         13    1    1    2    0    0 -0.50664243042E+02  0.25202583538E+02 -0.61349833147E+02  0.83461661446E+02  0.10566000000E+00 0. -1.
          4    1    1    2  501    0 -0.72659471175E+01 -0.19756037394E+02 -0.19576036674E+03  0.19688884221E+03  0.00000000000E+00 0.  1.
         -4    1    1    2    0  502 -0.48911898607E+02  0.14046460651E+02  0.13065212673E+03  0.14021289207E+03  0.00000000000E+00 0. -1.
</event>
<event>
 6    1  0.5496865E-006  0.3454807E+02  0.7818608E-02  0.1371718E+00
         21   -1    0    0  503  502  0.00000000000E+00  0.00000000000E+00  0.31569049558E+02  0.31569049558E+02  0.00000000000E+00 0.  1.
         21   -1    0    0  501  503 -0.00000000000E+00 -0.00000000000E+00 -0.30842262784E+03  0.30842262784E+03  0.00000000000E+00 0. -1.
        -13    1    1    2    0    0 -0.16609665846E+02 -0.28727884600E+02  0.65623271239E+01  0.33826729881E+02  0.10566000000E+00 0.  1.
         13    1    1    2    0    0  0.99126741389E+01  0.55851655932E+02 -0.13272152878E+03  0.14433531773E+03  0.10566000000E+00 0. -1.
          4    1    1    2  501    0 -0.98919133743E+01 -0.25460263661E+02 -0.13851564200E+03  0.14118306575E+03  0.00000000000E+00 0.  1.
         -4    1    1    2    0  502  0.16588905082E+02 -0.16635076709E+01 -0.12178734636E+02  0.20646564046E+02  0.00000000000E+00 0. -1.
</event>
<event>
 6    1  0.5496865E-006  0.2436792E+03  0.7818608E-02  0.1033721E+00
         21   -1    0    0  503  502  0.00000000000E+00  0.00000000000E+00  0.18736577095E+03  0.18736577095E+03  0.00000000000E+00 0. -1.
         21   -1    0    0  501  503 -0.00000000000E+00 -0.00000000000E+00 -0.55713840263E+03  0.55713840263E+03  0.00000000000E+00 0. -1.
        -13    1    1    2    0    0 -0.21449862610E+03 -0.97487035339E+00 -0.13310960915E+03  0.25244561827E+03  0.10566000000E+00 0.  1.
         13    1    1    2    0    0  0.28399474843E+03  0.11161774010E+02 -0.17320454653E+03  0.33283243297E+03  0.10566000000E+00 0. -1.
          4    1    1    2  501    0  0.43626448939E+01  0.99109027237E+01 -0.80153989284E+02  0.80882140559E+02  0.00000000000E+00 0.  1.
         -4    1    1    2    0  502 -0.73858767221E+02 -0.20097806381E+02  0.16695513284E+02  0.78343981776E+02  0.00000000000E+00 0. -1.
</event>
<event>
 6    1  0.5496865E-006  0.5564105E+02  0.7818608E-02  0.1270383E+00
         21   -1    0    0  503  502  0.00000000000E+00  0.00000000000E+00  0.18390273348E+03  0.18390273348E+03  0.00000000000E+00 0.  1.
         21   -1    0    0  501  503 -0.00000000000E+00 -0.00000000000E+00 -0.41888463093E+02  0.41888463093E+02  0.00000000000E+00 0. -1.
        -13    1    1    2    0    0  0.25230583945E+02  0.52638258414E+02  0.88534043127E+02  0.10604554008E+03  0.10566000000E+00 0.  1.
         13    1    1    2    0    0 -0.21063502221E+02 -0.49246748062E+02  0.23860308379E+02  0.58636497171E+02  0.10566000000E+00 0. -1.
          4    1    1    2  501    0  0.13430494846E+02 -0.70900281317E+01 -0.95976352713E+01  0.17965558536E+02  0.00000000000E+00 0.  1.
         -4    1    1    2    0  502 -0.17597576569E+02  0.36985177798E+01  0.39217554157E+02  0.43143600788E+02  0.00000000000E+00 0. -1.
</event>
<event>
 6    1  0.5496865E-006  0.2504446E+03  0.7818608E-02  0.1069502E+00
         21   -1    0    0  503  502  0.00000000000E+00  0.00000000000E+00  0.82224660549E+02  0.82224660549E+02  0.00000000000E+00 0. -1.
         21   -1    0    0  501  503 -0.00000000000E+00 -0.00000000000E+00 -0.12505208050E+04  0.12505208050E+04  0.00000000000E+00 0. -1.
        -13    1    1    2    0    0 -0.73031440429E+02  0.25117419017E+02 -0.66880588906E+02  0.10216408550E+03  0.10566000000E+00 0.  1.
         13    1    1    2    0    0  0.29618287291E+03  0.21053521636E+02 -0.56955091777E+03  0.64230507088E+03  0.10566000000E+00 0. -1.
          4    1    1    2  501    0 -0.84354276630E+01 -0.58837318531E+01 -0.13387899591E+03  0.13427345340E+03  0.00000000000E+00 0.  1.
         -4    1    1    2    0  502 -0.21471600482E+03 -0.40287208800E+02 -0.39798564182E+03  0.45400285573E+03  0.00000000000E+00 0. -1.
</event>
<event>
 6    1  0.5496865E-006  0.3447471E+02  0.7818608E-02  0.1372206E+00
         21   -1    0    0  501  502  0.00000000000E+00  0.00000000000E+00  0.76328206031E+02  0.76328206031E+02  0.00000000000E+00 0. -1.
         21   -1    0    0  502  503 -0.00000000000E+00 -0.00000000000E+00 -0.88117054640E+02  0.88117054640E+02  0.00000000000E+00 0.  1.
        -13    1    1    2    0    0  0.30622634473E+02 -0.20608379610E+02 -0.86148823453E+01  0.37903540917E+02  0.10566000000E+00 0.  1.
         13    1    1    2    0    0 -0.16682683806E+02  0.25676440055E+02  0.14067662991E+02  0.33697207880E+02  0.10566000000E+00 0. -1.
          4    1    1    2  501    0  0.86919912845E+01  0.23614745642E+02  0.26034439153E+02  0.36207719429E+02  0.00000000000E+00 0.  1.
         -4    1    1    2    0  503 -0.22631941952E+02 -0.28682806087E+02 -0.43276068408E+02  0.56636792444E+02  0.00000000000E+00 0. -1.
</event>
<event>
 6    1  0.5496865E-006  0.2058800E+03  0.7818608E-02  0.1056178E+00
         21   -1    0    0  503  502  0.00000000000E+00  0.00000000000E+00  0.12466980361E+04  0.12466980361E+04  0.00000000000E+00 0. -1.
         21   -1    0    0  501  503 -0.00000000000E+00 -0.00000000000E+00 -0.17537004491E+03  0.17537004491E+03  0.00000000000E+00 0. -1.
        -13    1    1    2    0    0  0.39595637536E+02 -0.16810032291E+03  0.30630064119E+03  0.35163280141E+03  0.10566000000E+00 0.  1.
         13    1    1    2    0    0  0.37464757468E+02  0.17352527242E+03 -0.51822209200E+02  0.18493290878E+03  0.10566000000E+00 0. -1.
          4    1    1    2  501    0 -0.10785278842E+03  0.79017681667E+02  0.11049101083E+03  0.17344820973E+03  0.00000000000E+00 0.  1.
         -4    1    1    2    0  502  0.30792393415E+02 -0.84442631178E+02  0.70635854834E+03  0.71205416105E+03  0.00000000000E+00 0. -1.
</event>
<event>
 6    1  0.5496865E-006  0.3795918E+02  0.7818608E-02  0.1350432E+00
         21   -1    0    0  503  502  0.00000000000E+00  0.00000000000E+00  0.15830383018E+03  0.15830383018E+03  0.00000000000E+00 0.  1.
         21   -1    0    0  501  503 -0.00000000000E+00 -0.00000000000E+00 -0.64560733552E+02  0.64560733552E+02  0.00000000000E+00 0.  1.
        -13    1    1    2    0    0 -0.19258489103E+02 -0.26294438256E+02  0.10755892652E+03  0.11238870372E+03  0.10566000000E+00 0.  1.
         13    1    1    2    0    0  0.16335817931E+02  0.14431153598E+02 -0.32480287906E+02  0.39116459555E+02  0.10566000000E+00 0. -1.
          4    1    1    2  501    0  0.20674698084E+01  0.21928470844E+02 -0.20997857687E+02  0.30430943009E+02  0.00000000000E+00 0.  1.
         -4    1    1    2    0  502  0.85520136370E+00 -0.10065186186E+02  0.39662315698E+02  0.40928457445E+02  0.00000000000E+00 0. -1.
</event>
<event>
 6    1  0.5496865E-006  0.4761921E+02  0.7818608E-02  0.1310120E+00
         21   -1    0    0  501  502  0.00000000000E+00  0.00000000000E+00  0.18637609264E+03  0.18637609264E+03  0.00000000000E+00 0. -1.
         21   -1    0    0  502  503 -0.00000000000E+00 -0.00000000000E+00 -0.58131465896E+02  0.58131465896E+02  0.00000000000E+00 0.  1.
        -13    1    1    2    0    0 -0.15437709293E+02  0.20472402146E+02 -0.72820090375E+01  0.26654848293E+02  0.10566000000E+00 0.  1.
         13    1    1    2    0    0 -0.66649275316E+01 -0.14267214202E+02  0.73882017219E+02  0.75541632842E+02  0.10566000000E+00 0. -1.
          4    1    1    2  501    0 -0.35875629623E+02  0.37066007863E+02  0.44106772758E+02  0.67870149130E+02  0.00000000000E+00 0.  1.
         -4    1    1    2    0  503  0.57978266448E+02 -0.43271195807E+02  0.17537845809E+02  0.74440928275E+02  0.00000000000E+00 0. -1.
</event>
<event>
 6    1  0.5496865E-006  0.1025923E+03  0.7818608E-02  0.1160336E+00
         21   -1    0    0  501  502  0.00000000000E+00  0.00000000000E+00  0.91758602249E+02  0.91758602249E+02  0.00000000000E+00 0. -1.
         21   -1    0    0  502  503 -0.00000000000E+00 -0.00000000000E+00 -0.46322275594E+03  0.46322275594E+03  0.00000000000E+00 0.  1.
        -13    1    1    2    0    0 -0.83435015621E+02 -0.47049210615E+02 -0.29798588559E+03  0.31300260259E+03  0.10566000000E+00 0.  1.
         13    1    1    2    0    0  0.63506870125E+02  0.87009848259E+02  0.39223655644E+02  0.11464005658E+03  0.10566000000E+00 0. -1.
          4    1    1    2  501    0  0.11753099604E+02 -0.15316859192E+02 -0.10677852939E+02  0.22062594344E+02  0.00000000000E+00 0.  1.
         -4    1    1    2    0  503  0.81750458924E+01 -0.24643778452E+02 -0.10202407081E+03  0.10527610468E+03  0.00000000000E+00 0. -1.
</event>
<event>
 6    1  0.5496865E-006  0.9089175E+02  0.7818608E-02  0.1180574E+00
         21   -1    0    0  501  502  0.00000000000E+00  0.00000000000E+00  0.36566097364E+03  0.36566097364E+03  0.00000000000E+00 0. -1.
         21   -1    0    0  502  503 -0.00000000000E+00 -0.00000000000E+00 -0.82640014218E+02  0.82640014218E+02  0.00000000000E+00 0.  1.
        -13    1    1    2    0    0 -0.82325182187E+02  0.49342094429E+02  0.27198930484E+02  0.99759064191E+02  0.10566000000E+00 0.  1.
         13    1    1    2    0    0  0.78861315674E+02 -0.36235890730E+02  0.28883541799E+03  0.30159253429E+03  0.10566000000E+00 0. -1.
          4    1    1    2  501    0  0.11792988458E+02  0.23222037771E+01 -0.33260447552E+01  0.12471157961E+02  0.00000000000E+00 0.  1.
         -4    1    1    2    0  503 -0.83291219461E+01 -0.15428407476E+02 -0.29687344304E+02  0.34478231415E+02  0.00000000000E+00 0. -1.
</event>
<event>
 6    1  0.5496865E-006  0.2328079E+03  0.7818608E-02  0.1039708E+00
         21   -1    0    0  503  502  0.00000000000E+00  0.00000000000E+00  0.70794628710E+02  0.70794628710E+02  0.00000000000E+00 0.  1.
         21   -1    0    0  501  503 -0.00000000000E+00 -0.00000000000E+00 -0.18961603535E+04  0.18961603535E+04  0.00000000000E+00 0. -1.
        -13    1    1    2    0    0 -0.15210194637E+03  0.14522460183E+03 -0.42119937272E+03  0.47078032012E+03  0.10566000000E+00 0.  1.
         13    1    1    2    0    0  0.20806796397E+03 -0.14652072507E+03 -0.72245471555E+03  0.76596437756E+03  0.10566000000E+00 0. -1.
          4    1    1    2  501    0 -0.10375298714E+02 -0.45068043338E+01 -0.68409639495E+03  0.68418991201E+03  0.00000000000E+00 0.  1.
         -4    1    1    2    0  502 -0.45590718886E+02  0.58029275694E+01  0.23847584064E+01  0.46020372549E+02  0.00000000000E+00 0. -1.
</event>
<event>
 6    1  0.5496865E-006  0.2460286E+02  0.7818608E-02  0.1454357E+00
         21   -1    0    0  503  502  0.00000000000E+00  0.00000000000E+00  0.38388346733E+02  0.38388346733E+02  0.00000000000E+00 0. -1.
         21   -1    0    0  501  503 -0.00000000000E+00 -0.00000000000E+00 -0.26052238614E+03  0.26052238614E+03  0.00000000000E+00 0. -1.
        -13    1    1    2    0    0  0.20789667382E+02 -0.83261031584E+00 -0.46990705697E+02  0.51391060465E+02  0.10566000000E+00 0.  1.
         13    1    1    2    0    0 -0.18587954207E+02  0.33346887028E+02 -0.14365840285E+03  0.14864479402E+03  0.10566000000E+00 0. -1.
          4    1    1    2  501    0 -0.48001487599E+01 -0.17351519184E+02 -0.62075741238E+02  0.64633693197E+02  0.00000000000E+00 0.  1.
         -4    1    1    2    0  502  0.25984355849E+01 -0.15162757527E+02  0.30590810380E+02  0.34241185187E+02  0.00000000000E+00 0. -1.
</event>
<event>
 6    1  0.5496865E-006  0.9634278E+02  0.7818608E-02  0.1170752E+00
         21   -1    0    0  501  502  0.00000000000E+00  0.00000000000E+00  0.10857954475E+04  0.10857954475E+04  0.00000000000E+00 0. -1.
         21   -1    0    0  502  503 -0.00000000000E+00 -0.00000000000E+00 -0.10063026877E+03  0.10063026877E+03  0.00000000000E+00 0.  1.
        -13    1    1    2    0    0 -0.22735569244E+01  0.12598669769E+03  0.46736276942E+02  0.13439534145E+03  0.10566000000E+00 0.  1.
         13    1    1    2    0    0 -0.73069252694E+02 -0.25457239593E+02  0.45260255047E+03  0.45916910457E+03  0.10566000000E+00 0. -1.
          4    1    1    2  501    0  0.21388107301E+02 -0.65063626059E+02  0.51675126175E+03  0.52127017283E+03  0.00000000000E+00 0.  1.
         -4    1    1    2    0  503  0.53954702317E+02 -0.35465832038E+02 -0.30924910435E+02  0.71591097419E+02  0.00000000000E+00 0. -1.
</event>
<event>
 6    1  0.8550143E-006  0.2705995E+03  0.7818608E-02  0.1020238E+00
         21   -1    0    0  503  502  0.00000000000E+00  0.00000000000E+00  0.34260983525E+03  0.34260983525E+03  0.00000000000E+00 0.  1.
         21   -1    0    0  501  503 -0.00000000000E+00 -0.00000000000E+00 -0.13701134888E+04  0.13701134888E+04  0.00000000000E+00 0. -1.
        -13    1    1    2    0    0 -0.26468045018E+03 -0.56857115400E+02  0.21583232583E+03  0.34622547035E+03  0.10566000000E+00 0.  1.
         13    1    1    2    0    0  0.22147862763E+03 -0.16544533302E+03 -0.82341603761E+03  0.86858443623E+03  0.10566000000E+00 0. -1.
          4    1    1    2  501    0  0.11226015803E+02  0.14346942739E+02 -0.17107705992E+03  0.17204423451E+03  0.00000000000E+00 0.  1.
         -4    1    1    2    0  502  0.31975806752E+02  0.20795550568E+03 -0.24884288187E+03  0.32586918298E+03  0.00000000000E+00 0. -1.
</event>
<event>
 6    1  0.5496865E-006  0.8543440E+02  0.7818608E-02  0.1191201E+00
         21   -1    0    0  501  502  0.00000000000E+00  0.00000000000E+00  0.44020214068E+03  0.44020214068E+03  0.00000000000E+00 0. -1.
         21   -1    0    0  502  503 -0.00000000000E+00 -0.00000000000E+00 -0.72807711288E+02  0.72807711288E+02  0.00000000000E+00 0. -1.
        -13    1    1    2    0    0 -0.21689585743E+02 -0.81822865776E+02  0.32424374316E+02  0.90646404823E+02  0.10566000000E+00 0.  1.
         13    1    1    2    0    0  0.49883957272E+02  0.66784495741E+02  0.34008891248E+03  0.35015576194E+03  0.10566000000E+00 0. -1.
          4    1    1    2  501    0 -0.88019328601E+01  0.99115071240E+01  0.29419041400E+02  0.32267506759E+02  0.00000000000E+00 0.  1.
         -4    1    1    2    0  503 -0.19392438669E+02  0.51268629109E+01 -0.34537898801E+02  0.39940178448E+02  0.00000000000E+00 0. -1.
</event>
<event>
 6    1  0.5496865E-006  0.2339649E+03  0.7818608E-02  0.1039055E+00
         21   -1    0    0  503  502  0.00000000000E+00  0.00000000000E+00  0.17780037085E+03  0.17780037085E+03  0.00000000000E+00 0.  1.
         21   -1    0    0  501  503 -0.00000000000E+00 -0.00000000000E+00 -0.60442582138E+03  0.60442582138E+03  0.00000000000E+00 0. -1.
        -13    1    1    2    0    0  0.25480308076E+03 -0.77988962136E+02 -0.24519259112E+03  0.36211366459E+03  0.10566000000E+00 0.  1.
         13    1    1    2    0    0 -0.20985632894E+03 -0.88670470719E+01 -0.12754866430E+03  0.24573761667E+03  0.10566000000E+00 0. -1.
          4    1    1    2  501    0 -0.26806540573E+02 -0.21159789856E+02 -0.55116583653E+02  0.64839533603E+02  0.00000000000E+00 0.  1.
         -4    1    1    2    0  502 -0.18140211250E+02  0.10801579906E+03  0.12323885440E+01  0.10953537736E+03  0.00000000000E+00 0. -1.
</event>
<event>
 6    1  0.5496865E-006  0.6951644E+02  0.7818608E-02  0.1239742E+00
         21   -1    0    0  503  502  0.00000000000E+00  0.00000000000E+00  0.63092556412E+02  0.63092556412E+02  0.00000000000E+00 0. -1.
         21   -1    0    0  501  503 -0.00000000000E+00 -0.00000000000E+00 -0.43543810411E+03  0.43543810411E+03  0.00000000000E+00 0.  1.
        -13    1    1    2    0    0 -0.25217177405E+02  0.28833580890E+02 -0.13309837074E+02  0.40551749040E+02  0.10566000000E+00 0.  1.
         13    1    1    2    0    0  0.10691526505E+02 -0.90568887987E+02 -0.77996442397E+01  0.91530747973E+02  0.10566000000E+00 0. -1.
          4    1    1    2  501    0  0.15268320767E+01  0.69974527441E+02 -0.34065677512E+03  0.34777263283E+03  0.00000000000E+00 0.  1.
         -4    1    1    2    0  502  0.12998818824E+02 -0.82392203445E+01 -0.10579291266E+02  0.18675530686E+02  0.00000000000E+00 0. -1.
</event>
<event>
 6    1  0.5496865E-006  0.9075323E+02  0.7818608E-02  0.1180833E+00
         21   -1    0    0  503  502  0.00000000000E+00  0.00000000000E+00  0.14756622802E+03  0.14756622802E+03  0.00000000000E+00 0.  1.
         21   -1    0    0  501  503 -0.00000000000E+00 -0.00000000000E+00 -0.24719313887E+03  0.24719313887E+03  0.00000000000E+00 0. -1.
        -13    1    1    2    0    0 -0.11990843178E+03 -0.18675072108E+02 -0.11339940482E+02  0.12188271307E+03  0.10566000000E+00 0.  1.
         13    1    1    2    0    0  0.43997623974E+02  0.64267064150E+02 -0.64359198551E+02  0.10103545938E+03  0.10566000000E+00 0. -1.
          4    1    1    2  501    0  0.48566248822E+02 -0.41504106339E+02 -0.84104677468E+02  0.10561660920E+03  0.00000000000E+00 0.  1.
         -4    1    1    2    0  502  0.27344558986E+02 -0.40878857027E+01  0.60176905655E+02  0.66224585238E+02  0.00000000000E+00 0. -1.
</event>
<event>
 6    1  0.5496865E-006  0.3636374E+02  0.7818608E-02  0.1360914E+00
         21   -1    0    0  501  502  0.00000000000E+00  0.00000000000E+00  0.21659471551E+03  0.21659471551E+03  0.00000000000E+00 0. -1.
         21   -1    0    0  502  503 -0.00000000000E+00 -0.00000000000E+00 -0.16079690009E+03  0.16079690009E+03  0.00000000000E+00 0. -1.
        -13    1    1    2    0    0  0.12267299937E+02  0.36745795571E+02  0.45444374507E+02  0.59715512877E+02  0.10566000000E+00 0.  1.
         13    1    1    2    0    0 -0.40715209291E+02 -0.32924301944E+02  0.10078573420E+03  0.11357602436E+03  0.10566000000E+00 0. -1.
          4    1    1    2  501    0 -0.76157514351E+01 -0.70714232909E+01  0.54106055358E+02  0.55095098908E+02  0.00000000000E+00 0.  1.
         -4    1    1    2    0  503  0.36063660789E+02  0.32499296641E+01 -0.14453834865E+03  0.14900497945E+03  0.00000000000E+00 0. -1.
</event>
<event>
 6    1  0.5496865E-006  0.2162531E+03  0.7818608E-02  0.1049531E+00
         21   -1    0    0  503  502  0.00000000000E+00  0.00000000000E+00  0.38527273847E+03  0.38527273847E+03  0.00000000000E+00 0. -1.
         21   -1    0    0  501  503 -0.00000000000E+00 -0.00000000000E+00 -0.18922666237E+03  0.18922666237E+03  0.00000000000E+00 0.  1.
        -13    1    1    2    0    0 -0.13384378072E+03  0.19069696472E+03  0.28661555720E+02  0.23473599198E+03  0.10566000000E+00 0.  1.
         13    1    1    2    0    0  0.59012374735E+02 -0.18787761577E+03  0.13404220634E+03  0.23821793199E+03  0.10566000000E+00 0. -1.
          4    1    1    2  501    0  0.32289956484E+02  0.27231552726E+02  0.24148542980E+02  0.48655430136E+02  0.00000000000E+00 0.  1.
         -4    1    1    2    0  502  0.42541449503E+02 -0.30050901670E+02  0.91937710592E+01  0.52890046732E+02  0.00000000000E+00 0. -1.
</event>
<event>
 6    1  0.5496865E-006  0.7653560E+02  0.7818608E-02  0.1210554E+00
         21   -1    0    0  503  502  0.00000000000E+00  0.00000000000E+00  0.90342260163E+02  0.90342260163E+02  0.00000000000E+00 0.  1.
         21   -1    0    0  501  503 -0.00000000000E+00 -0.00000000000E+00 -0.31322713825E+03  0.31322713825E+03  0.00000000000E+00 0. -1.
        -13    1    1    2    0    0  0.41970953430E+01 -0.59240366924E+02  0.90555592576E+01  0.60075377653E+02  0.10566000000E+00 0.  1.
         13    1    1    2    0    0 -0.89704436899E+01  0.73048114203E+02 -0.24570543477E+03  0.25649106747E+03  0.10566000000E+00 0. -1.
          4    1    1    2  501    0  0.64110888962E+01  0.79795227363E+01 -0.33448194758E+02  0.34979373586E+02  0.00000000000E+00 0.  1.
         -4    1    1    2    0  502 -0.16377405492E+01 -0.21787270015E+02  0.47213192189E+02  0.52023579706E+02  0.00000000000E+00 0. -1.
</event>
<event>
 6    1  0.5496865E-006  0.8317909E+02  0.7818608E-02  0.1195852E+00
         21   -1    0    0  503  502  0.00000000000E+00  0.00000000000E+00  0.34375689147E+03  0.34375689147E+03  0.00000000000E+00 0.  1.
         21   -1    0    0  501  503 -0.00000000000E+00 -0.00000000000E+00 -0.82060389814E+02  0.82060389814E+02  0.00000000000E+00 0.  1.
        -13    1    1    2    0    0  0.13223989182E+02  0.10681908526E+03  0.12952099674E+03  0.16840691977E+03  0.10566000000E+00 0.  1.
         13    1    1    2    0    0  0.31320378001E+02 -0.62498618348E+02  0.38575353351E+02  0.79844301135E+02  0.10566000000E+00 0. -1.
          4    1    1    2  501    0 -0.35925082839E+02 -0.22975701939E+02 -0.29808266016E+02  0.52029099353E+02  0.00000000000E+00 0.  1.
         -4    1    1    2    0  502 -0.86192843432E+01 -0.21344764972E+02  0.12340841759E+03  0.12553696103E+03  0.00000000000E+00 0. -1.
</event>
<event>
 6    1  0.5496865E-006  0.1109489E+03  0.7818608E-02  0.1155967E+00
         21   -1    0    0  501  502  0.00000000000E+00  0.00000000000E+00  0.13547114181E+03  0.13547114181E+03  0.00000000000E+00 0. -1.
         21   -1    0    0  502  503 -0.00000000000E+00 -0.00000000000E+00 -0.32927539483E+03  0.32927539483E+03  0.00000000000E+00 0.  1.
        -13    1    1    2    0    0  0.44282780725E+02 -0.52512215659E+02 -0.21983602649E+02  0.72123417915E+02  0.10566000000E+00 0.  1.
         13    1    1    2    0    0 -0.90470340292E+02  0.14871938735E+03 -0.28746519784E+01  0.17409943548E+03  0.10566000000E+00 0. -1.
          4    1    1    2  501    0  0.60811132278E+02 -0.98382200595E+02 -0.11701155525E+03  0.16452584984E+03  0.00000000000E+00 0.  1.
         -4    1    1    2    0  503 -0.14623572711E+02  0.21750289079E+01 -0.51934443134E+02  0.53997833413E+02  0.00000000000E+00 0. -1.
</event>
<event>
 6    1  0.5496865E-006  0.2034616E+03  0.7818608E-02  0.1057788E+00
         21   -1    0    0  501  502  0.00000000000E+00  0.00000000000E+00  0.10763679682E+04  0.10763679682E+04  0.00000000000E+00 0. -1.
         21   -1    0    0  502  503 -0.00000000000E+00 -0.00000000000E+00 -0.13293491774E+03  0.13293491774E+03  0.00000000000E+00 0.  1.
        -13    1    1    2    0    0 -0.14793685624E+03  0.14145842408E+03  0.28877867470E+03  0.35396176814E+03  0.10566000000E+00 0.  1.
         13    1    1    2    0    0  0.17656561374E+03 -0.14226663746E+03  0.61728121745E+03  0.65761031369E+03  0.10566000000E+00 0. -1.
          4    1    1    2  501    0 -0.62507593032E+02  0.36374537285E+01  0.10487901053E+03  0.12214760376E+03  0.00000000000E+00 0.  1.
         -4    1    1    2    0  503  0.33878835532E+02 -0.28292403504E+01 -0.67505852192E+02  0.75583200369E+02  0.00000000000E+00 0. -1.
</event>
<event>
 6    1  0.5496865E-006  0.3809988E+03  0.7818608E-02  0.9785584E-01
         21   -1    0    0  503  502  0.00000000000E+00  0.00000000000E+00  0.15495200231E+04  0.15495200231E+04  0.00000000000E+00 0. -1.
         21   -1    0    0  501  503 -0.00000000000E+00 -0.00000000000E+00 -0.46156528121E+03  0.46156528121E+03  0.00000000000E+00 0.  1.
        -13    1    1    2    0    0 -0.18711058663E+03 -0.32798478476E+03  0.10727119313E+04  0.11372314142E+04  0.10566000000E+00 0.  1.
         13    1    1    2    0    0  0.20751262588E+03  0.30201063148E+03 -0.55866392007E+02  0.37066558560E+03  0.10566000000E+00 0. -1.
          4    1    1    2  501    0 -0.81574939966E+01  0.26636454432E+02 -0.21500964320E+03  0.21680680820E+03  0.00000000000E+00 0.  1.
         -4    1    1    2    0  502 -0.12244545252E+02 -0.66230115688E+00  0.28611884583E+03  0.28638149639E+03  0.00000000000E+00 0. -1.
</event>
<event>
 6    1  0.5496865E-006  0.2161180E+03  0.7818608E-02  0.1049615E+00
         21   -1    0    0  503  502  0.00000000000E+00  0.00000000000E+00  0.52154386205E+03  0.52154386205E+03  0.00000000000E+00 0.  1.
         21   -1    0    0  501  503 -0.00000000000E+00 -0.00000000000E+00 -0.23522409475E+03  0.23522409475E+03  0.00000000000E+00 0. -1.
        -13    1    1    2    0    0 -0.44472249468E+02  0.26143168051E+03  0.35723932959E+02  0.26758272571E+03  0.10566000000E+00 0.  1.
         13    1    1    2    0    0 -0.32435550856E+02 -0.16733411268E+03  0.11788782680E+03  0.20724459244E+03  0.10566000000E+00 0. -1.
          4    1    1    2  501    0  0.10047563452E+02 -0.31569129835E+00 -0.58155897634E+02  0.59018315987E+02  0.00000000000E+00 0.  1.
         -4    1    1    2    0  502  0.66860236872E+02 -0.93781876537E+02  0.19086390519E+03  0.22292232267E+03  0.00000000000E+00 0. -1.
</event>
<event>
 6    1  0.5496865E-006  0.6429157E+02  0.7818608E-02  0.1242551E+00
         21   -1    0    0  501  502  0.00000000000E+00  0.00000000000E+00  0.21091926153E+02  0.21091926153E+02  0.00000000000E+00 0. -1.
         21   -1    0    0  502  503 -0.00000000000E+00 -0.00000000000E+00 -0.75243505610E+03  0.75243505610E+03  0.00000000000E+00 0. -1.
        -13    1    1    2    0    0  0.29690177411E+02  0.41866225642E+02 -0.12676032415E+03  0.13675700504E+03  0.10566000000E+00 0.  1.
         13    1    1    2    0    0 -0.56490374157E+02 -0.59988643813E+02 -0.15720738264E+03  0.17749358320E+03  0.10566000000E+00 0. -1.
          4    1    1    2  501    0  0.14393850771E+02  0.13097003013E+02 -0.10341851766E+02  0.22037883880E+02  0.00000000000E+00 0.  1.
         -4    1    1    2    0  503  0.12406345975E+02  0.50254151581E+01 -0.43703357140E+03  0.43723851014E+03  0.00000000000E+00 0. -1.
</event>
<event>
 6    1  0.5496865E-006  0.4070487E+02  0.7818608E-02  0.1348356E+00
         21   -1    0    0  503  502  0.00000000000E+00  0.00000000000E+00  0.23896707825E+03  0.23896707825E+03  0.00000000000E+00 0.  1.
         21   -1    0    0  501  503 -0.00000000000E+00 -0.00000000000E+00 -0.99274354787E+02  0.99274354787E+02  0.00000000000E+00 0.  1.
        -13    1    1    2    0    0 -0.76958144166E+01  0.22847729980E+02  0.14574016821E+03  0.14772085878E+03  0.10566000000E+00 0.  1.
         13    1    1    2    0    0  0.30378872878E+02 -0.83489916160E+01 -0.38021732527E+02  0.49378587330E+02  0.10566000000E+00 0. -1.
          4    1    1    2  501    0 -0.37548893807E+02 -0.20543437603E+02 -0.45239531774E+02  0.62278146166E+02  0.00000000000E+00 0.  1.
         -4    1    1    2    0  502  0.14865835346E+02  0.60446992392E+01  0.77213819556E+02  0.78863840763E+02  0.00000000000E+00 0. -1.
</event>
<event>
 6    1  0.5496865E-006  0.3078943E+03  0.7818608E-02  0.1004099E+00
         21   -1    0    0  503  502  0.00000000000E+00  0.00000000000E+00  0.79619008781E+03  0.79619008781E+03  0.00000000000E+00 0. -1.
         21   -1    0    0  501  503 -0.00000000000E+00 -0.00000000000E+00 -0.50172573065E+03  0.50172573065E+03  0.00000000000E+00 0. -1.
        -13    1    1    2    0    0  0.12966400202E+03  0.21696258815E+03 -0.83438007632E+02  0.26617180609E+03  0.10566000000E+00 0.  1.
         13    1    1    2    0    0  0.99695250253E+02 -0.38265100922E+03  0.18335469225E+03  0.43586682841E+03  0.10566000000E+00 0. -1.
          4    1    1    2  501    0 -0.19092083661E+03  0.13170380229E+03 -0.13095430349E+03  0.26635631585E+03  0.00000000000E+00 0.  1.
         -4    1    1    2    0  502 -0.38438415667E+02  0.33984618784E+02  0.32550197604E+03  0.32952086811E+03  0.00000000000E+00 0. -1.
</event>
<event>
 6    1  0.5496865E-006  0.9755230E+02  0.7818608E-02  0.1168670E+00
         21   -1    0    0  501  502  0.00000000000E+00  0.00000000000E+00  0.29890477476E+03  0.29890477476E+03  0.00000000000E+00 0.  1.
         21   -1    0    0  502  503 -0.00000000000E+00 -0.00000000000E+00 -0.26279347458E+03  0.26279347458E+03  0.00000000000E+00 0.  1.
        -13    1    1    2    0    0 -0.67578316546E+02  0.53717851249E+02 -0.20579348897E+03  0.22316677099E+03  0.10566000000E+00 0.  1.
         13    1    1    2    0    0  0.79924166385E+02 -0.52898126336E+02  0.35675640881E+02  0.10226850277E+03  0.10566000000E+00 0. -1.
          4    1    1    2  501    0 -0.87470977564E+01 -0.18503675995E+02  0.21515745530E+03  0.21612873089E+03  0.00000000000E+00 0.  1.
         -4    1    1    2    0  503 -0.35987520818E+01  0.17683951082E+02 -0.89283070349E+01  0.20134244682E+02  0.00000000000E+00 0. -1.
</event>
<event>
 6    1  0.5496865E-006  0.1820524E+03  0.7818608E-02  0.1073189E+00
         21   -1    0    0  503  502  0.00000000000E+00  0.00000000000E+00  0.11203533316E+03  0.11203533316E+03  0.00000000000E+00 0. -1.
         21   -1    0    0  501  503 -0.00000000000E+00 -0.00000000000E+00 -0.99238914124E+03  0.99238914124E+03  0.00000000000E+00 0. -1.
        -13    1    1    2    0    0  0.74459631764E+02 -0.13283089666E+03 -0.20979458179E+03  0.25923360427E+03  0.10566000000E+00 0.  1.
         13    1    1    2    0    0 -0.13958871165E+03  0.18055260748E+03 -0.20731149499E+03  0.30832177933E+03  0.10566000000E+00 0. -1.
          4    1    1    2  501    0  0.23536567102E+01 -0.21417275763E+02 -0.46813453680E+03  0.46863011421E+03  0.00000000000E+00 0.  1.
         -4    1    1    2    0  502  0.62775423179E+02 -0.26304435056E+02  0.48868054985E+01  0.68238976596E+02  0.00000000000E+00 0. -1.
</event>
<event>
 6    1  0.5496865E-006  0.8477287E+02  0.7818608E-02  0.1192549E+00
         21   -1    0    0  503  502  0.00000000000E+00  0.00000000000E+00  0.90497026344E+03  0.90497026344E+03  0.00000000000E+00 0.  1.
         21   -1    0    0  501  503 -0.00000000000E+00 -0.00000000000E+00 -0.54098429801E+02  0.54098429801E+02  0.00000000000E+00 0. -1.
        -13    1    1    2    0    0 -0.10214813969E+03 -0.62299131108E+02  0.62743677972E+03  0.63874278695E+03  0.10566000000E+00 0.  1.
         13    1    1    2    0    0  0.76626630717E+02  0.35182052864E+02  0.37588794099E+02  0.92316553145E+02  0.10566000000E+00 0. -1.
          4    1    1    2  501    0 -0.98189391307E+01  0.99901087125E+01 -0.16639398760E+02  0.21750481117E+02  0.00000000000E+00 0.  1.
         -4    1    1    2    0  502  0.35340448101E+02  0.17126969531E+02  0.20248565858E+03  0.20625887202E+03  0.00000000000E+00 0. -1.
</event>
<event>
 6    1  0.5756151E-006  0.6969200E+02  0.7818608E-02  0.1227538E+00
         21   -1    0    0  501  502  0.00000000000E+00  0.00000000000E+00  0.62171751519E+03  0.62171751519E+03  0.00000000000E+00 0.  1.
         21   -1    0    0  502  503 -0.00000000000E+00 -0.00000000000E+00 -0.66106292672E+03  0.66106292672E+03  0.00000000000E+00 0.  1.
        -13    1    1    2    0    0 -0.45484280419E+02 -0.79310681127E+02 -0.49252211729E+03  0.50093617467E+03  0.10566000000E+00 0.  1.
         13    1    1    2    0    0  0.46392807645E+02  0.51477210127E+02 -0.34604075667E+02  0.77457401070E+02  0.10566000000E+00 0. -1.
          4    1    1    2  501    0  0.10883971151E+02 -0.14572305191E+02  0.59146627721E+03  0.59174586605E+03  0.00000000000E+00 0.  1.
         -4    1    1    2    0  503 -0.11792498376E+02  0.42405776191E+02 -0.10368549579E+03  0.11264100012E+03  0.00000000000E+00 0. -1.
</event>
<event>
 6    1  0.5496865E-006  0.5815991E+02  0.7818608E-02  0.1261722E+00
         21   -1    0    0  503  502  0.00000000000E+00  0.00000000000E+00  0.81685610807E+03  0.81685610807E+03  0.00000000000E+00 0.  1.
         21   -1    0    0  501  503 -0.00000000000E+00 -0.00000000000E+00 -0.56391897964E+03  0.56391897964E+03  0.00000000000E+00 0.  1.
        -13    1    1    2    0    0 -0.72978219312E+01  0.78923841346E+02  0.44845777919E+03  0.45540819253E+03  0.10566000000E+00 0.  1.
         13    1    1    2    0    0 -0.59419156797E+02 -0.24719747677E+02  0.21290042703E+03  0.22241471425E+03  0.10566000000E+00 0. -1.
          4    1    1    2  501    0  0.43335784262E+02 -0.37088385943E+02 -0.55277936955E+03  0.55571446802E+03  0.00000000000E+00 0.  1.
         -4    1    1    2    0  502  0.23381194466E+02 -0.17115707726E+02  0.14435829175E+03  0.14723771291E+03  0.00000000000E+00 0. -1.
</event>
<event>
 6    1  0.5496865E-006  0.4989660E+02  0.7818608E-02  0.1307983E+00
         21   -1    0    0  503  502  0.00000000000E+00  0.00000000000E+00  0.13664424842E+02  0.13664424842E+02  0.00000000000E+00 0. -1.
         21   -1    0    0  501  503 -0.00000000000E+00 -0.00000000000E+00 -0.67421297508E+03  0.67421297508E+03  0.00000000000E+00 0.  1.
        -13    1    1    2    0    0  0.43154434378E+01 -0.68788517029E+02 -0.15607978003E+03  0.17062060844E+03  0.10566000000E+00 0.  1.
         13    1    1    2    0    0  0.66897283014E+01  0.40392807295E+02 -0.15408445222E+03  0.15943136745E+03  0.10566000000E+00 0. -1.
          4    1    1    2  501    0  0.57717787963E+01  0.44962283520E+02 -0.27871540752E+03  0.28237775896E+03  0.00000000000E+00 0.  1.
         -4    1    1    2    0  502 -0.16776950535E+02 -0.16566573786E+02 -0.71668910468E+02  0.75447665066E+02  0.00000000000E+00 0. -1.
</event>
<event>
 6    1  0.5496865E-006  0.1593347E+03  0.7818608E-02  0.1092254E+00
         21   -1    0    0  501  502  0.00000000000E+00  0.00000000000E+00  0.10921773089E+03  0.10921773089E+03  0.00000000000E+00 0. -1.
         21   -1    0    0  502  503 -0.00000000000E+00 -0.00000000000E+00 -0.11219563182E+04  0.11219563182E+04  0.00000000000E+00 0.  1.
        -13    1    1    2    0    0  0.16170898599E+03  0.11057370585E+03 -0.42482373977E+03  0.46781573468E+03  0.10566000000E+00 0.  1.
         13    1    1    2    0    0 -0.14875408203E+03  0.60778390559E+02 -0.26971313676E+02  0.16293941391E+03  0.10566000000E+00 0. -1.
          4    1    1    2  501    0  0.24317974062E+02 -0.14896163992E+03 -0.29947658731E+03  0.33536123863E+03  0.00000000000E+00 0.  1.
         -4    1    1    2    0  503 -0.37272878024E+02 -0.22390456488E+02 -0.26146694652E+03  0.26505766184E+03  0.00000000000E+00 0. -1.
</event>
<event>
 6    1  0.5496865E-006  0.6590530E+02  0.7818608E-02  0.1245905E+00
         21   -1    0    0  503  502  0.00000000000E+00  0.00000000000E+00  0.49258639433E+03  0.49258639433E+03  0.00000000000E+00 0. -1.
         21   -1    0    0  501  503 -0.00000000000E+00 -0.00000000000E+00 -0.58333048241E+02  0.58333048241E+02  0.00000000000E+00 0.  1.
        -13    1    1    2    0    0 -0.80214633694E+01 -0.57467521924E+02  0.20161292077E+03  0.20979666569E+03  0.10566000000E+00 0.  1.
         13    1    1    2    0    0 -0.64526627826E+02  0.70836885631E+02  0.15632550441E+03  0.18335545958E+03  0.10566000000E+00 0. -1.
          4    1    1    2  501    0  0.25581061165E+02  0.11693774628E+02 -0.28603206814E+02  0.40115813533E+02  0.00000000000E+00 0.  1.
         -4    1    1    2    0  502  0.46967030030E+02 -0.25063138336E+02  0.10491812773E+03  0.11765150377E+03  0.00000000000E+00 0. -1.
</event>
<event>
 6    1  0.5496865E-006  0.9914508E+02  0.7818608E-02  0.1165978E+00
         21   -1    0    0  503  502  0.00000000000E+00  0.00000000000E+00  0.40330905059E+03  0.40330905059E+03  0.00000000000E+00 0.  1.
         21   -1    0    0  501  503 -0.00000000000E+00 -0.00000000000E+00 -0.18601532785E+03  0.18601532785E+03  0.00000000000E+00 0. -1.
        -13    1    1    2    0    0  0.18364057552E+02 -0.13177806408E+03  0.13759720485E+03  0.19140454208E+03  0.10566000000E+00 0.  1.
         13    1    1    2    0    0  0.13782107382E+02  0.62871427452E+02 -0.11541444632E+03  0.13214866044E+03  0.10566000000E+00 0. -1.
          4    1    1    2  501    0  0.10313521459E+02  0.36925928449E+02 -0.20658300591E+02  0.43550640639E+02  0.00000000000E+00 0.  1.
         -4    1    1    2    0  502 -0.42459686394E+02  0.31980708175E+02  0.21576926481E+03  0.22222053528E+03  0.00000000000E+00 0. -1.
</event>
<event>
 6    1  0.5496865E-006  0.1743020E+03  0.7818608E-02  0.1103277E+00
         21   -1    0    0  501  502  0.00000000000E+00  0.00000000000E+00  0.30776930796E+03  0.30776930796E+03  0.00000000000E+00 0. -1.
         21   -1    0    0  502  503 -0.00000000000E+00 -0.00000000000E+00 -0.97022584209E+03  0.97022584209E+03  0.00000000000E+00 0. -1.
        -13    1    1    2    0    0  0.82365560546E+02 -0.60552217737E+02 -0.82702914944E+02  0.13149311747E+03  0.10566000000E+00 0.  1.
         13    1    1    2    0    0  0.14374873975E+03  0.19322814473E+03  0.14143818490E+03  0.27929480376E+03  0.10566000000E+00 0. -1.
          4    1    1    2  501    0 -0.22333339883E+03 -0.14609590500E+03 -0.17124776091E+03  0.31709244095E+03  0.00000000000E+00 0.  1.
         -4    1    1    2    0  503 -0.27809014714E+01  0.13419978006E+02 -0.54994404317E+03  0.55011478788E+03  0.00000000000E+00 0. -1.
</event>
<event>
 6    1  0.5496865E-006  0.1840870E+03  0.7818608E-02  0.1071629E+00
         21   -1    0    0  503  502  0.00000000000E+00  0.00000000000E+00  0.10581658125E+04  0.10581658125E+04  0.00000000000E+00 0. -1.
         21   -1    0    0  501  503 -0.00000000000E+00 -0.00000000000E+00 -0.10982262037E+03  0.10982262037E+03  0.00000000000E+00 0. -1.
        -13    1    1    2    0    0  0.17661029271E+03 -0.19314703802E+01  0.13927187203E+03  0.22492574679E+03  0.10566000000E+00 0.  1.
         13    1    1    2    0    0 -0.18809074073E+03 -0.25889454300E+02  0.75631655708E+02  0.20437355284E+03  0.10566000000E+00 0. -1.
          4    1    1    2  501    0 -0.12091921256E+02  0.30977594996E+02  0.11294089138E+03  0.11773474805E+03  0.00000000000E+00 0.  1.
         -4    1    1    2    0  502  0.23572369273E+02 -0.31566703161E+01  0.62049877303E+03  0.62095438519E+03  0.00000000000E+00 0. -1.
</event>
<event>
 6    1  0.5496865E-006  0.1695221E+03  0.7818608E-02  0.1083307E+00
         21   -1    0    0  503  502  0.00000000000E+00  0.00000000000E+00  0.18238390250E+03  0.18238390250E+03  0.00000000000E+00 0.  1.
         21   -1    0    0  501  503 -0.00000000000E+00 -0.00000000000E+00 -0.40299935046E+03  0.40299935046E+03  0.00000000000E+00 0. -1.
        -13    1    1    2    0    0 -0.80693567350E+02 -0.14332871910E+03  0.33412723092E+02  0.16784217217E+03  0.10566000000E+00 0.  1.
         13    1    1    2    0    0  0.11943873317E+03  0.12257381740E+03 -0.11877191610E+03  0.20831882035E+03  0.10566000000E+00 0. -1.
          4    1    1    2  501    0 -0.26804321322E+02  0.26261359000E+02 -0.16894289609E+03  0.17306019980E+03  0.00000000000E+00 0.  1.
         -4    1    1    2    0  502 -0.11940844498E+02 -0.55064572985E+01  0.33686641125E+02  0.36162060638E+02  0.00000000000E+00 0. -1.
</event>
<event>
 6    1  0.5496865E-006  0.4056094E+02  0.7818608E-02  0.1386683E+00
         21   -1    0    0  503  502  0.00000000000E+00  0.00000000000E+00  0.37690137655E+03  0.37690137655E+03  0.00000000000E+00 0. -1.
         21   -1    0    0  501  503 -0.00000000000E+00 -0.00000000000E+00 -0.53344500399E+02  0.53344500399E+02  0.00000000000E+00 0.  1.
        -13    1    1    2    0    0 -0.12908415309E+02  0.96624604399E+01  0.74877216508E+02  0.76593727182E+02  0.10566000000E+00 0.  1.
         13    1    1    2    0    0 -0.27965977712E+02 -0.25218321843E+02 -0.21538816371E+01  0.37718828668E+02  0.10566000000E+00 0. -1.
          4    1    1    2  501    0 -0.58091820197E+00  0.15021165178E+02 -0.29202770201E+02  0.32844705155E+02  0.00000000000E+00 0.  1.
         -4    1    1    2    0  502  0.41455311222E+02  0.53469622501E+00  0.28003631148E+03  0.28308861595E+03  0.00000000000E+00 0. -1.
</event>
<event>
 6    1  0.5496865E-006  0.1677355E+03  0.7818608E-02  0.1092791E+00
         21   -1    0    0  503  502  0.00000000000E+00  0.00000000000E+00  0.41521925569E+03  0.41521925569E+03  0.00000000000E+00 0.  1.
         21   -1    0    0  501  503 -0.00000000000E+00 -0.00000000000E+00 -0.55964253460E+03  0.55964253460E+03  0.00000000000E+00 0.  1.
        -13    1    1    2    0    0 -0.29100463317E+02  0.13997666561E+03  0.96844834087E+02  0.17268247431E+03  0.10566000000E+00 0.  1.
         13    1    1    2    0    0  0.13251203800E+03  0.37378173598E+02 -0.31865175678E+02  0.14132221574E+03  0.10566000000E+00 0. -1.
          4    1    1    2  501    0  0.20009789963E+02 -0.33203705885E+02 -0.39412539402E+03  0.39602740308E+03  0.00000000000E+00 0.  1.
         -4    1    1    2    0  502 -0.12342136465E+03 -0.14415113332E+03  0.18472245670E+03  0.26482969716E+03  0.00000000000E+00 0. -1.
</event>
<event>
 6    1  0.5496865E-006  0.4350741E+02  0.7818608E-02  0.1320746E+00
         21   -1    0    0  501  502  0.00000000000E+00  0.00000000000E+00  0.94475059204E+02  0.94475059204E+02  0.00000000000E+00 0. -1.
         21   -1    0    0  502  503 -0.00000000000E+00 -0.00000000000E+00 -0.24121790815E+03  0.24121790815E+03  0.00000000000E+00 0.  1.
        -13    1    1    2    0    0 -0.10867585966E+02 -0.52066087699E+02 -0.14192126344E+03  0.15156067463E+03  0.10566000000E+00 0.  1.
         13    1    1    2    0    0  0.19671890843E+02  0.54789752440E+02  0.52512151057E+02  0.78399218327E+02  0.10566000000E+00 0. -1.
          4    1    1    2  501    0 -0.58677716422E+01 -0.15638161752E+02  0.20691516724E+02  0.26591760216E+02  0.00000000000E+00 0.  1.
         -4    1    1    2    0  503 -0.29365332346E+01  0.12914497011E+02 -0.78025253289E+02  0.79141314187E+02  0.00000000000E+00 0. -1.
</event>
<event>
 6    1  0.5496865E-006  0.1180289E+03  0.7818608E-02  0.1137754E+00
         21   -1    0    0  501  502  0.00000000000E+00  0.00000000000E+00  0.30386639049E+03  0.30386639049E+03  0.00000000000E+00 0. -1.
         21   -1    0    0  502  503 -0.00000000000E+00 -0.00000000000E+00 -0.50540385676E+03  0.50540385676E+03  0.00000000000E+00 0. -1.
        -13    1    1    2    0    0 -0.46742351272E+02  0.99162620353E+02 -0.16872648283E+03  0.20121309562E+03  0.10566000000E+00 0.  1.
         13    1    1    2    0    0  0.29407519617E+02 -0.97378463440E+02  0.79347915400E+02  0.12900957404E+03  0.10566000000E+00 0. -1.
          4    1    1    2  501    0  0.26163832245E+02 -0.13073008860E+02  0.18210302156E+03  0.18443687305E+03  0.00000000000E+00 0.  1.
         -4    1    1    2    0  503 -0.88290005898E+01  0.11288851948E+02 -0.29426192041E+03  0.29461070454E+03  0.00000000000E+00 0. -1.
</event>
<event>
 6    1  0.5496865E-006  0.1653326E+03  0.7818608E-02  0.1098398E+00
         21   -1    0    0  503  502  0.00000000000E+00  0.00000000000E+00  0.41775591322E+03  0.41775591322E+03  0.00000000000E+00 0.  1.
         21   -1    0    0  501  503 -0.00000000000E+00 -0.00000000000E+00 -0.37046289192E+03  0.37046289192E+03  0.00000000000E+00 0.  1.
        -13    1    1    2    0    0 -0.41256114602E+02  0.24479491090E+03  0.21856855970E+03  0.33075495740E+03  0.10566000000E+00 0.  1.
         13    1    1    2    0    0 -0.51092902748E+02 -0.10960288358E+03 -0.79535294799E+02  0.14473821570E+03  0.10566000000E+00 0. -1.
          4    1    1    2  501    0  0.82230339650E+02 -0.13461172741E+03 -0.17110229038E+03  0.23271901446E+03  0.00000000000E+00 0.  1.
         -4    1    1    2    0  502  0.10118677701E+02 -0.58029990444E+00  0.79362046786E+02  0.80006617579E+02  0.00000000000E+00 0. -1.
</event>
<event>
 6    1  0.5496865E-006  0.2628693E+03  0.7818608E-02  0.1060917E+00
         21   -1    0    0  503  502  0.00000000000E+00  0.00000000000E+00  0.24930914147E+03  0.24930914147E+03  0.00000000000E+00 0.  1.
         21   -1    0    0  501  503 -0.00000000000E+00 -0.00000000000E+00 -0.75567790202E+03  0.75567790202E+03  0.00000000000E+00 0.  1.
        -13    1    1    2    0    0  0.32272029823E+03 -0.94350292936E+02 -0.45907338114E+02  0.33934917640E+03  0.10566000000E+00 0.  1.
         13    1    1    2    0    0 -0.74493980302E+02  0.40615052811E+02 -0.68685559897E+02  0.10916342299E+03  0.10566000000E+00 0. -1.
          4    1    1    2  501    0 -0.24488108368E+03  0.34370851765E+02 -0.43981882376E+03  0.50456783323E+03  0.00000000000E+00 0.  1.
         -4    1    1    2    0  502 -0.33452342495E+01  0.19364388361E+02  0.48042961230E+02  0.51906610875E+02  0.00000000000E+00 0. -1.
</event>
<event>
 6    1  0.5496865E-006  0.1228569E+03  0.7818608E-02  0.1131458E+00
         21   -1    0    0  503  502  0.00000000000E+00  0.00000000000E+00  0.61266483627E+03  0.61266483627E+03  0.00000000000E+00 0.  1.
         21   -1    0    0  501  503 -0.00000000000E+00 -0.00000000000E+00 -0.91480822755E+02  0.91480822755E+02  0.00000000000E+00 0. -1.
        -13    1    1    2    0    0 -0.17190248487E+02 -0.12807044342E+03  0.43367085133E+03  0.45251294078E+03  0.10566000000E+00 0.  1.
         13    1    1    2    0    0 -0.45262945377E+02  0.11981123799E+03  0.52561353136E+02  0.13844195166E+03  0.10566000000E+00 0. -1.
          4    1    1    2  501    0  0.18801142915E+02 -0.12185359444E+01 -0.29361625506E+02  0.34886571300E+02  0.00000000000E+00 0.  1.
         -4    1    1    2    0  502  0.43652050949E+02  0.94777413699E+01  0.64313434550E+02  0.78304195272E+02  0.00000000000E+00 0. -1.
</event>
<event>
 6    1  0.5496865E-006  0.2929705E+02  0.7818608E-02  0.1462688E+00
         21   -1    0    0  501  502  0.00000000000E+00  0.00000000000E+00  0.59855586568E+03  0.59855586568E+03  0.00000000000E+00 0.  1.
         21   -1    0    0  502  503 -0.00000000000E+00 -0.00000000000E+00 -0.55850309476E+02  0.55850309476E+02  0.00000000000E+00 0.  1.
        -13    1    1    2    0    0 -0.31441618806E+02 -0.18358026966E+01 -0.21213442819E+02  0.37973239063E+02  0.10566000000E+00 0.  1.
         13    1    1    2    0    0  0.76818787474E+01 -0.51001390581E+02  0.16159826363E+03  0.16962948763E+03  0.10566000000E+00 0. -1.
          4    1    1    2  501    0  0.68598263542E+01  0.43359124958E+02  0.41896584273E+03  0.42125935990E+03  0.00000000000E+00 0.  1.
         -4    1    1    2    0  503  0.16899913705E+02  0.94780683196E+01 -0.16645107331E+02  0.25544088560E+02  0.00000000000E+00 0. -1.
</event>
<event>
 6    1  0.5496865E-006  0.1606171E+03  0.7818608E-02  0.1091088E+00
         21   -1    0    0  503  502  0.00000000000E+00  0.00000000000E+00  0.19993558370E+03  0.19993558370E+03  0.00000000000E+00 0.  1.
         21   -1    0    0  501  503 -0.00000000000E+00 -0.00000000000E+00 -0.55545954907E+03  0.55545954907E+03  0.00000000000E+00 0. -1.
        -13    1    1    2    0    0 -0.14549415018E+03  0.92789233886E+02  0.94021669432E+02  0.19651583944E+03  0.10566000000E+00 0.  1.
         13    1    1    2    0    0  0.17218906783E+03 -0.50879466496E+01 -0.36782805012E+03  0.40616800452E+03  0.10566000000E+00 0. -1.
          4    1    1    2  501    0 -0.13592832931E+02  0.85235025080E+00 -0.58730966131E+02  0.60289451737E+02  0.00000000000E+00 0.  1.
         -4    1    1    2    0  502 -0.13102084720E+02 -0.88553637487E+02 -0.22986618551E+02  0.92421837077E+02  0.00000000000E+00 0. -1.
</event>
<event>
 6    1  0.5496865E-006  0.1061444E+03  0.7818608E-02  0.1154771E+00
         21   -1    0    0  501  502  0.00000000000E+00  0.00000000000E+00  0.55182990312E+02  0.55182990312E+02  0.00000000000E+00 0.  1.
         21   -1    0    0  502  503 -0.00000000000E+00 -0.00000000000E+00 -0.50214921288E+03  0.50214921288E+03  0.00000000000E+00 0. -1.
        -13    1    1    2    0    0  0.71682326373E+02 -0.96014801358E+02 -0.66060018912E+02  0.13682519964E+03  0.10566000000E+00 0.  1.
         13    1    1    2    0    0 -0.15480038415E+02  0.99233578013E+02 -0.21258020357E+03  0.23511122625E+03  0.10566000000E+00 0. -1.
          4    1    1    2  501    0 -0.91411250509E+01  0.96757936218E+01 -0.38828742510E+01  0.13865708127E+02  0.00000000000E+00 0.  1.
         -4    1    1    2    0  503 -0.47061162908E+02 -0.12894570276E+02 -0.16444312584E+03  0.17153006918E+03  0.00000000000E+00 0. -1.
</event>
<event>
 6    1  0.5496865E-006  0.3928319E+03  0.7818608E-02  0.9749979E-01
         21   -1    0    0  501  502  0.00000000000E+00  0.00000000000E+00  0.15378652610E+03  0.15378652610E+03  0.00000000000E+00 0. -1.
         21   -1    0    0  502  503 -0.00000000000E+00 -0.00000000000E+00 -0.18444641484E+04  0.18444641484E+04  0.00000000000E+00 0.  1.
        -13    1    1    2    0    0 -0.38215492214E+03 -0.12451734510E+03 -0.67193388531E+03  0.78297005763E+03  0.10566000000E+00 0.  1.
         13    1    1    2    0    0  0.36862571870E+03  0.91210593653E+02 -0.46052025462E+03  0.59689463807E+03  0.10566000000E+00 0. -1.
          4    1    1    2  501    0  0.26908975509E+02  0.34401257156E+02  0.14107721761E+02  0.45897355808E+02  0.00000000000E+00 0.  1.
         -4    1    1    2    0  503 -0.13379772065E+02 -0.10945057096E+01 -0.57233120416E+03  0.57248862303E+03  0.00000000000E+00 0. -1.
</event>
<event>
 6    1  0.5496865E-006  0.1232442E+03  0.7818608E-02  0.1130967E+00
         21   -1    0    0  501  502  0.00000000000E+00  0.00000000000E+00  0.21204433479E+03  0.21204433479E+03  0.00000000000E+00 0. -1.
         21   -1    0    0  502  503 -0.00000000000E+00 -0.00000000000E+00 -0.19887474696E+03  0.19887474696E+03  0.00000000000E+00 0.  1.
        -13    1    1    2    0    0 -0.60195436202E+02 -0.12613609990E+03 -0.75980628946E+02  0.15908134201E+03  0.10566000000E+00 0.  1.
         13    1    1    2    0    0 -0.31225944580E+01  0.12150209383E+03 -0.12232845738E+02  0.12215630594E+03  0.10566000000E+00 0. -1.
          4    1    1    2  501    0 -0.20079552549E+01 -0.10476498997E+02  0.29555155562E+02  0.31421268845E+02  0.00000000000E+00 0.  1.
         -4    1    1    2    0  503  0.65325985915E+02  0.15110505070E+02  0.71827906951E+02  0.98260164951E+02  0.00000000000E+00 0. -1.
</event>
<event>
 6    1  0.5496865E-006  0.2024001E+03  0.7818608E-02  0.1058503E+00
         21   -1    0    0  501  502  0.00000000000E+00  0.00000000000E+00  0.67642886129E+03  0.67642886129E+03  0.00000000000E+00 0. -1.
         21   -1    0    0  502  503 -0.00000000000E+00 -0.00000000000E+00 -0.52545797555E+03  0.52545797555E+03  0.00000000000E+00 0.  1.
        -13    1    1    2    0    0 -0.18185444566E+03  0.10936543134E+03  0.10121219732E+03  0.23510796888E+03  0.10566000000E+00 0.  1.
         13    1    1    2    0    0  0.16856936793E+03 -0.10125988203E+03  0.11245505104E+03  0.22652890584E+03  0.10566000000E+00 0. -1.
          4    1    1    2  501    0 -0.86353806374E+01  0.10473444624E+02  0.33812628211E+03  0.33839864878E+03  0.00000000000E+00 0.  1.
         -4    1    1    2    0  503  0.21920458366E+02 -0.18578993929E+02 -0.40082264472E+03  0.40185131334E+03  0.00000000000E+00 0. -1.
</event>
<event>
 6    1  0.5496865E-006  0.6183117E+02  0.7818608E-02  0.1249945E+00
         21   -1    0    0  503  502  0.00000000000E+00  0.00000000000E+00  0.21968894158E+03  0.21968894158E+03  0.00000000000E+00 0.  1.
         21   -1    0    0  501  503 -0.00000000000E+00 -0.00000000000E+00 -0.31572709546E+03  0.31572709546E+03  0.00000000000E+00 0.  1.
        -13    1    1    2    0    0  0.59541387631E+02  0.47612653532E+02  0.79397234800E+02  0.11007303791E+03  0.10566000000E+00 0.  1.
         13    1    1    2    0    0 -0.63291744429E+02 -0.80510610953E+01 -0.74482293092E+02  0.98072869061E+02  0.10566000000E+00 0. -1.
          4    1    1    2  501    0  0.89995048540E+01 -0.17899191370E+02 -0.21253834676E+03  0.21348049322E+03  0.00000000000E+00 0.  1.
         -4    1    1    2    0  502 -0.52491480557E+01 -0.21662401066E+02  0.11158525117E+03  0.11378963685E+03  0.00000000000E+00 0. -1.
</event>
<event>
 6    1  0.5496865E-006  0.5483612E+02  0.7818608E-02  0.1273260E+00
         21   -1    0    0  503  502  0.00000000000E+00  0.00000000000E+00  0.23471431604E+03  0.23471431604E+03  0.00000000000E+00 0.  1.
         21   -1    0    0  501  503 -0.00000000000E+00 -0.00000000000E+00 -0.61455621114E+02  0.61455621114E+02  0.00000000000E+00 0. -1.
        -13    1    1    2    0    0  0.22302385369E+01 -0.45388380668E+02  0.97873531913E+02  0.10790884337E+03  0.10566000000E+00 0.  1.
         13    1    1    2    0    0 -0.35354528342E+02  0.30156611465E+02 -0.31149112007E+02  0.55943205416E+02  0.10566000000E+00 0. -1.
          4    1    1    2  501    0  0.29151528273E+02 -0.22899529297E+02  0.34124803223E+02  0.50385535996E+02  0.00000000000E+00 0.  1.
         -4    1    1    2    0  502  0.39727615328E+01  0.38131298500E+02  0.72409471793E+02  0.81932352370E+02  0.00000000000E+00 0. -1.
</event>
<event>
 6    1  0.5496865E-006  0.1636658E+03  0.7818608E-02  0.1118079E+00
         21   -1    0    0  501  502  0.00000000000E+00  0.00000000000E+00  0.41352804155E+03  0.41352804155E+03  0.00000000000E+00 0.  1.
         21   -1    0    0  502  503 -0.00000000000E+00 -0.00000000000E+00 -0.38712781877E+03  0.38712781877E+03  0.00000000000E+00 0.  1.
        -13    1    1    2    0    0 -0.17441652464E+03 -0.70979136486E+02 -0.27512923569E+03  0.33339956415E+03  0.10566000000E+00 0.  1.
         13    1    1    2    0    0  0.72554021519E+02 -0.12969413134E+02  0.18285844274E+03  0.19715352637E+03  0.10566000000E+00 0. -1.
          4    1    1    2  501    0  0.11689006109E+03  0.11244859255E+03  0.15303489229E+03  0.22299697443E+03  0.00000000000E+00 0.  1.
         -4    1    1    2    0  503 -0.15027557977E+02 -0.28500042926E+02 -0.34363876556E+02  0.47105795370E+02  0.00000000000E+00 0. -1.
</event>
<event>
 6    1  0.5496865E-006  0.2273386E+03  0.7818608E-02  0.1083068E+00
         21   -1    0    0  503  502  0.00000000000E+00  0.00000000000E+00  0.49049519463E+03  0.49049519463E+03  0.00000000000E+00 0.  1.
         21   -1    0    0  501  503 -0.00000000000E+00 -0.00000000000E+00 -0.23004545137E+03  0.23004545137E+03  0.00000000000E+00 0.  1.
        -13    1    1    2    0    0  0.73983898207E+02  0.20349028879E+03  0.22834487879E+03  0.31467969375E+03  0.10566000000E+00 0.  1.
         13    1    1    2    0    0  0.37478618963E+01  0.84769785126E+02 -0.15420006279E+02  0.86242395008E+02  0.10566000000E+00 0. -1.
          4    1    1    2  501    0 -0.94304725604E+02 -0.23362775732E+03  0.64479766155E+02  0.26006335863E+03  0.00000000000E+00 0.  1.
         -4    1    1    2    0  502  0.16572965501E+02 -0.54632316600E+02 -0.16954895402E+02  0.59555198603E+02  0.00000000000E+00 0. -1.
</event>
<event>
 6    1  0.5496865E-006  0.5906096E+02  0.7818608E-02  0.1275174E+00
         21   -1    0    0  503  502  0.00000000000E+00  0.00000000000E+00  0.90314573758E+02  0.90314573758E+02  0.00000000000E+00 0.  1.
         21   -1    0    0  501  503 -0.00000000000E+00 -0.00000000000E+00 -0.18623449633E+03  0.18623449633E+03  0.00000000000E+00 0.  1.
        -13    1    1    2    0    0 -0.25610085182E+02 -0.31101014101E+02  0.31286882198E+01  0.40409768561E+02  0.10566000000E+00 0.  1.
         13    1    1    2    0    0  0.76293282511E+02  0.32633018932E+02 -0.42172070127E+02  0.93081005279E+02  0.10566000000E+00 0. -1.
          4    1    1    2  501    0  0.33954475864E+01 -0.16455339315E+02 -0.80465296135E+02  0.82200797675E+02  0.00000000000E+00 0.  1.
         -4    1    1    2    0  502 -0.54078644915E+02  0.14923334484E+02  0.23588755471E+02  0.60857498574E+02  0.00000000000E+00 0. -1.
</event>
<event>
 6    1  0.5496865E-006  0.1002705E+03  0.7818608E-02  0.1164109E+00
         21   -1    0    0  501  502  0.00000000000E+00  0.00000000000E+00  0.31554061258E+03  0.31554061258E+03  0.00000000000E+00 0.  1.
         21   -1    0    0  502  503 -0.00000000000E+00 -0.00000000000E+00 -0.18272291586E+03  0.18272291586E+03  0.00000000000E+00 0.  1.
        -13    1    1    2    0    0 -0.10300792497E+03  0.10106049099E+03 -0.40233393698E+01  0.14436084604E+03  0.10566000000E+00 0.  1.
         13    1    1    2    0    0  0.66023415567E+02 -0.31560253295E+02 -0.56070824075E+02  0.92190506386E+02  0.10566000000E+00 0. -1.
          4    1    1    2  501    0  0.31390729780E+02 -0.33724237559E+02  0.21460892326E+03  0.21949872906E+03  0.00000000000E+00 0.  1.
         -4    1    1    2    0  503  0.55937796199E+01 -0.35776000138E+02 -0.21697063095E+02  0.42213446948E+02  0.00000000000E+00 0. -1.
</event>
<event>
 6    1  0.5496865E-006  0.1407947E+03  0.7818608E-02  0.1110563E+00
         21   -1    0    0  501  502  0.00000000000E+00  0.00000000000E+00  0.60318887544E+03  0.60318887544E+03  0.00000000000E+00 0. -1.
         21   -1    0    0  502  503 -0.00000000000E+00 -0.00000000000E+00 -0.85763674253E+02  0.85763674253E+02  0.00000000000E+00 0.  1.
        -13    1    1    2    0    0  0.14681924554E+03 -0.96227486811E+00  0.10043581733E+03  0.17788811484E+03  0.10566000000E+00 0.  1.
         13    1    1    2    0    0 -0.13498212503E+03 -0.71873088374E+01  0.12926365065E+03  0.18703190645E+03  0.10566000000E+00 0. -1.
          4    1    1    2  501    0 -0.52285516550E+01 -0.17535669409E+02  0.29575612402E+03  0.29632165353E+03  0.00000000000E+00 0.  1.
         -4    1    1    2    0  503 -0.66085688497E+01  0.25685253114E+02 -0.80303908183E+01  0.27710874877E+02  0.00000000000E+00 0. -1.
</event>
<event>
 6    1  0.5496865E-006  0.4490611E+02  0.7818608E-02  0.1314044E+00
         21   -1    0    0  503  502  0.00000000000E+00  0.00000000000E+00  0.50747125096E+02  0.50747125096E+02  0.00000000000E+00 0. -1.
         21   -1    0    0  501  503 -0.00000000000E+00 -0.00000000000E+00 -0.96772896166E+03  0.96772896166E+03  0.00000000000E+00 0.  1.
        -13    1    1    2    0    0  0.94552548679E+01  0.59934648635E+02 -0.11703276995E+03  0.13182656924E+03  0.10566000000E+00 0.  1.
         13    1    1    2    0    0  0.21339119949E+02 -0.36187199524E+02 -0.16179860551E+02  0.45018557296E+02  0.10566000000E+00 0. -1.
          4    1    1    2  501    0 -0.38865153199E+01 -0.17433176338E+02 -0.80597738346E+03  0.80617526834E+03  0.00000000000E+00 0.  1.
         -4    1    1    2    0  502 -0.26907859497E+02 -0.63142727739E+01  0.22208177395E+02  0.35455691878E+02  0.00000000000E+00 0. -1.
</event>
<event>
 6    1  0.5496865E-006  0.2482246E+03  0.7818608E-02  0.1031317E+00
         21   -1    0    0  503  502  0.00000000000E+00  0.00000000000E+00  0.10618255889E+04  0.10618255889E+04  0.00000000000E+00 0. -1.
         21   -1    0    0  501  503 -0.00000000000E+00 -0.00000000000E+00 -0.19189255628E+03  0.19189255628E+03  0.00000000000E+00 0. -1.
        -13    1    1    2    0    0  0.52496459727E+01  0.23873399056E+03  0.41849235814E+03  0.48182708726E+03  0.10566000000E+00 0.  1.
         13    1    1    2    0    0 -0.73894045049E+02 -0.21810531835E+03 -0.59081734256E+02  0.23774129274E+03  0.10566000000E+00 0. -1.
          4    1    1    2  501    0  0.38646806288E+02 -0.40564119411E+02  0.59631633054E+02  0.81822705165E+02  0.00000000000E+00 0.  1.
         -4    1    1    2    0  502  0.29997592788E+02  0.19935447202E+02  0.45089077572E+03  0.45232706005E+03  0.00000000000E+00 0. -1.
</event>
<event>
 6    1  0.5496865E-006  0.2773133E+02  0.7818608E-02  0.1437356E+00
         21   -1    0    0  503  502  0.00000000000E+00  0.00000000000E+00  0.50896947462E+02  0.50896947462E+02  0.00000000000E+00 0. -1.
         21   -1    0    0  501  503 -0.00000000000E+00 -0.00000000000E+00 -0.13916949079E+03  0.13916949079E+03  0.00000000000E+00 0.  1.
        -13    1    1    2    0    0  0.11384169290E+02  0.11726093647E+02 -0.28138151574E+01  0.16584007429E+02  0.10566000000E+00 0.  1.
         13    1    1    2    0    0 -0.21189714249E+02  0.13431459597E+01 -0.81145472423E+02  0.83877332396E+02  0.10566000000E+00 0. -1.
          4    1    1    2  501    0 -0.93900579031E+01 -0.37201923207E+02 -0.30606843327E+02  0.49080903987E+02  0.00000000000E+00 0.  1.
         -4    1    1    2    0  502  0.19195602861E+02  0.24132683601E+02  0.26293587581E+02  0.40524194438E+02  0.00000000000E+00 0. -1.
</event>
<event>
 6    1  0.5496865E-006  0.2920861E+03  0.7818608E-02  0.1010627E+00
         21   -1    0    0  503  502  0.00000000000E+00  0.00000000000E+00  0.19569883457E+04  0.19569883457E+04  0.00000000000E+00 0.  1.
         21   -1    0    0  501  503 -0.00000000000E+00 -0.00000000000E+00 -0.18592836090E+03  0.18592836090E+03  0.00000000000E+00 0. -1.
        -13    1    1    2    0    0 -0.98516652026E+02  0.35024458777E+03  0.87613470445E+03  0.94867741276E+03  0.10566000000E+00 0.  1.
         13    1    1    2    0    0  0.64735681147E+02 -0.24926050797E+03  0.34255868533E+01  0.25755243167E+03  0.10566000000E+00 0. -1.
          4    1    1    2  501    0  0.37052251825E+02 -0.18441446401E+02  0.19868813915E-01  0.41387881143E+02  0.00000000000E+00 0.  1.
         -4    1    1    2    0  502 -0.32712809463E+01 -0.82542633397E+02  0.89147982472E+03  0.89529898107E+03  0.00000000000E+00 0. -1.
</event>
<event>
 6    1  0.5496865E-006  0.7632558E+02  0.7818608E-02  0.1211045E+00
         21   -1    0    0  501  502  0.00000000000E+00  0.00000000000E+00  0.30535103113E+03  0.30535103113E+03  0.00000000000E+00 0. -1.
         21   -1    0    0  502  503 -0.00000000000E+00 -0.00000000000E+00 -0.48538466430E+02  0.48538466430E+02  0.00000000000E+00 0.  1.
        -13    1    1    2    0    0  0.92435920635E+02  0.83376296305E+01  0.57654559716E+02  0.10926104023E+03  0.10566000000E+00 0.  1.
         13    1    1    2    0    0 -0.71570688158E+02 -0.21328726219E+02  0.17742045895E+03  0.19249755423E+03  0.10566000000E+00 0. -1.
          4    1    1    2  501    0  0.26911692965E+01  0.98017494936E+01  0.26057885032E+02  0.27970163705E+02  0.00000000000E+00 0.  1.
         -4    1    1    2    0  503 -0.23556401774E+02  0.31893470954E+01 -0.43203389961E+01  0.24160739402E+02  0.00000000000E+00 0. -1.
</event>
<event>
 6    1  0.5496865E-006  0.2822919E+03  0.7818608E-02  0.1014895E+00
         21   -1    0    0  501  502  0.00000000000E+00  0.00000000000E+00  0.24397293094E+03  0.24397293094E+03  0.00000000000E+00 0. -1.
         21   -1    0    0  502  503 -0.00000000000E+00 -0.00000000000E+00 -0.49051599266E+03  0.49051599266E+03  0.00000000000E+00 0.  1.
        -13    1    1    2    0    0 -0.12534737703E+03 -0.23391695269E+03 -0.84275067425E+02  0.27844461538E+03  0.10566000000E+00 0.  1.
         13    1    1    2    0    0  0.17863086740E+03  0.24140772770E+03 -0.19906768885E+03  0.36029797903E+03  0.10566000000E+00 0. -1.
          4    1    1    2  501    0 -0.47914671859E+02  0.19334276439E+02  0.23043978555E+01  0.51719824770E+02  0.00000000000E+00 0.  1.
         -4    1    1    2    0  503 -0.53688185142E+01 -0.26825051450E+02  0.34495296704E+02  0.44026504429E+02  0.00000000000E+00 0. -1.
</event>
<event>
 6    1  0.5496865E-006  0.4691925E+02  0.7818608E-02  0.1304867E+00
         21   -1    0    0  501  502  0.00000000000E+00  0.00000000000E+00  0.80744685017E+02  0.80744685017E+02  0.00000000000E+00 0.  1.
         21   -1    0    0  502  503 -0.00000000000E+00 -0.00000000000E+00 -0.58898176222E+03  0.58898176222E+03  0.00000000000E+00 0. -1.
        -13    1    1    2    0    0  0.24562200659E+02  0.35290600364E+02 -0.59806639829E+02  0.73658492429E+02  0.10566000000E+00 0.  1.
         13    1    1    2    0    0 -0.67698538640E+00 -0.39385573267E+02  0.27339883557E+02  0.47949578598E+02  0.10566000000E+00 0. -1.
          4    1    1    2  501    0 -0.36227503560E+02 -0.34406897439E+00  0.26995915372E+02  0.45181078389E+02  0.00000000000E+00 0.  1.
         -4    1    1    2    0  503  0.12342288288E+02  0.44390418779E+01 -0.50276623631E+03  0.50293729783E+03  0.00000000000E+00 0. -1.
</event>
<event>
 6    1  0.5496865E-006  0.1724890E+03  0.7818608E-02  0.1080828E+00
         21   -1    0    0  503  502  0.00000000000E+00  0.00000000000E+00  0.45497023380E+03  0.45497023380E+03  0.00000000000E+00 0. -1.
         21   -1    0    0  501  503 -0.00000000000E+00 -0.00000000000E+00 -0.21638302122E+03  0.21638302122E+03  0.00000000000E+00 0. -1.
        -13    1    1    2    0    0 -0.14094110688E+03 -0.14504265703E+03  0.22446000300E+03  0.30213254058E+03  0.10566000000E+00 0.  1.
         13    1    1    2    0    0  0.14352898158E+03  0.11477017803E+03 -0.48834107964E+02  0.19015137018E+03  0.10566000000E+00 0. -1.
          4    1    1    2  501    0  0.67827505656E+02  0.48686753480E+01  0.77189708945E+02  0.10287140366E+03  0.00000000000E+00 0.  1.
         -4    1    1    2    0  502 -0.70415380349E+02  0.25403803644E+02 -0.14228391397E+02  0.76197940596E+02  0.00000000000E+00 0. -1.
</event>
<event>
 6    1  0.5496865E-006  0.2843279E+02  0.7818608E-02  0.1449625E+00
         21   -1    0    0  501  502  0.00000000000E+00  0.00000000000E+00  0.17514666544E+03  0.17514666544E+03  0.00000000000E+00 0.  1.
         21   -1    0    0  502  503 -0.00000000000E+00 -0.00000000000E+00 -0.12091201546E+03  0.12091201546E+03  0.00000000000E+00 0. -1.
        -13    1    1    2    0    0  0.38189215190E+01 -0.13088315481E+02 -0.15376744495E+02  0.20550999952E+02  0.10566000000E+00 0.  1.
         13    1    1    2    0    0  0.35662318154E+02  0.35794491156E+02  0.56454187479E+02  0.75763665310E+02  0.10566000000E+00 0. -1.
          4    1    1    2  501    0 -0.34343540654E+02 -0.99346705474E+01  0.10290913742E+03  0.10894249413E+03  0.00000000000E+00 0.  1.
         -4    1    1    2    0  503 -0.51376990185E+01 -0.12771505127E+02 -0.89751930419E+02  0.90801521509E+02  0.00000000000E+00 0. -1.
</event>
<event>
 6    1  0.5496865E-006  0.1650184E+03  0.7818608E-02  0.1087176E+00
         21   -1    0    0  503  502  0.00000000000E+00  0.00000000000E+00  0.41252386165E+03  0.41252386165E+03  0.00000000000E+00 0. -1.
         21   -1    0    0  501  503 -0.00000000000E+00 -0.00000000000E+00 -0.45497347467E+03  0.45497347467E+03  0.00000000000E+00 0. -1.
        -13    1    1    2    0    0  0.10726840635E+03  0.10786787799E+03 -0.25875154879E+03  0.30015723424E+03  0.10566000000E+00 0.  1.
         13    1    1    2    0    0 -0.10337168687E+03 -0.14494455720E+03 -0.11162670890E+03  0.21013130089E+03  0.10566000000E+00 0. -1.
          4    1    1    2  501    0  0.95592433892E+01  0.11698845488E+02 -0.99638709808E+01  0.18097536983E+02  0.00000000000E+00 0.  1.
         -4    1    1    2    0  502 -0.13455962862E+02  0.25377833724E+02  0.33789251565E+03  0.33911126421E+03  0.00000000000E+00 0. -1.
</event>
<event>
 6    1  0.5496865E-006  0.1548926E+03  0.7818608E-02  0.1096384E+00
         21   -1    0    0  503  502  0.00000000000E+00  0.00000000000E+00  0.53874670344E+02  0.53874670344E+02  0.00000000000E+00 0.  1.
         21   -1    0    0  501  503 -0.00000000000E+00 -0.00000000000E+00 -0.99704749935E+03  0.99704749935E+03  0.00000000000E+00 0.  1.
        -13    1    1    2    0    0  0.10778977785E+03  0.15138286239E+03 -0.26325754760E+03  0.32224207479E+03  0.10566000000E+00 0.  1.
         13    1    1    2    0    0 -0.11548356159E+03 -0.74090759692E+02 -0.22526914625E+03  0.26376522342E+03  0.10566000000E+00 0. -1.
          4    1    1    2  501    0 -0.79184739534E+01 -0.47503548798E+02 -0.38003220761E+03  0.38307149229E+03  0.00000000000E+00 0.  1.
         -4    1    1    2    0  502  0.15612257700E+02 -0.29788553904E+02 -0.74613927536E+02  0.81843379186E+02  0.00000000000E+00 0. -1.
</event>
<event>
 6    1  0.5496865E-006  0.1121092E+03  0.7818608E-02  0.1145940E+00
         21   -1    0    0  503  502  0.00000000000E+00  0.00000000000E+00  0.11970921311E+03  0.11970921311E+03  0.00000000000E+00 0.  1.
         21   -1    0    0  501  503 -0.00000000000E+00 -0.00000000000E+00 -0.23262008109E+03  0.23262008109E+03  0.00000000000E+00 0. -1.
        -13    1    1    2    0    0  0.73928587137E+01  0.10871229617E+03  0.16563096896E+02  0.11021508536E+03  0.10566000000E+00 0.  1.
         13    1    1    2    0    0  0.50893596494E+01 -0.96384139768E+02 -0.14389982455E+03  0.17327139016E+03  0.10566000000E+00 0. -1.
          4    1    1    2  501    0 -0.17398236856E+01 -0.26162496427E+02 -0.18127514552E+02  0.31876480194E+02  0.00000000000E+00 0.  1.
         -4    1    1    2    0  502 -0.10742394677E+02  0.13834340025E+02  0.32553374223E+02  0.36966338480E+02  0.00000000000E+00 0. -1.
</event>
<event>
 6    1  0.5496865E-006  0.1576790E+03  0.7818608E-02  0.1113201E+00
         21   -1    0    0  501  502  0.00000000000E+00  0.00000000000E+00  0.14249411699E+04  0.14249411699E+04  0.00000000000E+00 0.  1.
         21   -1    0    0  502  503 -0.00000000000E+00 -0.00000000000E+00 -0.11731451868E+03  0.11731451868E+03  0.00000000000E+00 0.  1.
        -13    1    1    2    0    0 -0.20614384546E+03  0.72946860526E+02  0.86678603393E+02  0.23522270497E+03  0.10566000000E+00 0.  1.
         13    1    1    2    0    0  0.92550649110E+02  0.13226832084E+02  0.98787550717E+02  0.13601309892E+03  0.10566000000E+00 0. -1.
          4    1    1    2  501    0  0.11619459163E+03 -0.10166292212E+03  0.11381692964E+04  0.11485930002E+04  0.00000000000E+00 0.  1.
         -4    1    1    2    0  503 -0.26013952758E+01  0.15489229505E+02 -0.16008799353E+02  0.22426884419E+02  0.00000000000E+00 0. -1.
</event>
<event>
 6    1  0.5496865E-006  0.8297461E+02  0.7818608E-02  0.1201168E+00
         21   -1    0    0  503  502  0.00000000000E+00  0.00000000000E+00  0.45755965395E+03  0.45755965395E+03  0.00000000000E+00 0.  1.
         21   -1    0    0  501  503 -0.00000000000E+00 -0.00000000000E+00 -0.47728245855E+03  0.47728245855E+03  0.00000000000E+00 0. -1.
        -13    1    1    2    0    0 -0.57199948696E+02  0.11279907112E+03  0.17988817041E+03  0.21989822554E+03  0.10566000000E+00 0.  1.
         13    1    1    2    0    0  0.57542999548E+02 -0.29826821487E+02 -0.31875887280E+03  0.32528151842E+03  0.10566000000E+00 0. -1.
          4    1    1    2  501    0  0.10323893813E+02 -0.67349293031E+00 -0.12827580276E+03  0.12869233835E+03  0.00000000000E+00 0.  1.
         -4    1    1    2    0  502 -0.10666944665E+02 -0.82298756706E+02  0.24742370055E+03  0.26097003019E+03  0.00000000000E+00 0. -1.
</event>
<event>
 6    1  0.5496865E-006  0.5726104E+02  0.7818608E-02  0.1305064E+00
         21   -1    0    0  503  502  0.00000000000E+00  0.00000000000E+00  0.67277776235E+03  0.67277776235E+03  0.00000000000E+00 0.  1.
         21   -1    0    0  501  503 -0.00000000000E+00 -0.00000000000E+00 -0.34483410744E+02  0.34483410744E+02  0.00000000000E+00 0. -1.
        -13    1    1    2    0    0  0.47487497079E+02 -0.49682944777E+02  0.31143305934E+03  0.31892635356E+03  0.10566000000E+00 0.  1.
         13    1    1    2    0    0 -0.19612492399E+02  0.11387116585E+02 -0.53248548357E+01  0.23295525864E+02  0.10566000000E+00 0. -1.
          4    1    1    2  501    0  0.23905120138E+02  0.94755079485E+01 -0.18558818891E+01  0.25781472364E+02  0.00000000000E+00 0.  1.
         -4    1    1    2    0  502 -0.51780124818E+02  0.28820320244E+02  0.33404202899E+03  0.33925782130E+03  0.00000000000E+00 0. -1.
</event>
<event>
 6    1  0.5496865E-006  0.3047620E+02  0.7818608E-02  0.1401850E+00
         21   -1    0    0  503  502  0.00000000000E+00  0.00000000000E+00  0.16423400356E+02  0.16423400356E+02  0.00000000000E+00 0.  1.
         21   -1    0    0  501  503 -0.00000000000E+00 -0.00000000000E+00 -0.57158697308E+03  0.57158697308E+03  0.00000000000E+00 0.  1.
        -13    1    1    2    0    0  0.36994832573E+02 -0.25352895566E+01 -0.45996073301E+02  0.59082106034E+02  0.10566000000E+00 0.  1.
         13    1    1    2    0    0 -0.23816529166E+02 -0.14425891395E+02 -0.83221755674E+02  0.87756510788E+02  0.10566000000E+00 0. -1.
          4    1    1    2  501    0 -0.10523556107E+02  0.29967179469E+02 -0.42669595379E+03  0.42787640044E+03  0.00000000000E+00 0.  1.
         -4    1    1    2    0  502 -0.26547472999E+01 -0.13005998517E+02  0.75021003748E+00  0.13295356172E+02  0.00000000000E+00 0. -1.
</event>
<event>
 6    1  0.5496865E-006  0.1296844E+03  0.7818608E-02  0.1123074E+00
         21   -1    0    0  503  502  0.00000000000E+00  0.00000000000E+00  0.63240157433E+02  0.63240157433E+02  0.00000000000E+00 0. -1.
         21   -1    0    0  501  503 -0.00000000000E+00 -0.00000000000E+00 -0.49590524225E+03  0.49590524225E+03  0.00000000000E+00 0.  1.
        -13    1    1    2    0    0 -0.11509408260E+03  0.21588977835E+02 -0.95970775651E+02  0.15140387299E+03  0.10566000000E+00 0.  1.
         13    1    1    2    0    0  0.14543037767E+03  0.90234008497E+01 -0.13165991111E+03  0.19638166887E+03  0.10566000000E+00 0. -1.
          4    1    1    2  501    0 -0.12284579707E+02 -0.27467500165E+02 -0.15882438936E+03  0.16164950084E+03  0.00000000000E+00 0.  1.
         -4    1    1    2    0  502 -0.18051715361E+02 -0.31448785204E+01 -0.46210008691E+02  0.49710356985E+02  0.00000000000E+00 0. -1.
</event>
<event>
 6    1  0.5496865E-006  0.9083852E+02  0.7818608E-02  0.1180673E+00
         21   -1    0    0  501  502  0.00000000000E+00  0.00000000000E+00  0.31543193171E+02  0.31543193171E+02  0.00000000000E+00 0.  1.
         21   -1    0    0  502  503 -0.00000000000E+00 -0.00000000000E+00 -0.84740493606E+03  0.84740493606E+03  0.00000000000E+00 0. -1.
        -13    1    1    2    0    0  0.58558075490E+02 -0.43115788555E+02 -0.17236776409E+03  0.18707933261E+03  0.10566000000E+00 0.  1.
         13    1    1    2    0    0 -0.92113558398E+02  0.67140803974E+02 -0.45787191638E+03  0.47184690120E+03  0.10566000000E+00 0. -1.
          4    1    1    2  501    0  0.18663231718E+02 -0.80858179077E+01  0.10362478655E+02  0.22827124945E+02  0.00000000000E+00 0.  1.
         -4    1    1    2    0  503  0.14892251190E+02 -0.15939197511E+02 -0.19598454107E+03  0.19719477047E+03  0.00000000000E+00 0. -1.
</event>
<event>
 6    1  0.5496865E-006  0.9158841E+02  0.7818608E-02  0.1179277E+00
         21   -1    0    0  501  502  0.00000000000E+00  0.00000000000E+00  0.68201513927E+03  0.68201513927E+03  0.00000000000E+00 0. -1.
         21   -1    0    0  502  503 -0.00000000000E+00 -0.00000000000E+00 -0.97635755417E+02  0.97635755417E+02  0.00000000000E+00 0.  1.
        -13    1    1    2    0    0 -0.21995028997E+02 -0.83281876376E+02 -0.63409232542E+02  0.10695977828E+03  0.10566000000E+00 0.  1.
         13    1    1    2    0    0 -0.50080615869E+02  0.89365359805E+02  0.36568696856E+03  0.37976467155E+03  0.10566000000E+00 0. -1.
          4    1    1    2  501    0  0.63336364036E+02  0.61402717184E+01  0.23660898308E+03  0.24501634399E+03  0.00000000000E+00 0.  1.
         -4    1    1    2    0  503  0.87392808292E+01 -0.12223755148E+02  0.45492664759E+02  0.47910100878E+02  0.00000000000E+00 0. -1.
</event>
<event>
 6    1  0.5496865E-006  0.1103170E+03  0.7818608E-02  0.1148529E+00
         21   -1    0    0  501  502  0.00000000000E+00  0.00000000000E+00  0.20581377983E+03  0.20581377983E+03  0.00000000000E+00 0. -1.
         21   -1    0    0  502  503 -0.00000000000E+00 -0.00000000000E+00 -0.22709475776E+03  0.22709475776E+03  0.00000000000E+00 0.  1.
        -13    1    1    2    0    0 -0.91645824218E+02  0.34652366794E+02 -0.96427740368E+02  0.13747022913E+03  0.10566000000E+00 0.  1.
         13    1    1    2    0    0  0.12416157486E+03 -0.53526543400E+02  0.88499503861E+02  0.16159628977E+03  0.10566000000E+00 0. -1.
          4    1    1    2  501    0 -0.29423125382E+02  0.36390725545E+00  0.55315729911E+02  0.62655268823E+02  0.00000000000E+00 0.  1.
         -4    1    1    2    0  503 -0.30926252597E+01  0.18510269350E+02 -0.68668471329E+02  0.71186749870E+02  0.00000000000E+00 0. -1.
</event>
<event>
 6    1  0.5496865E-006  0.3853260E+03  0.7818608E-02  0.9772407E-01
         21   -1    0    0  503  502  0.00000000000E+00  0.00000000000E+00  0.17547093580E+03  0.17547093580E+03  0.00000000000E+00 0.  1.
         21   -1    0    0  501  503 -0.00000000000E+00 -0.00000000000E+00 -0.10548484171E+04  0.10548484171E+04  0.00000000000E+00 0. -1.
        -13    1    1    2    0    0 -0.37529182711E+03  0.12565697923E+03 -0.46248788303E+03  0.60871067432E+03  0.10566000000E+00 0.  1.
         13    1    1    2    0    0  0.35540196809E+03 -0.11821073386E+03 -0.31300884757E+03  0.48811769722E+03  0.10566000000E+00 0. -1.
          4    1    1    2  501    0  0.41928014268E+01 -0.12330504710E+02 -0.11363278084E+03  0.11437670135E+03  0.00000000000E+00 0.  1.
         -4    1    1    2    0  502  0.15697057594E+02  0.48842593407E+01  0.97520301718E+01  0.19114279973E+02  0.00000000000E+00 0. -1.
</event>
<event>
 6    1  0.5496865E-006  0.1054795E+03  0.7818608E-02  0.1155795E+00
         21   -1    0    0  501  502  0.00000000000E+00  0.00000000000E+00  0.15792088548E+03  0.15792088548E+03  0.00000000000E+00 0. -1.
         21   -1    0    0  502  503 -0.00000000000E+00 -0.00000000000E+00 -0.20996161833E+03  0.20996161833E+03  0.00000000000E+00 0.  1.
        -13    1    1    2    0    0 -0.10242671474E+02 -0.11975949912E+03  0.20846285584E+02  0.12199110105E+03  0.10566000000E+00 0.  1.
         13    1    1    2    0    0  0.74309388229E+02  0.76266441052E+02  0.17196679860E+02  0.10786191252E+03  0.10566000000E+00 0. -1.
          4    1    1    2  501    0 -0.59712450889E+02  0.60563107110E+02 -0.63506983125E+02  0.10614425863E+03  0.00000000000E+00 0.  1.
         -4    1    1    2    0  503 -0.43542658668E+01 -0.17070049044E+02 -0.26576715174E+02  0.31885231613E+02  0.00000000000E+00 0. -1.
</event>
<event>
 6    1  0.5496865E-006  0.1175550E+03  0.7818608E-02  0.1138390E+00
         21   -1    0    0  503  502  0.00000000000E+00  0.00000000000E+00  0.47959597188E+03  0.47959597188E+03  0.00000000000E+00 0. -1.
         21   -1    0    0  501  503 -0.00000000000E+00 -0.00000000000E+00 -0.43753483368E+03  0.43753483368E+03  0.00000000000E+00 0.  1.
        -13    1    1    2    0    0 -0.57667259790E+02  0.79913951068E+02 -0.19144282485E+03  0.21531864475E+03  0.10566000000E+00 0.  1.
         13    1    1    2    0    0  0.21681218413E+02 -0.17315379770E+03  0.26030433550E+03  0.31338581834E+03  0.10566000000E+00 0. -1.
          4    1    1    2  501    0 -0.91599063799E+01  0.17800459465E+02 -0.19638753866E+03  0.19740523191E+03  0.00000000000E+00 0.  1.
         -4    1    1    2    0  502  0.45145947757E+02  0.75439387168E+02  0.16958716621E+03  0.19102111056E+03  0.00000000000E+00 0. -1.
</event>
<event>
 6    1  0.5496865E-006  0.7957731E+02  0.7818608E-02  0.1203627E+00
         21   -1    0    0  503  502  0.00000000000E+00  0.00000000000E+00  0.13426054836E+03  0.13426054836E+03  0.00000000000E+00 0.  1.
         21   -1    0    0  501  503 -0.00000000000E+00 -0.00000000000E+00 -0.28893606173E+03  0.28893606173E+03  0.00000000000E+00 0. -1.
        -13    1    1    2    0    0  0.57512151007E+02 -0.25990516870E+02  0.38185154597E+02  0.73764975945E+02  0.10566000000E+00 0.  1.
         13    1    1    2    0    0 -0.70915799718E+02  0.75894850487E+01 -0.83821519709E+02  0.11005775422E+03  0.10566000000E+00 0. -1.
          4    1    1    2  501    0 -0.10164124433E+02  0.43341533121E+02 -0.16655386866E+03  0.17240066440E+03  0.00000000000E+00 0.  1.
         -4    1    1    2    0  502  0.23567773144E+02 -0.24940501300E+02  0.57514720399E+02  0.66973215532E+02  0.00000000000E+00 0. -1.
</event>
<event>
 6    1  0.5496865E-006  0.4491209E+03  0.7818608E-02  0.9597055E-01
         21   -1    0    0  503  502  0.00000000000E+00  0.00000000000E+00  0.16716546673E+04  0.16716546673E+04  0.00000000000E+00 0.  1.
         21   -1    0    0  501  503 -0.00000000000E+00 -0.00000000000E+00 -0.16112561684E+04  0.16112561684E+04  0.00000000000E+00 0.  1.
        -13    1    1    2    0    0 -0.20005654845E+03 -0.36912931274E+03 -0.31256665403E+02  0.42101788846E+03  0.10566000000E+00 0.  1.
         13    1    1    2    0    0  0.45252598547E+03  0.37904806166E+03  0.33509854416E+03  0.67878438848E+03  0.10566000000E+00 0. -1.
          4    1    1    2  501    0  0.60964029839E+02 -0.98301800260E+01 -0.11871284010E+04  0.11887333956E+04  0.00000000000E+00 0.  1.
         -4    1    1    2    0  502 -0.31343346686E+03 -0.88568891612E-01  0.94368502118E+03  0.99437516320E+03  0.00000000000E+00 0. -1.
</event>
<event>
 6    1  0.5496865E-006  0.6693645E+02  0.7818608E-02  0.1235003E+00
         21   -1    0    0  503  502  0.00000000000E+00  0.00000000000E+00  0.34645655521E+03  0.34645655521E+03  0.00000000000E+00 0. -1.
         21   -1    0    0  501  503 -0.00000000000E+00 -0.00000000000E+00 -0.33412369326E+03  0.33412369326E+03  0.00000000000E+00 0. -1.
        -13    1    1    2    0    0  0.34433288136E+02 -0.52731880333E+02  0.11489165187E+03  0.13102062956E+03  0.10566000000E+00 0.  1.
         13    1    1    2    0    0 -0.13082503255E+02  0.64911457958E+02 -0.16448604723E+03  0.17731418489E+03  0.10566000000E+00 0. -1.
          4    1    1    2  501    0  0.29510059108E+02  0.22158591305E+01 -0.15047876528E+03  0.15336105249E+03  0.00000000000E+00 0.  1.
         -4    1    1    2    0  502 -0.50860843989E+02 -0.14395436756E+02  0.21240602259E+03  0.21888438154E+03  0.00000000000E+00 0. -1.
</event>
<event>
 6    1  0.5496865E-006  0.1857128E+03  0.7818608E-02  0.1070398E+00
         21   -1    0    0  501  502  0.00000000000E+00  0.00000000000E+00  0.94377956144E+03  0.94377956144E+03  0.00000000000E+00 0. -1.
         21   -1    0    0  502  503 -0.00000000000E+00 -0.00000000000E+00 -0.63304498245E+02  0.63304498245E+02  0.00000000000E+00 0. -1.
        -13    1    1    2    0    0  0.15562667460E+03 -0.74629729442E+02  0.22493752819E+03  0.28352453353E+03  0.10566000000E+00 0.  1.
         13    1    1    2    0    0 -0.17590975772E+03  0.77953685764E+02  0.49237070310E+03  0.52863024925E+03  0.10566000000E+00 0. -1.
          4    1    1    2  501    0 -0.85469561958E+01 -0.88178364976E+01  0.16506307222E+03  0.16551925118E+03  0.00000000000E+00 0.  1.
         -4    1    1    2    0  503  0.28830039316E+02  0.54938801753E+01 -0.18962403031E+01  0.29410025733E+02  0.00000000000E+00 0. -1.
</event>
<event>
 6    1  0.5496865E-006  0.2268027E+02  0.7818608E-02  0.1475663E+00
         21   -1    0    0  503  502  0.00000000000E+00  0.00000000000E+00  0.73741780390E+01  0.73741780390E+01  0.00000000000E+00 0.  1.
         21   -1    0    0  501  503 -0.00000000000E+00 -0.00000000000E+00 -0.35557898952E+03  0.35557898952E+03  0.00000000000E+00 0. -1.
        -13    1    1    2    0    0  0.24423069417E+02  0.18141618711E+02 -0.13389585024E+03  0.13730882901E+03  0.10566000000E+00 0.  1.
         13    1    1    2    0    0 -0.21858324523E+02 -0.22643012050E+01 -0.48490526914E+02  0.53237728871E+02  0.10566000000E+00 0. -1.
          4    1    1    2  501    0 -0.98894011045E+01 -0.53756559669E+01 -0.15564956619E+03  0.15605603284E+03  0.00000000000E+00 0.  1.
         -4    1    1    2    0  502  0.73246562097E+01 -0.10501661539E+02 -0.10168868142E+02  0.16350576839E+02  0.00000000000E+00 0. -1.
</event>
<event>
 6    1  0.5496865E-006  0.1891686E+03  0.7818608E-02  0.1067826E+00
         21   -1    0    0  503  502  0.00000000000E+00  0.00000000000E+00  0.19318074630E+03  0.19318074630E+03  0.00000000000E+00 0.  1.
         21   -1    0    0  501  503 -0.00000000000E+00 -0.00000000000E+00 -0.20248173078E+04  0.20248173078E+04  0.00000000000E+00 0.  1.
        -13    1    1    2    0    0  0.19146525798E+03  0.10086082193E+03 -0.25514421453E+02  0.21790559258E+03  0.10566000000E+00 0.  1.
         13    1    1    2    0    0 -0.14394596919E+03 -0.83325804583E+02 -0.69394244758E+02  0.18021987717E+03  0.10566000000E+00 0. -1.
          4    1    1    2  501    0  0.81338294539E+01 -0.61757754026E+02 -0.17469475992E+04  0.17480578062E+04  0.00000000000E+00 0.  1.
         -4    1    1    2    0  502 -0.55653118238E+02  0.44222736681E+02  0.10219703949E+02  0.71814778131E+02  0.00000000000E+00 0. -1.
</event>
<event>
 6    1  0.5496865E-006  0.5900690E+02  0.7818608E-02  0.1258920E+00
         21   -1    0    0  503  502  0.00000000000E+00  0.00000000000E+00  0.38788587967E+03  0.38788587967E+03  0.00000000000E+00 0. -1.
         21   -1    0    0  501  503 -0.00000000000E+00 -0.00000000000E+00 -0.11896089219E+03  0.11896089219E+03  0.00000000000E+00 0.  1.
        -13    1    1    2    0    0 -0.68454654427E+02  0.25764582312E+02  0.14054569402E+03  0.15843912612E+03  0.10566000000E+00 0.  1.
         13    1    1    2    0    0  0.45987031509E+02 -0.67878823993E+00 -0.23104119470E+02  0.51469207503E+02  0.10566000000E+00 0. -1.
          4    1    1    2  501    0 -0.13763784430E+01 -0.44104449646E+02 -0.64864827835E+02  0.78450894107E+02  0.00000000000E+00 0.  1.
         -4    1    1    2    0  502  0.23844001361E+02  0.19018655573E+02  0.21634824076E+03  0.21848754413E+03  0.00000000000E+00 0. -1.
</event>
<event>
 6    1  0.5496865E-006  0.5406636E+02  0.7818608E-02  0.1311891E+00
         21   -1    0    0  501  502  0.00000000000E+00  0.00000000000E+00  0.44864472959E+03  0.44864472959E+03  0.00000000000E+00 0. -1.
         21   -1    0    0  502  503 -0.00000000000E+00 -0.00000000000E+00 -0.66006671614E+02  0.66006671614E+02  0.00000000000E+00 0.  1.
        -13    1    1    2    0    0  0.24691293878E+02 -0.10607866247E+02 -0.50826226855E+02  0.57493506764E+02  0.10566000000E+00 0.  1.
         13    1    1    2    0    0  0.36012200254E+02  0.27503554098E+02  0.99213794935E+02  0.10907205107E+03  0.10566000000E+00 0. -1.
          4    1    1    2  501    0  0.14239210366E+01  0.20483061989E+02  0.12390994315E+03  0.12559959152E+03  0.00000000000E+00 0.  1.
         -4    1    1    2    0  503 -0.62127415168E+02 -0.37378749840E+02  0.21034054675E+03  0.22248625185E+03  0.00000000000E+00 0. -1.
</event>
<event>
 6    1  0.5496865E-006  0.1161570E+03  0.7818608E-02  0.1140285E+00
         21   -1    0    0  501  502  0.00000000000E+00  0.00000000000E+00  0.15102879539E+03  0.15102879539E+03  0.00000000000E+00 0. -1.
         21   -1    0    0  502  503 -0.00000000000E+00 -0.00000000000E+00 -0.19025878311E+03  0.19025878311E+03  0.00000000000E+00 0. -1.
        -13    1    1    2    0    0 -0.61489424021E+02  0.94013405950E+02 -0.56349547544E+02  0.12567717548E+03  0.10566000000E+00 0.  1.
         13    1    1    2    0    0  0.61808167067E+02 -0.92104414560E+02  0.65665184642E+02  0.12890073831E+03  0.10566000000E+00 0. -1.
          4    1    1    2  501    0 -0.73395310984E+00 -0.13787746912E+02  0.15968332128E+02  0.21109909593E+02  0.00000000000E+00 0.  1.
         -4    1    1    2    0  503  0.41521006416E+00  0.11878755522E+02 -0.64513956941E+02  0.65599755124E+02  0.00000000000E+00 0. -1.
</event>
<event>
 6    1  0.5496865E-006  0.6761801E+02  0.7818608E-02  0.1233120E+00
         21   -1    0    0  503  502  0.00000000000E+00  0.00000000000E+00  0.22759262016E+02  0.22759262016E+02  0.00000000000E+00 0.  1.
         21   -1    0    0  501  503 -0.00000000000E+00 -0.00000000000E+00 -0.62472937748E+03  0.62472937748E+03  0.00000000000E+00 0. -1.
        -13    1    1    2    0    0  0.28980136475E+02 -0.86950630368E+02 -0.26235099332E+03  0.27789982960E+03  0.10566000000E+00 0.  1.
         13    1    1    2    0    0 -0.15273395547E+02  0.47294007357E+02 -0.16793570178E+03  0.17513540716E+03  0.10566000000E+00 0. -1.
          4    1    1    2  501    0 -0.33835202897E+01  0.28935870633E+02 -0.17643984920E+03  0.17882883773E+03  0.00000000000E+00 0.  1.
         -4    1    1    2    0  502 -0.10323220639E+02  0.10720752378E+02  0.47564288494E+01  0.15624564996E+02  0.00000000000E+00 0. -1.
</event>
<event>
 6    1  0.5496865E-006  0.2811963E+03  0.7818608E-02  0.1015384E+00
         21   -1    0    0  501  502  0.00000000000E+00  0.00000000000E+00  0.25621289640E+03  0.25621289640E+03  0.00000000000E+00 0.  1.
         21   -1    0    0  502  503 -0.00000000000E+00 -0.00000000000E+00 -0.77614252387E+03  0.77614252387E+03  0.00000000000E+00 0. -1.
        -13    1    1    2    0    0  0.14941532767E+03 -0.21466879438E+03 -0.40148193930E+03  0.47916113174E+03  0.10566000000E+00 0.  1.
         13    1    1    2    0    0 -0.22542968515E+03  0.19809278178E+03 -0.24877923599E+03  0.38980817406E+03  0.10566000000E+00 0. -1.
          4    1    1    2  501    0  0.57739998593E+02  0.12578406014E+02  0.13198130102E+03  0.14460701074E+03  0.00000000000E+00 0.  1.
         -4    1    1    2    0  503  0.18274358887E+02  0.39976065867E+01 -0.16497532033E+01  0.18779103726E+02  0.00000000000E+00 0. -1.
</event>
<event>
 6    1  0.5496865E-006  0.1666854E+03  0.7818608E-02  0.1085729E+00
         21   -1    0    0  503  502  0.00000000000E+00  0.00000000000E+00  0.28418045816E+03  0.28418045816E+03  0.00000000000E+00 0. -1.
         21   -1    0    0  501  503 -0.00000000000E+00 -0.00000000000E+00 -0.50616460588E+03  0.50616460588E+03  0.00000000000E+00 0. -1.
        -13    1    1    2    0    0  0.93256768192E+02  0.20902058664E+03 -0.26898414460E+02  0.23045599649E+03  0.10566000000E+00 0.  1.
         13    1    1    2    0    0 -0.54975316521E+02 -0.11233876148E+03 -0.67084765417E+02  0.14192483811E+03  0.10566000000E+00 0. -1.
          4    1    1    2  501    0  0.51646119463E+02 -0.63686558995E+02 -0.24985605008E+03  0.26296643363E+03  0.00000000000E+00 0.  1.
         -4    1    1    2    0  502 -0.89927571134E+02 -0.32995266171E+02  0.12185508224E+03  0.15499779582E+03  0.00000000000E+00 0. -1.
</event>
<event>
 6    1  0.5496865E-006  0.5111137E+03  0.7818608E-02  0.9453940E-01
         21   -1    0    0  503  502  0.00000000000E+00  0.00000000000E+00  0.13092409325E+04  0.13092409325E+04  0.00000000000E+00 0. -1.
         21   -1    0    0  501  503 -0.00000000000E+00 -0.00000000000E+00 -0.10304477693E+04  0.10304477693E+04  0.00000000000E+00 0. -1.
        -13    1    1    2    0    0  0.46042391463E+03  0.24344250999E+03 -0.19242013673E+03  0.55522964350E+03  0.10566000000E+00 0.  1.
         13    1    1    2    0    0 -0.43377055215E+03 -0.24796460711E+03 -0.37182137890E+03  0.62281175909E+03  0.10566000000E+00 0. -1.
          4    1    1    2  501    0 -0.16202682400E+02 -0.66072107807E+01 -0.15876748057E+03  0.15972881718E+03  0.00000000000E+00 0.  1.
         -4    1    1    2    0  502 -0.10450680079E+02  0.11129307903E+02  0.10018021594E+04  0.10019184821E+04  0.00000000000E+00 0. -1.
</event>
<event>
 6    1  0.5496865E-006  0.1478530E+03  0.7818608E-02  0.1103248E+00
         21   -1    0    0  501  502  0.00000000000E+00  0.00000000000E+00  0.45867487632E+03  0.45867487632E+03  0.00000000000E+00 0.  1.
         21   -1    0    0  502  503 -0.00000000000E+00 -0.00000000000E+00 -0.22167798654E+03  0.22167798654E+03  0.00000000000E+00 0.  1.
        -13    1    1    2    0    0 -0.16342003930E+03 -0.81115438271E+02 -0.17893667468E+02  0.18331944270E+03  0.10566000000E+00 0.  1.
         13    1    1    2    0    0  0.90488514163E+02  0.73926160417E+02 -0.65695124210E+02  0.13404890488E+03  0.10566000000E+00 0. -1.
          4    1    1    2  501    0  0.18935006619E+02  0.96773739069E+01  0.30635057614E+03  0.30708770985E+03  0.00000000000E+00 0.  1.
         -4    1    1    2    0  503  0.53996518520E+02 -0.24880960534E+01  0.14235105319E+02  0.55896805434E+02  0.00000000000E+00 0. -1.
</event>
<event>
 6    1  0.5496865E-006  0.1716358E+03  0.7818608E-02  0.1081536E+00
         21   -1    0    0  501  502  0.00000000000E+00  0.00000000000E+00  0.19675933014E+03  0.19675933014E+03  0.00000000000E+00 0.  1.
         21   -1    0    0  502  503 -0.00000000000E+00 -0.00000000000E+00 -0.41730801824E+03  0.41730801824E+03  0.00000000000E+00 0.  1.
        -13    1    1    2    0    0 -0.14476804492E+03 -0.93734630357E+02 -0.74225531429E+02  0.18775891041E+03  0.10566000000E+00 0.  1.
         13    1    1    2    0    0  0.18645648900E+03 -0.31799943561E+01  0.61035093676E+01  0.18658348975E+03  0.10566000000E+00 0. -1.
          4    1    1    2  501    0 -0.31649514959E+02  0.89883017199E+02 -0.89345960598E+01  0.95710373444E+02  0.00000000000E+00 0.  1.
         -4    1    1    2    0  503 -0.10038929130E+02  0.70316075137E+01 -0.14349206998E+03  0.14401457478E+03  0.00000000000E+00 0. -1.
</event>
<event>
 6    1  0.5496865E-006  0.1836737E+03  0.7818608E-02  0.1071944E+00
         21   -1    0    0  501  502  0.00000000000E+00  0.00000000000E+00  0.44729554138E+03  0.44729554138E+03  0.00000000000E+00 0.  1.
         21   -1    0    0  502  503 -0.00000000000E+00 -0.00000000000E+00 -0.14743337741E+03  0.14743337741E+03  0.00000000000E+00 0.  1.
        -13    1    1    2    0    0  0.29885878765E+02  0.19390414687E+03 -0.32464628440E+01  0.19622062738E+03  0.10566000000E+00 0.  1.
         13    1    1    2    0    0 -0.13544860034E+02 -0.17435313393E+03  0.12404080292E+03  0.21440291625E+03  0.10566000000E+00 0. -1.
          4    1    1    2  501    0  0.31666413717E+01 -0.10380663619E+02  0.14395379603E+02  0.18028109958E+02  0.00000000000E+00 0.  1.
         -4    1    1    2    0  503 -0.19507660103E+02 -0.91703493194E+01  0.16467244429E+03  0.16607726521E+03  0.00000000000E+00 0. -1.
</event>
<event>
 6    1  0.5496865E-006  0.2121970E+03  0.7818608E-02  0.1052081E+00
         21   -1    0    0  503  502  0.00000000000E+00  0.00000000000E+00  0.24771507485E+03  0.24771507485E+03  0.00000000000E+00 0. -1.
         21   -1    0    0  501  503 -0.00000000000E+00 -0.00000000000E+00 -0.88480040599E+03  0.88480040599E+03  0.00000000000E+00 0.  1.
        -13    1    1    2    0    0  0.19667162534E+03  0.11579660663E+03 -0.88194693993E+02  0.24467712916E+03  0.10566000000E+00 0.  1.
         13    1    1    2    0    0 -0.19474246405E+03 -0.73349108138E+02 -0.40436244960E+02  0.21199014137E+03  0.10566000000E+00 0. -1.
          4    1    1    2  501    0 -0.17115982790E+02 -0.60786731013E+02 -0.58873430508E+03  0.59211153131E+03  0.00000000000E+00 0.  1.
         -4    1    1    2    0  502  0.15186821502E+02  0.18339232516E+02  0.80279912890E+02  0.83736679002E+02  0.00000000000E+00 0. -1.
</event>
<event>
 6    1  0.5496865E-006  0.1193938E+03  0.7818608E-02  0.1135941E+00
         21   -1    0    0  503  502  0.00000000000E+00  0.00000000000E+00  0.25966021474E+03  0.25966021474E+03  0.00000000000E+00 0. -1.
         21   -1    0    0  501  503 -0.00000000000E+00 -0.00000000000E+00 -0.20008179110E+03  0.20008179110E+03  0.00000000000E+00 0. -1.
        -13    1    1    2    0    0 -0.92299653717E+02  0.20775047077E+02 -0.22810138039E+02  0.97319793561E+02  0.10566000000E+00 0.  1.
         13    1    1    2    0    0  0.12229622960E+03 -0.84180572645E+02  0.34304862588E+02  0.15237969467E+03  0.10566000000E+00 0. -1.
          4    1    1    2  501    0 -0.27187347111E+02  0.50477212349E+02 -0.70416992415E+02  0.90805581493E+02  0.00000000000E+00 0.  1.
         -4    1    1    2    0  502 -0.28092287726E+01  0.12928313219E+02  0.11850069150E+03  0.11923693612E+03  0.00000000000E+00 0. -1.
</event>
<event>
 6    1  0.5496865E-006  0.7173572E+02  0.7818608E-02  0.1222245E+00
         21   -1    0    0  501  502  0.00000000000E+00  0.00000000000E+00  0.13052498507E+03  0.13052498507E+03  0.00000000000E+00 0.  1.
         21   -1    0    0  502  503 -0.00000000000E+00 -0.00000000000E+00 -0.95117029503E+02  0.95117029503E+02  0.00000000000E+00 0.  1.
        -13    1    1    2    0    0 -0.50352272157E+02 -0.69165433073E+02  0.13570925960E+02  0.86622108258E+02  0.10566000000E+00 0.  1.
         13    1    1    2    0    0  0.49399440751E+02  0.39055207574E+02  0.27626580090E+01  0.63033780058E+02  0.10566000000E+00 0. -1.
          4    1    1    2  501    0  0.89078297900E+01  0.19507816511E+02  0.43329134250E+02  0.48345818966E+02  0.00000000000E+00 0.  1.
         -4    1    1    2    0  503 -0.79549983836E+01  0.10602408989E+02 -0.24254762654E+02  0.27640307289E+02  0.00000000000E+00 0. -1.
</event>
<event>
 6    1  0.5496865E-006  0.1571257E+03  0.7818608E-02  0.1094289E+00
         21   -1    0    0  503  502  0.00000000000E+00  0.00000000000E+00  0.27864478543E+03  0.27864478543E+03  0.00000000000E+00 0.  1.
         21   -1    0    0  501  503 -0.00000000000E+00 -0.00000000000E+00 -0.42197684034E+03  0.42197684034E+03  0.00000000000E+00 0. -1.
        -13    1    1    2    0    0 -0.47964663855E+02  0.19629659915E+03  0.18348094803E+03  0.27294364486E+03  0.10566000000E+00 0.  1.
         13    1    1    2    0    0  0.87567245597E+01 -0.12119779080E+03 -0.31339724040E+03  0.33613007329E+03  0.10566000000E+00 0. -1.
          4    1    1    2  501    0  0.46806909370E+01 -0.36762859512E+02 -0.14878493413E+02  0.39934775239E+02  0.00000000000E+00 0.  1.
         -4    1    1    2    0  502  0.34527248358E+02 -0.38335948839E+02  0.14627308712E+01  0.51613132382E+02  0.00000000000E+00 0. -1.
</event>
<event>
 6    1  0.5496865E-006  0.7823439E+02  0.7818608E-02  0.1206642E+00
         21   -1    0    0  503  502  0.00000000000E+00  0.00000000000E+00  0.12328566324E+03  0.12328566324E+03  0.00000000000E+00 0.  1.
         21   -1    0    0  501  503 -0.00000000000E+00 -0.00000000000E+00 -0.21126849249E+03  0.21126849249E+03  0.00000000000E+00 0.  1.
        -13    1    1    2    0    0 -0.30694072826E+02 -0.41167099490E+02  0.26022815977E+02  0.57567823500E+02  0.10566000000E+00 0.  1.
         13    1    1    2    0    0  0.38558274206E+02  0.73681253745E+02 -0.92706235383E+02  0.12453965194E+03  0.10566000000E+00 0. -1.
          4    1    1    2  501    0  0.40653475245E+00  0.13578217243E+02 -0.77848725627E+02  0.79025042460E+02  0.00000000000E+00 0.  1.
         -4    1    1    2    0  502 -0.82707361322E+01 -0.46092371499E+02  0.56549315781E+02  0.73421637832E+02  0.00000000000E+00 0. -1.
</event>
<event>
 6    1  0.5496865E-006  0.2251989E+03  0.7818608E-02  0.1044111E+00
         21   -1    0    0  503  502  0.00000000000E+00  0.00000000000E+00  0.10410384607E+04  0.10410384607E+04  0.00000000000E+00 0.  1.
         21   -1    0    0  501  503 -0.00000000000E+00 -0.00000000000E+00 -0.76277729417E+02  0.76277729417E+02  0.00000000000E+00 0. -1.
        -13    1    1    2    0    0  0.13028903210E+03  0.23109479729E+03  0.52119218973E+03  0.58482591172E+03  0.10566000000E+00 0.  1.
         13    1    1    2    0    0 -0.87208506667E+02 -0.17014595652E+03  0.38902807798E+03  0.43347182928E+03  0.10566000000E+00 0. -1.
          4    1    1    2  501    0 -0.15496455717E+02 -0.34008854487E+02  0.73665831429E+01  0.38092110345E+02  0.00000000000E+00 0.  1.
         -4    1    1    2    0  502 -0.27584069714E+02 -0.26939986282E+02  0.47173880463E+02  0.60926338810E+02  0.00000000000E+00 0. -1.
</event>
<event>
 6    1  0.5496865E-006  0.2842246E+03  0.7818608E-02  0.1014038E+00
         21   -1    0    0  501  502  0.00000000000E+00  0.00000000000E+00  0.60776162640E+03  0.60776162640E+03  0.00000000000E+00 0. -1.
         21   -1    0    0  502  503 -0.00000000000E+00 -0.00000000000E+00 -0.31097508766E+03  0.31097508766E+03  0.00000000000E+00 0.  1.
        -13    1    1    2    0    0  0.28160222227E+03 -0.19588309639E+02 -0.94299494736E+01  0.28244016813E+03  0.10566000000E+00 0.  1.
         13    1    1    2    0    0 -0.27099231371E+03 -0.12712532342E+03  0.23974313035E+03  0.38350288351E+03  0.10566000000E+00 0. -1.
          4    1    1    2  501    0 -0.11084019150E+02  0.58972116721E+02  0.13086002252E+03  0.14396149321E+03  0.00000000000E+00 0.  1.
         -4    1    1    2    0  503  0.47411058981E+00  0.87741516341E+02 -0.64386664657E+02  0.10883216922E+03  0.00000000000E+00 0. -1.
</event>
<event>
 6    1  0.5496865E-006  0.2710869E+03  0.7818608E-02  0.1020010E+00
         21   -1    0    0  501  502  0.00000000000E+00  0.00000000000E+00  0.13221679859E+03  0.13221679859E+03  0.00000000000E+00 0. -1.
         21   -1    0    0  502  503 -0.00000000000E+00 -0.00000000000E+00 -0.11767422749E+04  0.11767422749E+04  0.00000000000E+00 0.  1.
        -13    1    1    2    0    0  0.28866291004E+02  0.22225401040E+03 -0.57782173343E+03  0.61976453164E+03  0.10566000000E+00 0.  1.
         13    1    1    2    0    0 -0.99360065036E+02 -0.27906454118E+03 -0.28054019700E+03  0.40798560509E+03  0.10566000000E+00 0. -1.
          4    1    1    2  501    0  0.10390599748E+01 -0.12128323303E+02  0.36238925488E+02  0.38228727317E+02  0.00000000000E+00 0.  1.
         -4    1    1    2    0  503  0.69454714058E+02  0.68938854080E+02 -0.22240247140E+03  0.24298020946E+03  0.00000000000E+00 0. -1.
</event>
<event>
 6    1  0.5496865E-006  0.1975885E+03  0.7818608E-02  0.1061802E+00
         21   -1    0    0  503  502  0.00000000000E+00  0.00000000000E+00  0.14958976715E+03  0.14958976715E+03  0.00000000000E+00 0.  1.
         21   -1    0    0  501  503 -0.00000000000E+00 -0.00000000000E+00 -0.62495017922E+03  0.62495017922E+03  0.00000000000E+00 0. -1.
        -13    1    1    2    0    0 -0.37698577382E+02  0.21691734422E+03 -0.20134142582E+03  0.29834995874E+03  0.10566000000E+00 0.  1.
         13    1    1    2    0    0 -0.13495120300E+02 -0.15447610159E+03  0.18518001320E+02  0.15616629525E+03  0.10566000000E+00 0. -1.
          4    1    1    2  501    0 -0.31146605632E+01  0.11484511319E+02 -0.15031761826E+03  0.15078786911E+03  0.00000000000E+00 0.  1.
         -4    1    1    2    0  502  0.54308358246E+02 -0.73925753950E+02 -0.14221936931E+03  0.16923582328E+03  0.00000000000E+00 0. -1.
</event>
<event>
 6    1  0.5496865E-006  0.1601013E+03  0.7818608E-02  0.1091556E+00
         21   -1    0    0  503  502  0.00000000000E+00  0.00000000000E+00  0.41470588670E+03  0.41470588670E+03  0.00000000000E+00 0. -1.
         21   -1    0    0  501  503 -0.00000000000E+00 -0.00000000000E+00 -0.47682622950E+03  0.47682622950E+03  0.00000000000E+00 0. -1.
        -13    1    1    2    0    0 -0.97155003605E+02  0.65564096133E+02 -0.10368396656E+03  0.15648680939E+03  0.10566000000E+00 0.  1.
         13    1    1    2    0    0  0.21680694667E+03 -0.91209932269E+02 -0.22483392892E+03  0.32538409708E+03  0.10566000000E+00 0. -1.
          4    1    1    2  501    0 -0.19115795584E+02 -0.20153538573E+02 -0.59436798805E+02  0.65607254248E+02  0.00000000000E+00 0.  1.
         -4    1    1    2    0  502 -0.10053614748E+03  0.45799374708E+02  0.32583435149E+03  0.34405395549E+03  0.00000000000E+00 0. -1.
</event>
<event>
 6    1  0.5496865E-006  0.5062721E+02  0.7818608E-02  0.1289256E+00
         21   -1    0    0  501  502  0.00000000000E+00  0.00000000000E+00  0.30671275378E+02  0.30671275378E+02  0.00000000000E+00 0. -1.
         21   -1    0    0  502  503 -0.00000000000E+00 -0.00000000000E+00 -0.20292047394E+03  0.20292047394E+03  0.00000000000E+00 0. -1.
        -13    1    1    2    0    0  0.58370075165E+01 -0.48269124590E+02 -0.41333540888E+02  0.63815764603E+02  0.10566000000E+00 0.  1.
         13    1    1    2    0    0 -0.15550078152E+02  0.55722939273E+02 -0.32654215538E+02  0.66431617835E+02  0.10566000000E+00 0. -1.
          4    1    1    2  501    0  0.32519412508E+01  0.94993080847E+01 -0.61889580787E+02  0.62698741502E+02  0.00000000000E+00 0.  1.
         -4    1    1    2    0  503  0.64611293843E+01 -0.16953122767E+02 -0.36371861350E+02  0.40645625380E+02  0.00000000000E+00 0. -1.
</event>
<event>
 6    1  0.5496865E-006  0.4620550E+02  0.7818608E-02  0.1308059E+00
         21   -1    0    0  503  502  0.00000000000E+00  0.00000000000E+00  0.32050420003E+02  0.32050420003E+02  0.00000000000E+00 0.  1.
         21   -1    0    0  501  503 -0.00000000000E+00 -0.00000000000E+00 -0.21212311834E+03  0.21212311834E+03  0.00000000000E+00 0.  1.
        -13    1    1    2    0    0 -0.36886645113E+02  0.46477838867E+02 -0.40105266950E+02  0.71618836172E+02  0.10566000000E+00 0.  1.
         13    1    1    2    0    0  0.29446537902E+02 -0.14417591576E+02 -0.10682890825E+03  0.11174700150E+03  0.10566000000E+00 0. -1.
          4    1    1    2  501    0 -0.86492421920E+01 -0.31323068271E+02 -0.30345399857E+02  0.44461076110E+02  0.00000000000E+00 0.  1.
         -4    1    1    2    0  502  0.16089349403E+02 -0.73717901962E+00 -0.27931232832E+01  0.16346624569E+02  0.00000000000E+00 0. -1.
</event>
<event>
 6    1  0.5496865E-006  0.1925399E+03  0.7818608E-02  0.1065374E+00
         21   -1    0    0  501  502  0.00000000000E+00  0.00000000000E+00  0.34155102096E+03  0.34155102096E+03  0.00000000000E+00 0. -1.
         21   -1    0    0  502  503 -0.00000000000E+00 -0.00000000000E+00 -0.41050624174E+03  0.41050624174E+03  0.00000000000E+00 0.  1.
        -13    1    1    2    0    0  0.21145307897E+03  0.73683048269E+02  0.56684110812E+02  0.23098635412E+03  0.10566000000E+00 0.  1.
         13    1    1    2    0    0 -0.13301690018E+03 -0.13347481393E+03 -0.51139120594E+02  0.19525430214E+03  0.10566000000E+00 0. -1.
          4    1    1    2  501    0 -0.73069603480E+02  0.35079757016E+02  0.11164303971E+03  0.13796349018E+03  0.00000000000E+00 0.  1.
         -4    1    1    2    0  503 -0.53665753126E+01  0.24712008644E+02 -0.18614325071E+03  0.18785311626E+03  0.00000000000E+00 0. -1.
</event>
<event>
 6    1  0.5496865E-006  0.8265553E+02  0.7818608E-02  0.1196955E+00
         21   -1    0    0  501  502  0.00000000000E+00  0.00000000000E+00  0.13640586768E+03  0.13640586768E+03  0.00000000000E+00 0.  1.
         21   -1    0    0  502  503 -0.00000000000E+00 -0.00000000000E+00 -0.17130088148E+03  0.17130088148E+03  0.00000000000E+00 0.  1.
        -13    1    1    2    0    0  0.75553180135E+02 -0.77307940077E+02  0.66611724322E+02  0.12697217651E+03  0.10566000000E+00 0.  1.
         13    1    1    2    0    0 -0.70956643609E+02  0.18104925609E+02 -0.19837743476E+02  0.75869498706E+02  0.10566000000E+00 0. -1.
          4    1    1    2  501    0  0.25203901070E+01  0.42848726096E+02 -0.36647562038E+02  0.56439432117E+02  0.00000000000E+00 0.  1.
         -4    1    1    2    0  503 -0.71169266325E+01  0.16354288372E+02 -0.45021432608E+02  0.48425641833E+02  0.00000000000E+00 0. -1.
</event>
<event>
 6    1  0.5496865E-006  0.1159196E+03  0.7818608E-02  0.1172984E+00
         21   -1    0    0  503  502  0.00000000000E+00  0.00000000000E+00  0.93616701176E+02  0.93616701176E+02  0.00000000000E+00 0.  1.
         21   -1    0    0  501  503 -0.00000000000E+00 -0.00000000000E+00 -0.53152163449E+03  0.53152163449E+03  0.00000000000E+00 0. -1.
        -13    1    1    2    0    0  0.16231580869E+02 -0.49915370004E+02  0.39194080455E+02  0.65507217060E+02  0.10566000000E+00 0.  1.
         13    1    1    2    0    0  0.44311234255E+02 -0.68238276591E+02 -0.24392035281E+03  0.25713245138E+03  0.10566000000E+00 0. -1.
          4    1    1    2  501    0  0.11585334090E+02  0.53213287963E+01 -0.13707570299E+03  0.13766729770E+03  0.00000000000E+00 0.  1.
         -4    1    1    2    0  502 -0.72128149213E+02  0.11283231780E+03 -0.96102957965E+02  0.16483136952E+03  0.00000000000E+00 0. -1.
</event>
<event>
 6    1  0.5496865E-006  0.2657285E+03  0.7818608E-02  0.1022550E+00
         21   -1    0    0  503  502  0.00000000000E+00  0.00000000000E+00  0.70269588485E+03  0.70269588485E+03  0.00000000000E+00 0.  1.
         21   -1    0    0  501  503 -0.00000000000E+00 -0.00000000000E+00 -0.30284087913E+03  0.30284087913E+03  0.00000000000E+00 0.  1.
        -13    1    1    2    0    0 -0.24024270238E+03  0.21118658454E+03  0.32732685479E+03  0.45766713949E+03  0.10566000000E+00 0.  1.
         13    1    1    2    0    0  0.16423535228E+03 -0.15172390949E+03  0.23536993021E+02  0.22482748242E+03  0.10566000000E+00 0. -1.
          4    1    1    2  501    0  0.24855793812E+02 -0.36300297261E+02 -0.12905693907E+03  0.13634960795E+03  0.00000000000E+00 0.  1.
         -4    1    1    2    0  502  0.51151556291E+02 -0.23162377790E+02  0.17804809699E+03  0.18669253412E+03  0.00000000000E+00 0. -1.
</event>
<event>
 6    1  0.5496865E-006  0.5141807E+02  0.7818608E-02  0.1325587E+00
         21   -1    0    0  503  502  0.00000000000E+00  0.00000000000E+00  0.48559839386E+03  0.48559839386E+03  0.00000000000E+00 0. -1.
         21   -1    0    0  501  503 -0.00000000000E+00 -0.00000000000E+00 -0.28300157385E+02  0.28300157385E+02  0.00000000000E+00 0. -1.
        -13    1    1    2    0    0  0.88859588388E+01  0.18991547898E+02  0.24309265949E+02  0.32102815002E+02  0.10566000000E+00 0.  1.
         13    1    1    2    0    0 -0.65535592534E+02 -0.25839286671E+02  0.60004634328E+02  0.92537289399E+02  0.10566000000E+00 0. -1.
          4    1    1    2  501    0  0.70810143293E+01  0.15940691511E+02  0.54343567761E+01  0.18269609830E+02  0.00000000000E+00 0.  1.
         -4    1    1    2    0  502  0.49568619366E+02 -0.90929527382E+01  0.36754997942E+03  0.37098883701E+03  0.00000000000E+00 0. -1.
</event>
<event>
 6    1  0.5496865E-006  0.2158593E+02  0.7818608E-02  0.1506650E+00
         21   -1    0    0  501  502  0.00000000000E+00  0.00000000000E+00  0.88567604505E+02  0.88567604505E+02  0.00000000000E+00 0. -1.
         21   -1    0    0  502  503 -0.00000000000E+00 -0.00000000000E+00 -0.55132427181E+02  0.55132427181E+02  0.00000000000E+00 0. -1.
        -13    1    1    2    0    0  0.26466957084E+02  0.49879116806E+01  0.66164223348E+01  0.27733865377E+02  0.10566000000E+00 0.  1.
         13    1    1    2    0    0 -0.12288392615E+02  0.24068680300E+02  0.48901396262E+02  0.55871850559E+02  0.10566000000E+00 0. -1.
          4    1    1    2  501    0  0.17706032760E+01 -0.10842810556E+02  0.13281828418E+02  0.17236836799E+02  0.00000000000E+00 0.  1.
         -4    1    1    2    0  503 -0.15949167745E+02 -0.18213781425E+02 -0.35364469691E+02  0.42857478951E+02  0.00000000000E+00 0. -1.
</event>
<event>
 6    1  0.5496865E-006  0.4268285E+02  0.7818608E-02  0.1334107E+00
         21   -1    0    0  501  502  0.00000000000E+00  0.00000000000E+00  0.69335289444E+02  0.69335289444E+02  0.00000000000E+00 0. -1.
         21   -1    0    0  502  503 -0.00000000000E+00 -0.00000000000E+00 -0.72445677576E+03  0.72445677576E+03  0.00000000000E+00 0. -1.
        -13    1    1    2    0    0  0.13516468694E+02 -0.20975308247E+02 -0.13338878257E+03  0.13570275223E+03  0.10566000000E+00 0.  1.
         13    1    1    2    0    0 -0.46090079016E+01 -0.17631549054E+02  0.38411981463E+02  0.42515949476E+02  0.10566000000E+00 0. -1.
          4    1    1    2  501    0  0.27021276767E+02  0.39308802639E+02  0.61894007478E+01  0.48100312313E+02  0.00000000000E+00 0.  1.
         -4    1    1    2    0  503 -0.35928737560E+02 -0.70194533728E+00 -0.56633408596E+03  0.56747305119E+03  0.00000000000E+00 0. -1.
</event>
<event>
 6    1  0.5496865E-006  0.5675525E+02  0.7818608E-02  0.1266489E+00
         21   -1    0    0  501  502  0.00000000000E+00  0.00000000000E+00  0.38614263104E+03  0.38614263104E+03  0.00000000000E+00 0.  1.
         21   -1    0    0  502  503 -0.00000000000E+00 -0.00000000000E+00 -0.18730670832E+03  0.18730670832E+03  0.00000000000E+00 0. -1.
        -13    1    1    2    0    0 -0.34731729998E+02 -0.37066478714E+02 -0.63518442610E+02  0.81331547560E+02  0.10566000000E+00 0.  1.
         13    1    1    2    0    0  0.60727550191E+02  0.44964692176E+02 -0.11193645387E+02  0.76386960640E+02  0.10566000000E+00 0. -1.
          4    1    1    2  501    0 -0.15198636416E+02 -0.19345490571E+02  0.34332305559E+03  0.34420338036E+03  0.00000000000E+00 0.  1.
         -4    1    1    2    0  503 -0.10797183778E+02  0.11447277109E+02 -0.69775044872E+02  0.71527450798E+02  0.00000000000E+00 0. -1.
</event>
<event>
 6    1  0.5496865E-006  0.1841699E+03  0.7818608E-02  0.1094805E+00
         21   -1    0    0  501  502  0.00000000000E+00  0.00000000000E+00  0.72032249671E+03  0.72032249671E+03  0.00000000000E+00 0. -1.
         21   -1    0    0  502  503 -0.00000000000E+00 -0.00000000000E+00 -0.20282358918E+03  0.20282358918E+03  0.00000000000E+00 0. -1.
        -13    1    1    2    0    0 -0.63430004378E+02  0.28234415922E+02 -0.53547160380E+02  0.87680426816E+02  0.10566000000E+00 0.  1.
         13    1    1    2    0    0 -0.40360344793E+02 -0.87925297865E+02  0.36923341553E+03  0.38169770991E+03  0.10566000000E+00 0. -1.
          4    1    1    2  501    0 -0.94146317517E+02 -0.19799042002E+02  0.21957673764E+03  0.23972791844E+03  0.00000000000E+00 0.  1.
         -4    1    1    2    0  503  0.19793666669E+03  0.79489923944E+02 -0.17764085275E+02  0.21404003073E+03  0.00000000000E+00 0. -1.
</event>
<event>
 6    1  0.5496865E-006  0.1048928E+03  0.7818608E-02  0.1166852E+00
         21   -1    0    0  503  502  0.00000000000E+00  0.00000000000E+00  0.30235268903E+03  0.30235268903E+03  0.00000000000E+00 0.  1.
         21   -1    0    0  501  503 -0.00000000000E+00 -0.00000000000E+00 -0.19947773359E+03  0.19947773359E+03  0.00000000000E+00 0. -1.
        -13    1    1    2    0    0  0.74425544731E+02  0.29778320394E+02  0.80760218176E+02  0.11378986808E+03  0.10566000000E+00 0.  1.
         13    1    1    2    0    0 -0.17984005107E+03  0.12833980724E+02 -0.75404819263E+02  0.19543042998E+03  0.10566000000E+00 0. -1.
          4    1    1    2  501    0  0.19147727725E+02  0.20080398464E+01 -0.27951789120E+02  0.33940686735E+02  0.00000000000E+00 0.  1.
         -4    1    1    2    0  502  0.86266778609E+02 -0.44620340965E+02  0.12547134566E+03  0.15866943783E+03  0.00000000000E+00 0. -1.
</event>
<event>
 6    1  0.5496865E-006  0.6839325E+02  0.7818608E-02  0.1231008E+00
         21   -1    0    0  501  502  0.00000000000E+00  0.00000000000E+00  0.48924536679E+02  0.48924536679E+02  0.00000000000E+00 0.  1.
         21   -1    0    0  502  503 -0.00000000000E+00 -0.00000000000E+00 -0.41647476878E+03  0.41647476878E+03  0.00000000000E+00 0.  1.
        -13    1    1    2    0    0 -0.25318665605E+02 -0.75117004600E+02 -0.23526818234E+03  0.24826342460E+03  0.10566000000E+00 0.  1.
         13    1    1    2    0    0 -0.16330808028E+02  0.58857167553E+02 -0.28922181305E+02  0.67582284651E+02  0.10566000000E+00 0. -1.
          4    1    1    2  501    0  0.32848013017E+02  0.94250765956E+01  0.10031967006E+02  0.35615507718E+02  0.00000000000E+00 0.  1.
         -4    1    1    2    0  503  0.88014606166E+01  0.68347604516E+01 -0.11339183546E+03  0.11393808849E+03  0.00000000000E+00 0. -1.
</event>
<event>
 6    1  0.5496865E-006  0.2569945E+03  0.7818608E-02  0.1026831E+00
         21   -1    0    0  503  502  0.00000000000E+00  0.00000000000E+00  0.43813478632E+03  0.43813478632E+03  0.00000000000E+00 0.  1.
         21   -1    0    0  501  503 -0.00000000000E+00 -0.00000000000E+00 -0.48577948946E+03  0.48577948946E+03  0.00000000000E+00 0.  1.
        -13    1    1    2    0    0 -0.24946157959E+03 -0.13657263773E+03  0.81240431847E+02  0.29577556356E+03  0.10566000000E+00 0.  1.
         13    1    1    2    0    0  0.21467248893E+03  0.91820879807E+02  0.80555480736E+02  0.24699098792E+03  0.10566000000E+00 0. -1.
          4    1    1    2  501    0  0.24550772959E+02  0.27949748498E+02 -0.29297500651E+03  0.29532741718E+03  0.00000000000E+00 0.  1.
         -4    1    1    2    0  502  0.10238317694E+02  0.16802009428E+02  0.83534390788E+02  0.85820307121E+02  0.00000000000E+00 0. -1.
</event>
<event>
 6    1  0.5496865E-006  0.8669789E+02  0.7818608E-02  0.1188664E+00
         21   -1    0    0  501  502  0.00000000000E+00  0.00000000000E+00  0.10966043581E+04  0.10966043581E+04  0.00000000000E+00 0. -1.
         21   -1    0    0  502  503 -0.00000000000E+00 -0.00000000000E+00 -0.48016093477E+02  0.48016093477E+02  0.00000000000E+00 0.  1.
        -13    1    1    2    0    0  0.12656842453E+03  0.17397138197E+02  0.14310604563E+03  0.19183737374E+03  0.10566000000E+00 0.  1.
         13    1    1    2    0    0 -0.92994294704E+02 -0.84503789263E+01  0.32799396090E+03  0.34102697445E+03  0.10566000000E+00 0. -1.
          4    1    1    2  501    0  0.29101666943E+02 -0.14839775162E+02  0.53456684712E+03  0.53556403910E+03  0.00000000000E+00 0.  1.
         -4    1    1    2    0  503 -0.62675796766E+02  0.58930158905E+01  0.42921410942E+02  0.76192064244E+02  0.00000000000E+00 0. -1.
</event>
<event>
 6    1  0.5496865E-006  0.2907259E+03  0.7818608E-02  0.1030834E+00
         21   -1    0    0  503  502  0.00000000000E+00  0.00000000000E+00  0.60749313739E+03  0.60749313739E+03  0.00000000000E+00 0.  1.
         21   -1    0    0  501  503 -0.00000000000E+00 -0.00000000000E+00 -0.10477378406E+04  0.10477378406E+04  0.00000000000E+00 0. -1.
        -13    1    1    2    0    0 -0.19089995718E+03  0.86971947207E+02  0.24280669124E+03  0.32087694484E+03  0.10566000000E+00 0.  1.
         13    1    1    2    0    0  0.99371698069E+02  0.11855000767E+03 -0.67081030876E+03  0.68841507843E+03  0.10566000000E+00 0. -1.
          4    1    1    2  501    0  0.91019627077E+02 -0.32480131829E+03 -0.22258076790E+03  0.40413199220E+03  0.00000000000E+00 0.  1.
         -4    1    1    2    0  502  0.50863203879E+00  0.11927936341E+03  0.21033968219E+03  0.24180696256E+03  0.00000000000E+00 0. -1.
</event>
<event>
 6    1  0.5496865E-006  0.3967306E+02  0.7818608E-02  0.1340677E+00
         21   -1    0    0  501  502  0.00000000000E+00  0.00000000000E+00  0.16973048700E+03  0.16973048700E+03  0.00000000000E+00 0. -1.
         21   -1    0    0  502  503 -0.00000000000E+00 -0.00000000000E+00 -0.33587037332E+02  0.33587037332E+02  0.00000000000E+00 0.  1.
        -13    1    1    2    0    0  0.47940011544E+02 -0.14642610985E+02  0.39131866156E+01  0.50278971318E+02  0.10566000000E+00 0.  1.
         13    1    1    2    0    0 -0.22453900179E+02  0.25692950034E+01  0.10142892832E+03  0.10391639704E+03  0.10566000000E+00 0. -1.
          4    1    1    2  501    0 -0.20493757547E+02 -0.16338961249E+00  0.29391448710E+02  0.35831244073E+02  0.00000000000E+00 0.  1.
         -4    1    1    2    0  503 -0.49923538176E+01  0.12236705594E+02  0.14098860192E+01  0.13290911896E+02  0.00000000000E+00 0. -1.
</event>
<event>
 6    1  0.5496865E-006  0.2262717E+03  0.7818608E-02  0.1043479E+00
         21   -1    0    0  501  502  0.00000000000E+00  0.00000000000E+00  0.72565102996E+03  0.72565102996E+03  0.00000000000E+00 0. -1.
         21   -1    0    0  502  503 -0.00000000000E+00 -0.00000000000E+00 -0.45760257154E+03  0.45760257154E+03  0.00000000000E+00 0. -1.
        -13    1    1    2    0    0  0.13756618161E+03  0.17747083255E+03 -0.40292008574E+02  0.22813111986E+03  0.10566000000E+00 0.  1.
         13    1    1    2    0    0 -0.18367259688E+03 -0.23551887648E+03  0.44436877960E+03  0.53541422046E+03  0.10566000000E+00 0. -1.
          4    1    1    2  501    0  0.68203655167E+02  0.61924111541E+02  0.12635305021E+03  0.15636952218E+03  0.00000000000E+00 0.  1.
         -4    1    1    2    0  503 -0.22097239897E+02 -0.38760676098E+01 -0.26238136281E+03  0.26333873901E+03  0.00000000000E+00 0. -1.
</event>
<event>
 6    1  0.5496865E-006  0.5481278E+02  0.7818608E-02  0.1274897E+00
         21   -1    0    0  501  502  0.00000000000E+00  0.00000000000E+00  0.21899578725E+03  0.21899578725E+03  0.00000000000E+00 0.  1.
         21   -1    0    0  502  503 -0.00000000000E+00 -0.00000000000E+00 -0.21248169124E+03  0.21248169124E+03  0.00000000000E+00 0. -1.
        -13    1    1    2    0    0  0.77755597152E+01 -0.47407764316E+02 -0.25339755064E+02  0.54314544986E+02  0.10566000000E+00 0.  1.
         13    1    1    2    0    0  0.46294142550E+02  0.50687116937E+02  0.84333576541E+02  0.10874049271E+03  0.10566000000E+00 0. -1.
          4    1    1    2  501    0 -0.55419202926E+02  0.82867859869E+01  0.10046474915E+03  0.11503531934E+03  0.00000000000E+00 0.  1.
         -4    1    1    2    0  503  0.13495006613E+01 -0.11566138608E+02 -0.15294447461E+03  0.15338712146E+03  0.00000000000E+00 0. -1.
</event>
<event>
 6    1  0.5496865E-006  0.6978628E+02  0.7818608E-02  0.1247169E+00
         21   -1    0    0  503  502  0.00000000000E+00  0.00000000000E+00  0.11747841052E+03  0.11747841052E+03  0.00000000000E+00 0. -1.
         21   -1    0    0  501  503 -0.00000000000E+00 -0.00000000000E+00 -0.44046054724E+03  0.44046054724E+03  0.00000000000E+00 0.  1.
        -13    1    1    2    0    0 -0.31323472488E+02  0.36602068995E+02  0.61503568090E+00  0.48179464674E+02  0.10566000000E+00 0.  1.
         13    1    1    2    0    0  0.82056638385E+01 -0.84526315274E+02 -0.49213005424E+02  0.98152748101E+02  0.10566000000E+00 0. -1.
          4    1    1    2  501    0  0.60000434301E+02  0.68051258228E+02 -0.32980663769E+03  0.34205766199E+03  0.00000000000E+00 0.  1.
         -4    1    1    2    0  502 -0.36882625652E+02 -0.20127011949E+02  0.55422470713E+02  0.69549082991E+02  0.00000000000E+00 0. -1.
</event>
<event>
 6    1  0.5496865E-006  0.3127800E+02  0.7818608E-02  0.1394931E+00
         21   -1    0    0  503  502  0.00000000000E+00  0.00000000000E+00  0.18560256242E+03  0.18560256242E+03  0.00000000000E+00 0. -1.
         21   -1    0    0  501  503 -0.00000000000E+00 -0.00000000000E+00 -0.33225018211E+02  0.33225018211E+02  0.00000000000E+00 0. -1.
        -13    1    1    2    0    0 -0.13211200646E+02 -0.18130958070E+02  0.49720243208E+01  0.22978243033E+02  0.10566000000E+00 0.  1.
         13    1    1    2    0    0  0.39989001691E+01  0.41360250811E+02  0.48327751704E+02  0.63735738001E+02  0.10566000000E+00 0. -1.
          4    1    1    2  501    0 -0.26550931225E+01 -0.16049892868E+02 -0.11973609418E+02  0.20199403532E+02  0.00000000000E+00 0.  1.
         -4    1    1    2    0  502  0.11867393599E+02 -0.71793998731E+01  0.11105137760E+03  0.11191419606E+03  0.00000000000E+00 0. -1.
</event>
<event>
 6    1  0.5496865E-006  0.1650595E+03  0.7818608E-02  0.1087140E+00
         21   -1    0    0  503  502  0.00000000000E+00  0.00000000000E+00  0.75115452181E+03  0.75115452181E+03  0.00000000000E+00 0. -1.
         21   -1    0    0  501  503 -0.00000000000E+00 -0.00000000000E+00 -0.18465060606E+03  0.18465060606E+03  0.00000000000E+00 0.  1.
        -13    1    1    2    0    0 -0.17616752801E+03 -0.50553794998E+02  0.14827788681E+03  0.23574780380E+03  0.10566000000E+00 0.  1.
         13    1    1    2    0    0  0.15916420615E+03  0.39472221686E+02  0.22675524752E+03  0.27983790709E+03  0.10566000000E+00 0. -1.
          4    1    1    2  501    0  0.38839886490E+02  0.11750609570E+02 -0.11036787747E+03  0.11759116457E+03  0.00000000000E+00 0.  1.
         -4    1    1    2    0  502 -0.21836564621E+02 -0.66903625697E+00  0.30183865888E+03  0.30262825241E+03  0.00000000000E+00 0. -1.
</event>
<event>
 6    1  0.5496865E-006  0.9287543E+02  0.7818608E-02  0.1176914E+00
         21   -1    0    0  501  502  0.00000000000E+00  0.00000000000E+00  0.25172393277E+03  0.25172393277E+03  0.00000000000E+00 0. -1.
         21   -1    0    0  502  503 -0.00000000000E+00 -0.00000000000E+00 -0.17011394252E+03  0.17011394252E+03  0.00000000000E+00 0.  1.
        -13    1    1    2    0    0 -0.10015663207E+03 -0.23652396494E+02 -0.12955874030E+03  0.16545774434E+03  0.10566000000E+00 0.  1.
         13    1    1    2    0    0  0.91196511676E+02  0.22680789089E+02  0.14260598596E+03  0.17078553900E+03  0.10566000000E+00 0. -1.
          4    1    1    2  501    0  0.27802892650E+00 -0.15319818055E+02  0.65015204744E+02  0.66796339520E+02  0.00000000000E+00 0.  1.
         -4    1    1    2    0  503  0.86820914693E+01  0.16291425459E+02  0.35475398577E+01  0.18798252441E+02  0.00000000000E+00 0. -1.
</event>
<event>
 6    1  0.5496865E-006  0.2749401E+02  0.7818608E-02  0.1453015E+00
         21   -1    0    0  503  502  0.00000000000E+00  0.00000000000E+00  0.46115972029E+02  0.46115972029E+02  0.00000000000E+00 0. -1.
         21   -1    0    0  501  503 -0.00000000000E+00 -0.00000000000E+00 -0.34236040982E+03  0.34236040982E+03  0.00000000000E+00 0.  1.
        -13    1    1    2    0    0 -0.18737496486E+02  0.20531084869E+00 -0.23146164102E+01  0.18881327820E+02  0.10566000000E+00 0.  1.
         13    1    1    2    0    0 -0.16021723012E+02 -0.78776849518E+01 -0.67682386347E+02  0.69997643633E+02  0.10566000000E+00 0. -1.
          4    1    1    2  501    0  0.65663088312E+01  0.11997870415E+02 -0.25716740980E+03  0.25753085635E+03  0.00000000000E+00 0.  1.
         -4    1    1    2    0  502  0.28192910667E+02 -0.43254963115E+01  0.30919974767E+02  0.42066554052E+02  0.00000000000E+00 0. -1.
</event>
<event>
 6    1  0.5496865E-006  0.3254925E+03  0.7818608E-02  0.9973054E-01
         21   -1    0    0  501  502  0.00000000000E+00  0.00000000000E+00  0.95841841764E+03  0.95841841764E+03  0.00000000000E+00 0. -1.
         21   -1    0    0  502  503 -0.00000000000E+00 -0.00000000000E+00 -0.24433077244E+03  0.24433077244E+03  0.00000000000E+00 0. -1.
        -13    1    1    2    0    0 -0.80311301885E+02  0.28070596131E+03  0.32268871161E+03  0.43517095226E+03  0.10566000000E+00 0.  1.
         13    1    1    2    0    0  0.83250127349E+02 -0.36690532378E+03  0.48471085269E+03  0.61359165754E+03  0.10566000000E+00 0. -1.
          4    1    1    2  501    0  0.14472052070E+02 -0.57642106736E+01  0.67458457328E+01  0.16975654640E+02  0.00000000000E+00 0.  1.
         -4    1    1    2    0  503 -0.17410877534E+02  0.91963573140E+02 -0.10005776484E+03  0.13701092564E+03  0.00000000000E+00 0. -1.
</event>
<event>
 6    1  0.5496865E-006  0.2856376E+03  0.7818608E-02  0.1013416E+00
         21   -1    0    0  503  502  0.00000000000E+00  0.00000000000E+00  0.58299159501E+03  0.58299159501E+03  0.00000000000E+00 0.  1.
         21   -1    0    0  501  503 -0.00000000000E+00 -0.00000000000E+00 -0.54809166790E+03  0.54809166790E+03  0.00000000000E+00 0. -1.
        -13    1    1    2    0    0 -0.18685706656E+03  0.59982803718E+02  0.18618562671E+03  0.27051543177E+03  0.10566000000E+00 0.  1.
         13    1    1    2    0    0  0.28251445774E+03 -0.11008655721E+03 -0.36377895241E+03  0.47357006482E+03  0.10566000000E+00 0. -1.
          4    1    1    2  501    0  0.10096673588E+02  0.10615619167E+02 -0.75898468717E+02  0.77299493798E+02  0.00000000000E+00 0.  1.
         -4    1    1    2    0  502 -0.10575406478E+03  0.39488134320E+02  0.28839172152E+03  0.30969827254E+03  0.00000000000E+00 0. -1.
</event>
<event>
 6    1  0.5496865E-006  0.6553815E+02  0.7818608E-02  0.1242956E+00
         21   -1    0    0  501  502  0.00000000000E+00  0.00000000000E+00  0.27118606023E+03  0.27118606023E+03  0.00000000000E+00 0. -1.
         21   -1    0    0  502  503 -0.00000000000E+00 -0.00000000000E+00 -0.22031203830E+03  0.22031203830E+03  0.00000000000E+00 0.  1.
        -13    1    1    2    0    0 -0.34149823896E+02 -0.85586732796E+02 -0.15595885761E+03  0.18114766279E+03  0.10566000000E+00 0.  1.
         13    1    1    2    0    0  0.48190600579E+02  0.37396217311E+02  0.13267281252E+03  0.14602361932E+03  0.10566000000E+00 0. -1.
          4    1    1    2  501    0  0.22540492769E+01  0.64351355608E+02  0.10663081665E+03  0.12456447634E+03  0.00000000000E+00 0.  1.
         -4    1    1    2    0  503 -0.16294825961E+02 -0.16160840123E+02 -0.32470749639E+02  0.39762340080E+02  0.00000000000E+00 0. -1.
</event>
<event>
 6    1  0.5496865E-006  0.7593188E+02  0.7818608E-02  0.1211971E+00
         21   -1    0    0  501  502  0.00000000000E+00  0.00000000000E+00  0.33520087078E+03  0.33520087078E+03  0.00000000000E+00 0. -1.
         21   -1    0    0  502  503 -0.00000000000E+00 -0.00000000000E+00 -0.10273657134E+03  0.10273657134E+03  0.00000000000E+00 0.  1.
        -13    1    1    2    0    0  0.10184004272E+03  0.60978329365E+02 -0.22854781065E+02  0.12088053249E+03  0.10566000000E+00 0.  1.
         13    1    1    2    0    0 -0.36848254687E+02 -0.60295614542E+02  0.12345135877E+03  0.14224487391E+03  0.10566000000E+00 0. -1.
          4    1    1    2  501    0 -0.11508254671E+02  0.76028295952E+01  0.11818577346E+03  0.11898789851E+03  0.00000000000E+00 0.  1.
         -4    1    1    2    0  503 -0.53483533362E+02 -0.82855444190E+01  0.13681948268E+02  0.55824137214E+02  0.00000000000E+00 0. -1.
</event>
<event>
 6    1  0.5496865E-006  0.9240148E+02  0.7818608E-02  0.1177779E+00
         21   -1    0    0  501  502  0.00000000000E+00  0.00000000000E+00  0.35278104146E+03  0.35278104146E+03  0.00000000000E+00 0. -1.
         21   -1    0    0  502  503 -0.00000000000E+00 -0.00000000000E+00 -0.12903732690E+03  0.12903732690E+03  0.00000000000E+00 0. -1.
        -13    1    1    2    0    0  0.38946780796E+02  0.91483211545E+02  0.22110722244E+03  0.24243441321E+03  0.10566000000E+00 0.  1.
         13    1    1    2    0    0 -0.70258941096E+02 -0.11198470918E+03  0.32398958725E+02  0.13611244464E+03  0.10566000000E+00 0. -1.
          4    1    1    2  501    0 -0.62089642450E+01 -0.24986910143E+02  0.14492563686E+02  0.29545411110E+02  0.00000000000E+00 0.  1.
         -4    1    1    2    0  503  0.37521124546E+02  0.45488407777E+02 -0.44255030287E+02  0.73726099415E+02  0.00000000000E+00 0. -1.
</event>
<event>
 6    1  0.5496865E-006  0.2406775E+03  0.7818608E-02  0.1035340E+00
         21   -1    0    0  503  502  0.00000000000E+00  0.00000000000E+00  0.20539483573E+03  0.20539483573E+03  0.00000000000E+00 0. -1.
         21   -1    0    0  501  503 -0.00000000000E+00 -0.00000000000E+00 -0.12733923854E+04  0.12733923854E+04  0.00000000000E+00 0. -1.
        -13    1    1    2    0    0  0.15203064907E+03  0.11854596650E+03 -0.36362744964E+02  0.19618543477E+03  0.10566000000E+00 0.  1.
         13    1    1    2    0    0 -0.19593589800E+03 -0.13748634630E+03 -0.11161794362E+04  0.11415559191E+04  0.10566000000E+00 0. -1.
          4    1    1    2  501    0 -0.82209797459E+01 -0.93920254940E+01 -0.18396951650E+02  0.22231564967E+02  0.00000000000E+00 0.  1.
         -4    1    1    2    0  502  0.52126228674E+02  0.28332405287E+02  0.10294158309E+03  0.11881430232E+03  0.00000000000E+00 0. -1.
</event>
<event>
 6    1  0.5496865E-006  0.8365805E+02  0.7818608E-02  0.1208571E+00
         21   -1    0    0  501  502  0.00000000000E+00  0.00000000000E+00  0.27385991742E+03  0.27385991742E+03  0.00000000000E+00 0.  1.
         21   -1    0    0  502  503 -0.00000000000E+00 -0.00000000000E+00 -0.11935687273E+03  0.11935687273E+03  0.00000000000E+00 0. -1.
        -13    1    1    2    0    0 -0.30263492630E+02 -0.53221658457E+02  0.19713166811E+02  0.64319857158E+02  0.10566000000E+00 0.  1.
         13    1    1    2    0    0 -0.36180249600E+02  0.26333908832E+02  0.10688482027E+03  0.11587433358E+03  0.10566000000E+00 0. -1.
          4    1    1    2  501    0  0.91331082471E+02  0.82873447653E+02  0.66993110702E+02  0.14034761071E+03  0.00000000000E+00 0.  1.
         -4    1    1    2    0  503 -0.24887340241E+02 -0.55985698028E+02 -0.39088053091E+02  0.72674988700E+02  0.00000000000E+00 0. -1.
</event>
<event>
 6    1  0.5496865E-006  0.1967387E+03  0.7818608E-02  0.1062395E+00
         21   -1    0    0  501  502  0.00000000000E+00  0.00000000000E+00  0.22358110333E+04  0.22358110333E+04  0.00000000000E+00 0. -1.
         21   -1    0    0  502  503 -0.00000000000E+00 -0.00000000000E+00 -0.72918127085E+03  0.72918127085E+03  0.00000000000E+00 0. -1.
        -13    1    1    2    0    0 -0.13426888125E+03 -0.11278538022E+03 -0.10555990947E+03  0.20467432695E+03  0.10566000000E+00 0.  1.
         13    1    1    2    0    0  0.98872841700E+02  0.16036145490E+03  0.56669317510E+03  0.59718740854E+03  0.10566000000E+00 0. -1.
          4    1    1    2  501    0 -0.47867132985E+02  0.38366524321E+02  0.15973121036E+04  0.15984896650E+04  0.00000000000E+00 0.  1.
         -4    1    1    2    0  503  0.83263172533E+02 -0.85942599000E+02 -0.55181560680E+03  0.56464090370E+03  0.00000000000E+00 0. -1.
</event>
<event>
 6    1  0.5496865E-006  0.1027506E+03  0.7818608E-02  0.1160083E+00
         21   -1    0    0  503  502  0.00000000000E+00  0.00000000000E+00  0.61590997463E+03  0.61590997463E+03  0.00000000000E+00 0.  1.
         21   -1    0    0  501  503 -0.00000000000E+00 -0.00000000000E+00 -0.48005064987E+02  0.48005064987E+02  0.00000000000E+00 0. -1.
        -13    1    1    2    0    0  0.27745707732E+02  0.11197403782E+03  0.28024330435E+03  0.30305829512E+03  0.10566000000E+00 0.  1.
         13    1    1    2    0    0 -0.27117347519E+02 -0.93146659146E+02  0.10825932856E+03  0.14536761686E+03  0.10566000000E+00 0. -1.
          4    1    1    2  501    0  0.22896211737E+02 -0.54724394726E+01 -0.89642617308E+01  0.25190118977E+02  0.00000000000E+00 0.  1.
         -4    1    1    2    0  502 -0.23524571950E+02 -0.13354939201E+02  0.18836653846E+03  0.19029900866E+03  0.00000000000E+00 0. -1.
</event>
<event>
 6    1  0.5496865E-006  0.1042974E+03  0.7818608E-02  0.1157635E+00
         21   -1    0    0  501  502  0.00000000000E+00  0.00000000000E+00  0.24031273985E+03  0.24031273985E+03  0.00000000000E+00 0. -1.
         21   -1    0    0  502  503 -0.00000000000E+00 -0.00000000000E+00 -0.17642238195E+03  0.17642238195E+03  0.00000000000E+00 0.  1.
        -13    1    1    2    0    0 -0.20860644118E+02  0.15612948283E+03  0.24643370108E+02  0.15943302272E+03  0.10566000000E+00 0.  1.
         13    1    1    2    0    0  0.63867523584E+02 -0.68565036425E+02  0.58977929150E+02  0.11071870700E+03  0.10566000000E+00 0. -1.
          4    1    1    2  501    0 -0.19251137526E+02 -0.15097833285E+01  0.36347046740E+02  0.41158152879E+02  0.00000000000E+00 0.  1.
         -4    1    1    2    0  503 -0.23755741940E+02 -0.86054663073E+02 -0.56077988098E+02  0.10542523920E+03  0.00000000000E+00 0. -1.
</event>
<event>
 6    1  0.5496865E-006  0.6510995E+02  0.7818608E-02  0.1240173E+00
         21   -1    0    0  501  502  0.00000000000E+00  0.00000000000E+00  0.27502894256E+03  0.27502894256E+03  0.00000000000E+00 0. -1.
         21   -1    0    0  502  503 -0.00000000000E+00 -0.00000000000E+00 -0.80997207897E+02  0.80997207897E+02  0.00000000000E+00 0. -1.
        -13    1    1    2    0    0 -0.52886996788E+02 -0.25693591875E+02  0.37194860079E+02  0.69574879612E+02  0.10566000000E+00 0.  1.
         13    1    1    2    0    0  0.64519823838E+02 -0.15648554878E+02  0.14437643236E+03  0.15890956649E+03  0.10566000000E+00 0. -1.
          4    1    1    2  501    0  0.20715941709E+02  0.18458216364E+02  0.59730554584E+02  0.65860421675E+02  0.00000000000E+00 0.  1.
         -4    1    1    2    0  503 -0.32348768760E+02  0.22883930388E+02 -0.47270112359E+02  0.61681282678E+02  0.00000000000E+00 0. -1.
</event>
<event>
 6    1  0.5496865E-006  0.1054487E+03  0.7818608E-02  0.1155842E+00
         21   -1    0    0  503  502  0.00000000000E+00  0.00000000000E+00  0.96958109654E+03  0.96958109654E+03  0.00000000000E+00 0. -1.
         21   -1    0    0  501  503 -0.00000000000E+00 -0.00000000000E+00 -0.79355067580E+02  0.79355067580E+02  0.00000000000E+00 0. -1.
        -13    1    1    2    0    0  0.11030839884E+03  0.34656069651E+02  0.12282810877E+03  0.16868829683E+03  0.10566000000E+00 0.  1.
         13    1    1    2    0    0 -0.92862384698E+02  0.19726912050E+02  0.34930271744E+02  0.10115685147E+03  0.10566000000E+00 0. -1.
          4    1    1    2  501    0 -0.34106045390E+02 -0.79559794864E+02  0.58564838002E+02  0.10451231287E+03  0.00000000000E+00 0.  1.
         -4    1    1    2    0  502  0.16660031253E+02  0.25176813164E+02  0.67390281044E+03  0.67457870295E+03  0.00000000000E+00 0. -1.
</event>
<event>
 6    1  0.5496865E-006  0.1065552E+03  0.7818608E-02  0.1192253E+00
         21   -1    0    0  503  502  0.00000000000E+00  0.00000000000E+00  0.33786762845E+03  0.33786762845E+03  0.00000000000E+00 0.  1.
         21   -1    0    0  501  503 -0.00000000000E+00 -0.00000000000E+00 -0.16404368296E+03  0.16404368296E+03  0.00000000000E+00 0.  1.
        -13    1    1    2    0    0 -0.44070628097E+02  0.34501630555E+01  0.52376375315E+02  0.68537724948E+02  0.10566000000E+00 0.  1.
         13    1    1    2    0    0  0.96537302304E+02  0.85691085578E+02 -0.53088498055E+02  0.13957368188E+03  0.10566000000E+00 0. -1.
          4    1    1    2  501    0  0.16820431201E+02 -0.11686238047E+02 -0.45807962025E+02  0.50178326501E+02  0.00000000000E+00 0.  1.
         -4    1    1    2    0  502 -0.69287105409E+02 -0.77455010587E+02  0.22034403025E+03  0.24362157809E+03  0.00000000000E+00 0. -1.
</event>
<event>
 6    1  0.5496865E-006  0.1825149E+03  0.7818608E-02  0.1072832E+00
         21   -1    0    0  503  502  0.00000000000E+00  0.00000000000E+00  0.29614121241E+03  0.29614121241E+03  0.00000000000E+00 0.  1.
         21   -1    0    0  501  503 -0.00000000000E+00 -0.00000000000E+00 -0.25591820411E+03  0.25591820411E+03  0.00000000000E+00 0.  1.
        -13    1    1    2    0    0  0.18959023030E+03 -0.73348396580E+02  0.16589861673E+03  0.26238674681E+03  0.10566000000E+00 0.  1.
         13    1    1    2    0    0 -0.12301748899E+03  0.69810744755E+02 -0.96575847625E+02  0.17127097883E+03  0.10566000000E+00 0. -1.
          4    1    1    2  501    0 -0.61427692705E+02 -0.67218372935E+01 -0.59575856673E+02  0.85836048523E+02  0.00000000000E+00 0.  1.
         -4    1    1    2    0  502 -0.51450486055E+01  0.10259489119E+02  0.30476095873E+02  0.32565642352E+02  0.00000000000E+00 0. -1.
</event>
<event>
 6    1  0.5496865E-006  0.7820225E+02  0.7818608E-02  0.1206715E+00
         21   -1    0    0  503  502  0.00000000000E+00  0.00000000000E+00  0.37188440341E+03  0.37188440341E+03  0.00000000000E+00 0.  1.
         21   -1    0    0  501  503 -0.00000000000E+00 -0.00000000000E+00 -0.11842986018E+03  0.11842986018E+03  0.00000000000E+00 0. -1.
        -13    1    1    2    0    0  0.51847619266E+02 -0.63560751983E+02  0.64479274026E+01  0.82278379591E+02  0.10566000000E+00 0.  1.
         13    1    1    2    0    0 -0.15769696276E+02  0.71966861567E+02 -0.57759931371E+02  0.93616949963E+02  0.10566000000E+00 0. -1.
          4    1    1    2  501    0 -0.54925825983E+02 -0.31604895675E+01  0.25658061418E+03  0.26241274098E+03  0.00000000000E+00 0.  1.
         -4    1    1    2    0  502  0.18847902993E+02 -0.52456200163E+01  0.48185933006E+02  0.52006193057E+02  0.00000000000E+00 0. -1.
</event>
<event>
 6    1  0.5496865E-006  0.2830200E+03  0.7818608E-02  0.1014571E+00
         21   -1    0    0  503  502  0.00000000000E+00  0.00000000000E+00  0.92748930564E+03  0.92748930564E+03  0.00000000000E+00 0.  1.
         21   -1    0    0  501  503 -0.00000000000E+00 -0.00000000000E+00 -0.78108105606E+03  0.78108105606E+03  0.00000000000E+00 0.  1.
        -13    1    1    2    0    0  0.15091357951E+03  0.55647980650E+02  0.59580859885E+03  0.61713815621E+03  0.10566000000E+00 0.  1.
         13    1    1    2    0    0 -0.25579435167E+03 -0.13787143136E+03 -0.18903792960E+03  0.34666212935E+03  0.10566000000E+00 0. -1.
          4    1    1    2  501    0 -0.11833378450E+02 -0.92508515818E+00 -0.48128978239E+03  0.48143612168E+03  0.00000000000E+00 0.  1.
         -4    1    1    2    0  502  0.11671415061E+03  0.83148535873E+02  0.22092736272E+03  0.26333395445E+03  0.00000000000E+00 0. -1.
</event>
<event>
 6    1  0.5496865E-006  0.9391469E+02  0.7818608E-02  0.1175036E+00
         21   -1    0    0  503  502  0.00000000000E+00  0.00000000000E+00  0.71729271391E+02  0.71729271391E+02  0.00000000000E+00 0.  1.
         21   -1    0    0  501  503 -0.00000000000E+00 -0.00000000000E+00 -0.27138474554E+03  0.27138474554E+03  0.00000000000E+00 0.  1.
        -13    1    1    2    0    0  0.63236192732E+02 -0.76441009087E+02 -0.19988172315E+02  0.10120070226E+03  0.10566000000E+00 0.  1.
         13    1    1    2    0    0 -0.68082911536E+02  0.47667359477E+02 -0.80175082189E+02  0.11547950022E+03  0.10566000000E+00 0. -1.
          4    1    1    2  501    0 -0.47798399602E+01  0.32513574757E+02 -0.10810282954E+03  0.11298761511E+03  0.00000000000E+00 0.  1.
         -4    1    1    2    0  502  0.96265587640E+01 -0.37399251473E+01  0.86106099008E+01  0.13446199337E+02  0.00000000000E+00 0. -1.
</event>
<event>
 6    1  0.5496865E-006  0.4369604E+02  0.7818608E-02  0.1343637E+00
         21   -1    0    0  503  502  0.00000000000E+00  0.00000000000E+00  0.12920532705E+03  0.12920532705E+03  0.00000000000E+00 0.  1.
         21   -1    0    0  501  503 -0.00000000000E+00 -0.00000000000E+00 -0.14350469079E+03  0.14350469079E+03  0.00000000000E+00 0.  1.
        -13    1    1    2    0    0  0.25640883479E+02  0.12327625357E+02  0.50874585576E+02  0.58289449080E+02  0.10566000000E+00 0.  1.
         13    1    1    2    0    0  0.17852899377E+02  0.21490747526E+02 -0.21288788715E+02  0.35125516856E+02  0.10566000000E+00 0. -1.
          4    1    1    2  501    0  0.75951533071E+01 -0.26751364977E+02 -0.99578584005E+02  0.10338866608E+03  0.00000000000E+00 0.  1.
         -4    1    1    2    0  502 -0.51088936164E+02 -0.70670079059E+01  0.55693423402E+02  0.75906385827E+02  0.00000000000E+00 0. -1.
</event>
<event>
 6    1  0.5496865E-006  0.1108489E+03  0.7818608E-02  0.1147755E+00
         21   -1    0    0  503  502  0.00000000000E+00  0.00000000000E+00  0.29862376568E+03  0.29862376568E+03  0.00000000000E+00 0.  1.
         21   -1    0    0  501  503 -0.00000000000E+00 -0.00000000000E+00 -0.14374999273E+03  0.14374999273E+03  0.00000000000E+00 0. -1.
        -13    1    1    2    0    0 -0.10080281996E+03  0.55062000744E+02  0.18410234929E+02  0.11632704050E+03  0.10566000000E+00 0.  1.
         13    1    1    2    0    0  0.11206615659E+03  0.80091047085E+00 -0.11754854307E+02  0.11268386164E+03  0.10566000000E+00 0. -1.
          4    1    1    2  501    0  0.73809669959E+01 -0.60619889775E+02 -0.27921471235E+01  0.61131381432E+02  0.00000000000E+00 0.  1.
         -4    1    1    2    0  502 -0.18644303621E+02  0.47569785606E+01  0.15101053945E+03  0.15223147483E+03  0.00000000000E+00 0. -1.
</event>
<event>
 6    1  0.5496865E-006  0.1126543E+03  0.7818608E-02  0.1145164E+00
         21   -1    0    0  501  502  0.00000000000E+00  0.00000000000E+00  0.12183865884E+03  0.12183865884E+03  0.00000000000E+00 0. -1.
         21   -1    0    0  502  503 -0.00000000000E+00 -0.00000000000E+00 -0.30749603402E+03  0.30749603402E+03  0.00000000000E+00 0.  1.
        -13    1    1    2    0    0  0.11676127320E+03  0.12718167045E+02 -0.35980782649E+02  0.12283962950E+03  0.10566000000E+00 0.  1.
         13    1    1    2    0    0 -0.11476887621E+03 -0.14734039166E+02 -0.81155864779E+02  0.14133390396E+03  0.10566000000E+00 0. -1.
          4    1    1    2  501    0 -0.16369290256E+02 -0.13691185452E+02  0.44924207781E+02  0.49735165299E+02  0.00000000000E+00 0.  1.
         -4    1    1    2    0  503  0.14376893265E+02  0.15707057573E+02 -0.11344493553E+03  0.11542599410E+03  0.00000000000E+00 0. -1.
</event>
<event>
 6    1  0.5496865E-006  0.4682609E+03  0.7818608E-02  0.9657114E-01
         21   -1    0    0  503  502  0.00000000000E+00  0.00000000000E+00  0.24708194000E+04  0.24708194000E+04  0.00000000000E+00 0.  1.
         21   -1    0    0  501  503 -0.00000000000E+00 -0.00000000000E+00 -0.21311809594E+03  0.21311809594E+03  0.00000000000E+00 0.  1.
        -13    1    1    2    0    0 -0.15740412692E+03 -0.54102231032E+03  0.83874933679E+03  0.10104363714E+04  0.10566000000E+00 0.  1.
         13    1    1    2    0    0 -0.11409722410E+03  0.31247189757E+03  0.26677592672E+03  0.42641091632E+03  0.10566000000E+00 0. -1.
          4    1    1    2  501    0  0.25048692149E+03  0.30295847506E+03  0.87332138330E+03  0.95771487092E+03  0.00000000000E+00 0.  1.
         -4    1    1    2    0  502  0.21014429541E+02 -0.74408062312E+02  0.27885465725E+03  0.28937533733E+03  0.00000000000E+00 0. -1.
</event>
<event>
 6    1  0.5496865E-006  0.4016791E+02  0.7818608E-02  0.1370824E+00
         21   -1    0    0  501  502  0.00000000000E+00  0.00000000000E+00  0.25510585432E+03  0.25510585432E+03  0.00000000000E+00 0.  1.
         21   -1    0    0  502  503 -0.00000000000E+00 -0.00000000000E+00 -0.68507512636E+02  0.68507512636E+02  0.00000000000E+00 0. -1.
        -13    1    1    2    0    0 -0.20902854615E+02  0.27226512810E+02  0.22273119682E+02  0.40918398737E+02  0.10566000000E+00 0.  1.
         13    1    1    2    0    0  0.19353671314E+02  0.53977897521E-01 -0.92537817552E+01  0.21452532433E+02  0.10566000000E+00 0. -1.
          4    1    1    2  501    0 -0.32275875492E+00 -0.42927705079E+02  0.21378805196E+03  0.21805555071E+03  0.00000000000E+00 0.  1.
         -4    1    1    2    0  503  0.18719420552E+01  0.15647214371E+02 -0.40209048204E+02  0.43186885071E+02  0.00000000000E+00 0. -1.
</event>
<event>
 6    1  0.5496865E-006  0.1737071E+03  0.7818608E-02  0.1079826E+00
         21   -1    0    0  503  502  0.00000000000E+00  0.00000000000E+00  0.14244317288E+03  0.14244317288E+03  0.00000000000E+00 0.  1.
         21   -1    0    0  501  503 -0.00000000000E+00 -0.00000000000E+00 -0.67367329851E+03  0.67367329851E+03  0.00000000000E+00 0. -1.
        -13    1    1    2    0    0  0.74067275125E+02 -0.13318408125E+03  0.57698443224E+02  0.16295116526E+03  0.10566000000E+00 0.  1.
         13    1    1    2    0    0 -0.67331422760E+02  0.16826690313E+03 -0.40322580965E+03  0.44208408240E+03  0.10566000000E+00 0. -1.
          4    1    1    2  501    0 -0.99017130633E+01 -0.92761992644E+01 -0.18455787856E+03  0.18505594379E+03  0.00000000000E+00 0.  1.
         -4    1    1    2    0  502  0.31658606980E+01 -0.25806622611E+02 -0.11448806532E+01  0.26025279945E+02  0.00000000000E+00 0. -1.
</event>
<event>
 6    1  0.5496865E-006  0.8712896E+02  0.7818608E-02  0.1187809E+00
         21   -1    0    0  501  502  0.00000000000E+00  0.00000000000E+00  0.24528518184E+03  0.24528518184E+03  0.00000000000E+00 0. -1.
         21   -1    0    0  502  503 -0.00000000000E+00 -0.00000000000E+00 -0.64789746306E+02  0.64789746306E+02  0.00000000000E+00 0.  1.
        -13    1    1    2    0    0 -0.64975406208E+02  0.37034372087E+02  0.28925293538E+02  0.80187479684E+02  0.10566000000E+00 0.  1.
         13    1    1    2    0    0  0.97814905787E+02 -0.38975829086E+02  0.90107670119E+02  0.13858670364E+03  0.10566000000E+00 0. -1.
          4    1    1    2  501    0 -0.21494904479E+02  0.52386674428E+01  0.72090919658E+02  0.75409384378E+02  0.00000000000E+00 0.  1.
         -4    1    1    2    0  503 -0.11344595099E+02 -0.32972104436E+01 -0.10628447779E+02  0.15891360447E+02  0.00000000000E+00 0. -1.
</event>
<event>
 6    1  0.5496865E-006  0.4104332E+02  0.7818608E-02  0.1338926E+00
         21   -1    0    0  503  502  0.00000000000E+00  0.00000000000E+00  0.59185725538E+02  0.59185725538E+02  0.00000000000E+00 0.  1.
         21   -1    0    0  501  503 -0.00000000000E+00 -0.00000000000E+00 -0.28996150505E+03  0.28996150505E+03  0.00000000000E+00 0. -1.
        -13    1    1    2    0    0  0.13411107719E+02  0.12127998888E+02  0.32821656505E+02  0.37472903104E+02  0.10566000000E+00 0.  1.
         13    1    1    2    0    0  0.30841469771E+02  0.25123251510E+02 -0.17997126515E+03  0.18431506034E+03  0.10566000000E+00 0. -1.
          4    1    1    2  501    0  0.11548164618E+02 -0.35146462484E+02 -0.17848136776E+02  0.41075417436E+02  0.00000000000E+00 0.  1.
         -4    1    1    2    0  502 -0.55800742108E+02 -0.21047879149E+01 -0.65778034092E+02  0.86283849712E+02  0.00000000000E+00 0. -1.
</event>
<event>
 6    1  0.5496865E-006  0.1790617E+03  0.7818608E-02  0.1080684E+00
         21   -1    0    0  503  502  0.00000000000E+00  0.00000000000E+00  0.14663590783E+03  0.14663590783E+03  0.00000000000E+00 0.  1.
         21   -1    0    0  501  503 -0.00000000000E+00 -0.00000000000E+00 -0.68851516152E+03  0.68851516152E+03  0.00000000000E+00 0.  1.
        -13    1    1    2    0    0 -0.44279100271E+02  0.17254315451E+03 -0.10259391543E+03  0.20556580829E+03  0.10566000000E+00 0.  1.
         13    1    1    2    0    0 -0.14828017633E+03 -0.12382485558E+03 -0.31566504954E+03  0.37008653072E+03  0.10566000000E+00 0. -1.
          4    1    1    2  501    0  0.19693999555E+03 -0.58732198389E+02 -0.13325188217E+03  0.24493039231E+03  0.00000000000E+00 0.  1.
         -4    1    1    2    0  502 -0.43807189537E+01  0.10013899458E+02  0.96315934536E+01  0.14568338044E+02  0.00000000000E+00 0. -1.
</event>
<event>
 6    1  0.1007070E-005  0.1614599E+02  0.7818608E-02  0.1571841E+00
         21   -1    0    0  501  502  0.00000000000E+00  0.00000000000E+00  0.14154350027E+03  0.14154350027E+03  0.00000000000E+00 0. -1.
         21   -1    0    0  502  503 -0.00000000000E+00 -0.00000000000E+00 -0.30491716044E+03  0.30491716044E+03  0.00000000000E+00 0.  1.
        -13    1    1    2    0    0 -0.17097160054E+02 -0.77994619312E+00 -0.81166034722E+02  0.82950934621E+02  0.10566000000E+00 0.  1.
         13    1    1    2    0    0  0.63610964120E+01 -0.17535903162E+02  0.10698351338E+03  0.10859767376E+03  0.10566000000E+00 0. -1.
          4    1    1    2  501    0  0.67781272856E+01  0.80428109754E+01  0.31878293129E+02  0.33568666800E+02  0.00000000000E+00 0.  1.
         -4    1    1    2    0  503  0.39579363568E+01  0.10273038380E+02 -0.22106943195E+03  0.22134338554E+03  0.00000000000E+00 0. -1.
</event>
<event>
 6    1  0.5496865E-006  0.1042948E+03  0.7818608E-02  0.1181116E+00
         21   -1    0    0  503  502  0.00000000000E+00  0.00000000000E+00  0.11316477316E+03  0.11316477316E+03  0.00000000000E+00 0.  1.
         21   -1    0    0  501  503 -0.00000000000E+00 -0.00000000000E+00 -0.66941219667E+03  0.66941219667E+03  0.00000000000E+00 0. -1.
        -13    1    1    2    0    0 -0.34331588971E+02 -0.48513942714E+02  0.69689833771E+02  0.91591182621E+02  0.10566000000E+00 0.  1.
         13    1    1    2    0    0 -0.42977200687E+02  0.10107128448E+03 -0.42276452435E+03  0.43679777762E+03  0.10566000000E+00 0. -1.
          4    1    1    2  501    0 -0.93948774334E+01  0.88586026998E+01 -0.11609998508E+03  0.11681585980E+03  0.00000000000E+00 0.  1.
         -4    1    1    2    0  502  0.86703667091E+02 -0.61415944463E+02 -0.87072747846E+02  0.13737214979E+03  0.00000000000E+00 0. -1.
</event>
<event>
 6    1  0.5496865E-006  0.1594519E+03  0.7818608E-02  0.1092147E+00
         21   -1    0    0  503  502  0.00000000000E+00  0.00000000000E+00  0.21025350050E+03  0.21025350050E+03  0.00000000000E+00 0.  1.
         21   -1    0    0  501  503 -0.00000000000E+00 -0.00000000000E+00 -0.19496840704E+03  0.19496840704E+03  0.00000000000E+00 0. -1.
        -13    1    1    2    0    0 -0.71518008864E+02  0.15285806857E+03  0.55109282606E+02  0.17753157159E+03  0.10566000000E+00 0.  1.
         13    1    1    2    0    0  0.70875488139E+02 -0.12752153089E+03 -0.88545458168E+02  0.17066160958E+03  0.10566000000E+00 0. -1.
          4    1    1    2  501    0  0.61495366928E+01 -0.16099155339E+02  0.20230422857E+02  0.26575733539E+02  0.00000000000E+00 0.  1.
         -4    1    1    2    0  502 -0.55070159683E+01 -0.92373823446E+01  0.28490846166E+02  0.30452992837E+02  0.00000000000E+00 0. -1.
</event>
<event>
 6    1  0.5496865E-006  0.3984284E+02  0.7818608E-02  0.1348092E+00
         21   -1    0    0  501  502  0.00000000000E+00  0.00000000000E+00  0.12912464690E+03  0.12912464690E+03  0.00000000000E+00 0. -1.
         21   -1    0    0  502  503 -0.00000000000E+00 -0.00000000000E+00 -0.30937425528E+03  0.30937425528E+03  0.00000000000E+00 0. -1.
        -13    1    1    2    0    0 -0.14476612980E+02  0.72544346096E+02 -0.67050776062E+02  0.99840233415E+02  0.10566000000E+00 0.  1.
         13    1    1    2    0    0 -0.13643233380E+02 -0.24791476971E+02  0.68270452894E+02  0.73902781070E+02  0.10566000000E+00 0. -1.
          4    1    1    2  501    0  0.59441072926E+01 -0.11276211612E+02  0.38565950514E+02  0.40617950452E+02  0.00000000000E+00 0.  1.
         -4    1    1    2    0  503  0.22175739068E+02 -0.36476657513E+02 -0.22003523573E+03  0.22413793724E+03  0.00000000000E+00 0. -1.
</event>
<event>
 6    1  0.5496865E-006  0.2026124E+03  0.7818608E-02  0.1058360E+00
         21   -1    0    0  503  502  0.00000000000E+00  0.00000000000E+00  0.53051885066E+03  0.53051885066E+03  0.00000000000E+00 0.  1.
         21   -1    0    0  501  503 -0.00000000000E+00 -0.00000000000E+00 -0.18338008826E+03  0.18338008826E+03  0.00000000000E+00 0. -1.
        -13    1    1    2    0    0  0.15832262072E+03  0.14691803092E+03  0.22125689451E+03  0.30920152744E+03  0.10566000000E+00 0.  1.
         13    1    1    2    0    0 -0.17127079190E+03 -0.98130545723E+02 -0.57680647960E+02  0.20564619246E+03  0.10566000000E+00 0. -1.
          4    1    1    2  501    0  0.19609852630E+02 -0.30337188504E+02  0.38981434816E+02  0.53145494511E+02  0.00000000000E+00 0.  1.
         -4    1    1    2    0  502 -0.66616814484E+01 -0.18450296689E+02  0.14458108104E+03  0.14590572450E+03  0.00000000000E+00 0. -1.
</event>
<event>
 6    1  0.5496865E-006  0.1392192E+03  0.7818608E-02  0.1112259E+00
         21   -1    0    0  501  502  0.00000000000E+00  0.00000000000E+00  0.61463253553E+03  0.61463253553E+03  0.00000000000E+00 0.  1.
         21   -1    0    0  502  503 -0.00000000000E+00 -0.00000000000E+00 -0.10481359138E+04  0.10481359138E+04  0.00000000000E+00 0. -1.
        -13    1    1    2    0    0  0.34204114163E+02 -0.17132777782E+03  0.23548312253E+03  0.29321569030E+03  0.10566000000E+00 0.  1.
         13    1    1    2    0    0 -0.54647536868E+02  0.10129219264E+03  0.15431069095E+03  0.19250522612E+03  0.10566000000E+00 0. -1.
          4    1    1    2  501    0  0.31524540236E+02  0.58241841016E+02  0.17060783491E+03  0.18301077022E+03  0.00000000000E+00 0.  1.
         -4    1    1    2    0  503 -0.11081117531E+02  0.11793744158E+02 -0.99390502670E+03  0.99403676273E+03  0.00000000000E+00 0. -1.
</event>
<event>
 6    1  0.5496865E-006  0.1170433E+03  0.7818608E-02  0.1139080E+00
         21   -1    0    0  503  502  0.00000000000E+00  0.00000000000E+00  0.12874824013E+04  0.12874824013E+04  0.00000000000E+00 0. -1.
         21   -1    0    0  501  503 -0.00000000000E+00 -0.00000000000E+00 -0.63359981286E+02  0.63359981286E+02  0.00000000000E+00 0. -1.
        -13    1    1    2    0    0 -0.35098598582E+02 -0.10241621100E+03  0.25917412886E+02  0.11132257342E+03  0.10566000000E+00 0.  1.
         13    1    1    2    0    0  0.47902764394E+02  0.10513912412E+03  0.16160298392E+03  0.19865660279E+03  0.10566000000E+00 0. -1.
          4    1    1    2  501    0 -0.57980806166E+01 -0.19678670732E+02  0.49396348486E+02  0.53487073806E+02  0.00000000000E+00 0.  1.
         -4    1    1    2    0  502 -0.70060851951E+01  0.16955757614E+02  0.98720567471E+03  0.98737613254E+03  0.00000000000E+00 0. -1.
</event>
<event>
 6    1  0.5496865E-006  0.5211281E+02  0.7818608E-02  0.1298091E+00
         21   -1    0    0  503  502  0.00000000000E+00  0.00000000000E+00  0.82105958085E+02  0.82105958085E+02  0.00000000000E+00 0.  1.
         21   -1    0    0  501  503 -0.00000000000E+00 -0.00000000000E+00 -0.35005980280E+03  0.35005980280E+03  0.00000000000E+00 0.  1.
        -13    1    1    2    0    0  0.37805629453E+02 -0.55504717174E+01  0.10184745388E+02  0.39545082593E+02  0.10566000000E+00 0.  1.
         13    1    1    2    0    0 -0.49960823126E+02 -0.50261318390E+02 -0.13364618550E+02  0.72117322237E+02  0.10566000000E+00 0. -1.
          4    1    1    2  501    0  0.55241555594E+01  0.90075960278E+01 -0.27241356830E+03  0.27261842431E+03  0.00000000000E+00 0.  1.
         -4    1    1    2    0  502  0.66310381137E+01  0.46804194079E+02  0.76395967437E+01  0.47884931745E+02  0.00000000000E+00 0. -1.
</event>
<event>
 6    1  0.5496865E-006  0.3204900E+03  0.7818608E-02  0.1023155E+00
         21   -1    0    0  503  502  0.00000000000E+00  0.00000000000E+00  0.87716217919E+03  0.87716217919E+03  0.00000000000E+00 0.  1.
         21   -1    0    0  501  503 -0.00000000000E+00 -0.00000000000E+00 -0.21144317827E+03  0.21144317827E+03  0.00000000000E+00 0.  1.
        -13    1    1    2    0    0 -0.33852980323E+03  0.17426327226E+03  0.34620630006E+03  0.51461532148E+03  0.10566000000E+00 0.  1.
         13    1    1    2    0    0  0.13339305911E+03 -0.73314090035E+02  0.19866891745E+03  0.25027587567E+03  0.10566000000E+00 0. -1.
          4    1    1    2  501    0  0.21474427769E+03 -0.14200957029E+03  0.95987926023E+02  0.27476445330E+03  0.00000000000E+00 0.  1.
         -4    1    1    2    0  502 -0.96075335713E+01  0.41060388069E+02  0.24855857393E+02  0.48949707011E+02  0.00000000000E+00 0. -1.
</event>
<event>
 6    1  0.5496865E-006  0.1001600E+03  0.7818608E-02  0.1164291E+00
         21   -1    0    0  503  502  0.00000000000E+00  0.00000000000E+00  0.67133569916E+02  0.67133569916E+02  0.00000000000E+00 0.  1.
         21   -1    0    0  501  503 -0.00000000000E+00 -0.00000000000E+00 -0.31488031768E+03  0.31488031768E+03  0.00000000000E+00 0. -1.
        -13    1    1    2    0    0  0.54299904043E+02  0.90527711445E+02 -0.58731011017E+02  0.12080185817E+03  0.10566000000E+00 0.  1.
         13    1    1    2    0    0 -0.70099435485E+02 -0.69526494535E+02 -0.20384475894E+03  0.22649627195E+03  0.10566000000E+00 0. -1.
          4    1    1    2  501    0  0.25770034762E+01 -0.12979954988E+02 -0.81025264463E-01  0.13233546142E+02  0.00000000000E+00 0.  1.
         -4    1    1    2    0  502  0.13222527966E+02 -0.80212619220E+01  0.14910047453E+02  0.21482211332E+02  0.00000000000E+00 0. -1.
</event>
<event>
 6    1  0.5496865E-006  0.1833441E+03  0.7818608E-02  0.1084298E+00
         21   -1    0    0  501  502  0.00000000000E+00  0.00000000000E+00  0.96165163813E+03  0.96165163813E+03  0.00000000000E+00 0.  1.
         21   -1    0    0  502  503 -0.00000000000E+00 -0.00000000000E+00 -0.18367988493E+03  0.18367988493E+03  0.00000000000E+00 0.  1.
        -13    1    1    2    0    0  0.20601656476E+03  0.74293955411E+02  0.35988944384E+02  0.22194060478E+03  0.10566000000E+00 0.  1.
         13    1    1    2    0    0 -0.11198974887E+03  0.67980067070E+02  0.37822565423E+03  0.40027197011E+03  0.10566000000E+00 0. -1.
          4    1    1    2  501    0 -0.10637226398E+03 -0.14828835707E+03  0.42385439733E+03  0.46147269206E+03  0.00000000000E+00 0.  1.
         -4    1    1    2    0  503  0.12345448087E+02  0.60143345898E+01 -0.60097242734E+02  0.61646256117E+02  0.00000000000E+00 0. -1.
</event>
<event>
 6    1  0.5496865E-006  0.2932753E+02  0.7818608E-02  0.1424811E+00
         21   -1    0    0  503  502  0.00000000000E+00  0.00000000000E+00  0.14158454562E+03  0.14158454562E+03  0.00000000000E+00 0. -1.
         21   -1    0    0  501  503 -0.00000000000E+00 -0.00000000000E+00 -0.29977395297E+02  0.29977395297E+02  0.00000000000E+00 0.  1.
        -13    1    1    2    0    0 -0.47053096254E+02  0.17728546338E+02  0.21873943146E+02  0.54834074946E+02  0.10566000000E+00 0.  1.
         13    1    1    2    0    0  0.19314026601E+02 -0.40947472186E+01  0.21883325038E+02  0.29473541645E+02  0.10566000000E+00 0. -1.
          4    1    1    2  501    0  0.16948292374E+02 -0.14778933939E+02  0.44380057009E+01  0.22920676198E+02  0.00000000000E+00 0.  1.
         -4    1    1    2    0  502  0.10790777279E+02  0.11451348190E+01  0.63411876441E+02  0.64333648131E+02  0.00000000000E+00 0. -1.
</event>
<event>
 6    1  0.5496865E-006  0.1138532E+03  0.7818608E-02  0.1143472E+00
         21   -1    0    0  503  502  0.00000000000E+00  0.00000000000E+00  0.64042812736E+03  0.64042812736E+03  0.00000000000E+00 0. -1.
         21   -1    0    0  501  503 -0.00000000000E+00 -0.00000000000E+00 -0.24289147259E+03  0.24289147259E+03  0.00000000000E+00 0. -1.
        -13    1    1    2    0    0 -0.96978186385E+02 -0.64032888738E+01  0.21490534660E+03  0.23586031863E+03  0.10566000000E+00 0.  1.
         13    1    1    2    0    0  0.10193422133E+03  0.51698116753E+02 -0.18127710836E+03  0.21430044781E+03  0.10566000000E+00 0. -1.
          4    1    1    2  501    0  0.13515611293E+02 -0.36037752364E+02 -0.23568365848E+02  0.45131576671E+02  0.00000000000E+00 0.  1.
         -4    1    1    2    0  502 -0.18471646236E+02 -0.92570755152E+01  0.38747678238E+03  0.38802725683E+03  0.00000000000E+00 0. -1.
</event>
<event>
 6    1  0.5496865E-006  0.1112874E+03  0.7818608E-02  0.1147121E+00
         21   -1    0    0  503  502  0.00000000000E+00  0.00000000000E+00  0.91943325134E+02  0.91943325134E+02  0.00000000000E+00 0. -1.
         21   -1    0    0  501  503 -0.00000000000E+00 -0.00000000000E+00 -0.26483216449E+03  0.26483216449E+03  0.00000000000E+00 0.  1.
        -13    1    1    2    0    0  0.54097548741E+02 -0.11995388309E+03 -0.36444223482E+02  0.13654183036E+03  0.10566000000E+00 0.  1.
         13    1    1    2    0    0 -0.21427321777E+02  0.86614615841E+02 -0.79287774352E+02  0.11936408221E+03  0.10566000000E+00 0. -1.
          4    1    1    2  501    0 -0.20779570264E+02  0.35887140255E+02 -0.71136320397E+02  0.82341080001E+02  0.00000000000E+00 0.  1.
         -4    1    1    2    0  502 -0.11890656699E+02 -0.25478730019E+01  0.13979478872E+02  0.18528497055E+02  0.00000000000E+00 0. -1.
</event>
<event>
 6    1  0.5496865E-006  0.1618606E+03  0.7818608E-02  0.1089969E+00
         21   -1    0    0  501  502  0.00000000000E+00  0.00000000000E+00  0.13967696753E+04  0.13967696753E+04  0.00000000000E+00 0. -1.
         21   -1    0    0  502  503 -0.00000000000E+00 -0.00000000000E+00 -0.58061854178E+02  0.58061854178E+02  0.00000000000E+00 0.  1.
        -13    1    1    2    0    0  0.78946849670E+02  0.14822151951E+03  0.10757351644E+03  0.19943494309E+03  0.10566000000E+00 0.  1.
         13    1    1    2    0    0 -0.10344040715E+03 -0.13229888139E+03  0.84445923460E+03  0.86099612189E+03  0.10566000000E+00 0. -1.
          4    1    1    2  501    0  0.16475839713E+02 -0.13220971135E+01  0.37149940783E+03  0.37186692681E+03  0.00000000000E+00 0.  1.
         -4    1    1    2    0  503  0.80177177633E+01 -0.14600541013E+02  0.15175662231E+02  0.22533537675E+02  0.00000000000E+00 0. -1.
</event>
<event>
 6    1  0.5496865E-006  0.1326474E+03  0.7818608E-02  0.1119608E+00
         21   -1    0    0  501  502  0.00000000000E+00  0.00000000000E+00  0.70841781081E+03  0.70841781081E+03  0.00000000000E+00 0. -1.
         21   -1    0    0  502  503 -0.00000000000E+00 -0.00000000000E+00 -0.11956938237E+03  0.11956938237E+03  0.00000000000E+00 0.  1.
        -13    1    1    2    0    0  0.65387382742E+02 -0.85134002844E+02 -0.17566728813E+02  0.10877458061E+03  0.10566000000E+00 0.  1.
         13    1    1    2    0    0 -0.17914529369E+03  0.11220536965E+03  0.47790785973E+03  0.52256962674E+03  0.10566000000E+00 0. -1.
          4    1    1    2  501    0  0.80140317735E+02 -0.26154680225E+02  0.13798892944E+03  0.16170183200E+03  0.00000000000E+00 0.  1.
         -4    1    1    2    0  503  0.33617593210E+02 -0.91668657640E+00 -0.94816319230E+01  0.34941153837E+02  0.00000000000E+00 0. -1.
</event>
<event>
 6    1  0.5496865E-006  0.2233723E+03  0.7818608E-02  0.1045196E+00
         21   -1    0    0  501  502  0.00000000000E+00  0.00000000000E+00  0.15917305829E+03  0.15917305829E+03  0.00000000000E+00 0.  1.
         21   -1    0    0  502  503 -0.00000000000E+00 -0.00000000000E+00 -0.85800951588E+03  0.85800951588E+03  0.00000000000E+00 0. -1.
        -13    1    1    2    0    0  0.22443843253E+03  0.85578258400E+02 -0.52752538987E+03  0.57963721105E+03  0.10566000000E+00 0.  1.
         13    1    1    2    0    0 -0.14245650474E+03 -0.97598074381E+02  0.61041791970E+02  0.18315390085E+03  0.10566000000E+00 0. -1.
          4    1    1    2  501    0 -0.13245588308E+02  0.11550618859E+02 -0.12947869428E+03  0.13066596603E+03  0.00000000000E+00 0.  1.
         -4    1    1    2    0  503 -0.68736339486E+02  0.46919712228E+00 -0.10287416541E+03  0.12372549624E+03  0.00000000000E+00 0. -1.
</event>
<event>
 6    1  0.5496865E-006  0.1001137E+03  0.7818608E-02  0.1181231E+00
         21   -1    0    0  503  502  0.00000000000E+00  0.00000000000E+00  0.68518708044E+03  0.68518708044E+03  0.00000000000E+00 0.  1.
         21   -1    0    0  501  503 -0.00000000000E+00 -0.00000000000E+00 -0.15480970666E+03  0.15480970666E+03  0.00000000000E+00 0. -1.
        -13    1    1    2    0    0 -0.11774963206E+03 -0.64686509030E+02  0.35039702149E+03  0.37526977514E+03  0.10566000000E+00 0.  1.
         13    1    1    2    0    0  0.83042534925E+02  0.12198471542E+02 -0.85264841933E+02  0.11964518272E+03  0.10566000000E+00 0. -1.
          4    1    1    2  501    0 -0.64268766048E+02  0.18842771582E+02  0.80534669613E+01  0.67456524224E+02  0.00000000000E+00 0.  1.
         -4    1    1    2    0  502  0.98975863178E+02  0.33645265906E+02  0.25719172726E+03  0.27762530501E+03  0.00000000000E+00 0. -1.
</event>
<event>
 6    1  0.5496865E-006  0.2568793E+03  0.7818608E-02  0.1026888E+00
         21   -1    0    0  501  502  0.00000000000E+00  0.00000000000E+00  0.61874756606E+03  0.61874756606E+03  0.00000000000E+00 0. -1.
         21   -1    0    0  502  503 -0.00000000000E+00 -0.00000000000E+00 -0.33662580394E+03  0.33662580394E+03  0.00000000000E+00 0.  1.
        -13    1    1    2    0    0  0.12588128493E+03 -0.14231403216E+03 -0.23667216419E+03  0.30350141040E+03  0.10566000000E+00 0.  1.
         13    1    1    2    0    0 -0.16179707196E+03  0.18928678315E+03  0.46868346453E+03  0.53072778319E+03  0.10566000000E+00 0. -1.
          4    1    1    2  501    0 -0.52155715401E+01  0.22807369921E+02  0.29334439019E+02  0.37521828604E+02  0.00000000000E+00 0.  1.
         -4    1    1    2    0  503  0.41131358569E+02 -0.69780120905E+02  0.20776022761E+02  0.83622347809E+02  0.00000000000E+00 0. -1.
</event>
<event>
 6    1  0.5662535E-006  0.2468543E+02  0.7818608E-02  0.1453493E+00
         21   -1    0    0  503  502  0.00000000000E+00  0.00000000000E+00  0.90776317182E+02  0.90776317182E+02  0.00000000000E+00 0.  1.
         21   -1    0    0  501  503 -0.00000000000E+00 -0.00000000000E+00 -0.53609525919E+03  0.53609525919E+03  0.00000000000E+00 0.  1.
        -13    1    1    2    0    0 -0.31732854424E+02  0.13102271357E+02  0.52033607473E+02  0.62339000917E+02  0.10566000000E+00 0.  1.
         13    1    1    2    0    0  0.25270491493E+02  0.10610599554E+02 -0.68125792434E+02  0.73432399675E+02  0.10566000000E+00 0. -1.
          4    1    1    2  501    0 -0.10126714194E+01 -0.11875288895E+02 -0.45849813675E+03  0.45865301634E+03  0.00000000000E+00 0.  1.
         -4    1    1    2    0  502  0.74750343512E+01 -0.11837582017E+02  0.29271379702E+02  0.32447159447E+02  0.00000000000E+00 0. -1.
</event>
<event>
 6    1  0.5496865E-006  0.2230073E+03  0.7818608E-02  0.1045414E+00
         21   -1    0    0  503  502  0.00000000000E+00  0.00000000000E+00  0.75842955688E+03  0.75842955688E+03  0.00000000000E+00 0.  1.
         21   -1    0    0  501  503 -0.00000000000E+00 -0.00000000000E+00 -0.17033524219E+03  0.17033524219E+03  0.00000000000E+00 0. -1.
        -13    1    1    2    0    0  0.19766836525E+03 -0.64525456599E+02  0.53762660535E+03  0.57643620212E+03  0.10566000000E+00 0.  1.
         13    1    1    2    0    0 -0.21650777726E+03  0.52129358556E+02 -0.51174961166E+02  0.22849939923E+03  0.10566000000E+00 0. -1.
          4    1    1    2  501    0  0.14522648424E+01  0.18350666910E+02 -0.20486992773E+01  0.18521695871E+02  0.00000000000E+00 0.  1.
         -4    1    1    2    0  502  0.17387147161E+02 -0.59545688668E+01  0.10369136979E+03  0.10530750184E+03  0.00000000000E+00 0. -1.
</event>
<event>
 6    1  0.5496865E-006  0.4929815E+02  0.7818608E-02  0.1294673E+00
         21   -1    0    0  501  502  0.00000000000E+00  0.00000000000E+00  0.81663272579E+02  0.81663272579E+02  0.00000000000E+00 0. -1.
         21   -1    0    0  502  503 -0.00000000000E+00 -0.00000000000E+00 -0.26828667439E+03  0.26828667439E+03  0.00000000000E+00 0.  1.
        -13    1    1    2    0    0 -0.14985038082E+02 -0.39095396449E+02 -0.15488537995E+03  0.16044467419E+03  0.10566000000E+00 0.  1.
         13    1    1    2    0    0  0.13690589048E+02  0.47660603129E+02  0.68174576770E+02  0.84301538544E+02  0.10566000000E+00 0. -1.
          4    1    1    2  501    0  0.15387993219E+02 -0.48798450202E+01 -0.33168220084E+02  0.36888128798E+02  0.00000000000E+00 0.  1.
         -4    1    1    2    0  503 -0.14093544185E+02 -0.36853616591E+01 -0.66744378542E+02  0.68315605429E+02  0.00000000000E+00 0. -1.
</event>
<event>
 6    1  0.5496865E-006  0.1487820E+03  0.7818608E-02  0.1145099E+00
         21   -1    0    0  501  502  0.00000000000E+00  0.00000000000E+00  0.12555266239E+03  0.12555266239E+03  0.00000000000E+00 0. -1.
         21   -1    0    0  502  503 -0.00000000000E+00 -0.00000000000E+00 -0.53154401659E+03  0.53154401659E+03  0.00000000000E+00 0.  1.
        -13    1    1    2    0    0 -0.85779550614E+01  0.18973052446E+03 -0.16565559196E+03  0.25201793495E+03  0.10566000000E+00 0.  1.
         13    1    1    2    0    0  0.18169397570E+02 -0.28887469624E+02  0.46382838628E+02  0.57584648931E+02  0.10566000000E+00 0. -1.
          4    1    1    2  501    0  0.72499385627E+01 -0.15230078392E+02  0.77467994080E+01  0.18561513894E+02  0.00000000000E+00 0.  1.
         -4    1    1    2    0  503 -0.16841381071E+02 -0.14561297644E+03 -0.29446540027E+03  0.32893258121E+03  0.00000000000E+00 0. -1.
</event>
<event>
 6    1  0.5496865E-006  0.2102076E+02  0.7818608E-02  0.1517137E+00
         21   -1    0    0  503  502  0.00000000000E+00  0.00000000000E+00  0.47469379885E+02  0.47469379885E+02  0.00000000000E+00 0. -1.
         21   -1    0    0  501  503 -0.00000000000E+00 -0.00000000000E+00 -0.11780463187E+03  0.11780463187E+03  0.00000000000E+00 0. -1.
        -13    1    1    2    0    0 -0.81680033767E+01 -0.12154613429E+02  0.24147873307E+02  0.28241491747E+02  0.10566000000E+00 0.  1.
         13    1    1    2    0    0 -0.40681857918E+01  0.41486829055E+02 -0.78053458545E+02  0.88487630071E+02  0.10566000000E+00 0. -1.
          4    1    1    2  501    0  0.25513092968E+01 -0.23397563905E+02 -0.24984858416E+02  0.34324893676E+02  0.00000000000E+00 0.  1.
         -4    1    1    2    0  502  0.96848798717E+01 -0.59346517210E+01  0.85551916695E+01  0.14219996262E+02  0.00000000000E+00 0. -1.
</event>
<event>
 6    1  0.5496865E-006  0.4818187E+02  0.7818608E-02  0.1310865E+00
         21   -1    0    0  501  502  0.00000000000E+00  0.00000000000E+00  0.43890346780E+02  0.43890346780E+02  0.00000000000E+00 0.  1.
         21   -1    0    0  502  503 -0.00000000000E+00 -0.00000000000E+00 -0.32649572830E+03  0.32649572830E+03  0.00000000000E+00 0.  1.
        -13    1    1    2    0    0 -0.15761784399E+02 -0.51500513352E+02 -0.23236167666E+03  0.23852189976E+03  0.10566000000E+00 0.  1.
         13    1    1    2    0    0 -0.35010612778E+02  0.14881803610E+02 -0.20140319145E+02  0.43044798815E+02  0.10566000000E+00 0. -1.
          4    1    1    2  501    0  0.47086774905E+02  0.15840670929E+02  0.27685030669E+01  0.49756967710E+02  0.00000000000E+00 0.  1.
         -4    1    1    2    0  503  0.36856222713E+01  0.20778038813E+02 -0.32871888783E+02  0.39062408791E+02  0.00000000000E+00 0. -1.
</event>
<event>
 6    1  0.5496865E-006  0.1992143E+03  0.7818608E-02  0.1060676E+00
         21   -1    0    0  501  502  0.00000000000E+00  0.00000000000E+00  0.33416690173E+03  0.33416690173E+03  0.00000000000E+00 0. -1.
         21   -1    0    0  502  503 -0.00000000000E+00 -0.00000000000E+00 -0.32514525346E+03  0.32514525346E+03  0.00000000000E+00 0. -1.
        -13    1    1    2    0    0 -0.42934611423E+02  0.15542997597E+03  0.24648867924E+02  0.16312399009E+03  0.10566000000E+00 0.  1.
         13    1    1    2    0    0  0.85171777594E+01 -0.25797526538E+03  0.13328100463E+03  0.29049546851E+03  0.10566000000E+00 0. -1.
          4    1    1    2  501    0  0.45185985124E+02  0.60915411449E+02 -0.34218023852E+02  0.83206572817E+02  0.00000000000E+00 0.  1.
         -4    1    1    2    0  503 -0.10768551461E+02  0.41629877964E+02 -0.11469020043E+03  0.12248612376E+03  0.00000000000E+00 0. -1.
</event>
<event>
 6    1  0.7731511E-006  0.5730760E+03  0.7818608E-02  0.9330751E-01
         21   -1    0    0  501  502  0.00000000000E+00  0.00000000000E+00  0.21129698415E+03  0.21129698415E+03  0.00000000000E+00 0. -1.
         21   -1    0    0  502  503 -0.00000000000E+00 -0.00000000000E+00 -0.24863555010E+04  0.24863555010E+04  0.00000000000E+00 0.  1.
        -13    1    1    2    0    0  0.45634298634E+03  0.32915443965E+03 -0.18305954943E+04  0.19151165608E+04  0.10566000000E+00 0.  1.
         13    1    1    2    0    0 -0.46699440144E+03 -0.32425725431E+03 -0.42744550724E+03  0.71129193076E+03  0.10566000000E+00 0. -1.
          4    1    1    2  501    0 -0.13504500404E+01 -0.17790282060E+02  0.22064780994E+02  0.28375560107E+02  0.00000000000E+00 0.  1.
         -4    1    1    2    0  503  0.12001865131E+02  0.12893096721E+02 -0.39082296274E+02  0.42868433511E+02  0.00000000000E+00 0. -1.
</event>
<event>
 6    1  0.5496865E-006  0.9937948E+02  0.7818608E-02  0.1205136E+00
         21   -1    0    0  503  502  0.00000000000E+00  0.00000000000E+00  0.31997357922E+03  0.31997357922E+03  0.00000000000E+00 0. -1.
         21   -1    0    0  501  503 -0.00000000000E+00 -0.00000000000E+00 -0.18759640305E+03  0.18759640305E+03  0.00000000000E+00 0.  1.
        -13    1    1    2    0    0  0.28280789827E+02 -0.25097539839E+02 -0.26907887694E+02  0.46408352302E+02  0.10566000000E+00 0.  1.
         13    1    1    2    0    0 -0.14744743479E+01  0.11261776122E+03 -0.48084026982E+01  0.11273005863E+03  0.10566000000E+00 0. -1.
          4    1    1    2  501    0  0.94269418244E+01  0.39696234434E+01 -0.82394540039E+02  0.83027015909E+02  0.00000000000E+00 0.  1.
         -4    1    1    2    0  502 -0.36233257304E+02 -0.91489844829E+02  0.24648800661E+03  0.26540455543E+03  0.00000000000E+00 0. -1.
</event>
<event>
 6    1  0.5496865E-006  0.1687810E+03  0.7818608E-02  0.1148828E+00
         21   -1    0    0  501  502  0.00000000000E+00  0.00000000000E+00  0.10085697772E+03  0.10085697772E+03  0.00000000000E+00 0.  1.
         21   -1    0    0  502  503 -0.00000000000E+00 -0.00000000000E+00 -0.67883492695E+03  0.67883492695E+03  0.00000000000E+00 0.  1.
        -13    1    1    2    0    0  0.18587965669E+03  0.27311527678E+02 -0.17776930670E+03  0.25864861083E+03  0.10566000000E+00 0.  1.
         13    1    1    2    0    0 -0.11880705611E+02  0.26569709654E+02 -0.35958014831E+02  0.46261113601E+02  0.10566000000E+00 0. -1.
          4    1    1    2  501    0 -0.14957791238E+03 -0.56827781313E+02 -0.62108431194E+02  0.17164033858E+03  0.00000000000E+00 0.  1.
         -4    1    1    2    0  503 -0.24421038699E+02  0.29465439807E+01 -0.30214219651E+03  0.30314184166E+03  0.00000000000E+00 0. -1.
</event>
<event>
 6    1  0.5496865E-006  0.4880451E+02  0.7818608E-02  0.1316602E+00
         21   -1    0    0  501  502  0.00000000000E+00  0.00000000000E+00  0.56825866518E+03  0.56825866518E+03  0.00000000000E+00 0. -1.
         21   -1    0    0  502  503 -0.00000000000E+00 -0.00000000000E+00 -0.52007573624E+02  0.52007573624E+02  0.00000000000E+00 0. -1.
        -13    1    1    2    0    0 -0.18305449314E+02  0.26800096719E+02  0.87509235950E+01  0.33614349414E+02  0.10566000000E+00 0.  1.
         13    1    1    2    0    0  0.80653385935E+02 -0.63677630717E+02  0.45489094687E+03  0.46635350757E+03  0.10566000000E+00 0. -1.
          4    1    1    2  501    0 -0.27279786112E+02  0.59673934900E+01  0.66006293069E+02  0.71670267477E+02  0.00000000000E+00 0.  1.
         -4    1    1    2    0  503 -0.35068150509E+02  0.30910140508E+02 -0.13397071982E+02  0.48628114338E+02  0.00000000000E+00 0. -1.
</event>
<event>
 6    1  0.5496865E-006  0.4370489E+02  0.7818608E-02  0.1330986E+00
         21   -1    0    0  501  502  0.00000000000E+00  0.00000000000E+00  0.15962057964E+03  0.15962057964E+03  0.00000000000E+00 0. -1.
         21   -1    0    0  502  503 -0.00000000000E+00 -0.00000000000E+00 -0.80750884559E+02  0.80750884559E+02  0.00000000000E+00 0.  1.
        -13    1    1    2    0    0  0.78041722728E+01 -0.47902858092E+02 -0.26526162912E+02  0.55310373359E+02  0.10566000000E+00 0.  1.
         13    1    1    2    0    0  0.42160040301E+02  0.72473516435E+01  0.15636778562E+02  0.45546823291E+02  0.10566000000E+00 0. -1.
          4    1    1    2  501    0 -0.22631104490E+02 -0.25514430712E+01  0.85192402699E+02  0.88184024799E+02  0.00000000000E+00 0.  1.
         -4    1    1    2    0  503 -0.27333108084E+02  0.43206949520E+02  0.45666767322E+01  0.51330242749E+02  0.00000000000E+00 0. -1.
</event>
<event>
 6    1  0.5496865E-006  0.5004109E+02  0.7818608E-02  0.1291622E+00
         21   -1    0    0  503  502  0.00000000000E+00  0.00000000000E+00  0.12315798760E+03  0.12315798760E+03  0.00000000000E+00 0. -1.
         21   -1    0    0  501  503 -0.00000000000E+00 -0.00000000000E+00 -0.24508884857E+03  0.24508884857E+03  0.00000000000E+00 0.  1.
        -13    1    1    2    0    0 -0.15014158153E+02 -0.35915298750E+02  0.33036220868E+02  0.51056211009E+02  0.10566000000E+00 0.  1.
         13    1    1    2    0    0  0.29568864021E+00  0.66848192095E+02  0.46473011823E+02  0.81415724587E+02  0.10566000000E+00 0. -1.
          4    1    1    2  501    0 -0.46538625560E+01 -0.10796564066E+02 -0.20695929457E+03  0.20729296621E+03  0.00000000000E+00 0.  1.
         -4    1    1    2    0  502  0.19372332069E+02 -0.20136329278E+02  0.55192009123E+01  0.28481934367E+02  0.00000000000E+00 0. -1.
</event>
<event>
 6    1  0.5496865E-006  0.2024932E+03  0.7818608E-02  0.1131874E+00
         21   -1    0    0  501  502  0.00000000000E+00  0.00000000000E+00  0.58273344380E+03  0.58273344380E+03  0.00000000000E+00 0.  1.
         21   -1    0    0  502  503 -0.00000000000E+00 -0.00000000000E+00 -0.27625162602E+03  0.27625162602E+03  0.00000000000E+00 0. -1.
        -13    1    1    2    0    0 -0.92528590149E+01 -0.22585186521E+02 -0.41333466073E+02  0.48001798214E+02  0.10566000000E+00 0.  1.
         13    1    1    2    0    0  0.10464409377E+03  0.20239186501E+03 -0.56821044223E+02  0.23482226388E+03  0.10566000000E+00 0. -1.
          4    1    1    2  501    0 -0.10607131100E+02 -0.24990202921E+02  0.39862322858E+03  0.39954661786E+03  0.00000000000E+00 0.  1.
         -4    1    1    2    0  503 -0.84784103653E+02 -0.15481647557E+03  0.60130994880E+01  0.17661438986E+03  0.00000000000E+00 0. -1.
</event>
<event>
 6    1  0.5496865E-006  0.2281699E+02  0.7818608E-02  0.1474068E+00
         21   -1    0    0  501  502  0.00000000000E+00  0.00000000000E+00  0.31904523509E+02  0.31904523509E+02  0.00000000000E+00 0. -1.
         21   -1    0    0  502  503 -0.00000000000E+00 -0.00000000000E+00 -0.18155064667E+03  0.18155064667E+03  0.00000000000E+00 0. -1.
        -13    1    1    2    0    0  0.16687981655E+02  0.22527084778E+02 -0.80487413983E+02  0.85230236735E+02  0.10566000000E+00 0.  1.
         13    1    1    2    0    0 -0.13604547528E+02 -0.22072043914E+02  0.18120392122E+02  0.31632556183E+02  0.10566000000E+00 0. -1.
          4    1    1    2  501    0  0.48842410707E+01 -0.19206971448E+02 -0.31576948540E+02  0.37280923300E+02  0.00000000000E+00 0.  1.
         -4    1    1    2    0  503 -0.79676751979E+01  0.18751930583E+02 -0.55702152761E+02  0.59311453960E+02  0.00000000000E+00 0. -1.
</event>
<event>
 6    1  0.5496865E-006  0.6635228E+02  0.7818608E-02  0.1269580E+00
         21   -1    0    0  503  502  0.00000000000E+00  0.00000000000E+00  0.67727814978E+02  0.67727814978E+02  0.00000000000E+00 0.  1.
         21   -1    0    0  501  503 -0.00000000000E+00 -0.00000000000E+00 -0.58724233264E+03  0.58724233264E+03  0.00000000000E+00 0.  1.
        -13    1    1    2    0    0  0.25495585858E+02 -0.37677193014E+02  0.31609692340E+02  0.55396566550E+02  0.10566000000E+00 0.  1.
         13    1    1    2    0    0 -0.67991510538E+02  0.13179184451E+01 -0.22861555866E+03  0.23851554927E+03  0.10566000000E+00 0. -1.
          4    1    1    2  501    0  0.60320443472E+02  0.29596922331E+02 -0.33271644107E+03  0.33943300350E+03  0.00000000000E+00 0.  1.
         -4    1    1    2    0  502 -0.17824518792E+02  0.67623522375E+01  0.10207789726E+02  0.21625028301E+02  0.00000000000E+00 0. -1.
</event>
<event>
 6    1  0.5496865E-006  0.2529154E+03  0.7818608E-02  0.1028893E+00
         21   -1    0    0  501  502  0.00000000000E+00  0.00000000000E+00  0.47008289352E+03  0.47008289352E+03  0.00000000000E+00 0. -1.
         21   -1    0    0  502  503 -0.00000000000E+00 -0.00000000000E+00 -0.47837215921E+03  0.47837215921E+03  0.00000000000E+00 0.  1.
        -13    1    1    2    0    0  0.25211078738E+03  0.46975387313E+02 -0.31212418263E+03  0.40396541024E+03  0.10566000000E+00 0.  1.
         13    1    1    2    0    0 -0.25410080877E+03 -0.10545444959E+00  0.16555044138E+03  0.30327247145E+03  0.10566000000E+00 0. -1.
          4    1    1    2  501    0  0.38930263871E+01 -0.32709079367E+02  0.18729337454E+03  0.19016794597E+03  0.00000000000E+00 0.  1.
         -4    1    1    2    0  503 -0.19030049977E+01 -0.14160853496E+02 -0.49008898979E+02  0.51049225057E+02  0.00000000000E+00 0. -1.
</event>
<event>
 6    1  0.5496865E-006  0.2106654E+03  0.7818608E-02  0.1053060E+00
         21   -1    0    0  503  502  0.00000000000E+00  0.00000000000E+00  0.25703767496E+03  0.25703767496E+03  0.00000000000E+00 0. -1.
         21   -1    0    0  501  503 -0.00000000000E+00 -0.00000000000E+00 -0.38099950045E+03  0.38099950045E+03  0.00000000000E+00 0.  1.
        -13    1    1    2    0    0  0.19861249962E+03 -0.83874993891E+02  0.72141883862E+01  0.21571739680E+03  0.10566000000E+00 0.  1.
         13    1    1    2    0    0 -0.22799883822E+03  0.52000907865E+01 -0.17113715463E+03  0.28512882709E+03  0.10566000000E+00 0. -1.
          4    1    1    2  501    0  0.28080639452E+02 -0.95952797937E+01 -0.14948770454E+02  0.33227359877E+02  0.00000000000E+00 0.  1.
         -4    1    1    2    0  502  0.13056991543E+01  0.88270182899E+02  0.54909911215E+02  0.10396359165E+03  0.00000000000E+00 0. -1.
</event>
<event>
 6    1  0.5496865E-006  0.1577827E+03  0.7818608E-02  0.1093680E+00
         21   -1    0    0  503  502  0.00000000000E+00  0.00000000000E+00  0.16262315784E+04  0.16262315784E+04  0.00000000000E+00 0. -1.
         21   -1    0    0  501  503 -0.00000000000E+00 -0.00000000000E+00 -0.40482368497E+02  0.40482368497E+02  0.00000000000E+00 0.  1.
        -13    1    1    2    0    0 -0.13888131521E+03 -0.52315230860E+02  0.78538292471E+03  0.79928171046E+03  0.10566000000E+00 0.  1.
         13    1    1    2    0    0  0.74335556669E+02  0.16322726862E+03  0.45090692968E+03  0.48526898377E+03  0.10566000000E+00 0. -1.
          4    1    1    2  501    0  0.52849846500E+02 -0.11104605345E+03  0.34945836563E+03  0.37046657281E+03  0.00000000000E+00 0.  1.
         -4    1    1    2    0  502  0.11695912042E+02  0.13401569147E+00  0.98988318321E-03  0.11696679857E+02  0.00000000000E+00 0. -1.
</event>
<event>
 6    1  0.5496865E-006  0.3084805E+03  0.7818608E-02  0.1003865E+00
         21   -1    0    0  501  502  0.00000000000E+00  0.00000000000E+00  0.38379375450E+03  0.38379375450E+03  0.00000000000E+00 0.  1.
         21   -1    0    0  502  503 -0.00000000000E+00 -0.00000000000E+00 -0.56004014211E+03  0.56004014211E+03  0.00000000000E+00 0.  1.
        -13    1    1    2    0    0 -0.32463953125E+03 -0.58253505789E+02 -0.33919401611E+03  0.47311403268E+03  0.10566000000E+00 0.  1.
         13    1    1    2    0    0  0.30431234502E+03  0.78871931357E+02  0.33190958561E+02  0.31611459280E+03  0.10566000000E+00 0. -1.
          4    1    1    2  501    0  0.41785457584E+02  0.94993930426E+01  0.93329371184E+02  0.10269680842E+03  0.00000000000E+00 0.  1.
         -4    1    1    2    0  503 -0.21458271349E+02 -0.30117818611E+02  0.36427298748E+02  0.51908462713E+02  0.00000000000E+00 0. -1.
</event>
<event>
 6    1  0.5496865E-006  0.3827070E+02  0.7818608E-02  0.1358040E+00
         21   -1    0    0  503  502  0.00000000000E+00  0.00000000000E+00  0.56547916112E+03  0.56547916112E+03  0.00000000000E+00 0.  1.
         21   -1    0    0  501  503 -0.00000000000E+00 -0.00000000000E+00 -0.80158484889E+02  0.80158484889E+02  0.00000000000E+00 0. -1.
        -13    1    1    2    0    0 -0.11871827401E+02 -0.77556449879E+02  0.27392125500E+03  0.28493649873E+03  0.10566000000E+00 0.  1.
         13    1    1    2    0    0 -0.10661035218E+02  0.23200956872E+02 -0.51292695809E+02  0.57296543344E+02  0.10566000000E+00 0. -1.
          4    1    1    2  501    0  0.29143487058E+02  0.22707745435E+02 -0.17560674402E+01  0.36987407499E+02  0.00000000000E+00 0.  1.
         -4    1    1    2    0  502 -0.66106244387E+01  0.31647747572E+02  0.26444818449E+03  0.26641719644E+03  0.00000000000E+00 0. -1.
</event>
<event>
 6    1  0.5496865E-006  0.9666088E+02  0.7818608E-02  0.1170201E+00
         21   -1    0    0  501  502  0.00000000000E+00  0.00000000000E+00  0.17017171318E+04  0.17017171318E+04  0.00000000000E+00 0.  1.
         21   -1    0    0  502  503 -0.00000000000E+00 -0.00000000000E+00 -0.40968202265E+02  0.40968202265E+02  0.00000000000E+00 0.  1.
        -13    1    1    2    0    0 -0.10758258494E+02 -0.98912514743E+02  0.29506374382E+03  0.31138729868E+03  0.10566000000E+00 0.  1.
         13    1    1    2    0    0  0.87866552307E+01  0.79562477377E+02  0.47560320568E+02  0.93109550386E+02  0.10566000000E+00 0. -1.
          4    1    1    2  501    0 -0.19931842700E+02 -0.26198911026E+01  0.13039078295E+04  0.13040627938E+04  0.00000000000E+00 0.  1.
         -4    1    1    2    0  503  0.21903445964E+02  0.21969928468E+02  0.14217035663E+02  0.34125691275E+02  0.00000000000E+00 0. -1.
</event>
<event>
 6    1  0.5496865E-006  0.6237849E+02  0.7818608E-02  0.1248267E+00
         21   -1    0    0  501  502  0.00000000000E+00  0.00000000000E+00  0.27197890142E+03  0.27197890142E+03  0.00000000000E+00 0.  1.
         21   -1    0    0  502  503 -0.00000000000E+00 -0.00000000000E+00 -0.22164984356E+03  0.22164984356E+03  0.00000000000E+00 0. -1.
        -13    1    1    2    0    0 -0.49637475691E+02 -0.24289151073E+02 -0.15748764021E+02  0.57461957720E+02  0.10566000000E+00 0.  1.
         13    1    1    2    0    0  0.46546023282E+02  0.29159034959E+02  0.63057177461E+02  0.83624161559E+02  0.10566000000E+00 0. -1.
          4    1    1    2  501    0  0.71124142696E+01  0.20832520820E+02  0.17612449871E+03  0.17749484333E+03  0.00000000000E+00 0.  1.
         -4    1    1    2    0  503 -0.40209618605E+01 -0.25702404707E+02 -0.17310385429E+03  0.17504778237E+03  0.00000000000E+00 0. -1.
</event>
<event>
 6    1  0.5496865E-006  0.3061454E+03  0.7818608E-02  0.1028117E+00
         21   -1    0    0  501  502  0.00000000000E+00  0.00000000000E+00  0.12871909996E+04  0.12871909996E+04  0.00000000000E+00 0.  1.
         21   -1    0    0  502  503 -0.00000000000E+00 -0.00000000000E+00 -0.86318274774E+03  0.86318274774E+03  0.00000000000E+00 0.  1.
        -13    1    1    2    0    0  0.23981897606E+03 -0.11234813846E+03  0.51529480148E+03  0.57936516041E+03  0.10566000000E+00 0.  1.
         13    1    1    2    0    0  0.11968604950E+03  0.16605082041E+02  0.24390448773E+03  0.27219458020E+03  0.10566000000E+00 0. -1.
          4    1    1    2  501    0 -0.36963000733E+03  0.24146270517E+03  0.37160636339E+03  0.57708047066E+03  0.00000000000E+00 0.  1.
         -4    1    1    2    0  503  0.10124981772E+02 -0.14571964875E+03 -0.70679740077E+03  0.72173353603E+03  0.00000000000E+00 0. -1.
</event>
<event>
 6    1  0.5496865E-006  0.1689169E+03  0.7818608E-02  0.1083820E+00
         21   -1    0    0  503  502  0.00000000000E+00  0.00000000000E+00  0.10145787923E+04  0.10145787923E+04  0.00000000000E+00 0.  1.
         21   -1    0    0  501  503 -0.00000000000E+00 -0.00000000000E+00 -0.71273993312E+02  0.71273993312E+02  0.00000000000E+00 0.  1.
        -13    1    1    2    0    0  0.12723812902E+03 -0.12029854736E+03  0.54175809584E+03  0.56935325374E+03  0.10566000000E+00 0.  1.
         13    1    1    2    0    0 -0.10635508057E+03  0.13093518710E+03  0.33729287275E+03  0.37712321535E+03  0.10566000000E+00 0. -1.
          4    1    1    2  501    0 -0.53702794225E+01 -0.16184572134E+02 -0.34910581302E+02  0.38852657091E+02  0.00000000000E+00 0.  1.
         -4    1    1    2    0  502 -0.15512769032E+02  0.55479323975E+01  0.99164411649E+02  0.10052365938E+03  0.00000000000E+00 0. -1.
</event>
<event>
 6    1  0.5496865E-006  0.1306450E+03  0.7818608E-02  0.1121940E+00
         21   -1    0    0  501  502  0.00000000000E+00  0.00000000000E+00  0.10474460059E+03  0.10474460059E+03  0.00000000000E+00 0. -1.
         21   -1    0    0  502  503 -0.00000000000E+00 -0.00000000000E+00 -0.69770153754E+03  0.69770153754E+03  0.00000000000E+00 0.  1.
        -13    1    1    2    0    0 -0.33288617041E+02  0.19712320132E+03 -0.47575929422E+03  0.51605484759E+03  0.10566000000E+00 0.  1.
         13    1    1    2    0    0  0.61629711942E+02 -0.96300088901E+02  0.14907740386E+02  0.11530039204E+03  0.10566000000E+00 0. -1.
          4    1    1    2  501    0 -0.14749818992E+02 -0.19867693437E+02 -0.18332059868E+02  0.30795240246E+02  0.00000000000E+00 0.  1.
         -4    1    1    2    0  503 -0.13591275908E+02 -0.80955418980E+02 -0.11377332325E+03  0.14029565826E+03  0.00000000000E+00 0. -1.
</event>
<event>
 6    1  0.5496865E-006  0.8107542E+02  0.7818608E-02  0.1203566E+00
         21   -1    0    0  501  502  0.00000000000E+00  0.00000000000E+00  0.14365317084E+03  0.14365317084E+03  0.00000000000E+00 0.  1.
         21   -1    0    0  502  503 -0.00000000000E+00 -0.00000000000E+00 -0.22095550604E+03  0.22095550604E+03  0.00000000000E+00 0. -1.
        -13    1    1    2    0    0 -0.37968435074E+02  0.36315283102E+02 -0.31529747886E+02  0.61274285100E+02  0.10566000000E+00 0.  1.
         13    1    1    2    0    0 -0.69299830933E+02 -0.51826924205E+02  0.10342371109E+02  0.87152007688E+02  0.10566000000E+00 0. -1.
          4    1    1    2  501    0  0.10696302773E+03  0.28112301869E+01  0.43687185424E+02  0.11557492153E+03  0.00000000000E+00 0.  1.
         -4    1    1    2    0  503  0.30523827894E+00  0.12700410916E+02 -0.99802143845E+02  0.10060746257E+03  0.00000000000E+00 0. -1.
</event>
<event>
 6    1  0.5496865E-006  0.4596975E+02  0.7818608E-02  0.1343259E+00
         21   -1    0    0  503  502  0.00000000000E+00  0.00000000000E+00  0.46968812941E+03  0.46968812941E+03  0.00000000000E+00 0. -1.
         21   -1    0    0  501  503 -0.00000000000E+00 -0.00000000000E+00 -0.29990764176E+03  0.29990764176E+03  0.00000000000E+00 0. -1.
        -13    1    1    2    0    0 -0.29161589357E+02 -0.19851136125E+02  0.15235232856E+03  0.15638321228E+03  0.10566000000E+00 0.  1.
         13    1    1    2    0    0 -0.89838241525E+01 -0.67276900893E+02 -0.45777864041E+02  0.81868885972E+02  0.10566000000E+00 0. -1.
          4    1    1    2  501    0  0.19694055096E+02  0.59235013072E+02 -0.22893592063E+03  0.23729369637E+03  0.00000000000E+00 0.  1.
         -4    1    1    2    0  502  0.18451358414E+02  0.27893023946E+02  0.29214194376E+03  0.29404997656E+03  0.00000000000E+00 0. -1.
</event>
<event>
 6    1  0.5496865E-006  0.1869770E+03  0.7818608E-02  0.1069450E+00
         21   -1    0    0  503  502  0.00000000000E+00  0.00000000000E+00  0.15619629324E+03  0.15619629324E+03  0.00000000000E+00 0.  1.
         21   -1    0    0  501  503 -0.00000000000E+00 -0.00000000000E+00 -0.31083487921E+03  0.31083487921E+03  0.00000000000E+00 0. -1.
        -13    1    1    2    0    0  0.17131161451E+03  0.10656724787E+03 -0.35407220226E+02  0.20483634929E+03  0.10566000000E+00 0.  1.
         13    1    1    2    0    0 -0.14579782568E+03 -0.10123135378E+03 -0.82367786572E+02  0.19567640734E+03  0.10566000000E+00 0. -1.
          4    1    1    2  501    0 -0.63204917098E+01  0.11790184262E+02 -0.38485379982E+02  0.40744098134E+02  0.00000000000E+00 0.  1.
         -4    1    1    2    0  502 -0.19193297115E+02 -0.17126078349E+02  0.16218008050E+01  0.25774317675E+02  0.00000000000E+00 0. -1.
</event>
<event>
 6    1  0.5496865E-006  0.5120448E+02  0.7818608E-02  0.1286961E+00
         21   -1    0    0  501  502  0.00000000000E+00  0.00000000000E+00  0.28296701547E+03  0.28296701547E+03  0.00000000000E+00 0.  1.
         21   -1    0    0  502  503 -0.00000000000E+00 -0.00000000000E+00 -0.11249464508E+03  0.11249464508E+03  0.00000000000E+00 0. -1.
        -13    1    1    2    0    0  0.36528143417E+02  0.82887052777E+01 -0.28366796605E+02  0.46986106567E+02  0.10566000000E+00 0.  1.
         13    1    1    2    0    0 -0.69908257815E+02 -0.62485267648E+01  0.28421522998E+02  0.75723198103E+02  0.10566000000E+00 0. -1.
          4    1    1    2  501    0  0.20108347728E+02 -0.11897917399E+02  0.21961354136E+03  0.22085292308E+03  0.00000000000E+00 0.  1.
         -4    1    1    2    0  503  0.13271766669E+02  0.98577388862E+01 -0.49195897361E+02  0.51899432787E+02  0.00000000000E+00 0. -1.
</event>
<event>
 6    1  0.5496865E-006  0.6172844E+02  0.7818608E-02  0.1250262E+00
         21   -1    0    0  503  502  0.00000000000E+00  0.00000000000E+00  0.15529074106E+03  0.15529074106E+03  0.00000000000E+00 0. -1.
         21   -1    0    0  501  503 -0.00000000000E+00 -0.00000000000E+00 -0.31939460826E+03  0.31939460826E+03  0.00000000000E+00 0. -1.
        -13    1    1    2    0    0  0.92378925547E+02 -0.59167544506E+02 -0.40767242640E+02  0.11703265973E+03  0.10566000000E+00 0.  1.
         13    1    1    2    0    0 -0.50009855209E+02  0.77593035165E+01 -0.16765814982E+03  0.17512983405E+03  0.10566000000E+00 0. -1.
          4    1    1    2  501    0  0.55756740343E+01  0.26904206055E+02 -0.59517852458E+02  0.65553788644E+02  0.00000000000E+00 0.  1.
         -4    1    1    2    0  502 -0.47944744372E+02  0.24504034934E+02  0.10383937773E+03  0.11696906689E+03  0.00000000000E+00 0. -1.
</event>
<event>
 6    1  0.5496865E-006  0.1617055E+03  0.7818608E-02  0.1090108E+00
         21   -1    0    0  501  502  0.00000000000E+00  0.00000000000E+00  0.15849281715E+04  0.15849281715E+04  0.00000000000E+00 0.  1.
         21   -1    0    0  502  503 -0.00000000000E+00 -0.00000000000E+00 -0.43402730654E+02  0.43402730654E+02  0.00000000000E+00 0. -1.
        -13    1    1    2    0    0 -0.22953168309E+03 -0.30732554173E+02  0.76686121281E+03  0.80106517482E+03  0.10566000000E+00 0.  1.
         13    1    1    2    0    0  0.99996563803E+02  0.58529992175E+02  0.28714762975E+03  0.30964309324E+03  0.10566000000E+00 0. -1.
          4    1    1    2  501    0  0.23723470839E+02  0.14815019769E+02  0.27507496051E+03  0.27649325811E+03  0.00000000000E+00 0.  1.
         -4    1    1    2    0  503  0.10581164844E+03 -0.42612457771E+02  0.21244163776E+03  0.24112937597E+03  0.00000000000E+00 0. -1.
</event>
<event>
 6    1  0.5496865E-006  0.9366307E+02  0.7818608E-02  0.1188526E+00
         21   -1    0    0  501  502  0.00000000000E+00  0.00000000000E+00  0.11869458628E+03  0.11869458628E+03  0.00000000000E+00 0. -1.
         21   -1    0    0  502  503 -0.00000000000E+00 -0.00000000000E+00 -0.55603359473E+03  0.55603359473E+03  0.00000000000E+00 0.  1.
        -13    1    1    2    0    0  0.78052715591E+02 -0.10260394122E+03 -0.41700968493E+03  0.43648239787E+03  0.10566000000E+00 0.  1.
         13    1    1    2    0    0 -0.64708934598E+02 -0.11689486004E+02 -0.34918830018E+01  0.65849029688E+02  0.10566000000E+00 0. -1.
          4    1    1    2  501    0  0.46989391446E+02  0.50499572924E+02  0.27222532444E+02  0.74157103818E+02  0.00000000000E+00 0.  1.
         -4    1    1    2    0  503 -0.60333172439E+02  0.63793854296E+02 -0.44059972965E+02  0.98239649634E+02  0.00000000000E+00 0. -1.
</event>
<event>
 6    1  0.5496865E-006  0.2054497E+03  0.7818608E-02  0.1056463E+00
         21   -1    0    0  501  502  0.00000000000E+00  0.00000000000E+00  0.41160635319E+03  0.41160635319E+03  0.00000000000E+00 0.  1.
         21   -1    0    0  502  503 -0.00000000000E+00 -0.00000000000E+00 -0.29379639536E+03  0.29379639536E+03  0.00000000000E+00 0.  1.
        -13    1    1    2    0    0 -0.17697154562E+03 -0.10426592801E+03 -0.71318621670E+02  0.21743198629E+03  0.10566000000E+00 0.  1.
         13    1    1    2    0    0  0.17153866957E+03  0.13592405275E+03  0.11386754598E+03  0.24671175988E+03  0.10566000000E+00 0. -1.
          4    1    1    2  501    0 -0.61337844230E+01 -0.28493088911E+02  0.15647407806E+03  0.15916537479E+03  0.00000000000E+00 0.  1.
         -4    1    1    2    0  503  0.11566660474E+02 -0.31650358257E+01 -0.81213044536E+02  0.82093627579E+02  0.00000000000E+00 0. -1.
</event>
<event>
 6    1  0.5496865E-006  0.1125081E+03  0.7818608E-02  0.1145372E+00
         21   -1    0    0  503  502  0.00000000000E+00  0.00000000000E+00  0.16818945560E+03  0.16818945560E+03  0.00000000000E+00 0.  1.
         21   -1    0    0  501  503 -0.00000000000E+00 -0.00000000000E+00 -0.19393764067E+03  0.19393764067E+03  0.00000000000E+00 0. -1.
        -13    1    1    2    0    0  0.66616464163E+02 -0.70334844325E+02  0.11067989655E+03  0.14708770951E+03  0.10566000000E+00 0.  1.
         13    1    1    2    0    0 -0.90276283867E+02  0.62352251817E+02 -0.11498880683E+03  0.15893409828E+03  0.10566000000E+00 0. -1.
          4    1    1    2  501    0 -0.11977147789E+02 -0.21059795003E+01 -0.13605948427E+02  0.18248535597E+02  0.00000000000E+00 0.  1.
         -4    1    1    2    0  502  0.35636967493E+02  0.10088572009E+02 -0.78333263665E+01  0.37856752888E+02  0.00000000000E+00 0. -1.
</event>
<event>
 6    1  0.5496865E-006  0.5500521E+02  0.7818608E-02  0.1283698E+00
         21   -1    0    0  501  502  0.00000000000E+00  0.00000000000E+00  0.17028317612E+02  0.17028317612E+02  0.00000000000E+00 0. -1.
         21   -1    0    0  502  503 -0.00000000000E+00 -0.00000000000E+00 -0.73621783187E+03  0.73621783187E+03  0.00000000000E+00 0. -1.
        -13    1    1    2    0    0  0.65182670103E+02  0.12380361611E+02 -0.35884665267E+03  0.36492873980E+03  0.10566000000E+00 0.  1.
         13    1    1    2    0    0 -0.10687153177E+02 -0.44297757684E+02 -0.10229373059E+03  0.11198448580E+03  0.10566000000E+00 0. -1.
          4    1    1    2  501    0 -0.49685957470E+02  0.22710284466E+02 -0.73947534272E+02  0.91938507792E+02  0.00000000000E+00 0.  1.
         -4    1    1    2    0  503 -0.48095594562E+01  0.92071116068E+01 -0.18410159673E+03  0.18439441609E+03  0.00000000000E+00 0. -1.
</event>
<event>
 6    1  0.5496865E-006  0.8157279E+02  0.7818608E-02  0.1199265E+00
         21   -1    0    0  503  502  0.00000000000E+00  0.00000000000E+00  0.65336367881E+03  0.65336367881E+03  0.00000000000E+00 0.  1.
         21   -1    0    0  501  503 -0.00000000000E+00 -0.00000000000E+00 -0.33893613096E+02  0.33893613096E+02  0.00000000000E+00 0.  1.
        -13    1    1    2    0    0 -0.88136533507E+01  0.99964505975E+02  0.13406124975E+03  0.16746048127E+03  0.10566000000E+00 0.  1.
         13    1    1    2    0    0 -0.15479612695E+02 -0.74275616252E+02  0.33425878642E+03  0.34276148126E+03  0.10566000000E+00 0. -1.
          4    1    1    2  501    0  0.35519321036E+02 -0.25089375845E+02  0.24551668686E+02  0.49938796365E+02  0.00000000000E+00 0.  1.
         -4    1    1    2    0  502 -0.11226054990E+02 -0.59951387829E+00  0.12659836086E+03  0.12709653300E+03  0.00000000000E+00 0. -1.
</event>
<event>
 6    1  0.5496865E-006  0.8733300E+02  0.7818608E-02  0.1193413E+00
         21   -1    0    0  503  502  0.00000000000E+00  0.00000000000E+00  0.66777065774E+02  0.66777065774E+02  0.00000000000E+00 0.  1.
         21   -1    0    0  501  503 -0.00000000000E+00 -0.00000000000E+00 -0.75440137439E+03  0.75440137439E+03  0.00000000000E+00 0.  1.
        -13    1    1    2    0    0 -0.10064305894E+03 -0.86138415720E+02 -0.15144974306E+03  0.20121105291E+03  0.10566000000E+00 0.  1.
         13    1    1    2    0    0  0.15773590042E+02  0.74204987601E+02 -0.40759007318E+03  0.41458999656E+03  0.10566000000E+00 0. -1.
          4    1    1    2  501    0  0.74749429894E+02  0.12600037238E+02 -0.15746863098E+03  0.17476443560E+03  0.00000000000E+00 0.  1.
         -4    1    1    2    0  502  0.10120039007E+02 -0.66660911876E+00  0.28884138599E+02  0.30612955098E+02  0.00000000000E+00 0. -1.
</event>
<event>
 6    1  0.5496865E-006  0.8055981E+02  0.7818608E-02  0.1201462E+00
         21   -1    0    0  503  502  0.00000000000E+00  0.00000000000E+00  0.20309913869E+02  0.20309913869E+02  0.00000000000E+00 0.  1.
         21   -1    0    0  501  503 -0.00000000000E+00 -0.00000000000E+00 -0.57395054926E+03  0.57395054926E+03  0.00000000000E+00 0. -1.
        -13    1    1    2    0    0  0.76920406355E+02 -0.13215104146E+02 -0.23184785941E+03  0.24463202768E+03  0.10566000000E+00 0.  1.
         13    1    1    2    0    0 -0.81479355723E+02  0.46003831852E+01 -0.17227674174E+03  0.19062879069E+03  0.10566000000E+00 0. -1.
          4    1    1    2  501    0  0.10028446021E+02 -0.37738424194E+01 -0.14396608931E+03  0.14436428398E+03  0.00000000000E+00 0.  1.
         -4    1    1    2    0  502 -0.54694966525E+01  0.12388563380E+02 -0.55499449322E+01  0.14635360775E+02  0.00000000000E+00 0. -1.
</event>
<event>
 6    1  0.1593075E-005  0.2624362E+03  0.7818608E-02  0.1024142E+00
         21   -1    0    0  503  502  0.00000000000E+00  0.00000000000E+00  0.36316842159E+03  0.36316842159E+03  0.00000000000E+00 0. -1.
         21   -1    0    0  501  503 -0.00000000000E+00 -0.00000000000E+00 -0.19118579407E+04  0.19118579407E+04  0.00000000000E+00 0.  1.
        -13    1    1    2    0    0  0.19931343276E+03 -0.14841232833E+03  0.14178211688E+03  0.28610180620E+03  0.10566000000E+00 0.  1.
         13    1    1    2    0    0 -0.25012132433E+03  0.98826137640E+02 -0.16075430330E+04  0.16298840132E+04  0.10566000000E+00 0. -1.
          4    1    1    2  501    0  0.16552973384E+01 -0.11368427587E+02 -0.20971151204E+03  0.21002594944E+03  0.00000000000E+00 0.  1.
         -4    1    1    2    0  502  0.49152594223E+02  0.60954618281E+02  0.12678290910E+03  0.14901459341E+03  0.00000000000E+00 0. -1.
</event>
<event>
 6    1  0.5496865E-006  0.1023684E+03  0.7818608E-02  0.1212858E+00
         21   -1    0    0  501  502  0.00000000000E+00  0.00000000000E+00  0.76372851121E+02  0.76372851121E+02  0.00000000000E+00 0. -1.
         21   -1    0    0  502  503 -0.00000000000E+00 -0.00000000000E+00 -0.82784194802E+03  0.82784194802E+03  0.00000000000E+00 0.  1.
        -13    1    1    2    0    0 -0.11021419845E+03  0.24597555415E+02 -0.66210616983E+03  0.67166717991E+03  0.10566000000E+00 0.  1.
         13    1    1    2    0    0  0.25456631213E+02  0.13199179383E+02  0.35016174798E+02  0.45259276073E+02  0.10566000000E+00 0. -1.
          4    1    1    2  501    0  0.77401614738E+02 -0.67274273086E+02 -0.67406191797E+02  0.12272095370E+03  0.00000000000E+00 0.  1.
         -4    1    1    2    0  503  0.73559524963E+01  0.29477538288E+02 -0.56972910072E+02  0.64567389468E+02  0.00000000000E+00 0. -1.
</event>
<event>
 6    1  0.5496865E-006  0.1245274E+03  0.7818608E-02  0.1129353E+00
         21   -1    0    0  503  502  0.00000000000E+00  0.00000000000E+00  0.34954100539E+03  0.34954100539E+03  0.00000000000E+00 0. -1.
         21   -1    0    0  501  503 -0.00000000000E+00 -0.00000000000E+00 -0.29509994704E+03  0.29509994704E+03  0.00000000000E+00 0. -1.
        -13    1    1    2    0    0  0.67341605889E+02  0.11085225016E+03 -0.18419899025E+03  0.22528291640E+03  0.10566000000E+00 0.  1.
         13    1    1    2    0    0 -0.18031546723E+02 -0.13582994726E+03 -0.44170933139E+01  0.13709279021E+03  0.10566000000E+00 0. -1.
          4    1    1    2  501    0 -0.11495545083E+02 -0.50508869956E+01 -0.15095725327E+02  0.19635170978E+02  0.00000000000E+00 0.  1.
         -4    1    1    2    0  502 -0.37814514084E+02  0.30028584103E+02  0.25815286725E+03  0.26263007484E+03  0.00000000000E+00 0. -1.
</event>
<event>
 6    1  0.5496865E-006  0.5685607E+02  0.7818608E-02  0.1266142E+00
         21   -1    0    0  501  502  0.00000000000E+00  0.00000000000E+00  0.38496798969E+02  0.38496798969E+02  0.00000000000E+00 0. -1.
         21   -1    0    0  502  503 -0.00000000000E+00 -0.00000000000E+00 -0.22780574371E+03  0.22780574371E+03  0.00000000000E+00 0.  1.
        -13    1    1    2    0    0 -0.84775895156E+01  0.43476112959E+02 -0.71374469482E+02  0.84002190328E+02  0.10566000000E+00 0.  1.
         13    1    1    2    0    0  0.27181846349E+02 -0.58088531852E+02 -0.21009615127E+02  0.67487372119E+02  0.10566000000E+00 0. -1.
          4    1    1    2  501    0 -0.21050618179E+02 -0.12061054350E+02 -0.14767003928E+02  0.28401795062E+02  0.00000000000E+00 0.  1.
         -4    1    1    2    0  503  0.23463613448E+01  0.26673473242E+02 -0.82157856201E+02  0.86411185166E+02  0.00000000000E+00 0. -1.
</event>
<event>
 6    1  0.5496865E-006  0.4261836E+02  0.7818608E-02  0.1325155E+00
         21   -1    0    0  503  502  0.00000000000E+00  0.00000000000E+00  0.14613744944E+03  0.14613744944E+03  0.00000000000E+00 0.  1.
         21   -1    0    0  501  503 -0.00000000000E+00 -0.00000000000E+00 -0.13006030899E+03  0.13006030899E+03  0.00000000000E+00 0.  1.
        -13    1    1    2    0    0  0.27766816570E+02 -0.27482211121E+02  0.85974245843E+02  0.94434369500E+02  0.10566000000E+00 0.  1.
         13    1    1    2    0    0 -0.45836010789E+02  0.11147789370E+02  0.39426406702E+02  0.61478986673E+02  0.10566000000E+00 0. -1.
          4    1    1    2  501    0  0.80795388947E+01  0.11462904966E+02 -0.10820954591E+03  0.10911454058E+03  0.00000000000E+00 0.  1.
         -4    1    1    2    0  502  0.99896553242E+01  0.48715167848E+01 -0.11139661807E+01  0.11169861679E+02  0.00000000000E+00 0. -1.
</event>
<event>
 6    1  0.5496865E-006  0.5466436E+02  0.7818608E-02  0.1276520E+00
         21   -1    0    0  503  502  0.00000000000E+00  0.00000000000E+00  0.58273863796E+02  0.58273863796E+02  0.00000000000E+00 0.  1.
         21   -1    0    0  501  503 -0.00000000000E+00 -0.00000000000E+00 -0.52338298968E+03  0.52338298968E+03  0.00000000000E+00 0.  1.
        -13    1    1    2    0    0 -0.20192115602E+02  0.73315292946E+02 -0.21175002614E+02  0.78938239226E+02  0.10566000000E+00 0.  1.
         13    1    1    2    0    0 -0.25233266621E+02 -0.39713311681E+02 -0.38924914941E+02  0.61065743558E+02  0.10566000000E+00 0. -1.
          4    1    1    2  501    0 -0.60625475035E+01 -0.10625009014E+02 -0.37962149595E+03  0.37981854284E+03  0.00000000000E+00 0.  1.
         -4    1    1    2    0  502  0.51487929727E+02 -0.22976972252E+02 -0.25387712383E+02  0.61834327856E+02  0.00000000000E+00 0. -1.
</event>
<event>
 6    1  0.5496865E-006  0.1407754E+03  0.7818608E-02  0.1110583E+00
         21   -1    0    0  501  502  0.00000000000E+00  0.00000000000E+00  0.32508287656E+02  0.32508287656E+02  0.00000000000E+00 0.  1.
         21   -1    0    0  502  503 -0.00000000000E+00 -0.00000000000E+00 -0.10597202998E+04  0.10597202998E+04  0.00000000000E+00 0. -1.
        -13    1    1    2    0    0 -0.13955620861E+02 -0.13532776744E+03 -0.21881033072E+03  0.25765545984E+03  0.10566000000E+00 0.  1.
         13    1    1    2    0    0  0.20214096044E+02  0.12920830332E+03 -0.74193066857E+03  0.75336878317E+03  0.10566000000E+00 0. -1.
          4    1    1    2  501    0  0.14294508222E+01 -0.13855376698E+02 -0.30361190530E+01  0.14255974607E+02  0.00000000000E+00 0.  1.
         -4    1    1    2    0  503 -0.76879260053E+01  0.19974840814E+02 -0.63434893783E+02  0.66948369817E+02  0.00000000000E+00 0. -1.
</event>
<event>
 6    1  0.5496865E-006  0.1712324E+03  0.7818608E-02  0.1081872E+00
         21   -1    0    0  501  502  0.00000000000E+00  0.00000000000E+00  0.26449424896E+03  0.26449424896E+03  0.00000000000E+00 0. -1.
         21   -1    0    0  502  503 -0.00000000000E+00 -0.00000000000E+00 -0.32856079404E+03  0.32856079404E+03  0.00000000000E+00 0.  1.
        -13    1    1    2    0    0 -0.11537436396E+03 -0.15738173707E+03 -0.10785953842E+03  0.22296624456E+03  0.10566000000E+00 0.  1.
         13    1    1    2    0    0 -0.33707387889E+01  0.13520001399E+03  0.10837196481E+03  0.17330579790E+03  0.10566000000E+00 0. -1.
          4    1    1    2  501    0  0.13045951979E+03  0.15880922294E+02 -0.58766406126E+00  0.13142387662E+03  0.00000000000E+00 0.  1.
         -4    1    1    2    0  503 -0.11714417037E+02  0.63008007865E+01 -0.63991307411E+02  0.65359123932E+02  0.00000000000E+00 0. -1.
</event>
<event>
 6    1  0.5496865E-006  0.1669720E+03  0.7818608E-02  0.1085482E+00
         21   -1    0    0  501  502  0.00000000000E+00  0.00000000000E+00  0.11225386583E+04  0.11225386583E+04  0.00000000000E+00 0. -1.
         21   -1    0    0  502  503 -0.00000000000E+00 -0.00000000000E+00 -0.70022473427E+02  0.70022473427E+02  0.00000000000E+00 0.  1.
        -13    1    1    2    0    0  0.33592423753E+02 -0.17941750726E+03  0.14160653698E+03  0.23102275932E+03  0.10566000000E+00 0.  1.
         13    1    1    2    0    0 -0.39110586490E+02  0.14843764113E+03  0.72916996611E+03  0.74515248233E+03  0.10566000000E+00 0. -1.
          4    1    1    2  501    0 -0.26966635380E+01  0.13321982945E+02  0.19327396515E+03  0.19375131697E+03  0.00000000000E+00 0.  1.
         -4    1    1    2    0  503  0.82148262755E+01  0.17657883182E+02 -0.11534283333E+02  0.22634573140E+02  0.00000000000E+00 0. -1.
</event>
<event>
 6    1  0.5496865E-006  0.7309529E+02  0.7818608E-02  0.1234114E+00
         21   -1    0    0  503  502  0.00000000000E+00  0.00000000000E+00  0.97973201810E+02  0.97973201810E+02  0.00000000000E+00 0.  1.
         21   -1    0    0  501  503 -0.00000000000E+00 -0.00000000000E+00 -0.26541296069E+03  0.26541296069E+03  0.00000000000E+00 0. -1.
        -13    1    1    2    0    0  0.54955645288E+01 -0.69488626868E+02 -0.11245333899E+03  0.13230508345E+03  0.10566000000E+00 0.  1.
         13    1    1    2    0    0 -0.49560315106E+02 -0.14034172850E+02 -0.86664054990E+02  0.10081593342E+03  0.10566000000E+00 0. -1.
          4    1    1    2  501    0  0.50921965002E+02  0.96023618774E+02  0.17376157766E+02  0.11007048987E+03  0.00000000000E+00 0.  1.
         -4    1    1    2    0  502 -0.68572144254E+01 -0.12500819056E+02  0.14301477336E+02  0.20194655747E+02  0.00000000000E+00 0. -1.
</event>
<event>
 6    1  0.5496865E-006  0.1696175E+03  0.7818608E-02  0.1083227E+00
         21   -1    0    0  501  502  0.00000000000E+00  0.00000000000E+00  0.19240946582E+03  0.19240946582E+03  0.00000000000E+00 0. -1.
         21   -1    0    0  502  503 -0.00000000000E+00 -0.00000000000E+00 -0.60890208036E+03  0.60890208036E+03  0.00000000000E+00 0.  1.
        -13    1    1    2    0    0 -0.23122622827E+02  0.15374233517E+03 -0.46597923845E+03  0.49123113006E+03  0.10566000000E+00 0.  1.
         13    1    1    2    0    0  0.42234545857E+02 -0.20098514321E+03  0.88997919231E+02  0.22382900939E+03  0.10566000000E+00 0. -1.
          4    1    1    2  501    0 -0.93106889344E+00  0.38212783910E+02  0.38062791315E+01  0.38413168370E+02  0.00000000000E+00 0.  1.
         -4    1    1    2    0  503 -0.18180854136E+02  0.90300241277E+01 -0.43317574454E+02  0.47838238361E+02  0.00000000000E+00 0. -1.
</event>
<event>
 6    1  0.5496865E-006  0.6594623E+02  0.7818608E-02  0.1237783E+00
         21   -1    0    0  501  502  0.00000000000E+00  0.00000000000E+00  0.45711467541E+03  0.45711467541E+03  0.00000000000E+00 0. -1.
         21   -1    0    0  502  503 -0.00000000000E+00 -0.00000000000E+00 -0.75664266524E+02  0.75664266524E+02  0.00000000000E+00 0. -1.
        -13    1    1    2    0    0  0.70852528259E+01 -0.58873767401E+02  0.56083212275E+02  0.81618987734E+02  0.10566000000E+00 0.  1.
         13    1    1    2    0    0 -0.15372541558E+02  0.59033919102E+02  0.20635619564E+03  0.21518412879E+03  0.10566000000E+00 0. -1.
          4    1    1    2  501    0  0.11247791457E+02  0.16961096825E+02  0.17560203917E+03  0.17677745269E+03  0.00000000000E+00 0.  1.
         -4    1    1    2    0  503 -0.29605027250E+01 -0.17121248526E+02 -0.56591038205E+02  0.59198372719E+02  0.00000000000E+00 0. -1.
</event>
<event>
 6    1  0.5496865E-006  0.8174317E+02  0.7818608E-02  0.1198899E+00
         21   -1    0    0  503  502  0.00000000000E+00  0.00000000000E+00  0.11661941143E+04  0.11661941143E+04  0.00000000000E+00 0.  1.
         21   -1    0    0  501  503 -0.00000000000E+00 -0.00000000000E+00 -0.42462604411E+03  0.42462604411E+03  0.00000000000E+00 0. -1.
        -13    1    1    2    0    0  0.14876977029E+03 -0.16612989976E+02  0.84703755105E+03  0.86016339148E+03  0.10566000000E+00 0.  1.
         13    1    1    2    0    0 -0.55465575902E+02  0.13127438271E+01 -0.10105196961E+03  0.11528080991E+03  0.10566000000E+00 0. -1.
          4    1    1    2  501    0 -0.24577761350E+02  0.20334254570E+02 -0.30516855742E+03  0.30683121859E+03  0.00000000000E+00 0.  1.
         -4    1    1    2    0  502 -0.68726433033E+02 -0.50340084204E+01  0.30075104621E+03  0.30854473846E+03  0.00000000000E+00 0. -1.
</event>
<event>
 6    1  0.5496865E-006  0.2078663E+03  0.7818608E-02  0.1103840E+00
         21   -1    0    0  503  502  0.00000000000E+00  0.00000000000E+00  0.16508020703E+04  0.16508020703E+04  0.00000000000E+00 0.  1.
         21   -1    0    0  501  503 -0.00000000000E+00 -0.00000000000E+00 -0.14212226095E+03  0.14212226095E+03  0.00000000000E+00 0.  1.
        -13    1    1    2    0    0 -0.93389928892E+02 -0.16054559035E+03  0.97178428845E+03  0.98937418596E+03  0.10566000000E+00 0.  1.
         13    1    1    2    0    0 -0.31923504858E+02  0.42469464830E+02  0.22117731527E+02  0.57549724737E+02  0.10566000000E+00 0. -1.
          4    1    1    2  501    0  0.14037187167E+03  0.15671416998E+03 -0.18418628818E+02  0.21119384299E+03  0.00000000000E+00 0.  1.
         -4    1    1    2    0  502 -0.15058437923E+02 -0.38638044454E+02  0.53319641821E+03  0.53480657758E+03  0.00000000000E+00 0. -1.
</event>
<event>
 6    1  0.5496865E-006  0.1322328E+03  0.7818608E-02  0.1120088E+00
         21   -1    0    0  503  502  0.00000000000E+00  0.00000000000E+00  0.56270954925E+03  0.56270954925E+03  0.00000000000E+00 0.  1.
         21   -1    0    0  501  503 -0.00000000000E+00 -0.00000000000E+00 -0.81884976923E+02  0.81884976923E+02  0.00000000000E+00 0.  1.
        -13    1    1    2    0    0 -0.15221619953E+03  0.88035731263E+02  0.34768912650E+03  0.38962520610E+03  0.10566000000E+00 0.  1.
         13    1    1    2    0    0  0.84496573641E+02 -0.88657482045E+02  0.10662693539E+03  0.16238575860E+03  0.10566000000E+00 0. -1.
          4    1    1    2  501    0  0.68264270798E+02 -0.17492374377E+02  0.22970836398E+02  0.74119182090E+02  0.00000000000E+00 0.  1.
         -4    1    1    2    0  502 -0.54464490690E+00  0.18114125159E+02  0.35376740317E+01  0.18464379381E+02  0.00000000000E+00 0. -1.
</event>
<event>
 6    1  0.5496865E-006  0.1398759E+03  0.7818608E-02  0.1111549E+00
         21   -1    0    0  501  502  0.00000000000E+00  0.00000000000E+00  0.92396793170E+03  0.92396793170E+03  0.00000000000E+00 0. -1.
         21   -1    0    0  502  503 -0.00000000000E+00 -0.00000000000E+00 -0.66653651789E+02  0.66653651789E+02  0.00000000000E+00 0.  1.
        -13    1    1    2    0    0  0.40329934152E+02  0.88172577023E+02  0.25445339489E+02  0.10024162505E+03  0.10566000000E+00 0.  1.
         13    1    1    2    0    0 -0.51505188418E+02 -0.11334585061E+03  0.63654611553E+03  0.64860699553E+03  0.10566000000E+00 0. -1.
          4    1    1    2  501    0  0.59081227814E+01 -0.40633378200E+02  0.16333004912E+03  0.16841223911E+03  0.00000000000E+00 0.  1.
         -4    1    1    2    0  503  0.52671314848E+01  0.65806651790E+02  0.31992775774E+02  0.73360723794E+02  0.00000000000E+00 0. -1.
</event>
<event>
 6    1  0.5496865E-006  0.8808510E+02  0.7818608E-02  0.1195399E+00
         21   -1    0    0  501  502  0.00000000000E+00  0.00000000000E+00  0.82090934656E+03  0.82090934656E+03  0.00000000000E+00 0.  1.
         21   -1    0    0  502  503 -0.00000000000E+00 -0.00000000000E+00 -0.29236867926E+03  0.29236867926E+03  0.00000000000E+00 0.  1.
        -13    1    1    2    0    0 -0.46866953406E+02  0.53180120835E+02 -0.15535446481E+03  0.17076199071E+03  0.10566000000E+00 0.  1.
         13    1    1    2    0    0  0.31761188209E+02  0.33713670114E+02  0.18117249326E+03  0.18699964734E+03  0.10566000000E+00 0. -1.
          4    1    1    2  501    0  0.11802299267E+02  0.62704728911E+01  0.61184771163E+03  0.61199365628E+03  0.00000000000E+00 0.  1.
         -4    1    1    2    0  503  0.33034659300E+01 -0.93164263840E+02 -0.10912507278E+03  0.14352273148E+03  0.00000000000E+00 0. -1.
</event>
<event>
 6    1  0.5496865E-006  0.6362678E+02  0.7818608E-02  0.1244512E+00
         21   -1    0    0  501  502  0.00000000000E+00  0.00000000000E+00  0.10464094492E+04  0.10464094492E+04  0.00000000000E+00 0.  1.
         21   -1    0    0  502  503 -0.00000000000E+00 -0.00000000000E+00 -0.29929689484E+02  0.29929689484E+02  0.00000000000E+00 0.  1.
        -13    1    1    2    0    0  0.22986970662E+02  0.82137781854E+02  0.22081749014E+03  0.23671795695E+03  0.10566000000E+00 0.  1.
         13    1    1    2    0    0 -0.37508064374E+02 -0.42323114816E+02  0.97831533656E+02  0.11300053576E+03  0.10566000000E+00 0. -1.
          4    1    1    2  501    0  0.27619627935E+02 -0.50355073105E+02  0.70571699638E+03  0.70805010855E+03  0.00000000000E+00 0.  1.
         -4    1    1    2    0  503 -0.13098534223E+02  0.10540406067E+02 -0.78862604080E+01  0.18570537474E+02  0.00000000000E+00 0. -1.
</event>
<event>
 6    1  0.5496865E-006  0.1641132E+03  0.7818608E-02  0.1087970E+00
         21   -1    0    0  501  502  0.00000000000E+00  0.00000000000E+00  0.16515451634E+03  0.16515451634E+03  0.00000000000E+00 0.  1.
         21   -1    0    0  502  503 -0.00000000000E+00 -0.00000000000E+00 -0.57597979936E+03  0.57597979936E+03  0.00000000000E+00 0. -1.
        -13    1    1    2    0    0  0.17347377057E+03  0.21346291613E+01 -0.60769279606E+02  0.18382225716E+03  0.10566000000E+00 0.  1.
         13    1    1    2    0    0 -0.16303123351E+03 -0.32053717981E+02 -0.43263351072E+03  0.46344189463E+03  0.10566000000E+00 0. -1.
          4    1    1    2  501    0 -0.19116906185E+02  0.86571825653E+01  0.47694686581E+02  0.52107447069E+02  0.00000000000E+00 0.  1.
         -4    1    1    2    0  503  0.86743691189E+01  0.21261906254E+02  0.34882820722E+02  0.41762716850E+02  0.00000000000E+00 0. -1.
</event>
<event>
 6    1  0.5496865E-006  0.8844059E+02  0.7818608E-02  0.1185242E+00
         21   -1    0    0  501  502  0.00000000000E+00  0.00000000000E+00  0.43773544055E+03  0.43773544055E+03  0.00000000000E+00 0. -1.
         21   -1    0    0  502  503 -0.00000000000E+00 -0.00000000000E+00 -0.18144843442E+03  0.18144843442E+03  0.00000000000E+00 0.  1.
        -13    1    1    2    0    0  0.71534680446E+02 -0.83248863398E+02 -0.12370556220E+03  0.16538035266E+03  0.10566000000E+00 0.  1.
         13    1    1    2    0    0 -0.31976867349E+02  0.93899507716E+02  0.37852314078E+03  0.39130476213E+03  0.10566000000E+00 0. -1.
          4    1    1    2  501    0 -0.11762636255E+02 -0.19600078884E+02  0.17863671345E+02  0.29010919631E+02  0.00000000000E+00 0.  1.
         -4    1    1    2    0  503 -0.27795176843E+02  0.89494345659E+01 -0.16394243803E+02  0.33487840549E+02  0.00000000000E+00 0. -1.
</event>
<event>
 6    1  0.5496865E-006  0.1116227E+03  0.7818608E-02  0.1184749E+00
         21   -1    0    0  501  502  0.00000000000E+00  0.00000000000E+00  0.27540881732E+03  0.27540881732E+03  0.00000000000E+00 0. -1.
         21   -1    0    0  502  503 -0.00000000000E+00 -0.00000000000E+00 -0.19646529610E+03  0.19646529610E+03  0.00000000000E+00 0. -1.
        -13    1    1    2    0    0  0.12248895901E+02  0.44009635982E+02 -0.58657489528E+01  0.46057590959E+02  0.10566000000E+00 0.  1.
         13    1    1    2    0    0 -0.40900260114E+02 -0.10765504967E+03  0.22187221887E+03  0.24997946649E+03  0.10566000000E+00 0. -1.
          4    1    1    2  501    0  0.19180726199E+02 -0.14651662050E+02 -0.96588996075E+01  0.25997419102E+02  0.00000000000E+00 0.  1.
         -4    1    1    2    0  503  0.94706380133E+01  0.78297075742E+02 -0.12740404908E+03  0.14983963687E+03  0.00000000000E+00 0. -1.
</event>
<event>
 6    1  0.5496865E-006  0.3525411E+03  0.7818608E-02  0.9877116E-01
         21   -1    0    0  501  502  0.00000000000E+00  0.00000000000E+00  0.25316863198E+04  0.25316863198E+04  0.00000000000E+00 0. -1.
         21   -1    0    0  502  503 -0.00000000000E+00 -0.00000000000E+00 -0.12987975287E+03  0.12987975287E+03  0.00000000000E+00 0.  1.
        -13    1    1    2    0    0  0.17099532405E+03  0.32632228177E+03  0.21944858053E+03  0.42881618799E+03  0.10566000000E+00 0.  1.
         13    1    1    2    0    0 -0.22261138708E+03 -0.28274281780E+03  0.15779347440E+04  0.16184490719E+04  0.10566000000E+00 0. -1.
          4    1    1    2  501    0  0.66403852096E+02 -0.28182210661E+02  0.56392612990E+03  0.56852122965E+03  0.00000000000E+00 0.  1.
         -4    1    1    2    0  503 -0.14787789066E+02 -0.15397253304E+02  0.40497112490E+02  0.45779583166E+02  0.00000000000E+00 0. -1.
</event>
<event>
 6    1  0.5496865E-006  0.1320116E+03  0.7818608E-02  0.1120344E+00
         21   -1    0    0  501  502  0.00000000000E+00  0.00000000000E+00  0.25667762692E+03  0.25667762692E+03  0.00000000000E+00 0. -1.
         21   -1    0    0  502  503 -0.00000000000E+00 -0.00000000000E+00 -0.88852670462E+02  0.88852670462E+02  0.00000000000E+00 0.  1.
        -13    1    1    2    0    0 -0.45474856788E+02  0.12274444690E+03  0.64950463344E+02  0.14612575303E+03  0.10566000000E+00 0.  1.
         13    1    1    2    0    0  0.47534725196E+02 -0.12435037606E+03  0.72119865245E+02  0.15140624906E+03  0.10566000000E+00 0. -1.
          4    1    1    2  501    0  0.12378788301E+02  0.24971768950E+00  0.31118877556E+02  0.33491510851E+02  0.00000000000E+00 0.  1.
         -4    1    1    2    0  503 -0.14438656709E+02  0.13562114728E+01 -0.36424969138E+00  0.14506784446E+02  0.00000000000E+00 0. -1.
</event>
<event>
 6    1  0.5496865E-006  0.3021278E+03  0.7818608E-02  0.1006431E+00
         21   -1    0    0  503  502  0.00000000000E+00  0.00000000000E+00  0.32526275155E+03  0.32526275155E+03  0.00000000000E+00 0.  1.
         21   -1    0    0  501  503 -0.00000000000E+00 -0.00000000000E+00 -0.71809973535E+03  0.71809973535E+03  0.00000000000E+00 0. -1.
        -13    1    1    2    0    0  0.20485604077E+03  0.17512559985E+03  0.10517954690E+03  0.28930558483E+03  0.10566000000E+00 0.  1.
         13    1    1    2    0    0 -0.26749779203E+03 -0.16773195341E+03 -0.54006497211E+03  0.62558713398E+03  0.10566000000E+00 0. -1.
          4    1    1    2  501    0  0.91083590282E+00  0.12518020362E+02 -0.29402247028E+02  0.31969087977E+02  0.00000000000E+00 0.  1.
         -4    1    1    2    0  502  0.61730915361E+02 -0.19911666805E+02  0.71450688438E+02  0.96500680125E+02  0.00000000000E+00 0. -1.
</event>
<event>
 6    1  0.5496865E-006  0.5631375E+02  0.7818608E-02  0.1290297E+00
         21   -1    0    0  503  502  0.00000000000E+00  0.00000000000E+00  0.66075106903E+02  0.66075106903E+02  0.00000000000E+00 0.  1.
         21   -1    0    0  501  503 -0.00000000000E+00 -0.00000000000E+00 -0.40986273643E+03  0.40986273643E+03  0.00000000000E+00 0.  1.
        -13    1    1    2    0    0 -0.67295513630E+02  0.26189023951E+01  0.17338161368E+02  0.69542561127E+02  0.10566000000E+00 0.  1.
         13    1    1    2    0    0 -0.17636555509E+02 -0.20403493661E+02 -0.15004295656E+03  0.15244753399E+03  0.10566000000E+00 0. -1.
          4    1    1    2  501    0  0.35275713030E+02  0.73817808051E+01 -0.19840727396E+03  0.20165394362E+03  0.00000000000E+00 0.  1.
         -4    1    1    2    0  502  0.49656356108E+02  0.10402810461E+02 -0.12675560372E+02  0.52293804587E+02  0.00000000000E+00 0. -1.
</event>
<event>
 6    1  0.5496865E-006  0.4525540E+02  0.7818608E-02  0.1312413E+00
         21   -1    0    0  503  502  0.00000000000E+00  0.00000000000E+00  0.24399479820E+03  0.24399479820E+03  0.00000000000E+00 0.  1.
         21   -1    0    0  501  503 -0.00000000000E+00 -0.00000000000E+00 -0.16679707999E+03  0.16679707999E+03  0.00000000000E+00 0. -1.
        -13    1    1    2    0    0 -0.71082278359E+02  0.61329786257E+01  0.14670039678E+03  0.16312976829E+03  0.10566000000E+00 0.  1.
         13    1    1    2    0    0  0.46463707122E+02 -0.13847726330E+00 -0.13446536828E+03  0.14226679756E+03  0.10566000000E+00 0. -1.
          4    1    1    2  501    0 -0.33493772775E+01  0.10665304492E+02 -0.15203796213E+02  0.18871207363E+02  0.00000000000E+00 0.  1.
         -4    1    1    2    0  502  0.27967948514E+02 -0.16659805855E+02  0.80166485927E+02  0.86524104971E+02  0.00000000000E+00 0. -1.
</event>
<event>
 6    1  0.5496865E-006  0.9817956E+02  0.7818608E-02  0.1167603E+00
         21   -1    0    0  501  502  0.00000000000E+00  0.00000000000E+00  0.25442693724E+03  0.25442693724E+03  0.00000000000E+00 0. -1.
         21   -1    0    0  502  503 -0.00000000000E+00 -0.00000000000E+00 -0.14698829598E+03  0.14698829598E+03  0.00000000000E+00 0.  1.
        -13    1    1    2    0    0 -0.48776648867E+02 -0.85226977879E+02 -0.41843216895E+02  0.10674111297E+03  0.10566000000E+00 0.  1.
         13    1    1    2    0    0  0.66869660296E+02  0.99441140817E+02  0.30829685277E+02  0.12373589864E+03  0.10566000000E+00 0. -1.
          4    1    1    2  501    0 -0.26683864314E+02 -0.26785796906E+02  0.13974043749E+03  0.14476497298E+03  0.00000000000E+00 0.  1.
         -4    1    1    2    0  503  0.85908528853E+01  0.12571633968E+02 -0.21288264607E+02  0.26173248631E+02  0.00000000000E+00 0. -1.
</event>
<event>
 6    1  0.5496865E-006  0.5446526E+02  0.7818608E-02  0.1309864E+00
         21   -1    0    0  503  502  0.00000000000E+00  0.00000000000E+00  0.85652829688E+03  0.85652829688E+03  0.00000000000E+00 0.  1.
         21   -1    0    0  501  503 -0.00000000000E+00 -0.00000000000E+00 -0.38457015893E+02  0.38457015893E+02  0.00000000000E+00 0. -1.
        -13    1    1    2    0    0 -0.30335499042E+02  0.14854329804E+02  0.72027923340E+02  0.79554550597E+02  0.10566000000E+00 0.  1.
         13    1    1    2    0    0  0.58996412797E+02  0.49957626457E+02  0.10219911866E+03  0.12814449728E+03  0.10566000000E+00 0. -1.
          4    1    1    2  501    0 -0.21052891079E+02 -0.76731215485E+02  0.51513652047E+02  0.94786918928E+02  0.00000000000E+00 0.  1.
         -4    1    1    2    0  502 -0.76080226759E+01  0.11919259224E+02  0.59233058694E+03  0.59249934597E+03  0.00000000000E+00 0. -1.
</event>
<event>
 6    1  0.5496865E-006  0.9024329E+02  0.7818608E-02  0.1181793E+00
         21   -1    0    0  501  502  0.00000000000E+00  0.00000000000E+00  0.38904431118E+03  0.38904431118E+03  0.00000000000E+00 0. -1.
         21   -1    0    0  502  503 -0.00000000000E+00 -0.00000000000E+00 -0.89655720979E+02  0.89655720979E+02  0.00000000000E+00 0.  1.
        -13    1    1    2    0    0 -0.10254318080E+03 -0.35609357211E+02 -0.31438772776E+02  0.11301122885E+03  0.10566000000E+00 0.  1.
         13    1    1    2    0    0  0.76374340445E+02  0.26344651421E+02  0.30105942669E+03  0.31171119662E+03  0.10566000000E+00 0. -1.
          4    1    1    2  501    0  0.13578630677E+01  0.18341773975E+02  0.14841316153E+02  0.23633220894E+02  0.00000000000E+00 0.  1.
         -4    1    1    2    0  503  0.24810977283E+02 -0.90770681853E+01  0.14926620139E+02  0.30344385796E+02  0.00000000000E+00 0. -1.
</event>
<event>
 6    1  0.5496865E-006  0.8468600E+02  0.7818608E-02  0.1192727E+00
         21   -1    0    0  503  502  0.00000000000E+00  0.00000000000E+00  0.30878145317E+02  0.30878145317E+02  0.00000000000E+00 0.  1.
         21   -1    0    0  501  503 -0.00000000000E+00 -0.00000000000E+00 -0.17589902555E+04  0.17589902555E+04  0.00000000000E+00 0.  1.
        -13    1    1    2    0    0 -0.59805047336E+02 -0.30997367914E+02 -0.14913353665E+03  0.16364077555E+03  0.10566000000E+00 0.  1.
         13    1    1    2    0    0  0.10065348782E+03  0.34623802755E+02 -0.17769296663E+03  0.20713457915E+03  0.10566000000E+00 0. -1.
          4    1    1    2  501    0 -0.12996985122E+02 -0.30225027424E+02 -0.13673996776E+04  0.13677954351E+04  0.00000000000E+00 0.  1.
         -4    1    1    2    0  502 -0.27851455358E+02  0.26598592582E+02 -0.33885929273E+02  0.51297611013E+02  0.00000000000E+00 0. -1.
</event>
<event>
 6    1  0.5496865E-006  0.7484990E+02  0.7818608E-02  0.1226543E+00
         21   -1    0    0  501  502  0.00000000000E+00  0.00000000000E+00  0.45408528415E+03  0.45408528415E+03  0.00000000000E+00 0. -1.
         21   -1    0    0  502  503 -0.00000000000E+00 -0.00000000000E+00 -0.54555045815E+03  0.54555045815E+03  0.00000000000E+00 0.  1.
        -13    1    1    2    0    0 -0.71704393333E+02  0.28527914581E+01 -0.24788725493E+03  0.25806541955E+03  0.10566000000E+00 0.  1.
         13    1    1    2    0    0  0.16454018655E+01 -0.11350262822E+03  0.32212611201E+03  0.34154179416E+03  0.10566000000E+00 0. -1.
          4    1    1    2  501    0  0.10710323655E+02  0.82711306354E+02  0.97770925121E+02  0.12851079733E+03  0.00000000000E+00 0.  1.
         -4    1    1    2    0  503  0.59348667812E+02  0.27938530404E+02 -0.26347495619E+03  0.27151773127E+03  0.00000000000E+00 0. -1.
</event>
<event>
 6    1  0.5496865E-006  0.3869998E+02  0.7818608E-02  0.1346145E+00
         21   -1    0    0  501  502  0.00000000000E+00  0.00000000000E+00  0.59590054847E+03  0.59590054847E+03  0.00000000000E+00 0.  1.
         21   -1    0    0  502  503 -0.00000000000E+00 -0.00000000000E+00 -0.41338176344E+02  0.41338176344E+02  0.00000000000E+00 0.  1.
        -13    1    1    2    0    0 -0.83899062701E+01 -0.24729481393E+02 -0.27921472591E+02  0.38230322688E+02  0.10566000000E+00 0.  1.
         13    1    1    2    0    0  0.37706095007E+02  0.17605130161E+02  0.63925586309E+02  0.76277008054E+02  0.10566000000E+00 0. -1.
          4    1    1    2  501    0 -0.20965163162E+02 -0.20447615684E+02  0.38444442441E+03  0.38555824270E+03  0.00000000000E+00 0.  1.
         -4    1    1    2    0  503 -0.83510255755E+01  0.27571966916E+02  0.13411383400E+03  0.13717315137E+03  0.00000000000E+00 0. -1.
</event>
<event>
 6    1  0.5496865E-006  0.7973347E+02  0.7818608E-02  0.1204871E+00
         21   -1    0    0  501  502  0.00000000000E+00  0.00000000000E+00  0.38470951152E+03  0.38470951152E+03  0.00000000000E+00 0.  1.
         21   -1    0    0  502  503 -0.00000000000E+00 -0.00000000000E+00 -0.24032790205E+03  0.24032790205E+03  0.00000000000E+00 0. -1.
        -13    1    1    2    0    0 -0.79743357951E+02 -0.98625524960E+02 -0.34453214805E+01  0.12687741610E+03  0.10566000000E+00 0.  1.
         13    1    1    2    0    0 -0.76128781903E+01  0.70816934383E+02  0.15773327499E+03  0.17306874736E+03  0.10566000000E+00 0. -1.
          4    1    1    2  501    0  0.95822787564E+01  0.61505723475E+01  0.14763226492E+03  0.14807071031E+03  0.00000000000E+00 0.  1.
         -4    1    1    2    0  503  0.77773957385E+02  0.21658018230E+02 -0.15753860896E+03  0.17702053980E+03  0.00000000000E+00 0. -1.
</event>
<event>
 6    1  0.5496865E-006  0.5822368E+02  0.7818608E-02  0.1261509E+00
         21   -1    0    0  501  502  0.00000000000E+00  0.00000000000E+00  0.56929965742E+02  0.56929965742E+02  0.00000000000E+00 0.  1.
         21   -1    0    0  502  503 -0.00000000000E+00 -0.00000000000E+00 -0.23093732415E+03  0.23093732415E+03  0.00000000000E+00 0. -1.
        -13    1    1    2    0    0 -0.44323129792E+02 -0.55826408768E+02 -0.75213336881E+01  0.71677816478E+02  0.10566000000E+00 0.  1.
         13    1    1    2    0    0  0.21989810850E+01  0.69406982195E+02 -0.84698482366E+02  0.10952629262E+03  0.10566000000E+00 0. -1.
          4    1    1    2  501    0  0.17491858344E+02  0.18605256694E+02 -0.18592710169E+02  0.31588123661E+02  0.00000000000E+00 0.  1.
         -4    1    1    2    0  503  0.24632290363E+02 -0.32185830122E+02 -0.63194832180E+02  0.75075057132E+02  0.00000000000E+00 0. -1.
</event>
<event>
 6    1  0.5496865E-006  0.1471809E+03  0.7818608E-02  0.1103926E+00
         21   -1    0    0  501  502  0.00000000000E+00  0.00000000000E+00  0.57119217821E+03  0.57119217821E+03  0.00000000000E+00 0.  1.
         21   -1    0    0  502  503 -0.00000000000E+00 -0.00000000000E+00 -0.14907622173E+03  0.14907622173E+03  0.00000000000E+00 0.  1.
        -13    1    1    2    0    0  0.12498424841E+03  0.13681841008E+03 -0.39954051198E+02  0.18956971557E+03  0.10566000000E+00 0.  1.
         13    1    1    2    0    0 -0.56484747639E+02 -0.84633782118E+02  0.88849210177E+02  0.13508366705E+03  0.10566000000E+00 0. -1.
          4    1    1    2  501    0 -0.57438987429E+02 -0.41074981386E+02  0.37331822454E+03  0.37993800566E+03  0.00000000000E+00 0.  1.
         -4    1    1    2    0  503 -0.11060513340E+02 -0.11109646581E+02 -0.97427032879E-01  0.15677011658E+02  0.00000000000E+00 0. -1.
</event>
<event>
 6    1  0.5496865E-006  0.2379953E+02  0.7818608E-02  0.1462976E+00
         21   -1    0    0  501  502  0.00000000000E+00  0.00000000000E+00  0.28151640485E+02  0.28151640485E+02  0.00000000000E+00 0.  1.
         21   -1    0    0  502  503 -0.00000000000E+00 -0.00000000000E+00 -0.19700206584E+03  0.19700206584E+03  0.00000000000E+00 0.  1.
        -13    1    1    2    0    0  0.18795850650E+02 -0.13764699603E+02 -0.10807784306E+03  0.11056031060E+03  0.10566000000E+00 0.  1.
         13    1    1    2    0    0 -0.12815222414E+02  0.18128079488E+02 -0.95854641435E+01  0.24181593793E+02  0.10566000000E+00 0. -1.
          4    1    1    2  501    0 -0.13051470912E+02 -0.13289044094E+02  0.14587547104E+02  0.23658742917E+02  0.00000000000E+00 0.  1.
         -4    1    1    2    0  503  0.70708426770E+01  0.89256642084E+01 -0.65774665257E+02  0.66753059012E+02  0.00000000000E+00 0. -1.
</event>
<event>
 6    1  0.5496865E-006  0.1992577E+02  0.7818608E-02  0.1510890E+00
         21   -1    0    0  503  502  0.00000000000E+00  0.00000000000E+00  0.16187575100E+02  0.16187575100E+02  0.00000000000E+00 0.  1.
         21   -1    0    0  501  503 -0.00000000000E+00 -0.00000000000E+00 -0.36535989778E+03  0.36535989778E+03  0.00000000000E+00 0.  1.
        -13    1    1    2    0    0  0.54493368191E+01 -0.86631314265E+01  0.10361356316E+02  0.14564133569E+02  0.10566000000E+00 0.  1.
         13    1    1    2    0    0  0.12038095074E+02  0.23504413396E+02 -0.13732241373E+03  0.13983858430E+03  0.10566000000E+00 0. -1.
          4    1    1    2  501    0 -0.18648280922E+02 -0.30175490751E+01 -0.20692025359E+03  0.20778078672E+03  0.00000000000E+00 0.  1.
         -4    1    1    2    0  502  0.11608490286E+01 -0.11823732894E+02 -0.15291011686E+02  0.19363968302E+02  0.00000000000E+00 0. -1.
</event>
<event>
 6    1  0.5496865E-006  0.2463788E+02  0.7818608E-02  0.1472400E+00
         21   -1    0    0  503  502  0.00000000000E+00  0.00000000000E+00  0.91754294027E+02  0.91754294027E+02  0.00000000000E+00 0. -1.
         21   -1    0    0  501  503 -0.00000000000E+00 -0.00000000000E+00 -0.13725854525E+03  0.13725854525E+03  0.00000000000E+00 0.  1.
        -13    1    1    2    0    0 -0.19147274837E+02 -0.18454481483E+02 -0.53674174219E+01  0.27129437044E+02  0.10566000000E+00 0.  1.
         13    1    1    2    0    0  0.19278771088E+02  0.80055916526E+01 -0.54613948212E+02  0.58467555239E+02  0.10566000000E+00 0. -1.
          4    1    1    2  501    0  0.16180786343E+02  0.18040387624E+02 -0.61098002144E+02  0.65728527280E+02  0.00000000000E+00 0.  1.
         -4    1    1    2    0  502 -0.16312282594E+02 -0.75914977936E+01  0.75575116555E+02  0.77687319715E+02  0.00000000000E+00 0. -1.
</event>
<event>
 6    1  0.5496865E-006  0.5545575E+02  0.7818608E-02  0.1271040E+00
         21   -1    0    0  503  502  0.00000000000E+00  0.00000000000E+00  0.28073983611E+02  0.28073983611E+02  0.00000000000E+00 0.  1.
         21   -1    0    0  501  503 -0.00000000000E+00 -0.00000000000E+00 -0.37367276815E+03  0.37367276815E+03  0.00000000000E+00 0. -1.
        -13    1    1    2    0    0 -0.37270731593E+02 -0.31758523705E+02 -0.35045864091E+01  0.49091797190E+02  0.10566000000E+00 0.  1.
         13    1    1    2    0    0  0.28032054030E+02  0.50753718784E+02 -0.28869294912E+03  0.29445774920E+03  0.10566000000E+00 0. -1.
          4    1    1    2  501    0  0.15776677056E+01 -0.12191479325E+02 -0.35537198638E+02  0.37603373393E+02  0.00000000000E+00 0.  1.
         -4    1    1    2    0  502  0.76610098579E+01 -0.68037157542E+01 -0.17864050363E+02  0.20593831977E+02  0.00000000000E+00 0. -1.
</event>
<event>
 6    1  0.5496865E-006  0.2502226E+03  0.7818608E-02  0.1051323E+00
         21   -1    0    0  503  502  0.00000000000E+00  0.00000000000E+00  0.20483226490E+04  0.20483226490E+04  0.00000000000E+00 0.  1.
         21   -1    0    0  501  503 -0.00000000000E+00 -0.00000000000E+00 -0.23484994825E+03  0.23484994825E+03  0.00000000000E+00 0.  1.
        -13    1    1    2    0    0 -0.17141474318E+03 -0.27320016562E+03  0.12474758108E+04  0.12884941810E+04  0.10566000000E+00 0.  1.
         13    1    1    2    0    0  0.11561656416E+03  0.73327625553E+02  0.86224007720E+02  0.16179839693E+03  0.10566000000E+00 0. -1.
          4    1    1    2  501    0  0.10670142531E+03  0.22103772448E+03 -0.89269051005E+02  0.26117395213E+03  0.00000000000E+00 0.  1.
         -4    1    1    2    0  502 -0.50903246282E+02 -0.21165184410E+02  0.56904193329E+03  0.57170606727E+03  0.00000000000E+00 0. -1.
</event>
<event>
 6    1  0.5496865E-006  0.1531791E+03  0.7818608E-02  0.1098018E+00
         21   -1    0    0  503  502  0.00000000000E+00  0.00000000000E+00  0.57273727075E+03  0.57273727075E+03  0.00000000000E+00 0.  1.
         21   -1    0    0  501  503 -0.00000000000E+00 -0.00000000000E+00 -0.62964676812E+02  0.62964676812E+02  0.00000000000E+00 0. -1.
        -13    1    1    2    0    0 -0.11156432293E+03 -0.79366875561E+02  0.11450428315E+03  0.17848512854E+03  0.10566000000E+00 0.  1.
         13    1    1    2    0    0  0.12294137099E+03  0.10819812068E+03  0.35289186884E+03  0.38904253788E+03  0.10566000000E+00 0. -1.
          4    1    1    2  501    0 -0.32165879394E+01 -0.38244145276E+02  0.40106892003E+02  0.55511475138E+02  0.00000000000E+00 0.  1.
         -4    1    1    2    0  502 -0.81604601275E+01  0.94129001602E+01  0.22695499425E+01  0.12662806003E+02  0.00000000000E+00 0. -1.
</event>
<event>
 6    1  0.5496865E-006  0.5320848E+02  0.7818608E-02  0.1279250E+00
         21   -1    0    0  501  502  0.00000000000E+00  0.00000000000E+00  0.16157499465E+03  0.16157499465E+03  0.00000000000E+00 0. -1.
         21   -1    0    0  502  503 -0.00000000000E+00 -0.00000000000E+00 -0.53252629639E+02  0.53252629639E+02  0.00000000000E+00 0. -1.
        -13    1    1    2    0    0 -0.43204685556E+02 -0.15725700052E+02  0.49778458733E+02  0.67763180371E+02  0.10566000000E+00 0.  1.
         13    1    1    2    0    0  0.63362501717E+02  0.21448894733E+01  0.70242018763E+02  0.94622193689E+02  0.10566000000E+00 0. -1.
          4    1    1    2  501    0 -0.55089404011E+01  0.11737831294E+02  0.16276918447E+02  0.20810170157E+02  0.00000000000E+00 0.  1.
         -4    1    1    2    0  503 -0.14648875759E+02  0.18429792842E+01 -0.27975030935E+02  0.31632080068E+02  0.00000000000E+00 0. -1.
</event>
<event>
 6    1  0.5496865E-006  0.1200345E+03  0.7818608E-02  0.1135099E+00
         21   -1    0    0  501  502  0.00000000000E+00  0.00000000000E+00  0.58015916588E+03  0.58015916588E+03  0.00000000000E+00 0.  1.
         21   -1    0    0  502  503 -0.00000000000E+00 -0.00000000000E+00 -0.11016897282E+03  0.11016897282E+03  0.00000000000E+00 0.  1.
        -13    1    1    2    0    0  0.10155136926E+03 -0.78908017674E+02 -0.34961072903E+02  0.13327206622E+03  0.10566000000E+00 0.  1.
         13    1    1    2    0    0 -0.77394622925E+02  0.79972602663E+02  0.17045198939E+03  0.20356678680E+03  0.10566000000E+00 0. -1.
          4    1    1    2  501    0 -0.16546796933E+01  0.12610103407E+02  0.32537262914E+03  0.32562109954E+03  0.00000000000E+00 0.  1.
         -4    1    1    2    0  503 -0.22502066640E+02 -0.13674688396E+02  0.91266474295E+01  0.27868186146E+02  0.00000000000E+00 0. -1.
</event>
<event>
 6    1  0.5496865E-006  0.3982878E+03  0.7818608E-02  0.9734004E-01
         21   -1    0    0  501  502  0.00000000000E+00  0.00000000000E+00  0.34685021140E+03  0.34685021140E+03  0.00000000000E+00 0.  1.
         21   -1    0    0  502  503 -0.00000000000E+00 -0.00000000000E+00 -0.56640430387E+03  0.56640430387E+03  0.00000000000E+00 0. -1.
        -13    1    1    2    0    0 -0.21414013459E+03  0.33731462383E+03 -0.14733423053E+03  0.42584567550E+03  0.10566000000E+00 0.  1.
         13    1    1    2    0    0  0.16852706027E+03 -0.35506109729E+03 -0.41260317005E+02  0.39518625707E+03  0.10566000000E+00 0. -1.
          4    1    1    2  501    0  0.49562690609E+02 -0.14925821453E+02 -0.86899058358E+01  0.52485759115E+02  0.00000000000E+00 0.  1.
         -4    1    1    2    0  503 -0.39496162880E+01  0.32672294912E+02 -0.22269639102E+02  0.39736823594E+02  0.00000000000E+00 0. -1.
</event>
<event>
 6    1  0.5496865E-006  0.1168382E+03  0.7818608E-02  0.1139358E+00
         21   -1    0    0  503  502  0.00000000000E+00  0.00000000000E+00  0.35931991201E+03  0.35931991201E+03  0.00000000000E+00 0.  1.
         21   -1    0    0  501  503 -0.00000000000E+00 -0.00000000000E+00 -0.18378231178E+03  0.18378231178E+03  0.00000000000E+00 0. -1.
        -13    1    1    2    0    0 -0.10902647593E+03 -0.16149106623E+02  0.26744977142E+03  0.28926969681E+03  0.10566000000E+00 0.  1.
         13    1    1    2    0    0  0.76421649152E+02 -0.36267612183E+02 -0.13497770631E+03  0.15929406931E+03  0.10566000000E+00 0. -1.
          4    1    1    2  501    0  0.47671032994E+02  0.38485653009E+02  0.21912580211E+02  0.65067918714E+02  0.00000000000E+00 0.  1.
         -4    1    1    2    0  502 -0.15066206217E+02  0.13931065797E+02  0.21152954914E+02  0.29470538943E+02  0.00000000000E+00 0. -1.
</event>
<event>
 6    1  0.5496865E-006  0.2378063E+03  0.7818608E-02  0.1036913E+00
         21   -1    0    0  501  502  0.00000000000E+00  0.00000000000E+00  0.86067738167E+03  0.86067738167E+03  0.00000000000E+00 0.  1.
         21   -1    0    0  502  503 -0.00000000000E+00 -0.00000000000E+00 -0.38195097931E+03  0.38195097931E+03  0.00000000000E+00 0.  1.
        -13    1    1    2    0    0 -0.36639780065E+02  0.25093276198E+03  0.27749348350E+03  0.37591537487E+03  0.10566000000E+00 0.  1.
         13    1    1    2    0    0 -0.56770274919E+02 -0.22229890445E+03 -0.13090898542E+03  0.26415306294E+03  0.10566000000E+00 0. -1.
          4    1    1    2  501    0  0.54383724390E+02 -0.12863069492E+02  0.46235109081E+03  0.46571620029E+03  0.00000000000E+00 0.  1.
         -4    1    1    2    0  503  0.39026330594E+02 -0.15770788039E+02 -0.13020918654E+03  0.13684372289E+03  0.00000000000E+00 0. -1.
</event>
<event>
 6    1  0.5496865E-006  0.2907818E+03  0.7818608E-02  0.1011185E+00
         21   -1    0    0  501  502  0.00000000000E+00  0.00000000000E+00  0.94959304523E+03  0.94959304523E+03  0.00000000000E+00 0. -1.
         21   -1    0    0  502  503 -0.00000000000E+00 -0.00000000000E+00 -0.18958874262E+03  0.18958874262E+03  0.00000000000E+00 0.  1.
        -13    1    1    2    0    0  0.10223401919E+03 -0.32115106615E+03  0.10459277997E+03  0.35288732304E+03  0.10566000000E+00 0.  1.
         13    1    1    2    0    0 -0.14002852841E+03  0.22299427666E+03  0.42057723395E+03  0.49620525700E+03  0.10566000000E+00 0. -1.
          4    1    1    2  501    0  0.73264756671E+02  0.57024779287E+02  0.21149055765E+03  0.23097143979E+03  0.00000000000E+00 0.  1.
         -4    1    1    2    0  503 -0.35470247455E+02  0.41132010205E+02  0.23343731030E+02  0.59117768027E+02  0.00000000000E+00 0. -1.
</event>
<event>
 6    1  0.5496865E-006  0.8774479E+02  0.7818608E-02  0.1186598E+00
         21   -1    0    0  501  502  0.00000000000E+00  0.00000000000E+00  0.24532024332E+03  0.24532024332E+03  0.00000000000E+00 0.  1.
         21   -1    0    0  502  503 -0.00000000000E+00 -0.00000000000E+00 -0.91943659344E+02  0.91943659344E+02  0.00000000000E+00 0. -1.
        -13    1    1    2    0    0  0.45607835423E+02 -0.11916118071E+03  0.73738753710E+02  0.14736647041E+03  0.10566000000E+00 0.  1.
         13    1    1    2    0    0 -0.11316612256E+02  0.71732927610E+02 -0.35892273241E+01  0.72708818814E+02  0.10566000000E+00 0. -1.
          4    1    1    2  501    0 -0.14803140229E+02 -0.95576418126E-01 -0.45505247743E+01  0.15487071099E+02  0.00000000000E+00 0.  1.
         -4    1    1    2    0  503 -0.19488082938E+02  0.47523829514E+02  0.87777582363E+02  0.10170154234E+03  0.00000000000E+00 0. -1.
</event>
<event>
 6    1  0.5496865E-006  0.1479187E+03  0.7818608E-02  0.1103182E+00
         21   -1    0    0  503  502  0.00000000000E+00  0.00000000000E+00  0.22584543411E+03  0.22584543411E+03  0.00000000000E+00 0.  1.
         21   -1    0    0  501  503 -0.00000000000E+00 -0.00000000000E+00 -0.23313264138E+03  0.23313264138E+03  0.00000000000E+00 0. -1.
        -13    1    1    2    0    0  0.32881811390E+02 -0.14996146269E+03  0.10098990277E+03  0.18376241574E+03  0.10566000000E+00 0.  1.
         13    1    1    2    0    0 -0.40406449526E+02  0.15181152687E+03 -0.11894996731E+03  0.19704955402E+03  0.10566000000E+00 0. -1.
          4    1    1    2  501    0  0.26461244422E+02 -0.93850207059E+01 -0.24665441205E+02  0.37371915389E+02  0.00000000000E+00 0.  1.
         -4    1    1    2    0  502 -0.18936606286E+02  0.75349565224E+01  0.35338298465E+02  0.40794190344E+02  0.00000000000E+00 0. -1.
</event>
<event>
 6    1  0.5496865E-006  0.5722334E+02  0.7818608E-02  0.1313808E+00
         21   -1    0    0  503  502  0.00000000000E+00  0.00000000000E+00  0.67042597451E+02  0.67042597451E+02  0.00000000000E+00 0.  1.
         21   -1    0    0  501  503 -0.00000000000E+00 -0.00000000000E+00 -0.29200070522E+03  0.29200070522E+03  0.00000000000E+00 0.  1.
        -13    1    1    2    0    0  0.11079693457E+03 -0.54219081862E+02 -0.12397156913E+03  0.17488462101E+03  0.10566000000E+00 0.  1.
         13    1    1    2    0    0 -0.18957035276E+02  0.92485592510E+01 -0.45196160028E+02  0.49875936883E+02  0.10566000000E+00 0. -1.
          4    1    1    2  501    0 -0.93034961669E+01  0.86924750463E+01 -0.40985776512E+02  0.42917922127E+02  0.00000000000E+00 0.  1.
         -4    1    1    2    0  502 -0.82536403124E+02  0.36278047565E+02 -0.14804602097E+02  0.91364822657E+02  0.00000000000E+00 0. -1.
</event>
<event>
 6    1  0.5496865E-006  0.6780605E+02  0.7818608E-02  0.1244078E+00
         21   -1    0    0  501  502  0.00000000000E+00  0.00000000000E+00  0.23327637968E+03  0.23327637968E+03  0.00000000000E+00 0. -1.
         21   -1    0    0  502  503 -0.00000000000E+00 -0.00000000000E+00 -0.14917763187E+03  0.14917763187E+03  0.00000000000E+00 0.  1.
        -13    1    1    2    0    0 -0.69007885431E+02  0.28135777933E+02 -0.79886440266E+02  0.10925001032E+03  0.10566000000E+00 0.  1.
         13    1    1    2    0    0  0.11892809094E+02 -0.66086633587E+02  0.10266172116E+03  0.12267160308E+03  0.10566000000E+00 0. -1.
          4    1    1    2  501    0 -0.29207585164E+02  0.13713338966E+02 -0.12285729772E+02  0.34526480456E+02  0.00000000000E+00 0.  1.
         -4    1    1    2    0  503  0.86322661500E+02  0.24237516688E+02  0.73609196687E+02  0.11600591770E+03  0.00000000000E+00 0. -1.
</event>
<event>
 6    1  0.5496865E-006  0.3600267E+02  0.7818608E-02  0.1362314E+00
         21   -1    0    0  503  502  0.00000000000E+00  0.00000000000E+00  0.16727643794E+03  0.16727643794E+03  0.00000000000E+00 0. -1.
         21   -1    0    0  501  503 -0.00000000000E+00 -0.00000000000E+00 -0.17324976645E+03  0.17324976645E+03  0.00000000000E+00 0. -1.
        -13    1    1    2    0    0  0.47640060298E+02  0.15015974924E+02  0.21577210240E+02  0.54411781940E+02  0.10566000000E+00 0.  1.
         13    1    1    2    0    0 -0.31953041184E+02  0.17392109853E+01 -0.92481616222E+02  0.97861546068E+02  0.10566000000E+00 0. -1.
          4    1    1    2  501    0 -0.22440805376E+00 -0.16386323145E+02 -0.60086980694E+02  0.62281676231E+02  0.00000000000E+00 0.  1.
         -4    1    1    2    0  502 -0.15462611060E+02 -0.36886276427E+00  0.12501805817E+03  0.12597120015E+03  0.00000000000E+00 0. -1.
</event>
<event>
 6    1  0.5496865E-006  0.8244214E+02  0.7818608E-02  0.1226563E+00
         21   -1    0    0  501  502  0.00000000000E+00  0.00000000000E+00  0.50695391473E+02  0.50695391473E+02  0.00000000000E+00 0. -1.
         21   -1    0    0  502  503 -0.00000000000E+00 -0.00000000000E+00 -0.16102834798E+04  0.16102834798E+04  0.00000000000E+00 0.  1.
        -13    1    1    2    0    0  0.10758839897E+03 -0.18335032781E+02 -0.41418118806E+03  0.42831939569E+03  0.10566000000E+00 0.  1.
         13    1    1    2    0    0 -0.10209211875E+02 -0.30514179388E+02  0.32247349918E+02  0.45554866827E+02  0.10566000000E+00 0. -1.
          4    1    1    2  501    0 -0.55135444567E+02  0.40804325784E+02 -0.27495524674E+03  0.28338189420E+03  0.00000000000E+00 0.  1.
         -4    1    1    2    0  503 -0.42243742530E+02  0.80448863851E+01 -0.90269900347E+03  0.90372271458E+03  0.00000000000E+00 0. -1.
</event>
<event>
 6    1  0.5496865E-006  0.1609056E+03  0.7818608E-02  0.1090828E+00
         21   -1    0    0  503  502  0.00000000000E+00  0.00000000000E+00  0.55862778804E+03  0.55862778804E+03  0.00000000000E+00 0. -1.
         21   -1    0    0  501  503 -0.00000000000E+00 -0.00000000000E+00 -0.41023108664E+03  0.41023108664E+03  0.00000000000E+00 0. -1.
        -13    1    1    2    0    0  0.71424080328E+02  0.15490050505E+03  0.79934120141E+02  0.18837473409E+03  0.10566000000E+00 0.  1.
         13    1    1    2    0    0 -0.64093682997E+02 -0.21767195970E+03 -0.14573623465E+03  0.26968155942E+03  0.10566000000E+00 0. -1.
          4    1    1    2  501    0  0.97185537005E+01  0.95951132472E+02 -0.13151240252E+03  0.16308458580E+03  0.00000000000E+00 0.  1.
         -4    1    1    2    0  502 -0.17048951031E+02 -0.33179677826E+02  0.34571121843E+03  0.34771799537E+03  0.00000000000E+00 0. -1.
</event>
<event>
 6    1  0.5496865E-006  0.3165111E+02  0.7818608E-02  0.1392121E+00
         21   -1    0    0  503  502  0.00000000000E+00  0.00000000000E+00  0.27996584199E+02  0.27996584199E+02  0.00000000000E+00 0. -1.
         21   -1    0    0  501  503 -0.00000000000E+00 -0.00000000000E+00 -0.10549269025E+03  0.10549269025E+03  0.00000000000E+00 0.  1.
        -13    1    1    2    0    0  0.27584284595E+02  0.34486723622E+02 -0.41452709359E+02  0.60568681181E+02  0.10566000000E+00 0.  1.
         13    1    1    2    0    0 -0.13269357363E+02 -0.19277153688E+02 -0.21972151990E+02  0.32100952108E+02  0.10566000000E+00 0. -1.
          4    1    1    2  501    0 -0.12112797186E+02  0.78072538461E+01 -0.94710778312E+01  0.17244546488E+02  0.00000000000E+00 0.  1.
         -4    1    1    2    0  502 -0.22021300467E+01 -0.23016823780E+02 -0.46001668729E+01  0.23575094675E+02  0.00000000000E+00 0. -1.
</event>
<event>
 6    1  0.5496865E-006  0.9766862E+02  0.7818608E-02  0.1168471E+00
         21   -1    0    0  503  502  0.00000000000E+00  0.00000000000E+00  0.25374997674E+02  0.25374997674E+02  0.00000000000E+00 0.  1.
         21   -1    0    0  501  503 -0.00000000000E+00 -0.00000000000E+00 -0.75956060932E+03  0.75956060932E+03  0.00000000000E+00 0. -1.
        -13    1    1    2    0    0 -0.10984543056E+03 -0.52464050186E+01 -0.26028227846E+03  0.28256046968E+03  0.10566000000E+00 0.  1.
         13    1    1    2    0    0  0.86294885562E+02  0.39626436574E+02 -0.25802558535E+03  0.27494413180E+03  0.10566000000E+00 0. -1.
          4    1    1    2  501    0 -0.79076944484E+01 -0.21877636444E+02 -0.16296018832E+03  0.16461222793E+03  0.00000000000E+00 0.  1.
         -4    1    1    2    0  502  0.31458239446E+02 -0.12502395111E+02 -0.52917559523E+02  0.62818777594E+02  0.00000000000E+00 0. -1.
</event>
<event>
 6    1  0.5496865E-006  0.8821085E+02  0.7818608E-02  0.1185688E+00
         21   -1    0    0  501  502  0.00000000000E+00  0.00000000000E+00  0.47392120607E+03  0.47392120607E+03  0.00000000000E+00 0. -1.
         21   -1    0    0  502  503 -0.00000000000E+00 -0.00000000000E+00 -0.10513771997E+03  0.10513771997E+03  0.00000000000E+00 0.  1.
        -13    1    1    2    0    0 -0.68718385908E+02  0.94454923955E+01 -0.55247566769E+01  0.69584251011E+02  0.10566000000E+00 0.  1.
         13    1    1    2    0    0  0.73897527011E+02  0.31711978356E+02  0.33668421694E+03  0.34615425343E+03  0.10566000000E+00 0. -1.
          4    1    1    2  501    0  0.22184810635E+02 -0.27299862920E+02  0.93323829923E+02  0.99733572933E+02  0.00000000000E+00 0.  1.
         -4    1    1    2    0  503 -0.27363951738E+02 -0.13857607832E+02 -0.55699804084E+02  0.63586848676E+02  0.00000000000E+00 0. -1.
</event>
<event>
 6    1  0.5496865E-006  0.1473918E+03  0.7818608E-02  0.1103713E+00
         21   -1    0    0  501  502  0.00000000000E+00  0.00000000000E+00  0.86533509834E+03  0.86533509834E+03  0.00000000000E+00 0. -1.
         21   -1    0    0  502  503 -0.00000000000E+00 -0.00000000000E+00 -0.81482787501E+02  0.81482787501E+02  0.00000000000E+00 0. -1.
        -13    1    1    2    0    0  0.14515116815E+03 -0.26626372578E+02  0.19752074322E+03  0.24656090626E+03  0.10566000000E+00 0.  1.
         13    1    1    2    0    0 -0.13949581888E+03  0.28509613996E+02  0.34398957801E+03  0.37229117975E+03  0.10566000000E+00 0. -1.
          4    1    1    2  501    0 -0.18456788337E+02 -0.21932957339E+02  0.28106326738E+03  0.28252126986E+03  0.00000000000E+00 0.  1.
         -4    1    1    2    0  503  0.12801439072E+02  0.20049715921E+02 -0.38721277775E+02  0.45444529961E+02  0.00000000000E+00 0. -1.
</event>
<event>
 6    1  0.5496865E-006  0.5360434E+02  0.7818608E-02  0.1287673E+00
         21   -1    0    0  503  502  0.00000000000E+00  0.00000000000E+00  0.19344652364E+03  0.19344652364E+03  0.00000000000E+00 0.  1.
         21   -1    0    0  501  503 -0.00000000000E+00 -0.00000000000E+00 -0.16196925385E+03  0.16196925385E+03  0.00000000000E+00 0. -1.
        -13    1    1    2    0    0 -0.38217693750E+02 -0.16747507220E+02  0.98233265217E+02  0.10672795638E+03  0.10566000000E+00 0.  1.
         13    1    1    2    0    0  0.22958859546E+02  0.20407171596E+02 -0.10616255994E+03  0.11051724834E+03  0.10566000000E+00 0. -1.
          4    1    1    2  501    0  0.12744835900E+02 -0.62768206223E+02 -0.49308214757E+01  0.64238551937E+02  0.00000000000E+00 0.  1.
         -4    1    1    2    0  502  0.25139983046E+01  0.59108541847E+02  0.44337385996E+02  0.73932020828E+02  0.00000000000E+00 0. -1.
</event>
<event>
 6    1  0.5496865E-006  0.9486240E+02  0.7818608E-02  0.1190588E+00
         21   -1    0    0  503  502  0.00000000000E+00  0.00000000000E+00  0.69709404078E+02  0.69709404078E+02  0.00000000000E+00 0. -1.
         21   -1    0    0  501  503 -0.00000000000E+00 -0.00000000000E+00 -0.77514856705E+03  0.77514856705E+03  0.00000000000E+00 0. -1.
        -13    1    1    2    0    0 -0.44636686845E+02  0.56667138770E+02 -0.15454372774E+03  0.17055020779E+03  0.10566000000E+00 0.  1.
         13    1    1    2    0    0  0.21543410589E+02 -0.12670487589E+03 -0.28030012323E+03  0.30836085089E+03  0.10566000000E+00 0. -1.
          4    1    1    2  501    0  0.62297326535E+02 -0.11221251838E+02 -0.26833147765E+03  0.27569667260E+03  0.00000000000E+00 0.  1.
         -4    1    1    2    0  502 -0.39204050279E+02  0.81258988961E+02 -0.22638343450E+01  0.90250239840E+02  0.00000000000E+00 0. -1.
</event>
<event>
 6    1  0.5496865E-006  0.3818055E+02  0.7818608E-02  0.1349139E+00
         21   -1    0    0  501  502  0.00000000000E+00  0.00000000000E+00  0.17792743641E+03  0.17792743641E+03  0.00000000000E+00 0. -1.
         21   -1    0    0  502  503 -0.00000000000E+00 -0.00000000000E+00 -0.71393994649E+02  0.71393994649E+02  0.00000000000E+00 0.  1.
        -13    1    1    2    0    0  0.41441136298E+02  0.25175737127E+02 -0.55174399310E+02  0.73453461599E+02  0.10566000000E+00 0.  1.
         13    1    1    2    0    0 -0.36673678666E+02 -0.36823009867E+01  0.10321685253E+03  0.10960040081E+03  0.10566000000E+00 0. -1.
          4    1    1    2  501    0 -0.61417495268E+01 -0.11114159643E+02  0.87121254718E+01  0.15399570191E+02  0.00000000000E+00 0.  1.
         -4    1    1    2    0  503  0.13742918941E+01 -0.10379276497E+02  0.49778863072E+02  0.50867998462E+02  0.00000000000E+00 0. -1.
</event>
<event>
 6    1  0.5496865E-006  0.8086271E+02  0.7818608E-02  0.1210766E+00
         21   -1    0    0  501  502  0.00000000000E+00  0.00000000000E+00  0.87824741615E+03  0.87824741615E+03  0.00000000000E+00 0. -1.
         21   -1    0    0  502  503 -0.00000000000E+00 -0.00000000000E+00 -0.16871602907E+03  0.16871602907E+03  0.00000000000E+00 0.  1.
        -13    1    1    2    0    0 -0.12901321245E+02 -0.14699191229E+03 -0.11575390251E+03  0.18754211122E+03  0.10566000000E+00 0.  1.
         13    1    1    2    0    0  0.46318385140E+02  0.44919519831E+02  0.26967497326E+03  0.27728641949E+03  0.10566000000E+00 0. -1.
          4    1    1    2  501    0 -0.11461841815E+02  0.21836370167E+02  0.43454900954E+03  0.43524825396E+03  0.00000000000E+00 0.  1.
         -4    1    1    2    0  503 -0.21955222080E+02  0.80236022291E+02  0.12106130679E+03  0.14688666057E+03  0.00000000000E+00 0. -1.
</event>
<event>
 6    1  0.5496865E-006  0.2740226E+03  0.7818608E-02  0.1018644E+00
         21   -1    0    0  501  502  0.00000000000E+00  0.00000000000E+00  0.15578797192E+03  0.15578797192E+03  0.00000000000E+00 0. -1.
         21   -1    0    0  502  503 -0.00000000000E+00 -0.00000000000E+00 -0.88949652821E+03  0.88949652821E+03  0.00000000000E+00 0. -1.
        -13    1    1    2    0    0 -0.23209938874E+03  0.16979260439E+03 -0.17255626010E+03  0.33537341699E+03  0.10566000000E+00 0.  1.
         13    1    1    2    0    0  0.21337527485E+03 -0.14887098712E+03 -0.22445040011E+03  0.34361253179E+03  0.10566000000E+00 0. -1.
          4    1    1    2  501    0  0.11049697299E+02  0.96641165550E+00  0.12279403475E+02  0.16547311309E+02  0.00000000000E+00 0.  1.
         -4    1    1    2    0  503  0.76744165910E+01 -0.21888028918E+02 -0.34898129955E+03  0.34975124005E+03  0.00000000000E+00 0. -1.
</event>
<event>
 6    1  0.5496865E-006  0.7406016E+02  0.7818608E-02  0.1216461E+00
         21   -1    0    0  501  502  0.00000000000E+00  0.00000000000E+00  0.32999687685E+03  0.32999687685E+03  0.00000000000E+00 0. -1.
         21   -1    0    0  502  503 -0.00000000000E+00 -0.00000000000E+00 -0.74448452308E+02  0.74448452308E+02  0.00000000000E+00 0.  1.
        -13    1    1    2    0    0  0.62393881195E+02 -0.48998423491E+02 -0.34758781760E+02  0.86614236639E+02  0.10566000000E+00 0.  1.
         13    1    1    2    0    0 -0.55773187787E+02  0.24513997638E+02  0.26385583450E+03  0.27079788980E+03  0.10566000000E+00 0. -1.
          4    1    1    2  501    0 -0.11640270337E+02  0.92264887648E+01  0.27158831070E+02  0.30955227241E+02  0.00000000000E+00 0.  1.
         -4    1    1    2    0  503  0.50195769296E+01  0.15257937088E+02 -0.70745927247E+00  0.16077975474E+02  0.00000000000E+00 0. -1.
</event>
<event>
 6    1  0.5496865E-006  0.3115797E+02  0.7818608E-02  0.1420887E+00
         21   -1    0    0  503  502  0.00000000000E+00  0.00000000000E+00  0.58444959705E+02  0.58444959705E+02  0.00000000000E+00 0. -1.
         21   -1    0    0  501  503 -0.00000000000E+00 -0.00000000000E+00 -0.68103631586E+02  0.68103631586E+02  0.00000000000E+00 0.  1.
        -13    1    1    2    0    0 -0.29194871713E+02 -0.15745276902E+02 -0.21557109321E+02  0.39559757398E+02  0.10566000000E+00 0.  1.
         13    1    1    2    0    0  0.10779553554E+01  0.22680651337E+02 -0.10544583913E+00  0.22706743837E+02  0.10566000000E+00 0. -1.
          4    1    1    2  501    0 -0.11773366325E+02  0.23005874261E+01 -0.11877258594E+02  0.16881176761E+02  0.00000000000E+00 0.  1.
         -4    1    1    2    0  502  0.39890282683E+02 -0.92359618610E+01  0.23881141873E+02  0.47400913295E+02  0.00000000000E+00 0. -1.
</event>
<event>
 6    1  0.5496865E-006  0.7074348E+02  0.7818608E-02  0.1224790E+00
         21   -1    0    0  501  502  0.00000000000E+00  0.00000000000E+00  0.12433208449E+03  0.12433208449E+03  0.00000000000E+00 0. -1.
         21   -1    0    0  502  503 -0.00000000000E+00 -0.00000000000E+00 -0.35578839783E+03  0.35578839783E+03  0.00000000000E+00 0. -1.
        -13    1    1    2    0    0 -0.48716314065E+02  0.41425956209E+02 -0.12032709785E+03  0.13626448820E+03  0.10566000000E+00 0.  1.
         13    1    1    2    0    0 -0.92213493298E+00 -0.77751710460E+02  0.12380768961E+02  0.78736734859E+02  0.10566000000E+00 0. -1.
          4    1    1    2  501    0  0.20271648324E+02  0.43789261110E+01  0.66789312918E+02  0.69935163114E+02  0.00000000000E+00 0.  1.
         -4    1    1    2    0  503  0.29366800674E+02  0.31946828140E+02 -0.19029929736E+03  0.19518409614E+03  0.00000000000E+00 0. -1.
</event>
<event>
 6    1  0.5496865E-006  0.3271051E+02  0.7818608E-02  0.1384380E+00
         21   -1    0    0  501  502  0.00000000000E+00  0.00000000000E+00  0.46487091780E+02  0.46487091780E+02  0.00000000000E+00 0. -1.
         21   -1    0    0  502  503 -0.00000000000E+00 -0.00000000000E+00 -0.17701709312E+03  0.17701709312E+03  0.00000000000E+00 0.  1.
        -13    1    1    2    0    0 -0.27049701498E+02 -0.10018130790E+02 -0.10913798667E+03  0.11288560844E+03  0.10566000000E+00 0.  1.
         13    1    1    2    0    0  0.33946605791E+02 -0.26714885574E+02 -0.93175681109E+01  0.44191462925E+02  0.10566000000E+00 0. -1.
          4    1    1    2  501    0 -0.55084808984E+01  0.11498830206E+02  0.21142285201E+02  0.24689323227E+02  0.00000000000E+00 0.  1.
         -4    1    1    2    0  503 -0.13884233948E+01  0.25234186158E+02 -0.33216731765E+02  0.41737790307E+02  0.00000000000E+00 0. -1.
</event>
<event>
 6    1  0.5496865E-006  0.1460512E+03  0.7818608E-02  0.1105072E+00
         21   -1    0    0  501  502  0.00000000000E+00  0.00000000000E+00  0.71830927770E+02  0.71830927770E+02  0.00000000000E+00 0. -1.
         21   -1    0    0  502  503 -0.00000000000E+00 -0.00000000000E+00 -0.13056941796E+04  0.13056941796E+04  0.00000000000E+00 0.  1.
        -13    1    1    2    0    0  0.52839188983E+01 -0.12264253799E+03 -0.63573051479E+03  0.64747386860E+03  0.10566000000E+00 0.  1.
         13    1    1    2    0    0 -0.57746452565E+02  0.18413054261E+03 -0.97627873144E+02  0.21626354821E+03  0.10566000000E+00 0. -1.
          4    1    1    2  501    0  0.47917283983E+02 -0.35464747342E+02 -0.13805242659E+03  0.15037382384E+03  0.00000000000E+00 0.  1.
         -4    1    1    2    0  503  0.45452496842E+01 -0.26023257280E+02 -0.36245243732E+03  0.36341386673E+03  0.00000000000E+00 0. -1.
</event>
<event>
 6    1  0.5496865E-006  0.1458154E+03  0.7818608E-02  0.1105313E+00
         21   -1    0    0  503  502  0.00000000000E+00  0.00000000000E+00  0.70767689881E+02  0.70767689881E+02  0.00000000000E+00 0.  1.
         21   -1    0    0  501  503 -0.00000000000E+00 -0.00000000000E+00 -0.95438522584E+03  0.95438522584E+03  0.00000000000E+00 0. -1.
        -13    1    1    2    0    0  0.11613018262E+03  0.10787146381E+03 -0.24128027180E+03  0.28868434794E+03  0.10566000000E+00 0.  1.
         13    1    1    2    0    0 -0.15265121202E+03 -0.83372837651E+01 -0.56522659438E+03  0.58553652063E+03  0.10566000000E+00 0. -1.
          4    1    1    2  501    0  0.34878699995E+02 -0.72727285539E+02 -0.90243584643E+02  0.12103588866E+03  0.00000000000E+00 0.  1.
         -4    1    1    2    0  502  0.16423294019E+01 -0.26806894510E+02  0.13132914872E+02  0.29896158486E+02  0.00000000000E+00 0. -1.
</event>
<event>
 6    1  0.5496865E-006  0.2212178E+03  0.7818608E-02  0.1046489E+00
         21   -1    0    0  501  502  0.00000000000E+00  0.00000000000E+00  0.36278060481E+03  0.36278060481E+03  0.00000000000E+00 0. -1.
         21   -1    0    0  502  503 -0.00000000000E+00 -0.00000000000E+00 -0.46582522462E+03  0.46582522462E+03  0.00000000000E+00 0. -1.
        -13    1    1    2    0    0  0.23762315448E+03 -0.66788657839E+02 -0.89277036478E+02  0.26248026357E+03  0.10566000000E+00 0.  1.
         13    1    1    2    0    0 -0.13177647940E+03  0.19696758719E+03  0.12271520823E+03  0.26687132559E+03  0.10566000000E+00 0. -1.
          4    1    1    2  501    0  0.21417378807E+02 -0.38729065438E+01  0.41344444399E+02  0.46723298286E+02  0.00000000000E+00 0.  1.
         -4    1    1    2    0  503 -0.12726405388E+03 -0.12630602281E+03 -0.17782723596E+03  0.25253094198E+03  0.00000000000E+00 0. -1.
</event>
<event>
 6    1  0.5496865E-006  0.1423968E+03  0.7818608E-02  0.1108862E+00
         21   -1    0    0  501  502  0.00000000000E+00  0.00000000000E+00  0.68417461521E+03  0.68417461521E+03  0.00000000000E+00 0.  1.
         21   -1    0    0  502  503 -0.00000000000E+00 -0.00000000000E+00 -0.27600104072E+03  0.27600104072E+03  0.00000000000E+00 0. -1.
        -13    1    1    2    0    0 -0.25296325348E+02  0.10504331212E+03 -0.44431754740E+02  0.11682548306E+03  0.10566000000E+00 0.  1.
         13    1    1    2    0    0  0.46159827323E+02 -0.18883108169E+03  0.63816626181E+01  0.19449587104E+03  0.10566000000E+00 0. -1.
          4    1    1    2  501    0 -0.56869760860E+02  0.46502126832E+02  0.53824712286E+03  0.54323713309E+03  0.00000000000E+00 0.  1.
         -4    1    1    2    0  503  0.36006258885E+02  0.37285642733E+02 -0.92023456247E+02  0.10561716874E+03  0.00000000000E+00 0. -1.
</event>
<event>
 6    1  0.5496865E-006  0.1487367E+03  0.7818608E-02  0.1102364E+00
         21   -1    0    0  503  502  0.00000000000E+00  0.00000000000E+00  0.10296575964E+03  0.10296575964E+03  0.00000000000E+00 0.  1.
         21   -1    0    0  501  503 -0.00000000000E+00 -0.00000000000E+00 -0.64180102722E+03  0.64180102722E+03  0.00000000000E+00 0. -1.
        -13    1    1    2    0    0  0.13706485261E+03 -0.23573842612E+02 -0.18085241428E+03  0.22814492498E+03  0.10566000000E+00 0.  1.
         13    1    1    2    0    0 -0.18222045711E+03  0.68797242461E+00 -0.30773103143E+03  0.35763552280E+03  0.10566000000E+00 0. -1.
          4    1    1    2  501    0  0.73470518135E+02  0.17142473142E+02 -0.85094956415E+02  0.11372305407E+03  0.00000000000E+00 0.  1.
         -4    1    1    2    0  502 -0.28314913636E+02  0.57433970460E+01  0.34843134559E+02  0.45263285009E+02  0.00000000000E+00 0. -1.
</event>
<event>
 6    1  0.5496865E-006  0.4371761E+02  0.7818608E-02  0.1336936E+00
         21   -1    0    0  503  502  0.00000000000E+00  0.00000000000E+00  0.49334647137E+03  0.49334647137E+03  0.00000000000E+00 0.  1.
         21   -1    0    0  501  503 -0.00000000000E+00 -0.00000000000E+00 -0.17654642051E+02  0.17654642051E+02  0.00000000000E+00 0.  1.
        -13    1    1    2    0    0  0.85608422444E+01  0.10473108569E+02  0.53166325682E+00  0.13537645766E+02  0.10566000000E+00 0.  1.
         13    1    1    2    0    0 -0.20179054162E+02  0.99604516926E+01  0.20880160028E+02  0.30698486471E+02  0.10566000000E+00 0. -1.
          4    1    1    2  501    0 -0.31040745169E+02  0.66704962412E+01  0.49269892402E+02  0.58613528115E+02  0.00000000000E+00 0.  1.
         -4    1    1    2    0  502  0.42658957087E+02 -0.27104056503E+02  0.40501011363E+03  0.40815145306E+03  0.00000000000E+00 0. -1.
</event>
<event>
 6    1  0.5496865E-006  0.1163842E+03  0.7818608E-02  0.1139975E+00
         21   -1    0    0  503  502  0.00000000000E+00  0.00000000000E+00  0.60290365355E+02  0.60290365355E+02  0.00000000000E+00 0. -1.
         21   -1    0    0  501  503 -0.00000000000E+00 -0.00000000000E+00 -0.69340208655E+03  0.69340208655E+03  0.00000000000E+00 0.  1.
        -13    1    1    2    0    0 -0.11103063428E+03  0.85809137788E+02 -0.12155937949E+03  0.18565479736E+03  0.10566000000E+00 0.  1.
         13    1    1    2    0    0  0.39344949285E+02 -0.84411183434E+02 -0.21874852408E+03  0.23774818795E+03  0.10566000000E+00 0. -1.
          4    1    1    2  501    0  0.46328035923E+02 -0.13343236090E+02 -0.29792027490E+03  0.30179598914E+03  0.00000000000E+00 0.  1.
         -4    1    1    2    0  502  0.25357649070E+02  0.11945281736E+02  0.51164572839E+01  0.28493477451E+02  0.00000000000E+00 0. -1.
</event>
<event>
 6    1  0.5496865E-006  0.2982048E+02  0.7818608E-02  0.1422826E+00
         21   -1    0    0  503  502  0.00000000000E+00  0.00000000000E+00  0.41544940313E+03  0.41544940313E+03  0.00000000000E+00 0. -1.
         21   -1    0    0  501  503 -0.00000000000E+00 -0.00000000000E+00 -0.94243486258E+02  0.94243486258E+02  0.00000000000E+00 0. -1.
        -13    1    1    2    0    0 -0.22905125621E+02 -0.41264985952E+02  0.40686116223E+02  0.62312238466E+02  0.10566000000E+00 0.  1.
         13    1    1    2    0    0  0.96755040068E+01  0.50060623975E+01 -0.62989885443E+02  0.63925056673E+02  0.10566000000E+00 0. -1.
          4    1    1    2  501    0  0.10447220920E+02  0.66308958421E+01 -0.17383412058E+02  0.21337671368E+02  0.00000000000E+00 0.  1.
         -4    1    1    2    0  502  0.27824006934E+01  0.29628027712E+02  0.36089309815E+03  0.36211792288E+03  0.00000000000E+00 0. -1.
</event>
<event>
 6    1  0.5496865E-006  0.1815592E+02  0.7818608E-02  0.1555045E+00
         21   -1    0    0  503  502  0.00000000000E+00  0.00000000000E+00  0.85415172827E+02  0.85415172827E+02  0.00000000000E+00 0.  1.
         21   -1    0    0  501  503 -0.00000000000E+00 -0.00000000000E+00 -0.22756176689E+03  0.22756176689E+03  0.00000000000E+00 0.  1.
        -13    1    1    2    0    0 -0.23402064032E+02  0.23646848974E+01  0.62648664398E+02  0.66918716743E+02  0.10566000000E+00 0.  1.
         13    1    1    2    0    0  0.20902456380E+02 -0.20576595410E+02 -0.82889332668E+02  0.87925886947E+02  0.10566000000E+00 0. -1.
          4    1    1    2  501    0 -0.82627010319E+01  0.16197123495E+02 -0.13771037515E+03  0.13890560270E+03  0.00000000000E+00 0.  1.
         -4    1    1    2    0  502  0.10762308684E+02  0.20147870179E+01  0.15804449356E+02  0.19226733326E+02  0.00000000000E+00 0. -1.
</event>
<event>
 6    1  0.5496865E-006  0.7804068E+02  0.7818608E-02  0.1207083E+00
         21   -1    0    0  501  502  0.00000000000E+00  0.00000000000E+00  0.49659619765E+02  0.49659619765E+02  0.00000000000E+00 0.  1.
         21   -1    0    0  502  503 -0.00000000000E+00 -0.00000000000E+00 -0.13631298826E+04  0.13631298826E+04  0.00000000000E+00 0. -1.
        -13    1    1    2    0    0 -0.66246438317E+02 -0.56268606337E+02 -0.14821706485E+03  0.17182274624E+03  0.10566000000E+00 0.  1.
         13    1    1    2    0    0  0.70825838209E+02 -0.22256112920E+01 -0.31268564807E+02  0.77453127844E+02  0.10566000000E+00 0. -1.
          4    1    1    2  501    0  0.17405930103E+02  0.17963288785E+02  0.33574484254E+01  0.25237246416E+02  0.00000000000E+00 0.  1.
         -4    1    1    2    0  503 -0.21985329995E+02  0.40530928844E+02 -0.11373420816E+04  0.11382763819E+04  0.00000000000E+00 0. -1.
</event>
<event>
 6    1  0.5496865E-006  0.7239906E+02  0.7818608E-02  0.1220570E+00
         21   -1    0    0  503  502  0.00000000000E+00  0.00000000000E+00  0.69271817375E+02  0.69271817375E+02  0.00000000000E+00 0. -1.
         21   -1    0    0  501  503 -0.00000000000E+00 -0.00000000000E+00 -0.31588313491E+03  0.31588313491E+03  0.00000000000E+00 0. -1.
        -13    1    1    2    0    0 -0.42183017479E+02  0.19499826812E+02 -0.34547552382E+02  0.57906776364E+02  0.10566000000E+00 0.  1.
         13    1    1    2    0    0  0.96732980574E+02 -0.35087607864E+02 -0.20002520474E+03  0.22494111108E+03  0.10566000000E+00 0. -1.
          4    1    1    2  501    0 -0.16059732203E+02  0.32869317828E+01 -0.46433885428E+02  0.49242508414E+02  0.00000000000E+00 0.  1.
         -4    1    1    2    0  502 -0.38490230892E+02  0.12300849269E+02  0.34395325012E+02  0.53064556434E+02  0.00000000000E+00 0. -1.
</event>
<event>
 6    1  0.5496865E-006  0.4673717E+03  0.7818608E-02  0.9552505E-01
         21   -1    0    0  503  502  0.00000000000E+00  0.00000000000E+00  0.30490568818E+03  0.30490568818E+03  0.00000000000E+00 0.  1.
         21   -1    0    0  501  503 -0.00000000000E+00 -0.00000000000E+00 -0.19269963710E+04  0.19269963710E+04  0.00000000000E+00 0. -1.
        -13    1    1    2    0    0  0.32535733000E+03 -0.36896606876E+03 -0.63518115873E+03  0.80339807546E+03  0.10566000000E+00 0.  1.
         13    1    1    2    0    0 -0.27435372618E+03  0.33547693142E+03 -0.32421086344E+02  0.43458701843E+03  0.10566000000E+00 0. -1.
          4    1    1    2  501    0 -0.67813448607E+02 -0.31938898978E+02 -0.90988454155E+03  0.91296694137E+03  0.00000000000E+00 0.  1.
         -4    1    1    2    0  502  0.16809844787E+02  0.65428036321E+02 -0.44603896199E+02  0.80950023933E+02  0.00000000000E+00 0. -1.
</event>
<event>
 6    1  0.5496865E-006  0.1780585E+03  0.7818608E-02  0.1076317E+00
         21   -1    0    0  503  502  0.00000000000E+00  0.00000000000E+00  0.59551790053E+03  0.59551790053E+03  0.00000000000E+00 0. -1.
         21   -1    0    0  501  503 -0.00000000000E+00 -0.00000000000E+00 -0.33705843469E+03  0.33705843469E+03  0.00000000000E+00 0. -1.
        -13    1    1    2    0    0  0.89202508867E+02 -0.15061092035E+03  0.20587082469E+03  0.27022868934E+03  0.10566000000E+00 0.  1.
         13    1    1    2    0    0 -0.32272824178E+02  0.13937729080E+03 -0.17538333065E+03  0.22633357728E+03  0.10566000000E+00 0. -1.
          4    1    1    2  501    0 -0.68992962532E+02  0.18785797939E+02 -0.91555681174E+02  0.11616960807E+03  0.00000000000E+00 0.  1.
         -4    1    1    2    0  502  0.12063277843E+02 -0.75521683928E+01  0.31952765297E+03  0.31984446054E+03  0.00000000000E+00 0. -1.
</event>
<event>
 6    1  0.5496865E-006  0.2029322E+03  0.7818608E-02  0.1058144E+00
         21   -1    0    0  503  502  0.00000000000E+00  0.00000000000E+00  0.45196378081E+03  0.45196378081E+03  0.00000000000E+00 0.  1.
         21   -1    0    0  501  503 -0.00000000000E+00 -0.00000000000E+00 -0.31586411555E+03  0.31586411555E+03  0.00000000000E+00 0. -1.
        -13    1    1    2    0    0  0.22138319133E+03  0.12022596677E+03  0.30326213514E+02  0.25374099172E+03  0.10566000000E+00 0.  1.
         13    1    1    2    0    0 -0.20286619155E+03 -0.29698145595E+02 -0.56833065267E+02  0.21275967662E+03  0.10566000000E+00 0. -1.
          4    1    1    2  501    0  0.89241856114E+02 -0.49335341529E+02  0.20805886403E-01  0.10197100195E+03  0.00000000000E+00 0.  1.
         -4    1    1    2    0  502 -0.10775885590E+03 -0.41192479650E+02  0.16258571113E+03  0.19935622605E+03  0.00000000000E+00 0. -1.
</event>
<event>
 6    1  0.5496865E-006  0.2103666E+02  0.7818608E-02  0.1536892E+00
         21   -1    0    0  501  502  0.00000000000E+00  0.00000000000E+00  0.10686068988E+03  0.10686068988E+03  0.00000000000E+00 0.  1.
         21   -1    0    0  502  503 -0.00000000000E+00 -0.00000000000E+00 -0.81031176108E+02  0.81031176108E+02  0.00000000000E+00 0. -1.
        -13    1    1    2    0    0  0.94836973404E+01 -0.33468058646E+01 -0.65546867334E+01  0.12004861805E+02  0.10566000000E+00 0.  1.
         13    1    1    2    0    0 -0.20044211910E+02  0.79488189975E+01  0.17130497122E+02  0.27539412670E+02  0.10566000000E+00 0. -1.
          4    1    1    2  501    0 -0.35222409510E+01  0.11188554386E+02  0.79678568632E+02  0.80537346802E+02  0.00000000000E+00 0.  1.
         -4    1    1    2    0  503  0.14082755521E+02 -0.15790567519E+02 -0.64424865248E+02  0.67810244712E+02  0.00000000000E+00 0. -1.
</event>
<event>
 6    1  0.5496865E-006  0.4645416E+02  0.7818608E-02  0.1315937E+00
         21   -1    0    0  503  502  0.00000000000E+00  0.00000000000E+00  0.56083477629E+02  0.56083477629E+02  0.00000000000E+00 0.  1.
         21   -1    0    0  501  503 -0.00000000000E+00 -0.00000000000E+00 -0.30181483400E+03  0.30181483400E+03  0.00000000000E+00 0.  1.
        -13    1    1    2    0    0 -0.76630343658E+02  0.41826014582E+00 -0.15014041348E+03  0.16856612778E+03  0.10566000000E+00 0.  1.
         13    1    1    2    0    0  0.16357755924E+02 -0.34527358517E+02  0.15763508851E+02  0.41330546093E+02  0.10566000000E+00 0. -1.
          4    1    1    2  501    0  0.35052013582E+02  0.12482970184E+02 -0.10844591533E+03  0.11465157981E+03  0.00000000000E+00 0.  1.
         -4    1    1    2    0  502  0.25220574152E+02  0.21626128187E+02 -0.29085364093E+01  0.33350057945E+02  0.00000000000E+00 0. -1.
</event>
<event>
 6    1  0.5496865E-006  0.1269133E+03  0.7818608E-02  0.1142893E+00
         21   -1    0    0  501  502  0.00000000000E+00  0.00000000000E+00  0.13783800048E+03  0.13783800048E+03  0.00000000000E+00 0.  1.
         21   -1    0    0  502  503 -0.00000000000E+00 -0.00000000000E+00 -0.97842165505E+03  0.97842165505E+03  0.00000000000E+00 0.  1.
        -13    1    1    2    0    0 -0.15494606419E+03  0.61987171644E+02 -0.45375810755E+03  0.48347401542E+03  0.10566000000E+00 0.  1.
         13    1    1    2    0    0  0.33762358917E+02 -0.80800263113E+02  0.79707829813E+01  0.87932496519E+02  0.10566000000E+00 0. -1.
          4    1    1    2  501    0  0.11236407980E+03 -0.48769689835E+02  0.20331681716E+02  0.12416741262E+03  0.00000000000E+00 0.  1.
         -4    1    1    2    0  503  0.88196254722E+01  0.67582781304E+02 -0.41512801171E+03  0.42068573096E+03  0.00000000000E+00 0. -1.
</event>
<event>
 6    1  0.5496865E-006  0.4315863E+03  0.7818608E-02  0.9642022E-01
         21   -1    0    0  501  502  0.00000000000E+00  0.00000000000E+00  0.33212951559E+03  0.33212951559E+03  0.00000000000E+00 0. -1.
         21   -1    0    0  502  503 -0.00000000000E+00 -0.00000000000E+00 -0.11022545313E+04  0.11022545313E+04  0.00000000000E+00 0. -1.
        -13    1    1    2    0    0 -0.22361292674E+02  0.42596644146E+03 -0.45295368878E+03  0.62218525538E+03  0.10566000000E+00 0.  1.
         13    1    1    2    0    0 -0.99501012465E+02 -0.43002294412E+03 -0.34754439114E+03  0.56178937239E+03  0.10566000000E+00 0. -1.
          4    1    1    2  501    0  0.90149052553E+02 -0.69341169741E+02  0.94535798818E+02  0.14789207807E+03  0.00000000000E+00 0.  1.
         -4    1    1    2    0  503  0.31713252586E+02  0.73397672398E+02 -0.64162734590E+02  0.10251734104E+03  0.00000000000E+00 0. -1.
</event>
<event>
 6    1  0.5496865E-006  0.2249198E+03  0.7818608E-02  0.1044276E+00
         21   -1    0    0  501  502  0.00000000000E+00  0.00000000000E+00  0.44748042112E+03  0.44748042112E+03  0.00000000000E+00 0. -1.
         21   -1    0    0  502  503 -0.00000000000E+00 -0.00000000000E+00 -0.31513357681E+03  0.31513357681E+03  0.00000000000E+00 0.  1.
        -13    1    1    2    0    0 -0.14500037236E+03  0.14464176279E+03  0.18857822167E+02  0.20567444214E+03  0.10566000000E+00 0.  1.
         13    1    1    2    0    0  0.19848292681E+03 -0.14407251165E+03 -0.46138923430E+02  0.24956196078E+03  0.10566000000E+00 0. -1.
          4    1    1    2  501    0 -0.54274432729E+02 -0.12295192044E+02  0.22969067964E+03  0.23633597718E+03  0.00000000000E+00 0.  1.
         -4    1    1    2    0  503  0.79187828046E+00  0.11725940903E+02 -0.70062734061E+02  0.71041617840E+02  0.00000000000E+00 0. -1.
</event>
<event>
 6    1  0.5496865E-006  0.1050913E+03  0.7818608E-02  0.1156396E+00
         21   -1    0    0  503  502  0.00000000000E+00  0.00000000000E+00  0.41874486100E+02  0.41874486100E+02  0.00000000000E+00 0. -1.
         21   -1    0    0  501  503 -0.00000000000E+00 -0.00000000000E+00 -0.17496150719E+04  0.17496150719E+04  0.00000000000E+00 0.  1.
        -13    1    1    2    0    0 -0.10048315721E+03  0.82901253252E+01 -0.16850041054E+03  0.19636188677E+03  0.10566000000E+00 0.  1.
         13    1    1    2    0    0  0.99354696753E+02 -0.11704294647E+02 -0.35923301616E+03  0.37290309378E+03  0.10566000000E+00 0. -1.
          4    1    1    2  501    0  0.20293876485E+02  0.12464525645E+02 -0.11956468830E+04  0.11958840557E+04  0.00000000000E+00 0.  1.
         -4    1    1    2    0  502 -0.19165416024E+02 -0.90503563237E+01  0.15639723927E+02  0.26340521739E+02  0.00000000000E+00 0. -1.
</event>
<event>
 6    1  0.5496865E-006  0.2363367E+02  0.7818608E-02  0.1510928E+00
         21   -1    0    0  503  502  0.00000000000E+00  0.00000000000E+00  0.22344139204E+03  0.22344139204E+03  0.00000000000E+00 0.  1.
         21   -1    0    0  501  503 -0.00000000000E+00 -0.00000000000E+00 -0.13686647552E+03  0.13686647552E+03  0.00000000000E+00 0. -1.
        -13    1    1    2    0    0  0.11699999391E+02 -0.13003027232E+02 -0.23956006635E+01  0.17655559168E+02  0.10566000000E+00 0.  1.
         13    1    1    2    0    0  0.16373300568E+02  0.29751630146E+02 -0.12076857132E+03  0.12545239515E+03  0.10566000000E+00 0. -1.
          4    1    1    2  501    0 -0.30670303413E+02 -0.29482829038E+02  0.14244388568E+03  0.14866124340E+03  0.00000000000E+00 0.  1.
         -4    1    1    2    0  502  0.25970034542E+01  0.12734226124E+02  0.67295202814E+02  0.68538669842E+02  0.00000000000E+00 0. -1.
</event>
<event>
 6    1  0.5496865E-006  0.2695439E+02  0.7818608E-02  0.1431171E+00
         21   -1    0    0  501  502  0.00000000000E+00  0.00000000000E+00  0.54090478842E+02  0.54090478842E+02  0.00000000000E+00 0. -1.
         21   -1    0    0  502  503 -0.00000000000E+00 -0.00000000000E+00 -0.64956840266E+02  0.64956840266E+02  0.00000000000E+00 0. -1.
        -13    1    1    2    0    0  0.98649254102E+01 -0.20444090723E+02 -0.88769349948E+01  0.24373935624E+02  0.10566000000E+00 0.  1.
         13    1    1    2    0    0  0.28185957475E+01  0.37868616641E+02  0.31354538998E+02  0.49245252442E+02  0.10566000000E+00 0. -1.
          4    1    1    2  501    0 -0.41446859093E+01 -0.10580396454E+02 -0.11454745547E+01  0.11420828445E+02  0.00000000000E+00 0.  1.
         -4    1    1    2    0  503 -0.85388352484E+01 -0.68441294628E+01 -0.32198490872E+02  0.34007302597E+02  0.00000000000E+00 0. -1.
</event>
<event>
 6    1  0.5496865E-006  0.4835297E+02  0.7818608E-02  0.1298644E+00
         21   -1    0    0  501  502  0.00000000000E+00  0.00000000000E+00  0.44213598756E+02  0.44213598756E+02  0.00000000000E+00 0.  1.
         21   -1    0    0  502  503 -0.00000000000E+00 -0.00000000000E+00 -0.12780132015E+03  0.12780132015E+03  0.00000000000E+00 0.  1.
        -13    1    1    2    0    0  0.59396972896E+02  0.24053210538E+02 -0.69559449683E+02  0.94578462298E+02  0.10566000000E+00 0.  1.
         13    1    1    2    0    0 -0.28934513644E+02 -0.20703312123E+02 -0.10166351659E+02  0.37002690210E+02  0.10566000000E+00 0. -1.
          4    1    1    2  501    0 -0.18553613961E+02 -0.26651613722E+01  0.10721091488E+02  0.21593551788E+02  0.00000000000E+00 0.  1.
         -4    1    1    2    0  503 -0.11908845292E+02 -0.68473704207E+00 -0.14583011541E+02  0.18840214612E+02  0.00000000000E+00 0. -1.
</event>
<event>
 6    1  0.5496865E-006  0.1527733E+03  0.7818608E-02  0.1110634E+00
         21   -1    0    0  501  502  0.00000000000E+00  0.00000000000E+00  0.51551697122E+03  0.51551697122E+03  0.00000000000E+00 0. -1.
         21   -1    0    0  502  503 -0.00000000000E+00 -0.00000000000E+00 -0.56692994561E+03  0.56692994561E+03  0.00000000000E+00 0.  1.
        -13    1    1    2    0    0  0.18478774011E+03 -0.65364393555E+01 -0.20523270185E+03  0.27624211664E+03  0.10566000000E+00 0.  1.
         13    1    1    2    0    0 -0.67150934521E+02  0.10670336335E+03  0.42930897834E+03  0.44743833743E+03  0.10566000000E+00 0. -1.
          4    1    1    2  501    0  0.18965728181E+02  0.19345134776E+02  0.20263375126E+01  0.27166875578E+02  0.00000000000E+00 0.  1.
         -4    1    1    2    0  503 -0.13660253377E+03 -0.11951205877E+03 -0.27751558839E+03  0.33159958719E+03  0.00000000000E+00 0. -1.
</event>
<event>
 6    1  0.5496865E-006  0.2549144E+03  0.7818608E-02  0.1027877E+00
         21   -1    0    0  501  502  0.00000000000E+00  0.00000000000E+00  0.27710157264E+03  0.27710157264E+03  0.00000000000E+00 0.  1.
         21   -1    0    0  502  503 -0.00000000000E+00 -0.00000000000E+00 -0.63330361862E+03  0.63330361862E+03  0.00000000000E+00 0.  1.
        -13    1    1    2    0    0  0.97026220473E+02 -0.19728412803E+03 -0.45710255759E+03  0.50722566374E+03  0.10566000000E+00 0.  1.
         13    1    1    2    0    0 -0.12969037003E+03  0.21753477921E+03  0.12143157948E+03  0.28086760565E+03  0.10566000000E+00 0. -1.
          4    1    1    2  501    0 -0.10622980726E+02  0.48927647129E+01  0.41203697610E+02  0.42831431949E+02  0.00000000000E+00 0.  1.
         -4    1    1    2    0  503  0.43287130287E+02 -0.25143415890E+02 -0.61734765480E+02  0.79480489933E+02  0.00000000000E+00 0. -1.
</event>
<event>
 6    1  0.5496865E-006  0.1552865E+02  0.7818608E-02  0.1583681E+00
         21   -1    0    0  503  502  0.00000000000E+00  0.00000000000E+00  0.47112379230E+02  0.47112379230E+02  0.00000000000E+00 0.  1.
         21   -1    0    0  501  503 -0.00000000000E+00 -0.00000000000E+00 -0.53239811925E+02  0.53239811925E+02  0.00000000000E+00 0.  1.
        -13    1    1    2    0    0 -0.23992905328E+02  0.62051042661E+01  0.15609216826E+02  0.29288592301E+02  0.10566000000E+00 0.  1.
         13    1    1    2    0    0  0.12571590269E+02  0.68378646679E+01 -0.10196723996E+02  0.17572296930E+02  0.10566000000E+00 0. -1.
          4    1    1    2  501    0  0.17113827209E+01 -0.10108709030E+02 -0.30396803210E+02  0.32079284195E+02  0.00000000000E+00 0.  1.
         -4    1    1    2    0  502  0.97099323385E+01 -0.29342599035E+01  0.18856877685E+02  0.21412017729E+02  0.00000000000E+00 0. -1.
</event>
<event>
 6    1  0.5496865E-006  0.2320308E+03  0.7818608E-02  0.1040150E+00
         21   -1    0    0  501  502  0.00000000000E+00  0.00000000000E+00  0.73886562664E+03  0.73886562664E+03  0.00000000000E+00 0. -1.
         21   -1    0    0  502  503 -0.00000000000E+00 -0.00000000000E+00 -0.29769101779E+03  0.29769101779E+03  0.00000000000E+00 0.  1.
        -13    1    1    2    0    0 -0.26269711106E+03  0.34755936641E+02 -0.12303189728E+03  0.29215510641E+03  0.10566000000E+00 0.  1.
         13    1    1    2    0    0  0.14125836017E+03 -0.29817248590E+02  0.45322586559E+03  0.47566447106E+03  0.10566000000E+00 0. -1.
          4    1    1    2  501    0  0.96434196585E+02 -0.25900757416E+02  0.17237700113E+03  0.19920902094E+03  0.00000000000E+00 0.  1.
         -4    1    1    2    0  503  0.25004554311E+02  0.20962069365E+02 -0.61396360585E+02  0.69528046007E+02  0.00000000000E+00 0. -1.
</event>
<event>
 6    1  0.5496865E-006  0.4767289E+02  0.7818608E-02  0.1301565E+00
         21   -1    0    0  503  502  0.00000000000E+00  0.00000000000E+00  0.67417910944E+02  0.67417910944E+02  0.00000000000E+00 0.  1.
         21   -1    0    0  501  503 -0.00000000000E+00 -0.00000000000E+00 -0.85817411073E+03  0.85817411073E+03  0.00000000000E+00 0. -1.
        -13    1    1    2    0    0  0.35646370463E+02 -0.61683356062E+01  0.53923742723E+02  0.64934530757E+02  0.10566000000E+00 0.  1.
         13    1    1    2    0    0 -0.45371387409E+02  0.24721942228E+02 -0.26107596192E+03  0.26613982468E+03  0.10566000000E+00 0. -1.
          4    1    1    2  501    0  0.18996551223E+02  0.16793655280E+02 -0.52393271183E+03  0.52454588202E+03  0.00000000000E+00 0.  1.
         -4    1    1    2    0  502 -0.92715342772E+01 -0.35347261902E+02 -0.59671268758E+02  0.69971784220E+02  0.00000000000E+00 0. -1.
</event>
<event>
 6    1  0.5496865E-006  0.5956241E+02  0.7818608E-02  0.1257111E+00
         21   -1    0    0  503  502  0.00000000000E+00  0.00000000000E+00  0.39588927933E+03  0.39588927933E+03  0.00000000000E+00 0.  1.
         21   -1    0    0  501  503 -0.00000000000E+00 -0.00000000000E+00 -0.19670324323E+02  0.19670324323E+02  0.00000000000E+00 0. -1.
        -13    1    1    2    0    0 -0.63233714531E+02  0.45194838081E+02  0.17569271006E+03  0.19211719229E+03  0.10566000000E+00 0.  1.
         13    1    1    2    0    0  0.18666511429E+02 -0.45813141537E+02  0.11923825758E+03  0.12909320595E+03  0.10566000000E+00 0. -1.
          4    1    1    2  501    0  0.22230646863E+02  0.53777156032E+01  0.26581445514E+02  0.35067003446E+02  0.00000000000E+00 0.  1.
         -4    1    1    2    0  502  0.22336556238E+02 -0.47594121474E+01  0.54706541850E+02  0.59282201964E+02  0.00000000000E+00 0. -1.
</event>
<event>
 6    1  0.5496865E-006  0.1120896E+03  0.7818608E-02  0.1145968E+00
         21   -1    0    0  503  502  0.00000000000E+00  0.00000000000E+00  0.27774735118E+03  0.27774735118E+03  0.00000000000E+00 0. -1.
         21   -1    0    0  501  503 -0.00000000000E+00 -0.00000000000E+00 -0.85040938763E+02  0.85040938763E+02  0.00000000000E+00 0.  1.
        -13    1    1    2    0    0  0.26436101618E+01  0.11365687081E+03  0.12327963296E+03  0.16769839601E+03  0.10566000000E+00 0.  1.
         13    1    1    2    0    0 -0.92284715804E+01 -0.11188265343E+03  0.98507511735E+02  0.14935405538E+03  0.10566000000E+00 0. -1.
          4    1    1    2  501    0 -0.97327824444E+01  0.10897105188E+02 -0.12967999981E+02  0.19535684761E+02  0.00000000000E+00 0.  1.
         -4    1    1    2    0  502  0.16317643863E+02 -0.12671322565E+02 -0.16112732295E+02  0.26200153794E+02  0.00000000000E+00 0. -1.
</event>
<event>
 6    1  0.5496865E-006  0.1324548E+03  0.7818608E-02  0.1119831E+00
         21   -1    0    0  503  502  0.00000000000E+00  0.00000000000E+00  0.55348067150E+03  0.55348067150E+03  0.00000000000E+00 0. -1.
         21   -1    0    0  501  503 -0.00000000000E+00 -0.00000000000E+00 -0.48904683150E+02  0.48904683150E+02  0.00000000000E+00 0.  1.
        -13    1    1    2    0    0  0.91001142720E+02  0.12422705266E+03  0.21221449767E+03  0.26219949041E+03  0.10566000000E+00 0.  1.
         13    1    1    2    0    0 -0.71302133315E+02 -0.88353346882E+02  0.13198151086E+03  0.17409606111E+03  0.10566000000E+00 0. -1.
          4    1    1    2  501    0 -0.12899211799E+02 -0.12107591041E+02  0.52021204393E+02  0.54947148537E+02  0.00000000000E+00 0.  1.
         -4    1    1    2    0  502 -0.67997976056E+01 -0.23766114736E+02  0.10835877543E+03  0.11114265459E+03  0.00000000000E+00 0. -1.
</event>
<event>
 6    1  0.5496865E-006  0.2553493E+02  0.7818608E-02  0.1451856E+00
         21   -1    0    0  501  502  0.00000000000E+00  0.00000000000E+00  0.11064241781E+03  0.11064241781E+03  0.00000000000E+00 0. -1.
         21   -1    0    0  502  503 -0.00000000000E+00 -0.00000000000E+00 -0.16206712199E+03  0.16206712199E+03  0.00000000000E+00 0. -1.
        -13    1    1    2    0    0  0.15800449638E-01  0.20997392944E+02  0.42684362663E+01  0.21427120018E+02  0.10566000000E+00 0.  1.
         13    1    1    2    0    0 -0.23473221466E+02 -0.25787599025E+02  0.74898476558E+02  0.82618311192E+02  0.10566000000E+00 0. -1.
          4    1    1    2  501    0  0.30526847200E+02 -0.38023635034E+01  0.62329645687E+01  0.31387835470E+02  0.00000000000E+00 0.  1.
         -4    1    1    2    0  503 -0.70694261836E+01  0.85925695845E+01 -0.13682458157E+03  0.13727627312E+03  0.00000000000E+00 0. -1.
</event>
<event>
 6    1  0.5496865E-006  0.1394511E+03  0.7818608E-02  0.1141186E+00
         21   -1    0    0  503  502  0.00000000000E+00  0.00000000000E+00  0.79715058152E+03  0.79715058152E+03  0.00000000000E+00 0. -1.
         21   -1    0    0  501  503 -0.00000000000E+00 -0.00000000000E+00 -0.13111485120E+03  0.13111485120E+03  0.00000000000E+00 0.  1.
        -13    1    1    2    0    0 -0.60345860731E+02  0.15320592568E+02  0.25458043725E+03  0.26208310449E+03  0.10566000000E+00 0.  1.
         13    1    1    2    0    0  0.18776629658E+03 -0.93158404993E+02  0.24437434230E+03  0.32195263765E+03  0.10566000000E+00 0. -1.
          4    1    1    2  501    0 -0.56531559797E+02 -0.17175436442E+02 -0.62403171988E+02  0.85935840860E+02  0.00000000000E+00 0.  1.
         -4    1    1    2    0  502 -0.70888876047E+02  0.95013248867E+02  0.22948412276E+03  0.25829384973E+03  0.00000000000E+00 0. -1.
</event>
<event>
 6    1  0.5496865E-006  0.2288525E+03  0.7818608E-02  0.1041974E+00
         21   -1    0    0  501  502  0.00000000000E+00  0.00000000000E+00  0.78739280720E+03  0.78739280720E+03  0.00000000000E+00 0. -1.
         21   -1    0    0  502  503 -0.00000000000E+00 -0.00000000000E+00 -0.18197600961E+03  0.18197600961E+03  0.00000000000E+00 0.  1.
        -13    1    1    2    0    0  0.17896126314E+03  0.65349236738E+02  0.24080474669E+03  0.30705796463E+03  0.10566000000E+00 0.  1.
         13    1    1    2    0    0 -0.24693560919E+03 -0.76186245097E+02  0.88971293062E+02  0.27330832622E+03  0.10566000000E+00 0. -1.
          4    1    1    2  501    0  0.67522331137E+02 -0.24157647218E+02  0.32257833569E+03  0.33045368780E+03  0.00000000000E+00 0.  1.
         -4    1    1    2    0  503  0.45201490894E+00  0.34994655577E+02 -0.46937577857E+02  0.58548838174E+02  0.00000000000E+00 0. -1.
</event>
<event>
 6    1  0.5496865E-006  0.1777409E+03  0.7818608E-02  0.1076569E+00
         21   -1    0    0  501  502  0.00000000000E+00  0.00000000000E+00  0.19093629578E+03  0.19093629578E+03  0.00000000000E+00 0. -1.
         21   -1    0    0  502  503 -0.00000000000E+00 -0.00000000000E+00 -0.47171116092E+03  0.47171116092E+03  0.00000000000E+00 0.  1.
        -13    1    1    2    0    0 -0.14613148975E+03 -0.51531587955E+02 -0.21763740152E+03  0.26716280908E+03  0.10566000000E+00 0.  1.
         13    1    1    2    0    0  0.17607042183E+03  0.59325146916E+02 -0.62210746976E+02  0.19593482259E+03  0.10566000000E+00 0. -1.
          4    1    1    2  501    0  0.44566296529E+00  0.29557281470E+02  0.91052241264E+02  0.95730570575E+02  0.00000000000E+00 0.  1.
         -4    1    1    2    0  503 -0.30384595046E+02 -0.37350840431E+02 -0.91978957907E+02  0.10381925445E+03  0.00000000000E+00 0. -1.
</event>
<event>
 6    1  0.5496865E-006  0.2715692E+03  0.7818608E-02  0.1019784E+00
         21   -1    0    0  501  502  0.00000000000E+00  0.00000000000E+00  0.32793912579E+03  0.32793912579E+03  0.00000000000E+00 0. -1.
         21   -1    0    0  502  503 -0.00000000000E+00 -0.00000000000E+00 -0.26671925384E+03  0.26671925384E+03  0.00000000000E+00 0.  1.
        -13    1    1    2    0    0  0.23906179856E+03 -0.10611596733E+03 -0.19996108000E+02  0.26231850402E+03  0.10566000000E+00 0.  1.
         13    1    1    2    0    0 -0.24769966630E+03  0.13281214579E+03  0.91090642486E+02  0.29545170006E+03  0.10566000000E+00 0. -1.
          4    1    1    2  501    0  0.99298111006E+00 -0.12397477466E+02  0.63379903672E+01  0.13958996414E+02  0.00000000000E+00 0.  1.
         -4    1    1    2    0  503  0.76448866337E+01 -0.14298700998E+02 -0.16212652898E+02  0.22929179136E+02  0.00000000000E+00 0. -1.
</event>
<event>
 6    1  0.5496865E-006  0.1270722E+03  0.7818608E-02  0.1126214E+00
         21   -1    0    0  503  502  0.00000000000E+00  0.00000000000E+00  0.60372300648E+02  0.60372300648E+02  0.00000000000E+00 0.  1.
         21   -1    0    0  501  503 -0.00000000000E+00 -0.00000000000E+00 -0.71538057524E+03  0.71538057524E+03  0.00000000000E+00 0. -1.
        -13    1    1    2    0    0 -0.42454761747E+02  0.10635514260E+03 -0.48308428453E+02  0.12428812725E+03  0.10566000000E+00 0.  1.
         13    1    1    2    0    0  0.67744007222E+02 -0.12265170167E+03 -0.38799285093E+03  0.41251806503E+03  0.10566000000E+00 0. -1.
          4    1    1    2  501    0 -0.70054076841E+01  0.10334034195E+02 -0.21934945102E+03  0.21970445981E+03  0.00000000000E+00 0.  1.
         -4    1    1    2    0  502 -0.18283837791E+02  0.59625248715E+01  0.64245580769E+00  0.19242223797E+02  0.00000000000E+00 0. -1.
</event>
<event>
 6    1  0.5496865E-006  0.8742026E+02  0.7818608E-02  0.1215896E+00
         21   -1    0    0  501  502  0.00000000000E+00  0.00000000000E+00  0.29814877106E+03  0.29814877106E+03  0.00000000000E+00 0. -1.
         21   -1    0    0  502  503 -0.00000000000E+00 -0.00000000000E+00 -0.16266944509E+03  0.16266944509E+03  0.00000000000E+00 0. -1.
        -13    1    1    2    0    0 -0.37174869757E+02  0.28228327037E+02 -0.44123993194E+02  0.64231980572E+02  0.10566000000E+00 0.  1.
         13    1    1    2    0    0  0.10848043536E+03 -0.19452746090E+02  0.14612915214E+03  0.18303047411E+03  0.10566000000E+00 0. -1.
          4    1    1    2  501    0 -0.89178146649E+02 -0.18695649353E+02  0.10508376482E+03  0.13908582520E+03  0.00000000000E+00 0.  1.
         -4    1    1    2    0  503  0.17872581051E+02  0.99200684059E+01 -0.71609597796E+02  0.74469936264E+02  0.00000000000E+00 0. -1.
</event>
<event>
 6    1  0.5496865E-006  0.1058995E+03  0.7818608E-02  0.1155147E+00
         21   -1    0    0  503  502  0.00000000000E+00  0.00000000000E+00  0.26712911843E+03  0.26712911843E+03  0.00000000000E+00 0.  1.
         21   -1    0    0  501  503 -0.00000000000E+00 -0.00000000000E+00 -0.37560492921E+03  0.37560492921E+03  0.00000000000E+00 0.  1.
        -13    1    1    2    0    0  0.95257475915E+02  0.39220201354E+02  0.22581795687E+03  0.24820550300E+03  0.10566000000E+00 0.  1.
         13    1    1    2    0    0 -0.52288025215E+02 -0.61017476717E+02 -0.10954904785E+03  0.13586086668E+03  0.10566000000E+00 0. -1.
          4    1    1    2  501    0 -0.44359969800E+02  0.75550962827E+01 -0.23613106877E+03  0.24038046518E+03  0.00000000000E+00 0.  1.
         -4    1    1    2    0  502  0.13905190999E+01  0.14242179080E+02  0.11386348976E+02  0.18287212782E+02  0.00000000000E+00 0. -1.
</event>
<event>
 6    1  0.5496865E-006  0.1069683E+03  0.7818608E-02  0.1153514E+00
         21   -1    0    0  501  502  0.00000000000E+00  0.00000000000E+00  0.53849502291E+03  0.53849502291E+03  0.00000000000E+00 0. -1.
         21   -1    0    0  502  503 -0.00000000000E+00 -0.00000000000E+00 -0.14096321695E+03  0.14096321695E+03  0.00000000000E+00 0. -1.
        -13    1    1    2    0    0  0.94733874410E+02 -0.71982602898E+01 -0.31836141828E+01  0.95060341232E+02  0.10566000000E+00 0.  1.
         13    1    1    2    0    0 -0.12367938613E+03  0.46192720546E+02  0.53086532918E+02  0.14229739676E+03  0.10566000000E+00 0. -1.
          4    1    1    2  501    0  0.27780218110E+02 -0.28468299912E+02  0.39325493959E+03  0.39526147311E+03  0.00000000000E+00 0.  1.
         -4    1    1    2    0  503  0.11652936060E+01 -0.10526160345E+02 -0.45626052361E+02  0.46839028757E+02  0.00000000000E+00 0. -1.
</event>
<event>
 6    1  0.5496865E-006  0.1288600E+03  0.7818608E-02  0.1124056E+00
         21   -1    0    0  501  502  0.00000000000E+00  0.00000000000E+00  0.12205101715E+03  0.12205101715E+03  0.00000000000E+00 0. -1.
         21   -1    0    0  502  503 -0.00000000000E+00 -0.00000000000E+00 -0.40260328800E+03  0.40260328800E+03  0.00000000000E+00 0.  1.
        -13    1    1    2    0    0  0.30235673347E+02  0.14390419074E+03 -0.28416276606E+03  0.31995484187E+03  0.10566000000E+00 0.  1.
         13    1    1    2    0    0  0.11623375127E+02 -0.11776100461E+03  0.15904631911E+02  0.11939734309E+03  0.10566000000E+00 0. -1.
          4    1    1    2  501    0 -0.35615212145E+02 -0.84727277397E+01  0.24471745057E+02  0.44035176366E+02  0.00000000000E+00 0.  1.
         -4    1    1    2    0  503 -0.62438363300E+01 -0.17670458392E+02 -0.36765881760E+02  0.41266943835E+02  0.00000000000E+00 0. -1.
</event>
<event>
 6    1  0.5496865E-006  0.8400830E+02  0.7818608E-02  0.1194124E+00
         21   -1    0    0  503  502  0.00000000000E+00  0.00000000000E+00  0.11979771470E+03  0.11979771470E+03  0.00000000000E+00 0. -1.
         21   -1    0    0  501  503 -0.00000000000E+00 -0.00000000000E+00 -0.29902580267E+03  0.29902580267E+03  0.00000000000E+00 0. -1.
        -13    1    1    2    0    0  0.45487869296E+02  0.42305232927E+02  0.64178863985E+01  0.62450615817E+02  0.10566000000E+00 0.  1.
         13    1    1    2    0    0 -0.41087764610E+02 -0.90413961580E+02 -0.13398941260E+03  0.16678148189E+03  0.10566000000E+00 0. -1.
          4    1    1    2  501    0 -0.10685455013E+02  0.12969019613E+02 -0.11535487177E+03  0.11657238463E+03  0.00000000000E+00 0.  1.
         -4    1    1    2    0  502  0.62853503265E+01  0.35139709040E+02  0.63698309992E+02  0.73019035025E+02  0.00000000000E+00 0. -1.
</event>
<event>
 6    1  0.5496865E-006  0.2103997E+03  0.7818608E-02  0.1053231E+00
         21   -1    0    0  501  502  0.00000000000E+00  0.00000000000E+00  0.36047131023E+03  0.36047131023E+03  0.00000000000E+00 0. -1.
         21   -1    0    0  502  503 -0.00000000000E+00 -0.00000000000E+00 -0.35013098840E+03  0.35013098840E+03  0.00000000000E+00 0.  1.
        -13    1    1    2    0    0 -0.18057836167E+03 -0.76279698723E+02 -0.83140822089E+02  0.21293084465E+03  0.10566000000E+00 0.  1.
         13    1    1    2    0    0  0.19911919037E+03  0.12516478800E+03  0.89046450862E+02  0.25148351378E+03  0.10566000000E+00 0. -1.
          4    1    1    2  501    0 -0.32070668753E+02 -0.45566924273E+01  0.11861558424E+03  0.12295913169E+03  0.00000000000E+00 0.  1.
         -4    1    1    2    0  503  0.13529840061E+02 -0.44328396848E+02 -0.11418089118E+03  0.12322880852E+03  0.00000000000E+00 0. -1.
</event>
<event>
 6    1  0.5496865E-006  0.1212272E+03  0.7818608E-02  0.1133547E+00
         21   -1    0    0  503  502  0.00000000000E+00  0.00000000000E+00  0.33695810566E+03  0.33695810566E+03  0.00000000000E+00 0.  1.
         21   -1    0    0  501  503 -0.00000000000E+00 -0.00000000000E+00 -0.13791371561E+03  0.13791371561E+03  0.00000000000E+00 0. -1.
        -13    1    1    2    0    0  0.12398969424E+02 -0.12943190359E+03  0.14483399403E+03  0.19463619679E+03  0.10566000000E+00 0.  1.
         13    1    1    2    0    0 -0.11641112467E+03  0.75258623716E+02  0.31989167272E+02  0.14226288475E+03  0.10566000000E+00 0. -1.
          4    1    1    2  501    0  0.27010615523E+02  0.76742752739E+01 -0.23910887136E+02  0.36880867337E+02  0.00000000000E+00 0.  1.
         -4    1    1    2    0  502  0.77001539726E+02  0.46499004602E+02  0.46132115887E+02  0.10109187240E+03  0.00000000000E+00 0. -1.
</event>
<event>
 6    1  0.5496865E-006  0.3299697E+02  0.7818608E-02  0.1382344E+00
         21   -1    0    0  501  502  0.00000000000E+00  0.00000000000E+00  0.26800484190E+03  0.26800484190E+03  0.00000000000E+00 0. -1.
         21   -1    0    0  502  503 -0.00000000000E+00 -0.00000000000E+00 -0.12549739559E+03  0.12549739559E+03  0.00000000000E+00 0. -1.
        -13    1    1    2    0    0  0.21427444251E+02 -0.98628439103E+01  0.92070221219E+02  0.95043925932E+02  0.10566000000E+00 0.  1.
         13    1    1    2    0    0 -0.33214738510E+02  0.32758776538E+02  0.13621597575E+03  0.14398319175E+03  0.10566000000E+00 0. -1.
          4    1    1    2  501    0  0.79645724227E+01 -0.11782824337E+02  0.32572374302E+02  0.35541932008E+02  0.00000000000E+00 0.  1.
         -4    1    1    2    0  503  0.38227218365E+01 -0.11113108291E+02 -0.11835112496E+03  0.11893318779E+03  0.00000000000E+00 0. -1.
</event>
<event>
 6    1  0.5496865E-006  0.3786716E+02  0.7818608E-02  0.1372982E+00
         21   -1    0    0  503  502  0.00000000000E+00  0.00000000000E+00  0.58284716973E+02  0.58284716973E+02  0.00000000000E+00 0.  1.
         21   -1    0    0  501  503 -0.00000000000E+00 -0.00000000000E+00 -0.11605454708E+03  0.11605454708E+03  0.00000000000E+00 0.  1.
        -13    1    1    2    0    0  0.43052169436E+02  0.34122334498E+02 -0.16341739242E+02  0.57313930333E+02  0.10566000000E+00 0.  1.
         13    1    1    2    0    0 -0.23237880806E+02  0.49371920269E+01 -0.10396093667E+02  0.25931928140E+02  0.10566000000E+00 0. -1.
          4    1    1    2  501    0 -0.10510684322E+02 -0.33700959307E+02 -0.54700967487E+02  0.65103187227E+02  0.00000000000E+00 0.  1.
         -4    1    1    2    0  502 -0.93036043077E+01 -0.53585672180E+01  0.23668970286E+02  0.25990218355E+02  0.00000000000E+00 0. -1.
</event>
<event>
 6    1  0.5496865E-006  0.2442517E+02  0.7818608E-02  0.1456231E+00
         21   -1    0    0  501  502  0.00000000000E+00  0.00000000000E+00  0.14862763707E+03  0.14862763707E+03  0.00000000000E+00 0. -1.
         21   -1    0    0  502  503 -0.00000000000E+00 -0.00000000000E+00 -0.58067801616E+02  0.58067801616E+02  0.00000000000E+00 0. -1.
        -13    1    1    2    0    0  0.20126785832E+02  0.26740904918E+02 -0.20359979463E+01  0.33530880624E+02  0.10566000000E+00 0.  1.
         13    1    1    2    0    0  0.61277762896E+01 -0.24635555900E+02  0.96433603428E+02  0.99719162105E+02  0.10566000000E+00 0. -1.
          4    1    1    2  501    0 -0.11801981525E+02  0.16746276905E+01  0.32252890259E+02  0.34385172326E+02  0.00000000000E+00 0.  1.
         -4    1    1    2    0  503 -0.14452580596E+02 -0.37799767083E+01 -0.36090660289E+02  0.39060223628E+02  0.00000000000E+00 0. -1.
</event>
<event>
 6    1  0.1191592E-005  0.1119529E+03  0.7818608E-02  0.1146164E+00
         21   -1    0    0  503  502  0.00000000000E+00  0.00000000000E+00  0.42434117638E+03  0.42434117638E+03  0.00000000000E+00 0.  1.
         21   -1    0    0  501  503 -0.00000000000E+00 -0.00000000000E+00 -0.12339830500E+04  0.12339830500E+04  0.00000000000E+00 0.  1.
        -13    1    1    2    0    0  0.91069958654E+02 -0.93620018422E+02  0.39041340500E+03  0.41168080254E+03  0.10566000000E+00 0.  1.
         13    1    1    2    0    0 -0.86834390925E+02  0.83510635109E+02 -0.58263371912E+03  0.59495907376E+03  0.10566000000E+00 0. -1.
          4    1    1    2  501    0  0.14489256231E+02  0.12866112897E+01 -0.62818531546E+03  0.62835370969E+03  0.00000000000E+00 0.  1.
         -4    1    1    2    0  502 -0.18724823959E+02  0.88227720230E+01  0.10763755974E+02  0.23330640393E+02  0.00000000000E+00 0. -1.
</event>
<event>
 6    1  0.5496865E-006  0.6246639E+02  0.7818608E-02  0.1258379E+00
         21   -1    0    0  503  502  0.00000000000E+00  0.00000000000E+00  0.63464191816E+02  0.63464191816E+02  0.00000000000E+00 0.  1.
         21   -1    0    0  501  503 -0.00000000000E+00 -0.00000000000E+00 -0.33665445778E+03  0.33665445778E+03  0.00000000000E+00 0.  1.
        -13    1    1    2    0    0  0.55976287330E+02  0.45596711204E+01 -0.17401530008E+03  0.18285368788E+03  0.10566000000E+00 0.  1.
         13    1    1    2    0    0  0.72241506411E+01 -0.67854969523E+02 -0.93333618459E+02  0.11561860032E+03  0.10566000000E+00 0. -1.
          4    1    1    2  501    0 -0.56063010745E+02  0.71036720150E+02 -0.81689074849E+01  0.90862576636E+02  0.00000000000E+00 0.  1.
         -4    1    1    2    0  502 -0.71374272261E+01 -0.77414217478E+01  0.23275600557E+01  0.10783784767E+02  0.00000000000E+00 0. -1.
</event>
<event>
 6    1  0.5496865E-006  0.8226121E+02  0.7818608E-02  0.1215962E+00
         21   -1    0    0  501  502  0.00000000000E+00  0.00000000000E+00  0.51747204760E+03  0.51747204760E+03  0.00000000000E+00 0. -1.
         21   -1    0    0  502  503 -0.00000000000E+00 -0.00000000000E+00 -0.14013324859E+03  0.14013324859E+03  0.00000000000E+00 0.  1.
        -13    1    1    2    0    0  0.20308166939E+02  0.61180587189E+02 -0.79966203665E+02  0.10271363486E+03  0.10566000000E+00 0.  1.
         13    1    1    2    0    0  0.76399730141E+02  0.31310506213E+02  0.25432589691E+03  0.26739285624E+03  0.10566000000E+00 0. -1.
          4    1    1    2  501    0 -0.13823735160E+03 -0.66600134542E+02  0.16676361150E+03  0.22661695748E+03  0.00000000000E+00 0.  1.
         -4    1    1    2    0  503  0.41529454518E+02 -0.25890958859E+02  0.36215494275E+02  0.60881847613E+02  0.00000000000E+00 0. -1.
</event>
<event>
 6    1  0.5684525E-006  0.2872641E+02  0.7818608E-02  0.1415436E+00
         21   -1    0    0  501  502  0.00000000000E+00  0.00000000000E+00  0.14732968424E+03  0.14732968424E+03  0.00000000000E+00 0. -1.
         21   -1    0    0  502  503 -0.00000000000E+00 -0.00000000000E+00 -0.54923821372E+02  0.54923821372E+02  0.00000000000E+00 0.  1.
        -13    1    1    2    0    0  0.10294773676E+02 -0.34514645625E+02 -0.25619726133E+02  0.44199826457E+02  0.10566000000E+00 0.  1.
         13    1    1    2    0    0 -0.47019557512E+01  0.38816065724E+02  0.12375343066E+03  0.12978335066E+03  0.10566000000E+00 0. -1.
          4    1    1    2  501    0  0.35546063820E+01 -0.12616814720E+02  0.26019488355E+01  0.13363733683E+02  0.00000000000E+00 0.  1.
         -4    1    1    2    0  503 -0.91474243071E+01  0.83153946211E+01 -0.83297904908E+01  0.14906594808E+02  0.00000000000E+00 0. -1.
</event>
<event>
 6    1  0.5496865E-006  0.1407881E+03  0.7818608E-02  0.1110570E+00
         21   -1    0    0  503  502  0.00000000000E+00  0.00000000000E+00  0.27133059340E+03  0.27133059340E+03  0.00000000000E+00 0. -1.
         21   -1    0    0  501  503 -0.00000000000E+00 -0.00000000000E+00 -0.26315772118E+03  0.26315772118E+03  0.00000000000E+00 0.  1.
        -13    1    1    2    0    0  0.10314609593E+03  0.12047333056E+03  0.89431692271E+02  0.18207410367E+03  0.10566000000E+00 0.  1.
         13    1    1    2    0    0 -0.82544561873E+02 -0.76200769857E+02 -0.29395689756E+02  0.11612183155E+03  0.10566000000E+00 0. -1.
          4    1    1    2  501    0 -0.44647388251E+01 -0.62223000880E+02 -0.13553825291E+03  0.14920540785E+03  0.00000000000E+00 0.  1.
         -4    1    1    2    0  502 -0.16136795232E+02  0.17950440182E+02  0.83675122609E+02  0.87086971510E+02  0.00000000000E+00 0. -1.
</event>
<event>
 6    1  0.5496865E-006  0.4822786E+02  0.7818608E-02  0.1299177E+00
         21   -1    0    0  503  502  0.00000000000E+00  0.00000000000E+00  0.25065712721E+02  0.25065712721E+02  0.00000000000E+00 0.  1.
         21   -1    0    0  501  503 -0.00000000000E+00 -0.00000000000E+00 -0.52136279521E+03  0.52136279521E+03  0.00000000000E+00 0.  1.
        -13    1    1    2    0    0 -0.45257327686E+02 -0.16419972914E+02 -0.19136824737E+02  0.51808015257E+02  0.10566000000E+00 0.  1.
         13    1    1    2    0    0  0.46333218184E+02  0.16936217525E+01 -0.18491412466E+03  0.19063808676E+03  0.10566000000E+00 0. -1.
          4    1    1    2  501    0  0.33454075622E+01 -0.17009377323E+02 -0.25173471014E+03  0.25233088388E+03  0.00000000000E+00 0.  1.
         -4    1    1    2    0  502 -0.44212980599E+01  0.31735728484E+02 -0.40511422955E+02  0.51651522038E+02  0.00000000000E+00 0. -1.
</event>
<event>
 6    1  0.5496865E-006  0.3728347E+03  0.7818608E-02  0.9810955E-01
         21   -1    0    0  503  502  0.00000000000E+00  0.00000000000E+00  0.37793851226E+03  0.37793851226E+03  0.00000000000E+00 0.  1.
         21   -1    0    0  501  503 -0.00000000000E+00 -0.00000000000E+00 -0.89166429799E+03  0.89166429799E+03  0.00000000000E+00 0.  1.
        -13    1    1    2    0    0  0.12398720745E+03 -0.36395102687E+03 -0.15501552185E+03  0.41456362690E+03  0.10566000000E+00 0.  1.
         13    1    1    2    0    0 -0.10167859220E+03  0.34846648571E+03 -0.64921200180E+02  0.36875764557E+03  0.10566000000E+00 0. -1.
          4    1    1    2  501    0 -0.57652006197E+01  0.15557328804E+02 -0.38914632150E+03  0.38949984282E+03  0.00000000000E+00 0.  1.
         -4    1    1    2    0  502 -0.16543414633E+02 -0.72787637875E-01  0.95357257797E+02  0.96781694965E+02  0.00000000000E+00 0. -1.
</event>
<event>
 6    1  0.5496865E-006  0.6521037E+02  0.7818608E-02  0.1239884E+00
         21   -1    0    0  503  502  0.00000000000E+00  0.00000000000E+00  0.26640871725E+02  0.26640871725E+02  0.00000000000E+00 0.  1.
         21   -1    0    0  501  503 -0.00000000000E+00 -0.00000000000E+00 -0.44933704232E+03  0.44933704232E+03  0.00000000000E+00 0. -1.
        -13    1    1    2    0    0  0.53593938150E+02 -0.19084189192E+02 -0.10255161541E+03  0.11727472648E+03  0.10566000000E+00 0.  1.
         13    1    1    2    0    0 -0.64617833133E+02  0.42882241645E+02 -0.29880824899E+03  0.30870816613E+03  0.10566000000E+00 0. -1.
          4    1    1    2  501    0  0.83970650191E+01 -0.98024185000E+01 -0.30460710803E+02  0.33082518223E+02  0.00000000000E+00 0.  1.
         -4    1    1    2    0  502  0.26268299633E+01 -0.13995633953E+02  0.91244046087E+01  0.16912503211E+02  0.00000000000E+00 0. -1.
</event>
<event>
 6    1  0.5496865E-006  0.1163389E+03  0.7818608E-02  0.1140037E+00
         21   -1    0    0  501  502  0.00000000000E+00  0.00000000000E+00  0.18968435796E+03  0.18968435796E+03  0.00000000000E+00 0. -1.
         21   -1    0    0  502  503 -0.00000000000E+00 -0.00000000000E+00 -0.19572645019E+03  0.19572645019E+03  0.00000000000E+00 0.  1.
        -13    1    1    2    0    0 -0.54395693619E+02  0.10921313709E+03 -0.92053825102E+02  0.15284082792E+03  0.10566000000E+00 0.  1.
         13    1    1    2    0    0  0.82517312830E+02 -0.99566464436E+02  0.10425480056E+03  0.16610738202E+03  0.10566000000E+00 0. -1.
          4    1    1    2  501    0 -0.12739086664E+02  0.13044792275E+02  0.14831618518E+02  0.23503783576E+02  0.00000000000E+00 0.  1.
         -4    1    1    2    0  503 -0.15382532547E+02 -0.22691464934E+02 -0.33074686196E+02  0.42958814641E+02  0.00000000000E+00 0. -1.
</event>
<event>
 6    1  0.5496865E-006  0.1305637E+03  0.7818608E-02  0.1122035E+00
         21   -1    0    0  503  502  0.00000000000E+00  0.00000000000E+00  0.10305785429E+03  0.10305785429E+03  0.00000000000E+00 0.  1.
         21   -1    0    0  501  503 -0.00000000000E+00 -0.00000000000E+00 -0.44021227572E+03  0.44021227572E+03  0.00000000000E+00 0.  1.
        -13    1    1    2    0    0  0.11681906139E+03  0.75932617859E+02 -0.80293464543E+02  0.16080891508E+03  0.10566000000E+00 0.  1.
         13    1    1    2    0    0 -0.10283794018E+03 -0.70796797963E+02 -0.83185231163E+02  0.15002540581E+03  0.10566000000E+00 0. -1.
          4    1    1    2  501    0 -0.25409772372E+02 -0.20766360911E+02 -0.19836395188E+03  0.20106007979E+03  0.00000000000E+00 0.  1.
         -4    1    1    2    0  502  0.11428651163E+02  0.15630541015E+02  0.24688226157E+02  0.31375729324E+02  0.00000000000E+00 0. -1.
</event>
<event>
 6    1  0.5496865E-006  0.6838536E+02  0.7818608E-02  0.1231029E+00
         21   -1    0    0  503  502  0.00000000000E+00  0.00000000000E+00  0.13322065690E+03  0.13322065690E+03  0.00000000000E+00 0.  1.
         21   -1    0    0  501  503 -0.00000000000E+00 -0.00000000000E+00 -0.17990463926E+03  0.17990463926E+03  0.00000000000E+00 0.  1.
        -13    1    1    2    0    0  0.65391905142E+02  0.50134839021E+02 -0.91454041397E+01  0.82905083817E+02  0.10566000000E+00 0.  1.
         13    1    1    2    0    0 -0.60563210426E+02 -0.30169273911E+01  0.25250310469E+02  0.65685566533E+02  0.10566000000E+00 0. -1.
          4    1    1    2  501    0  0.82679061657E+01 -0.39253718905E+02 -0.10884987504E+03  0.11600649989E+03  0.00000000000E+00 0.  1.
         -4    1    1    2    0  502 -0.13096600882E+02 -0.78641927251E+01  0.46060986361E+02  0.48528145920E+02  0.00000000000E+00 0. -1.
</event>
<event>
 6    1  0.5496865E-006  0.2428937E+03  0.7818608E-02  0.1034142E+00
         21   -1    0    0  503  502  0.00000000000E+00  0.00000000000E+00  0.10620611305E+03  0.10620611305E+03  0.00000000000E+00 0.  1.
         21   -1    0    0  501  503 -0.00000000000E+00 -0.00000000000E+00 -0.79928216894E+03  0.79928216894E+03  0.00000000000E+00 0. -1.
        -13    1    1    2    0    0 -0.21965864152E+03 -0.16058024027E+02 -0.16420574834E+03  0.27472043586E+03  0.10566000000E+00 0.  1.
         13    1    1    2    0    0  0.26850471514E+03 -0.45643661513E+01 -0.49941702751E+03  0.56703879411E+03  0.10566000000E+00 0. -1.
          4    1    1    2  501    0 -0.23764090811E+02  0.18732175875E+02 -0.22267950877E+02  0.37569775902E+02  0.00000000000E+00 0.  1.
         -4    1    1    2    0  502 -0.25081982810E+02  0.18902143039E+01 -0.71853291626E+01  0.26159276117E+02  0.00000000000E+00 0. -1.
</event>
<event>
 6    1  0.5496865E-006  0.1171076E+03  0.7818608E-02  0.1138993E+00
         21   -1    0    0  503  502  0.00000000000E+00  0.00000000000E+00  0.21629232467E+03  0.21629232467E+03  0.00000000000E+00 0. -1.
         21   -1    0    0  501  503 -0.00000000000E+00 -0.00000000000E+00 -0.17934114386E+03  0.17934114386E+03  0.00000000000E+00 0.  1.
        -13    1    1    2    0    0  0.88471929898E+02 -0.97288598579E+02 -0.30618700599E+02  0.13501803503E+03  0.10566000000E+00 0.  1.
         13    1    1    2    0    0 -0.73072297572E+02  0.82829805104E+02  0.34497374804E+02  0.11571697075E+03  0.10566000000E+00 0. -1.
          4    1    1    2  501    0 -0.24252324649E+02  0.79506451058E+01 -0.52631359848E+02  0.58493145307E+02  0.00000000000E+00 0.  1.
         -4    1    1    2    0  502  0.88526923241E+01  0.65081483698E+01  0.85703866462E+02  0.86405317447E+02  0.00000000000E+00 0. -1.
</event>
<event>
 6    1  0.5496865E-006  0.1029377E+03  0.7818608E-02  0.1171707E+00
         21   -1    0    0  501  502  0.00000000000E+00  0.00000000000E+00  0.87609226608E+03  0.87609226608E+03  0.00000000000E+00 0.  1.
         21   -1    0    0  502  503 -0.00000000000E+00 -0.00000000000E+00 -0.11106052028E+03  0.11106052028E+03  0.00000000000E+00 0. -1.
        -13    1    1    2    0    0  0.72719737140E+02 -0.71230554394E+02  0.17550661333E+03  0.20289044959E+03  0.10566000000E+00 0.  1.
         13    1    1    2    0    0 -0.81880125477E+02  0.10339264394E+03  0.18405294871E+03  0.22642856017E+03  0.10566000000E+00 0. -1.
          4    1    1    2  501    0 -0.74119195278E+02  0.21609979921E+02  0.44460494240E+03  0.45125846379E+03  0.00000000000E+00 0.  1.
         -4    1    1    2    0  503  0.83279583616E+02 -0.53772069466E+02 -0.39132758635E+02  0.10657531281E+03  0.00000000000E+00 0. -1.
</event>
<event>
 6    1  0.5496865E-006  0.8429026E+02  0.7818608E-02  0.1206510E+00
         21   -1    0    0  503  502  0.00000000000E+00  0.00000000000E+00  0.32174642006E+03  0.32174642006E+03  0.00000000000E+00 0.  1.
         21   -1    0    0  501  503 -0.00000000000E+00 -0.00000000000E+00 -0.12223577180E+03  0.12223577180E+03  0.00000000000E+00 0.  1.
        -13    1    1    2    0    0  0.71360265418E+02  0.48058632279E+02  0.18947798931E+03  0.20809574531E+03  0.10566000000E+00 0.  1.
         13    1    1    2    0    0 -0.66664741341E+02  0.67705908742E+02 -0.28580195086E+02  0.99222560599E+02  0.10566000000E+00 0. -1.
          4    1    1    2  501    0  0.93653925595E+01 -0.78766173514E+02 -0.28107068663E+01  0.79370780145E+02  0.00000000000E+00 0.  1.
         -4    1    1    2    0  502 -0.14060916637E+02 -0.36998367508E+02  0.41423560899E+02  0.57293105802E+02  0.00000000000E+00 0. -1.
</event>
<event>
 6    1  0.5496865E-006  0.1712230E+03  0.7818608E-02  0.1090794E+00
         21   -1    0    0  503  502  0.00000000000E+00  0.00000000000E+00  0.30713425754E+03  0.30713425754E+03  0.00000000000E+00 0.  1.
         21   -1    0    0  501  503 -0.00000000000E+00 -0.00000000000E+00 -0.27019691120E+03  0.27019691120E+03  0.00000000000E+00 0. -1.
        -13    1    1    2    0    0 -0.76640377496E+02 -0.97402333774E+02 -0.29960311249E+02  0.12750918987E+03  0.10566000000E+00 0.  1.
         13    1    1    2    0    0  0.19439256490E+03 -0.34821626896E+02 -0.20195457973E+02  0.19851670628E+03  0.10566000000E+00 0. -1.
          4    1    1    2  501    0 -0.10270573566E+03  0.13260432558E+03  0.49557739481E+01  0.16780028306E+03  0.00000000000E+00 0.  1.
         -4    1    1    2    0  502 -0.15046451741E+02 -0.38036491397E+00  0.82137341614E+02  0.83504989521E+02  0.00000000000E+00 0. -1.
</event>
<event>
 6    1  0.5496865E-006  0.1384273E+03  0.7818608E-02  0.1170591E+00
         21   -1    0    0  503  502  0.00000000000E+00  0.00000000000E+00  0.16120834545E+03  0.16120834545E+03  0.00000000000E+00 0.  1.
         21   -1    0    0  501  503 -0.00000000000E+00 -0.00000000000E+00 -0.25862655038E+03  0.25862655038E+03  0.00000000000E+00 0.  1.
        -13    1    1    2    0    0  0.87894367518E+02 -0.87340912231E+02 -0.15608248771E+02  0.12488988504E+03  0.10566000000E+00 0.  1.
         13    1    1    2    0    0 -0.29309212790E+02 -0.14664828210E+02 -0.17360885217E+02  0.37087715491E+02  0.10566000000E+00 0. -1.
          4    1    1    2  501    0 -0.75746313066E+02  0.12905975954E+03 -0.12127807706E+03  0.19261956664E+03  0.00000000000E+00 0.  1.
         -4    1    1    2    0  502  0.17161158337E+02 -0.27054019099E+02  0.56829006115E+02  0.65237728661E+02  0.00000000000E+00 0. -1.
</event>
<event>
 6    1  0.5496865E-006  0.8336143E+02  0.7818608E-02  0.1207330E+00
         21   -1    0    0  503  502  0.00000000000E+00  0.00000000000E+00  0.21053063001E+03  0.21053063001E+03  0.00000000000E+00 0. -1.
         21   -1    0    0  501  503 -0.00000000000E+00 -0.00000000000E+00 -0.50575178655E+03  0.50575178655E+03  0.00000000000E+00 0. -1.
        -13    1    1    2    0    0  0.28661136770E+02  0.36844984986E+02  0.15373907074E+02  0.49146534592E+02  0.10566000000E+00 0.  1.
         13    1    1    2    0    0 -0.13377677427E+03 -0.71766208208E+02 -0.31349479090E+03  0.34831825829E+03  0.10566000000E+00 0. -1.
          4    1    1    2  501    0  0.92458732200E+02 -0.22995380907E+01 -0.14156491386E+03  0.16909917170E+03  0.00000000000E+00 0.  1.
         -4    1    1    2    0  502  0.12656905302E+02  0.37220761312E+02  0.14446464113E+03  0.14971845198E+03  0.00000000000E+00 0. -1.
</event>
<event>
 6    1  0.5496865E-006  0.8144240E+02  0.7818608E-02  0.1199546E+00
         21   -1    0    0  501  502  0.00000000000E+00  0.00000000000E+00  0.91468593793E+03  0.91468593793E+03  0.00000000000E+00 0.  1.
         21   -1    0    0  502  503 -0.00000000000E+00 -0.00000000000E+00 -0.93238270048E+02  0.93238270048E+02  0.00000000000E+00 0. -1.
        -13    1    1    2    0    0 -0.83559057703E+02 -0.68036679437E+02  0.86292082423E+02  0.13804868897E+03  0.10566000000E+00 0.  1.
         13    1    1    2    0    0  0.58705075723E+02  0.53746693807E+02  0.44441694473E+03  0.45148801196E+03  0.10566000000E+00 0. -1.
          4    1    1    2  501    0  0.73119745528E+01 -0.12843514011E+02  0.35030811611E+03  0.35061973281E+03  0.00000000000E+00 0.  1.
         -4    1    1    2    0  503  0.17542007427E+02  0.27133499641E+02 -0.59569475387E+02  0.67767774239E+02  0.00000000000E+00 0. -1.
</event>
<event>
 6    1  0.5496865E-006  0.2323473E+03  0.7818608E-02  0.1039970E+00
         21   -1    0    0  501  502  0.00000000000E+00  0.00000000000E+00  0.40765630370E+03  0.40765630370E+03  0.00000000000E+00 0. -1.
         21   -1    0    0  502  503 -0.00000000000E+00 -0.00000000000E+00 -0.25038471865E+03  0.25038471865E+03  0.00000000000E+00 0.  1.
        -13    1    1    2    0    0  0.12976303123E+03  0.16366082275E+03  0.10355593641E+03  0.23312475696E+03  0.10566000000E+00 0.  1.
         13    1    1    2    0    0 -0.17262343957E+03 -0.20189695068E+03  0.12817090878E+03  0.29493901676E+03  0.10566000000E+00 0. -1.
          4    1    1    2  501    0 -0.47725627915E+01 -0.92323208903E+01  0.14886519725E+02  0.18155483308E+02  0.00000000000E+00 0.  1.
         -4    1    1    2    0  503  0.47632971134E+02  0.47468448822E+02 -0.89341779866E+02  0.11182176533E+03  0.00000000000E+00 0. -1.
</event>
<event>
 6    1  0.5496865E-006  0.7672580E+02  0.7818608E-02  0.1210110E+00
         21   -1    0    0  501  502  0.00000000000E+00  0.00000000000E+00  0.65150020320E+02  0.65150020320E+02  0.00000000000E+00 0.  1.
         21   -1    0    0  502  503 -0.00000000000E+00 -0.00000000000E+00 -0.40517030573E+03  0.40517030573E+03  0.00000000000E+00 0. -1.
        -13    1    1    2    0    0  0.58806266346E+01  0.67157486819E+02 -0.25389576707E+02  0.72037154128E+02  0.10566000000E+00 0.  1.
         13    1    1    2    0    0 -0.29234088164E+02 -0.89511029701E+02 -0.46226396141E+02  0.10489874743E+03  0.10566000000E+00 0. -1.
          4    1    1    2  501    0 -0.12055738429E+02 -0.18205247896E+01  0.74034549076E+01  0.14264160829E+02  0.00000000000E+00 0.  1.
         -4    1    1    2    0  503  0.35409199958E+02  0.24174067672E+02 -0.27580776747E+03  0.27912026366E+03  0.00000000000E+00 0. -1.
</event>
<event>
 6    1  0.5496865E-006  0.2187735E+03  0.7818608E-02  0.1047976E+00
         21   -1    0    0  503  502  0.00000000000E+00  0.00000000000E+00  0.25541815782E+03  0.25541815782E+03  0.00000000000E+00 0.  1.
         21   -1    0    0  501  503 -0.00000000000E+00 -0.00000000000E+00 -0.97530036254E+03  0.97530036254E+03  0.00000000000E+00 0. -1.
        -13    1    1    2    0    0 -0.16889981989E+03  0.12979980048E+03  0.13175840235E+03  0.25047040767E+03  0.10566000000E+00 0.  1.
         13    1    1    2    0    0  0.20279887860E+03 -0.18285352579E+03 -0.84929189280E+03  0.89210959383E+03  0.10566000000E+00 0. -1.
          4    1    1    2  501    0 -0.46661894300E+02  0.34640908579E+02 -0.17966373013E+02  0.60828574585E+02  0.00000000000E+00 0.  1.
         -4    1    1    2    0  502  0.12762835584E+02  0.18412816725E+02  0.15617658745E+02  0.27309944280E+02  0.00000000000E+00 0. -1.
</event>
<event>
 6    1  0.5496865E-006  0.7129454E+02  0.7818608E-02  0.1226583E+00
         21   -1    0    0  503  502  0.00000000000E+00  0.00000000000E+00  0.97539826405E+02  0.97539826405E+02  0.00000000000E+00 0.  1.
         21   -1    0    0  501  503 -0.00000000000E+00 -0.00000000000E+00 -0.77970658747E+03  0.77970658747E+03  0.00000000000E+00 0. -1.
        -13    1    1    2    0    0 -0.78262133302E+02  0.11707299716E+03 -0.15166806840E+03  0.20696439865E+03  0.10566000000E+00 0.  1.
         13    1    1    2    0    0  0.20392650810E+01 -0.56010913300E+02  0.20338579962E+02  0.59624240119E+02  0.10566000000E+00 0. -1.
          4    1    1    2  501    0  0.10001327418E+02 -0.66205084008E+02 -0.53905803812E+03  0.54320043093E+03  0.00000000000E+00 0.  1.
         -4    1    1    2    0  502  0.66221540804E+02  0.51430001516E+01 -0.11779234497E+02  0.67457344169E+02  0.00000000000E+00 0. -1.
</event>
<event>
 6    1  0.5496865E-006  0.1864472E+03  0.7818608E-02  0.1069846E+00
         21   -1    0    0  501  502  0.00000000000E+00  0.00000000000E+00  0.11221648233E+04  0.11221648233E+04  0.00000000000E+00 0.  1.
         21   -1    0    0  502  503 -0.00000000000E+00 -0.00000000000E+00 -0.10678678252E+03  0.10678678252E+03  0.00000000000E+00 0.  1.
        -13    1    1    2    0    0 -0.80341967847E+02 -0.17042851026E+03  0.15011314379E+03  0.24090387297E+03  0.10566000000E+00 0.  1.
         13    1    1    2    0    0  0.15235865413E+03  0.12199198229E+03  0.15382534570E+03  0.24851046532E+03  0.10566000000E+00 0. -1.
          4    1    1    2  501    0 -0.76246084030E+02  0.38940555251E+02  0.72060825607E+03  0.72567629897E+03  0.00000000000E+00 0.  1.
         -4    1    1    2    0  503  0.42293977505E+01  0.94959727199E+01 -0.91687047552E+01  0.13860968585E+02  0.00000000000E+00 0. -1.
</event>
<event>
 6    1  0.5496865E-006  0.1095435E+03  0.7818608E-02  0.1149663E+00
         21   -1    0    0  503  502  0.00000000000E+00  0.00000000000E+00  0.35513791952E+03  0.35513791952E+03  0.00000000000E+00 0.  1.
         21   -1    0    0  501  503 -0.00000000000E+00 -0.00000000000E+00 -0.12299953185E+03  0.12299953185E+03  0.00000000000E+00 0. -1.
        -13    1    1    2    0    0 -0.18962516451E+02 -0.88925082583E+02  0.19478075324E+03  0.21495767104E+03  0.10566000000E+00 0.  1.
         13    1    1    2    0    0 -0.99339399353E+01  0.11746880203E+03 -0.56255095081E+02  0.13062254590E+03  0.10566000000E+00 0. -1.
          4    1    1    2  501    0  0.15373186572E+02 -0.49726781658E+01 -0.14115223505E+02  0.21454648171E+02  0.00000000000E+00 0.  1.
         -4    1    1    2    0  502  0.13523269814E+02 -0.23571041278E+02  0.10772795301E+03  0.11110258626E+03  0.00000000000E+00 0. -1.
</event>
<event>
 6    1  0.5496865E-006  0.1036108E+03  0.7818608E-02  0.1158716E+00
         21   -1    0    0  503  502  0.00000000000E+00  0.00000000000E+00  0.48078491867E+02  0.48078491867E+02  0.00000000000E+00 0.  1.
         21   -1    0    0  501  503 -0.00000000000E+00 -0.00000000000E+00 -0.63375113107E+03  0.63375113107E+03  0.00000000000E+00 0. -1.
        -13    1    1    2    0    0 -0.78988155849E+02  0.61444369148E+02 -0.24214878159E+02  0.10296072432E+03  0.10566000000E+00 0.  1.
         13    1    1    2    0    0  0.74214180098E+02 -0.40251508729E+02 -0.38232036193E+03  0.39153135097E+03  0.10566000000E+00 0. -1.
          4    1    1    2  501    0  0.14863053032E+02 -0.22967928498E+02 -0.17350228328E+03  0.17564588919E+03  0.00000000000E+00 0.  1.
         -4    1    1    2    0  502 -0.10089077282E+02  0.17750680795E+01 -0.56351158376E+01  0.11691658462E+02  0.00000000000E+00 0. -1.
</event>
<event>
 6    1  0.5496865E-006  0.6662081E+02  0.7818608E-02  0.1319421E+00
         21   -1    0    0  503  502  0.00000000000E+00  0.00000000000E+00  0.28640157931E+02  0.28640157931E+02  0.00000000000E+00 0. -1.
         21   -1    0    0  501  503 -0.00000000000E+00 -0.00000000000E+00 -0.10028401161E+04  0.10028401161E+04  0.00000000000E+00 0.  1.
        -13    1    1    2    0    0  0.65071668328E+02  0.22588393558E+02 -0.30318221340E+03  0.31090838398E+03  0.10566000000E+00 0.  1.
         13    1    1    2    0    0  0.45070559244E+01  0.13326088864E+02 -0.93523205473E+01  0.16893053637E+02  0.10566000000E+00 0. -1.
          4    1    1    2  501    0 -0.58644481927E+02 -0.30016058562E+02 -0.67909035936E+03  0.68227842938E+03  0.00000000000E+00 0.  1.
         -4    1    1    2    0  502 -0.10934242325E+02 -0.58984238603E+01  0.17424935101E+02  0.21400407065E+02  0.00000000000E+00 0. -1.
</event>
<event>
 6    1  0.5496865E-006  0.1091681E+03  0.7818608E-02  0.1150217E+00
         21   -1    0    0  501  502  0.00000000000E+00  0.00000000000E+00  0.13966191392E+03  0.13966191392E+03  0.00000000000E+00 0. -1.
         21   -1    0    0  502  503 -0.00000000000E+00 -0.00000000000E+00 -0.15752823481E+03  0.15752823481E+03  0.00000000000E+00 0.  1.
        -13    1    1    2    0    0 -0.87671755394E+02  0.57894159896E+02 -0.88015970991E+02  0.13705799049E+03  0.10566000000E+00 0.  1.
         13    1    1    2    0    0  0.96659499864E+02 -0.38739256798E+02  0.69946012521E+02  0.12544418983E+03  0.10566000000E+00 0. -1.
          4    1    1    2  501    0  0.71782986087E+01 -0.76520172612E+01  0.81799696640E+01  0.13303880742E+02  0.00000000000E+00 0.  1.
         -4    1    1    2    0  503 -0.16166043079E+02 -0.11502885837E+02 -0.79763320846E+01  0.21384087657E+02  0.00000000000E+00 0. -1.
</event>
<event>
 6    1  0.5496865E-006  0.5600737E+02  0.7818608E-02  0.1295727E+00
         21   -1    0    0  501  502  0.00000000000E+00  0.00000000000E+00  0.10686816336E+03  0.10686816336E+03  0.00000000000E+00 0.  1.
         21   -1    0    0  502  503 -0.00000000000E+00 -0.00000000000E+00 -0.14063879711E+03  0.14063879711E+03  0.00000000000E+00 0.  1.
        -13    1    1    2    0    0 -0.54141429170E+02 -0.26731804130E+02 -0.89507391498E+02  0.10796975503E+03  0.10566000000E+00 0.  1.
         13    1    1    2    0    0  0.12980028970E+02  0.32027221516E+02  0.10742037757E+02  0.36188763578E+02  0.10566000000E+00 0. -1.
          4    1    1    2  501    0  0.55574548422E+02  0.59062486878E+01  0.58299251189E+02  0.80760243283E+02  0.00000000000E+00 0.  1.
         -4    1    1    2    0  503 -0.14413148222E+02 -0.11201666073E+02 -0.13304531202E+02  0.22588198578E+02  0.00000000000E+00 0. -1.
</event>
<event>
 6    1  0.5496865E-006  0.6662046E+02  0.7818608E-02  0.1235884E+00
         21   -1    0    0  501  502  0.00000000000E+00  0.00000000000E+00  0.52922582498E+03  0.52922582498E+03  0.00000000000E+00 0.  1.
         21   -1    0    0  502  503 -0.00000000000E+00 -0.00000000000E+00 -0.74711102799E+03  0.74711102799E+03  0.00000000000E+00 0.  1.
        -13    1    1    2    0    0  0.49469732713E+02 -0.49170116476E+02 -0.18534326018E+03  0.19803305297E+03  0.10566000000E+00 0.  1.
         13    1    1    2    0    0 -0.22674798491E+02  0.45869699200E+02 -0.95486400945E+01  0.52051546403E+02  0.10566000000E+00 0. -1.
          4    1    1    2  501    0 -0.23209251061E+01  0.24644176004E+02  0.50082099048E+03  0.50143233503E+03  0.00000000000E+00 0.  1.
         -4    1    1    2    0  503 -0.24474009116E+02 -0.21343758728E+02 -0.52381429321E+03  0.52481991857E+03  0.00000000000E+00 0. -1.
</event>
<event>
 6    1  0.5496865E-006  0.1338128E+03  0.7818608E-02  0.1118272E+00
         21   -1    0    0  501  502  0.00000000000E+00  0.00000000000E+00  0.35975049720E+03  0.35975049720E+03  0.00000000000E+00 0. -1.
         21   -1    0    0  502  503 -0.00000000000E+00 -0.00000000000E+00 -0.20230386148E+03  0.20230386148E+03  0.00000000000E+00 0.  1.
        -13    1    1    2    0    0  0.17999009355E+02  0.12290304663E+03 -0.96504569413E+02  0.15729674597E+03  0.10566000000E+00 0.  1.
         13    1    1    2    0    0  0.48223477228E+02 -0.15809030359E+03  0.25929119548E+03  0.30748980969E+03  0.10566000000E+00 0. -1.
          4    1    1    2  501    0 -0.67172042824E+02  0.24572040276E+02  0.16109035648E+02  0.73316911623E+02  0.00000000000E+00 0.  1.
         -4    1    1    2    0  503  0.94955624169E+00  0.10615216684E+02 -0.21449025999E+02  0.23950891395E+02  0.00000000000E+00 0. -1.
</event>
<event>
 6    1  0.5496865E-006  0.2969394E+03  0.7818608E-02  0.1008577E+00
         21   -1    0    0  503  502  0.00000000000E+00  0.00000000000E+00  0.60890155305E+03  0.60890155305E+03  0.00000000000E+00 0.  1.
         21   -1    0    0  501  503 -0.00000000000E+00 -0.00000000000E+00 -0.21133462216E+03  0.21133462216E+03  0.00000000000E+00 0. -1.
        -13    1    1    2    0    0  0.22404059674E+02  0.26871447767E+03  0.25525357830E+03  0.37130016536E+03  0.10566000000E+00 0.  1.
         13    1    1    2    0    0 -0.90095497490E+02 -0.31366164521E+03  0.11759090017E+03  0.34688392483E+03  0.10566000000E+00 0. -1.
          4    1    1    2  501    0  0.11686759968E+02  0.21180806601E+02 -0.15854058789E+02  0.28923314245E+02  0.00000000000E+00 0.  1.
         -4    1    1    2    0  502  0.56004677849E+02  0.23766360938E+02  0.40576511208E+02  0.73128770774E+02  0.00000000000E+00 0. -1.
</event>
<event>
 6    1  0.5496865E-006  0.2140909E+03  0.7818608E-02  0.1050883E+00
         21   -1    0    0  503  502  0.00000000000E+00  0.00000000000E+00  0.50404592175E+03  0.50404592175E+03  0.00000000000E+00 0.  1.
         21   -1    0    0  501  503 -0.00000000000E+00 -0.00000000000E+00 -0.33600394796E+03  0.33600394796E+03  0.00000000000E+00 0. -1.
        -13    1    1    2    0    0 -0.14991980275E+03  0.75765650828E+02  0.66028512033E+02  0.18048866077E+03  0.10566000000E+00 0.  1.
         13    1    1    2    0    0  0.28872590086E+03  0.22484470169E+01  0.87339305284E+02  0.30165521171E+03  0.10566000000E+00 0. -1.
          4    1    1    2  501    0 -0.50229314872E+02 -0.88434614541E+01 -0.15005834568E+03  0.15848879453E+03  0.00000000000E+00 0.  1.
         -4    1    1    2    0  502 -0.88576783239E+02 -0.69170636391E+02  0.16473250216E+03  0.19941720271E+03  0.00000000000E+00 0. -1.
</event>
<event>
 6    1  0.5496865E-006  0.8472578E+02  0.7818608E-02  0.1192646E+00
         21   -1    0    0  503  502  0.00000000000E+00  0.00000000000E+00  0.44897525746E+02  0.44897525746E+02  0.00000000000E+00 0.  1.
         21   -1    0    0  501  503 -0.00000000000E+00 -0.00000000000E+00 -0.42471881675E+03  0.42471881675E+03  0.00000000000E+00 0.  1.
        -13    1    1    2    0    0 -0.70934902349E+01 -0.72486769271E+02 -0.60045938859E+02  0.94393724688E+02  0.10566000000E+00 0.  1.
         13    1    1    2    0    0  0.21498004130E+02  0.84925283582E+02 -0.17883052421E+03  0.19913521920E+03  0.10566000000E+00 0. -1.
          4    1    1    2  501    0  0.67464423892E+01  0.33015751940E+02 -0.11460172218E+03  0.11945337621E+03  0.00000000000E+00 0.  1.
         -4    1    1    2    0  502 -0.21150956285E+02 -0.45454266251E+02 -0.26343105754E+02  0.56634022397E+02  0.00000000000E+00 0. -1.
</event>
<event>
 6    1  0.5787640E-006  0.7396550E+02  0.7818608E-02  0.1216691E+00
         21   -1    0    0  501  502  0.00000000000E+00  0.00000000000E+00  0.48141332779E+03  0.48141332779E+03  0.00000000000E+00 0.  1.
         21   -1    0    0  502  503 -0.00000000000E+00 -0.00000000000E+00 -0.67716586051E+03  0.67716586051E+03  0.00000000000E+00 0. -1.
        -13    1    1    2    0    0  0.70284801684E+02 -0.24302976354E+02 -0.25111824056E+03  0.26189877799E+03  0.10566000000E+00 0.  1.
         13    1    1    2    0    0 -0.35599915952E+02  0.76802738745E+02  0.28979024116E+03  0.30190132449E+03  0.10566000000E+00 0. -1.
          4    1    1    2  501    0 -0.22696224622E+02 -0.31138714474E+02  0.17774938611E+03  0.18187793273E+03  0.00000000000E+00 0.  1.
         -4    1    1    2    0  503 -0.11988661111E+02 -0.21361047917E+02 -0.41217391943E+03  0.41290115309E+03  0.00000000000E+00 0. -1.
</event>
<event>
 6    1  0.5496865E-006  0.1013357E+03  0.7818608E-02  0.1162364E+00
         21   -1    0    0  503  502  0.00000000000E+00  0.00000000000E+00  0.10549485253E+04  0.10549485253E+04  0.00000000000E+00 0. -1.
         21   -1    0    0  501  503 -0.00000000000E+00 -0.00000000000E+00 -0.15895003305E+03  0.15895003305E+03  0.00000000000E+00 0. -1.
        -13    1    1    2    0    0 -0.72886493457E+02  0.97316627562E+01  0.18289667203E+03  0.19712521399E+03  0.10566000000E+00 0.  1.
         13    1    1    2    0    0  0.13178090163E+03  0.36097146137E+02 -0.54784777795E+02  0.14720935104E+03  0.10566000000E+00 0. -1.
          4    1    1    2  501    0 -0.28600219585E+02 -0.21122028294E+02 -0.44094139544E+02  0.56642791083E+02  0.00000000000E+00 0.  1.
         -4    1    1    2    0  502 -0.30294188584E+02 -0.24706780599E+02  0.81198073758E+03  0.81292120225E+03  0.00000000000E+00 0. -1.
</event>
<event>
 6    1  0.5496865E-006  0.1675540E+03  0.7818608E-02  0.1084982E+00
         21   -1    0    0  503  502  0.00000000000E+00  0.00000000000E+00  0.81145798429E+03  0.81145798429E+03  0.00000000000E+00 0.  1.
         21   -1    0    0  501  503 -0.00000000000E+00 -0.00000000000E+00 -0.27873838133E+03  0.27873838133E+03  0.00000000000E+00 0.  1.
        -13    1    1    2    0    0 -0.23154146712E+02  0.16034054833E+03  0.40781615038E+03  0.43881571259E+03  0.10566000000E+00 0.  1.
         13    1    1    2    0    0  0.45302554408E+02 -0.15177480190E+03  0.63325964034E+02  0.17058165438E+03  0.10566000000E+00 0. -1.
          4    1    1    2  501    0  0.46581550536E+01 -0.15928345596E+02 -0.20856786795E+03  0.20922706838E+03  0.00000000000E+00 0.  1.
         -4    1    1    2    0  502 -0.26806562749E+02  0.73625991660E+01  0.27014535649E+03  0.27157193026E+03  0.00000000000E+00 0. -1.
</event>
<event>
 6    1  0.5845376E-006  0.2432713E+03  0.7818608E-02  0.1033940E+00
         21   -1    0    0  503  502  0.00000000000E+00  0.00000000000E+00  0.34341376142E+03  0.34341376142E+03  0.00000000000E+00 0.  1.
         21   -1    0    0  501  503 -0.00000000000E+00 -0.00000000000E+00 -0.94746827710E+03  0.94746827710E+03  0.00000000000E+00 0. -1.
        -13    1    1    2    0    0  0.23731480210E+03 -0.10053874267E+03  0.21218129062E+03  0.33383718386E+03  0.10566000000E+00 0.  1.
         13    1    1    2    0    0 -0.18111059881E+03  0.87528629872E+02 -0.59174369742E+03  0.62499833971E+03  0.10566000000E+00 0. -1.
          4    1    1    2  501    0 -0.35812442200E+02  0.29960428459E+02 -0.27289256199E+03  0.27685828267E+03  0.00000000000E+00 0.  1.
         -4    1    1    2    0  502 -0.20391761096E+02 -0.16950315663E+02  0.48400453104E+02  0.55188232281E+02  0.00000000000E+00 0. -1.
</event>
<event>
 6    1  0.5496865E-006  0.1074404E+03  0.7818608E-02  0.1199386E+00
         21   -1    0    0  501  502  0.00000000000E+00  0.00000000000E+00  0.15210789374E+03  0.15210789374E+03  0.00000000000E+00 0. -1.
         21   -1    0    0  502  503 -0.00000000000E+00 -0.00000000000E+00 -0.20885751032E+03  0.20885751032E+03  0.00000000000E+00 0. -1.
        -13    1    1    2    0    0 -0.35132197486E+02 -0.36860122700E+01 -0.10733427709E+03  0.11299785922E+03  0.10566000000E+00 0.  1.
         13    1    1    2    0    0  0.76283908521E+02  0.92361684663E+02  0.17558927177E+02  0.12107122937E+03  0.10566000000E+00 0. -1.
          4    1    1    2  501    0 -0.13775278457E+02  0.89292714762E+01  0.18093600092E+02  0.24430893352E+02  0.00000000000E+00 0.  1.
         -4    1    1    2    0  503 -0.27376432578E+02 -0.97604943870E+02  0.14932133239E+02  0.10246542213E+03  0.00000000000E+00 0. -1.
</event>
<event>
 6    1  0.5496865E-006  0.5674906E+02  0.7818608E-02  0.1266511E+00
         21   -1    0    0  501  502  0.00000000000E+00  0.00000000000E+00  0.11285409506E+03  0.11285409506E+03  0.00000000000E+00 0. -1.
         21   -1    0    0  502  503 -0.00000000000E+00 -0.00000000000E+00 -0.10754116124E+03  0.10754116124E+03  0.00000000000E+00 0. -1.
        -13    1    1    2    0    0 -0.40403707112E+02  0.57596626751E+02 -0.24628796049E+02  0.74541396018E+02  0.10566000000E+00 0.  1.
         13    1    1    2    0    0  0.28335536748E+02 -0.36227135989E+02  0.65946997558E+02  0.80401030316E+02  0.10566000000E+00 0. -1.
          4    1    1    2  501    0  0.15417901767E+02 -0.41518066128E+00  0.74234123531E+01  0.17116983404E+02  0.00000000000E+00 0.  1.
         -4    1    1    2    0  503 -0.33497314026E+01 -0.20954310100E+02 -0.43428680050E+02  0.48335846565E+02  0.00000000000E+00 0. -1.
</event>
<event>
 6    1  0.5496865E-006  0.2033562E+03  0.7818608E-02  0.1057859E+00
         21   -1    0    0  503  502  0.00000000000E+00  0.00000000000E+00  0.27015531482E+03  0.27015531482E+03  0.00000000000E+00 0.  1.
         21   -1    0    0  501  503 -0.00000000000E+00 -0.00000000000E+00 -0.58760475537E+03  0.58760475537E+03  0.00000000000E+00 0. -1.
        -13    1    1    2    0    0 -0.18807662894E+03 -0.21144118085E+02 -0.33585221025E+03  0.38550824942E+03  0.10566000000E+00 0.  1.
         13    1    1    2    0    0  0.21826949210E+03  0.39863492115E+02 -0.42907857693E+02  0.22599062946E+03  0.10566000000E+00 0. -1.
          4    1    1    2  501    0  0.15830917671E+02 -0.99859407409E+02 -0.39830974983E+02  0.10866934145E+03  0.00000000000E+00 0.  1.
         -4    1    1    2    0  502 -0.46023780836E+02  0.81140033379E+02  0.10114160237E+03  0.13759184986E+03  0.00000000000E+00 0. -1.
</event>
<event>
 6    1  0.5496865E-006  0.2398889E+02  0.7818608E-02  0.1479486E+00
         21   -1    0    0  501  502  0.00000000000E+00  0.00000000000E+00  0.14665595188E+02  0.14665595188E+02  0.00000000000E+00 0. -1.
         21   -1    0    0  502  503 -0.00000000000E+00 -0.00000000000E+00 -0.25852237944E+03  0.25852237944E+03  0.00000000000E+00 0.  1.
        -13    1    1    2    0    0 -0.12902069072E+02 -0.12369521481E+02 -0.92920626531E+02  0.94624111341E+02  0.10566000000E+00 0.  1.
         13    1    1    2    0    0 -0.27004605344E+01  0.23815863123E+02 -0.22703690846E+02  0.33014490234E+02  0.10566000000E+00 0. -1.
          4    1    1    2  501    0  0.41554001067E+01 -0.33498476254E+02 -0.33288590085E+02  0.47408285049E+02  0.00000000000E+00 0.  1.
         -4    1    1    2    0  503  0.11447129500E+02  0.22052134612E+02 -0.94943876791E+02  0.98141088005E+02  0.00000000000E+00 0. -1.
</event>
<event>
 6    1  0.5496865E-006  0.6475490E+02  0.7818608E-02  0.1241200E+00
         21   -1    0    0  501  502  0.00000000000E+00  0.00000000000E+00  0.31724926843E+03  0.31724926843E+03  0.00000000000E+00 0.  1.
         21   -1    0    0  502  503 -0.00000000000E+00 -0.00000000000E+00 -0.94733313395E+03  0.94733313395E+03  0.00000000000E+00 0. -1.
        -13    1    1    2    0    0 -0.54460378024E+02  0.77096570354E+02 -0.12002537904E+02  0.95151910202E+02  0.10566000000E+00 0.  1.
         13    1    1    2    0    0  0.13426856689E+02 -0.41389260199E+02  0.71061653653E+02  0.83325393034E+02  0.10566000000E+00 0. -1.
          4    1    1    2  501    0  0.11323103590E+01 -0.26089883355E+02  0.19714508972E+03  0.19886716809E+03  0.00000000000E+00 0.  1.
         -4    1    1    2    0  503  0.39901210976E+02 -0.96174268006E+01 -0.88628807099E+03  0.88723793107E+03  0.00000000000E+00 0. -1.
</event>
<event>
 6    1  0.5496865E-006  0.1164689E+03  0.7818608E-02  0.1139860E+00
         21   -1    0    0  501  502  0.00000000000E+00  0.00000000000E+00  0.32391668086E+03  0.32391668086E+03  0.00000000000E+00 0. -1.
         21   -1    0    0  502  503 -0.00000000000E+00 -0.00000000000E+00 -0.33953380732E+03  0.33953380732E+03  0.00000000000E+00 0. -1.
        -13    1    1    2    0    0 -0.82794136467E+02  0.29633157614E+02 -0.53298395304E+02  0.10282861066E+03  0.10566000000E+00 0.  1.
         13    1    1    2    0    0  0.11336595493E+03 -0.80310138524E+02  0.23723606603E+03  0.27492275328E+03  0.10566000000E+00 0. -1.
          4    1    1    2  501    0 -0.25441253825E+02 -0.53510313416E+01  0.35501713706E+02  0.44002984088E+02  0.00000000000E+00 0.  1.
         -4    1    1    2    0  503 -0.51305646331E+01  0.56028012251E+02 -0.23505651089E+03  0.24169614015E+03  0.00000000000E+00 0. -1.
</event>
<event>
 6    1  0.5496865E-006  0.1547636E+03  0.7818608E-02  0.1096506E+00
         21   -1    0    0  501  502  0.00000000000E+00  0.00000000000E+00  0.21204121331E+04  0.21204121331E+04  0.00000000000E+00 0.  1.
         21   -1    0    0  502  503 -0.00000000000E+00 -0.00000000000E+00 -0.50763583519E+02  0.50763583519E+02  0.00000000000E+00 0. -1.
        -13    1    1    2    0    0  0.19552337684E+03  0.40490310578E+02  0.43019613827E+03  0.47427585295E+03  0.10566000000E+00 0.  1.
         13    1    1    2    0    0 -0.12184554215E+03 -0.42682345594E+02  0.64617074848E+03  0.65894215689E+03  0.10566000000E+00 0. -1.
          4    1    1    2  501    0 -0.52300137465E+02  0.38840204740E+01  0.87219537057E+01  0.53164485048E+02  0.00000000000E+00 0.  1.
         -4    1    1    2    0  503 -0.21377697223E+02 -0.16919854576E+01  0.98455970913E+03  0.98479322175E+03  0.00000000000E+00 0. -1.
</event>
<event>
 6    1  0.5496865E-006  0.1248002E+03  0.7818608E-02  0.1129013E+00
         21   -1    0    0  501  502  0.00000000000E+00  0.00000000000E+00  0.53837704958E+03  0.53837704958E+03  0.00000000000E+00 0.  1.
         21   -1    0    0  502  503 -0.00000000000E+00 -0.00000000000E+00 -0.15104845895E+03  0.15104845895E+03  0.00000000000E+00 0.  1.
        -13    1    1    2    0    0  0.40971481912E+02  0.11917827643E+03 -0.34607892542E+02  0.13068986683E+03  0.10566000000E+00 0.  1.
         13    1    1    2    0    0 -0.36906383591E+02 -0.12764971219E+03  0.21724018609E+03  0.25465631700E+03  0.10566000000E+00 0. -1.
          4    1    1    2  501    0  0.64606872281E+01  0.89763095398E+01  0.25370730085E+03  0.25394824102E+03  0.00000000000E+00 0.  1.
         -4    1    1    2    0  503 -0.10525785550E+02 -0.50487377799E+00 -0.49011003774E+02  0.50131083670E+02  0.00000000000E+00 0. -1.
</event>
<event>
 6    1  0.5496865E-006  0.7022049E+02  0.7818608E-02  0.1226150E+00
         21   -1    0    0  503  502  0.00000000000E+00  0.00000000000E+00  0.99202728307E+02  0.99202728307E+02  0.00000000000E+00 0. -1.
         21   -1    0    0  501  503 -0.00000000000E+00 -0.00000000000E+00 -0.31481266759E+03  0.31481266759E+03  0.00000000000E+00 0. -1.
        -13    1    1    2    0    0  0.47205571025E+02  0.59327401604E+01 -0.14053383535E+03  0.14836890976E+03  0.10566000000E+00 0.  1.
         13    1    1    2    0    0 -0.11505604116E+03  0.60564865699E+01 -0.33044214568E+02  0.11986035590E+03  0.10566000000E+00 0. -1.
          4    1    1    2  501    0  0.20869611059E+02  0.19586378750E+02 -0.75002747047E+02  0.80278135023E+02  0.00000000000E+00 0.  1.
         -4    1    1    2    0  502  0.46980859074E+02 -0.31575605480E+02  0.32970857679E+02  0.65507995213E+02  0.00000000000E+00 0. -1.
</event>
<event>
 6    1  0.5496865E-006  0.1139309E+03  0.7818608E-02  0.1143363E+00
         21   -1    0    0  501  502  0.00000000000E+00  0.00000000000E+00  0.15933486605E+04  0.15933486605E+04  0.00000000000E+00 0. -1.
         21   -1    0    0  502  503 -0.00000000000E+00 -0.00000000000E+00 -0.39464649558E+02  0.39464649558E+02  0.00000000000E+00 0.  1.
        -13    1    1    2    0    0  0.22048247145E+02  0.53655224622E+02  0.29729728459E+01  0.58084921133E+02  0.10566000000E+00 0.  1.
         13    1    1    2    0    0 -0.56329595576E+02 -0.13873592851E+03  0.70609866036E+03  0.72180053375E+03  0.10566000000E+00 0. -1.
          4    1    1    2  501    0 -0.13600504732E+01  0.52099793356E+02  0.65254856000E+03  0.65462650524E+03  0.00000000000E+00 0.  1.
         -4    1    1    2    0  503  0.35641398904E+02  0.32980910533E+02  0.19226381777E+03  0.19830134997E+03  0.00000000000E+00 0. -1.
</event>
<event>
 6    1  0.5496865E-006  0.2005144E+03  0.7818608E-02  0.1059784E+00
         21   -1    0    0  501  502  0.00000000000E+00  0.00000000000E+00  0.53329084266E+03  0.53329084266E+03  0.00000000000E+00 0. -1.
         21   -1    0    0  502  503 -0.00000000000E+00 -0.00000000000E+00 -0.41532390504E+03  0.41532390504E+03  0.00000000000E+00 0. -1.
        -13    1    1    2    0    0 -0.87304827608E+02 -0.14858342223E+03  0.87353517054E+02  0.19320925027E+03  0.10566000000E+00 0.  1.
         13    1    1    2    0    0  0.15946433958E+03  0.16914102691E+03  0.19258495194E+03  0.30187172352E+03  0.10566000000E+00 0. -1.
          4    1    1    2  501    0 -0.99257517522E+01 -0.74095240934E+01  0.14222240780E+03  0.14276076098E+03  0.00000000000E+00 0.  1.
         -4    1    1    2    0  503 -0.62233760216E+02 -0.13148080593E+02 -0.30419393918E+03  0.31077301293E+03  0.00000000000E+00 0. -1.
</event>
<event>
 6    1  0.5496865E-006  0.7453255E+02  0.7818608E-02  0.1223705E+00
         21   -1    0    0  503  502  0.00000000000E+00  0.00000000000E+00  0.47734683901E+02  0.47734683901E+02  0.00000000000E+00 0.  1.
         21   -1    0    0  501  503 -0.00000000000E+00 -0.00000000000E+00 -0.61813618514E+03  0.61813618514E+03  0.00000000000E+00 0. -1.
        -13    1    1    2    0    0 -0.67345619934E+02 -0.11659839671E+03 -0.15899171881E+03  0.20834825762E+03  0.10566000000E+00 0.  1.
         13    1    1    2    0    0  0.33224785074E+02  0.44993608783E+02 -0.13812191827E+03  0.14901673277E+03  0.10566000000E+00 0. -1.
          4    1    1    2  501    0  0.65095947934E+02  0.17959077114E+02 -0.20719359138E+03  0.21792015785E+03  0.00000000000E+00 0.  1.
         -4    1    1    2    0  502 -0.30975113074E+02  0.53645710813E+02 -0.66094272774E+02  0.90585720796E+02  0.00000000000E+00 0. -1.
</event>
<event>
 6    1  0.5496865E-006  0.7399113E+02  0.7818608E-02  0.1216629E+00
         21   -1    0    0  501  502  0.00000000000E+00  0.00000000000E+00  0.77112399112E+02  0.77112399112E+02  0.00000000000E+00 0. -1.
         21   -1    0    0  502  503 -0.00000000000E+00 -0.00000000000E+00 -0.21677093972E+03  0.21677093972E+03  0.00000000000E+00 0.  1.
        -13    1    1    2    0    0  0.73858864776E+02 -0.47536221866E+01 -0.22195875968E+02  0.77268343478E+02  0.10566000000E+00 0.  1.
         13    1    1    2    0    0 -0.83714887998E+02 -0.13807097135E+02 -0.14048907210E+03  0.16412193317E+03  0.10566000000E+00 0. -1.
          4    1    1    2  501    0 -0.54554966322E+01  0.11678714789E+02  0.31246963273E+02  0.33801294893E+02  0.00000000000E+00 0.  1.
         -4    1    1    2    0  503  0.15311519854E+02  0.68820045323E+01 -0.82205558136E+01  0.18691767292E+02  0.00000000000E+00 0. -1.
</event>
<event>
 6    1  0.5496865E-006  0.5188092E+02  0.7818608E-02  0.1284315E+00
         21   -1    0    0  503  502  0.00000000000E+00  0.00000000000E+00  0.18695565965E+03  0.18695565965E+03  0.00000000000E+00 0.  1.
         21   -1    0    0  501  503 -0.00000000000E+00 -0.00000000000E+00 -0.65940372783E+02  0.65940372783E+02  0.00000000000E+00 0. -1.
        -13    1    1    2    0    0 -0.39400236256E+02  0.50721838661E+02  0.55547614165E+02  0.84915441103E+02  0.10566000000E+00 0.  1.
         13    1    1    2    0    0  0.12560963698E+02 -0.37483477542E+02  0.96813071121E+02  0.10457327958E+03  0.10566000000E+00 0. -1.
          4    1    1    2  501    0  0.56543599226E+00 -0.12927473676E+02 -0.34590897152E+02  0.36931957155E+02  0.00000000000E+00 0.  1.
         -4    1    1    2    0  502  0.26273836566E+02 -0.31088744358E+00  0.32454987300E+01  0.26475354595E+02  0.00000000000E+00 0. -1.
</event>
<event>
 6    1  0.5496865E-006  0.2239546E+03  0.7818608E-02  0.1044849E+00
         21   -1    0    0  503  502  0.00000000000E+00  0.00000000000E+00  0.56332333765E+03  0.56332333765E+03  0.00000000000E+00 0. -1.
         21   -1    0    0  501  503 -0.00000000000E+00 -0.00000000000E+00 -0.13664661964E+03  0.13664661964E+03  0.00000000000E+00 0.  1.
        -13    1    1    2    0    0 -0.48157459058E+01  0.21317768328E+03  0.27175831657E+03  0.34542800964E+03  0.10566000000E+00 0.  1.
         13    1    1    2    0    0  0.22799947511E+02 -0.25016447562E+03  0.94853495775E+02  0.26851312685E+03  0.10566000000E+00 0. -1.
          4    1    1    2  501    0  0.12224986447E+02 -0.17796132122E+01  0.10275112173E+02  0.16068455028E+02  0.00000000000E+00 0.  1.
         -4    1    1    2    0  502 -0.30209188052E+02  0.38766405545E+02  0.49789793503E+02  0.69960365770E+02  0.00000000000E+00 0. -1.
</event>
<event>
 6    1  0.5496865E-006  0.1722293E+03  0.7818608E-02  0.1081043E+00
         21   -1    0    0  503  502  0.00000000000E+00  0.00000000000E+00  0.11190685855E+04  0.11190685855E+04  0.00000000000E+00 0. -1.
         21   -1    0    0  501  503 -0.00000000000E+00 -0.00000000000E+00 -0.80538570811E+02  0.80538570811E+02  0.00000000000E+00 0. -1.
        -13    1    1    2    0    0 -0.97064517985E+02  0.13350816282E+03  0.44424358088E+03  0.47391805252E+03  0.10566000000E+00 0.  1.
         13    1    1    2    0    0  0.57977283548E+02 -0.15253662314E+03  0.12289081120E+03  0.20428154456E+03  0.10566000000E+00 0. -1.
          4    1    1    2  501    0  0.16658606889E+02 -0.18822610829E+02 -0.17441670971E+02  0.30594309081E+02  0.00000000000E+00 0.  1.
         -4    1    1    2    0  502  0.22428627549E+02  0.37851071154E+02  0.48883729355E+03  0.49081325012E+03  0.00000000000E+00 0. -1.
</event>
<event>
 6    1  0.5496865E-006  0.6906837E+02  0.7818608E-02  0.1259089E+00
         21   -1    0    0  501  502  0.00000000000E+00  0.00000000000E+00  0.34228904661E+03  0.34228904661E+03  0.00000000000E+00 0. -1.
         21   -1    0    0  502  503 -0.00000000000E+00 -0.00000000000E+00 -0.15375913323E+03  0.15375913323E+03  0.00000000000E+00 0.  1.
        -13    1    1    2    0    0 -0.23320226316E+02  0.28716516853E+02 -0.48508112590E+02  0.61004257611E+02  0.10566000000E+00 0.  1.
         13    1    1    2    0    0  0.19143374427E+02 -0.88650535594E+02  0.18116569514E+03  0.20259912760E+03  0.10566000000E+00 0. -1.
          4    1    1    2  501    0  0.81947223656E+01 -0.76156239257E+01  0.13091825485E+03  0.13139536010E+03  0.00000000000E+00 0.  1.
         -4    1    1    2    0  503 -0.40178704763E+01  0.67549642667E+02 -0.75045924016E+02  0.10104943453E+03  0.00000000000E+00 0. -1.
</event>
<event>
 6    1  0.5496865E-006  0.5149279E+02  0.7818608E-02  0.1290174E+00
         21   -1    0    0  501  502  0.00000000000E+00  0.00000000000E+00  0.68853073175E+03  0.68853073175E+03  0.00000000000E+00 0. -1.
         21   -1    0    0  502  503 -0.00000000000E+00 -0.00000000000E+00 -0.95927999566E+03  0.95927999566E+03  0.00000000000E+00 0. -1.
        -13    1    1    2    0    0  0.45243726407E+02  0.89611490064E+01 -0.24479540868E+03  0.24910258980E+03  0.10566000000E+00 0.  1.
         13    1    1    2    0    0 -0.11847873372E+03  0.55606462606E+02  0.24105768226E+03  0.27429565503E+03  0.10566000000E+00 0. -1.
          4    1    1    2  501    0  0.30912198163E+02 -0.35740150043E+02  0.42645139448E+03  0.42906143403E+03  0.00000000000E+00 0.  1.
         -4    1    1    2    0  503  0.42322809150E+02 -0.28827461570E+02 -0.69346293197E+03  0.69535104855E+03  0.00000000000E+00 0. -1.
</event>
<event>
 6    1  0.5496865E-006  0.9686984E+02  0.7818608E-02  0.1169841E+00
         21   -1    0    0  501  502  0.00000000000E+00  0.00000000000E+00  0.38089887473E+03  0.38089887473E+03  0.00000000000E+00 0.  1.
         21   -1    0    0  502  503 -0.00000000000E+00 -0.00000000000E+00 -0.68790538569E+02  0.68790538569E+02  0.00000000000E+00 0.  1.
        -13    1    1    2    0    0  0.67025309231E+02  0.37149524408E+02 -0.51666974932E+01  0.76806153193E+02  0.10566000000E+00 0.  1.
         13    1    1    2    0    0 -0.72516090732E+02 -0.89711904921E+02  0.18845221555E+03  0.22095487777E+03  0.10566000000E+00 0. -1.
          4    1    1    2  501    0 -0.17556487202E+01  0.21786493630E+02  0.11561523828E+03  0.11766315026E+03  0.00000000000E+00 0.  1.
         -4    1    1    2    0  503  0.72464302210E+01  0.30775886883E+02  0.13207579822E+02  0.34265232075E+02  0.00000000000E+00 0. -1.
</event>
<event>
 6    1  0.5496865E-006  0.3213798E+02  0.7818608E-02  0.1388521E+00
         21   -1    0    0  503  502  0.00000000000E+00  0.00000000000E+00  0.25342049676E+02  0.25342049676E+02  0.00000000000E+00 0.  1.
         21   -1    0    0  501  503 -0.00000000000E+00 -0.00000000000E+00 -0.20060511410E+03  0.20060511410E+03  0.00000000000E+00 0. -1.
        -13    1    1    2    0    0 -0.27728972076E+01 -0.47629590322E+02 -0.27094890718E+02  0.54867213345E+02  0.10566000000E+00 0.  1.
         13    1    1    2    0    0  0.17247981805E+02  0.16486182446E+02 -0.66682808383E+02  0.70822984870E+02  0.10566000000E+00 0. -1.
          4    1    1    2  501    0 -0.14848016515E+02  0.17255604536E+02 -0.83200596661E+02  0.86258673576E+02  0.00000000000E+00 0.  1.
         -4    1    1    2    0  502  0.37293191747E+00  0.13887803340E+02  0.17152313413E+01  0.13998291981E+02  0.00000000000E+00 0. -1.
</event>
<event>
 6    1  0.5496865E-006  0.3886935E+02  0.7818608E-02  0.1345180E+00
         21   -1    0    0  503  502  0.00000000000E+00  0.00000000000E+00  0.12977831181E+03  0.12977831181E+03  0.00000000000E+00 0.  1.
         21   -1    0    0  501  503 -0.00000000000E+00 -0.00000000000E+00 -0.52168548775E+02  0.52168548775E+02  0.00000000000E+00 0.  1.
        -13    1    1    2    0    0  0.29410813367E+02 -0.22126624523E+02  0.42208353065E+02  0.56001247202E+02  0.10566000000E+00 0.  1.
         13    1    1    2    0    0 -0.57263099292E+00  0.53865861938E+02  0.40891663707E+02  0.67631341206E+02  0.10566000000E+00 0. -1.
          4    1    1    2  501    0 -0.69811405412E+01 -0.24317130339E+02 -0.18935763433E+02  0.31600985554E+02  0.00000000000E+00 0.  1.
         -4    1    1    2    0  502 -0.21857041833E+02 -0.74221070765E+01  0.13445509695E+02  0.26713286621E+02  0.00000000000E+00 0. -1.
</event>
<event>
 6    1  0.5496865E-006  0.1014912E+03  0.7818608E-02  0.1167108E+00
         21   -1    0    0  501  502  0.00000000000E+00  0.00000000000E+00  0.59462742906E+02  0.59462742906E+02  0.00000000000E+00 0. -1.
         21   -1    0    0  502  503 -0.00000000000E+00 -0.00000000000E+00 -0.67418904649E+03  0.67418904649E+03  0.00000000000E+00 0.  1.
        -13    1    1    2    0    0  0.76582051411E+02  0.61236241203E+01 -0.11731208636E+03  0.14022997590E+03  0.10566000000E+00 0.  1.
         13    1    1    2    0    0  0.31189104199E+02 -0.10533527438E+03 -0.92622754951E+02  0.14369156603E+03  0.10566000000E+00 0. -1.
          4    1    1    2  501    0 -0.12530683660E+03  0.84307417667E+02 -0.24158028293E+03  0.28490450518E+03  0.00000000000E+00 0.  1.
         -4    1    1    2    0  503  0.17535680990E+02  0.14904232591E+02 -0.16321117935E+03  0.16482574229E+03  0.00000000000E+00 0. -1.
</event>
<event>
 6    1  0.5496865E-006  0.4132550E+03  0.7818608E-02  0.9691525E-01
         21   -1    0    0  503  502  0.00000000000E+00  0.00000000000E+00  0.15420513810E+04  0.15420513810E+04  0.00000000000E+00 0.  1.
         21   -1    0    0  501  503 -0.00000000000E+00 -0.00000000000E+00 -0.38814264040E+03  0.38814264040E+03  0.00000000000E+00 0.  1.
        -13    1    1    2    0    0 -0.42980854550E+03  0.22200785133E+03  0.78220510599E+03  0.91971066692E+03  0.10566000000E+00 0.  1.
         13    1    1    2    0    0  0.27297379072E+03 -0.19286017362E+03  0.28101049178E+03  0.43666536918E+03  0.10566000000E+00 0. -1.
          4    1    1    2  501    0  0.16853361656E+03 -0.10870278621E+03 -0.19337245844E+03  0.27859070933E+03  0.00000000000E+00 0.  1.
         -4    1    1    2    0  502 -0.11698861779E+02  0.79555108500E+02  0.28406560129E+03  0.29522727599E+03  0.00000000000E+00 0. -1.
</event>
<event>
 6    1  0.5496865E-006  0.1066761E+03  0.7818608E-02  0.1153959E+00
         21   -1    0    0  501  502  0.00000000000E+00  0.00000000000E+00  0.52118703509E+03  0.52118703509E+03  0.00000000000E+00 0. -1.
         21   -1    0    0  502  503 -0.00000000000E+00 -0.00000000000E+00 -0.68057758816E+02  0.68057758816E+02  0.00000000000E+00 0.  1.
        -13    1    1    2    0    0  0.78449936749E+02  0.58678563689E+02  0.28149453801E+02  0.10193119898E+03  0.10566000000E+00 0.  1.
         13    1    1    2    0    0 -0.62114148347E+02 -0.10063108212E+03  0.15546273490E+03  0.19532909466E+03  0.10566000000E+00 0. -1.
          4    1    1    2  501    0 -0.15838707185E+02  0.24859108902E+02  0.27295481318E+03  0.27454174542E+03  0.00000000000E+00 0.  1.
         -4    1    1    2    0  503 -0.49708121763E+00  0.17093409534E+02 -0.34377256058E+01  0.17442754844E+02  0.00000000000E+00 0. -1.
</event>
<event>
 6    1  0.5496865E-006  0.2476205E+03  0.7818608E-02  0.1031633E+00
         21   -1    0    0  501  502  0.00000000000E+00  0.00000000000E+00  0.37528423004E+03  0.37528423004E+03  0.00000000000E+00 0. -1.
         21   -1    0    0  502  503 -0.00000000000E+00 -0.00000000000E+00 -0.35947276147E+03  0.35947276147E+03  0.00000000000E+00 0. -1.
        -13    1    1    2    0    0  0.17157399896E+03 -0.77290865398E+02 -0.72781232294E+02  0.20176380729E+03  0.10566000000E+00 0.  1.
         13    1    1    2    0    0 -0.31282033638E+03  0.10578151637E+02  0.57894391762E+02  0.31830839120E+03  0.10566000000E+00 0. -1.
          4    1    1    2  501    0  0.29375179003E+01 -0.22530208627E+02  0.44027536445E+02  0.49544558507E+02  0.00000000000E+00 0.  1.
         -4    1    1    2    0  503  0.13830881952E+03  0.89242922388E+02 -0.13329227347E+02  0.16514023451E+03  0.00000000000E+00 0. -1.
</event>
<event>
 6    1  0.5496865E-006  0.2091704E+03  0.7818608E-02  0.1054025E+00
         21   -1    0    0  501  502  0.00000000000E+00  0.00000000000E+00  0.42431056982E+03  0.42431056982E+03  0.00000000000E+00 0.  1.
         21   -1    0    0  502  503 -0.00000000000E+00 -0.00000000000E+00 -0.36689367598E+03  0.36689367598E+03  0.00000000000E+00 0.  1.
        -13    1    1    2    0    0  0.20077280121E+03 -0.25683400817E+02  0.54493491827E+02  0.20961609336E+03  0.10566000000E+00 0.  1.
         13    1    1    2    0    0 -0.20309603454E+03  0.11155716866E+02 -0.21181512222E+03  0.29366325346E+03  0.10566000000E+00 0. -1.
          4    1    1    2  501    0  0.14032426476E+02  0.79093988088E+01  0.24982757831E+03  0.25034633304E+03  0.00000000000E+00 0.  1.
         -4    1    1    2    0  503 -0.11709193142E+02  0.66182851417E+01 -0.35089054076E+02  0.37578565941E+02  0.00000000000E+00 0. -1.
</event>
<event>
 6    1  0.5496865E-006  0.2913956E+03  0.7818608E-02  0.1010922E+00
         21   -1    0    0  503  502  0.00000000000E+00  0.00000000000E+00  0.18566703341E+04  0.18566703341E+04  0.00000000000E+00 0.  1.
         21   -1    0    0  501  503 -0.00000000000E+00 -0.00000000000E+00 -0.13646289003E+03  0.13646289003E+03  0.00000000000E+00 0.  1.
        -13    1    1    2    0    0  0.30709056243E+03 -0.54485812009E+02  0.48250393820E+03  0.57452883199E+03  0.10566000000E+00 0.  1.
         13    1    1    2    0    0 -0.25883140970E+03  0.89267787004E+02  0.37596125678E+03  0.46509065160E+03  0.10566000000E+00 0. -1.
          4    1    1    2  501    0 -0.54265258706E+02 -0.24006457504E+02 -0.26641329310E+02  0.65044513463E+02  0.00000000000E+00 0.  1.
         -4    1    1    2    0  502  0.60061059753E+01 -0.10775517491E+02  0.88838357837E+03  0.88846922705E+03  0.00000000000E+00 0. -1.
</event>
<event>
 6    1  0.5496865E-006  0.1538984E+03  0.7818608E-02  0.1097329E+00
         21   -1    0    0  503  502  0.00000000000E+00  0.00000000000E+00  0.56538859545E+03  0.56538859545E+03  0.00000000000E+00 0.  1.
         21   -1    0    0  501  503 -0.00000000000E+00 -0.00000000000E+00 -0.77103031125E+03  0.77103031125E+03  0.00000000000E+00 0. -1.
        -13    1    1    2    0    0 -0.12766728932E+03  0.53055391171E+02  0.52226078230E+03  0.54025007837E+03  0.10566000000E+00 0.  1.
         13    1    1    2    0    0  0.11022159291E+03 -0.86783541087E+02 -0.47972754536E+03  0.49981867861E+03  0.10566000000E+00 0. -1.
          4    1    1    2  501    0  0.29558527053E+02  0.20331607830E+02 -0.26750249806E+03  0.26989751253E+03  0.00000000000E+00 0.  1.
         -4    1    1    2    0  502 -0.12112830641E+02  0.13396542086E+02  0.19327545330E+02  0.26452637194E+02  0.00000000000E+00 0. -1.
</event>
<event>
 6    1  0.5496865E-006  0.2207899E+02  0.7818608E-02  0.1482836E+00
         21   -1    0    0  503  502  0.00000000000E+00  0.00000000000E+00  0.20142642532E+03  0.20142642532E+03  0.00000000000E+00 0. -1.
         21   -1    0    0  501  503 -0.00000000000E+00 -0.00000000000E+00 -0.36218809334E+02  0.36218809334E+02  0.00000000000E+00 0. -1.
        -13    1    1    2    0    0 -0.14114532503E+02 -0.19356485348E+02  0.26195589923E+02  0.35498079501E+02  0.10566000000E+00 0.  1.
         13    1    1    2    0    0  0.24893074624E+02 -0.51668969352E+01 -0.17041569518E+02  0.30606996648E+02  0.10566000000E+00 0. -1.
          4    1    1    2  501    0 -0.36980100902E+01  0.14782164320E+02  0.21731208058E+00  0.15239254744E+02  0.00000000000E+00 0.  1.
         -4    1    1    2    0  502 -0.70805320312E+01  0.97412179632E+01  0.15583628350E+03  0.15630090376E+03  0.00000000000E+00 0. -1.
</event>
<event>
 6    1  0.5496865E-006  0.8625727E+02  0.7818608E-02  0.1191614E+00
         21   -1    0    0  503  502  0.00000000000E+00  0.00000000000E+00  0.58543854680E+02  0.58543854680E+02  0.00000000000E+00 0. -1.
         21   -1    0    0  501  503 -0.00000000000E+00 -0.00000000000E+00 -0.95799431421E+03  0.95799431421E+03  0.00000000000E+00 0.  1.
        -13    1    1    2    0    0 -0.77492848258E+01 -0.57552046021E+02 -0.10301023029E+03  0.11825146141E+03  0.10566000000E+00 0.  1.
         13    1    1    2    0    0 -0.20092575486E+02  0.42357938549E+02 -0.10836882702E+03  0.11807506248E+03  0.10566000000E+00 0. -1.
          4    1    1    2  501    0  0.97030701849E+02  0.59624866273E+02 -0.68862951918E+03  0.69798330673E+03  0.00000000000E+00 0.  1.
         -4    1    1    2    0  502 -0.69188841537E+02 -0.44430758801E+02  0.55811695579E+00  0.82228338274E+02  0.00000000000E+00 0. -1.
</event>
<event>
 6    1  0.5496865E-006  0.1591981E+03  0.7818608E-02  0.1092379E+00
         21   -1    0    0  503  502  0.00000000000E+00  0.00000000000E+00  0.43346070545E+03  0.43346070545E+03  0.00000000000E+00 0.  1.
         21   -1    0    0  501  503 -0.00000000000E+00 -0.00000000000E+00 -0.23745505778E+03  0.23745505778E+03  0.00000000000E+00 0. -1.
        -13    1    1    2    0    0 -0.14416973587E+03 -0.18731485532E+02  0.14732313464E+03  0.20697801443E+03  0.10566000000E+00 0.  1.
         13    1    1    2    0    0  0.24843474361E+03  0.10372377338E+03 -0.57066208103E+02  0.27519993872E+03  0.10566000000E+00 0. -1.
          4    1    1    2  501    0 -0.11596485441E+03 -0.78036081383E+02  0.83982763917E+02  0.16306618929E+03  0.00000000000E+00 0.  1.
         -4    1    1    2    0  502  0.11699846667E+02 -0.69562064671E+01  0.21765957217E+02  0.25671620791E+02  0.00000000000E+00 0. -1.
</event>
<event>
 6    1  0.5496865E-006  0.6305193E+02  0.7818608E-02  0.1246230E+00
         21   -1    0    0  501  502  0.00000000000E+00  0.00000000000E+00  0.10912534639E+03  0.10912534639E+03  0.00000000000E+00 0.  1.
         21   -1    0    0  502  503 -0.00000000000E+00 -0.00000000000E+00 -0.21564931926E+03  0.21564931926E+03  0.00000000000E+00 0.  1.
        -13    1    1    2    0    0  0.68567652257E+02  0.88986011338E+01 -0.11324495220E+03  0.13268435628E+03  0.10566000000E+00 0.  1.
         13    1    1    2    0    0 -0.55885061872E+02  0.31007007311E+02 -0.81651037674E+01  0.64430231463E+02  0.10566000000E+00 0. -1.
          4    1    1    2  501    0 -0.53750240999E+01 -0.15539141319E+02  0.67363918163E+02  0.69341569547E+02  0.00000000000E+00 0.  1.
         -4    1    1    2    0  503 -0.73075662860E+01 -0.24366467125E+02 -0.52477835056E+02  0.58318508360E+02  0.00000000000E+00 0. -1.
</event>
<event>
 6    1  0.5862533E-006  0.5768070E+02  0.7818608E-02  0.1280954E+00
         21   -1    0    0  503  502  0.00000000000E+00  0.00000000000E+00  0.42068816914E+03  0.42068816914E+03  0.00000000000E+00 0.  1.
         21   -1    0    0  501  503 -0.00000000000E+00 -0.00000000000E+00 -0.58197042102E+03  0.58197042102E+03  0.00000000000E+00 0. -1.
        -13    1    1    2    0    0 -0.42494220226E+02 -0.61539748202E+02  0.33001432123E+03  0.33838197757E+03  0.10566000000E+00 0.  1.
         13    1    1    2    0    0  0.91538905606E+02  0.68280523566E+02 -0.37674556201E+03  0.39367350786E+03  0.10566000000E+00 0. -1.
          4    1    1    2  501    0 -0.50336449103E+02 -0.47908353595E+02 -0.18018233637E+03  0.19311820938E+03  0.00000000000E+00 0.  1.
         -4    1    1    2    0  502  0.12917637222E+01  0.41167578231E+02  0.65631325266E+02  0.77484895348E+02  0.00000000000E+00 0. -1.
</event>
<event>
 6    1  0.5496865E-006  0.1225628E+03  0.7818608E-02  0.1131833E+00
         21   -1    0    0  501  502  0.00000000000E+00  0.00000000000E+00  0.41174001445E+03  0.41174001445E+03  0.00000000000E+00 0. -1.
         21   -1    0    0  502  503 -0.00000000000E+00 -0.00000000000E+00 -0.11524018329E+03  0.11524018329E+03  0.00000000000E+00 0.  1.
        -13    1    1    2    0    0 -0.62481488635E+01  0.11955695022E+03 -0.41074581104E+02  0.12657028122E+03  0.10566000000E+00 0.  1.
         13    1    1    2    0    0  0.31301076359E+02 -0.11901127278E+03  0.25105276317E+03  0.27959066774E+03  0.10566000000E+00 0. -1.
          4    1    1    2  501    0 -0.13988974156E+02 -0.31072106322E+01  0.10122862853E+03  0.10223786671E+03  0.00000000000E+00 0.  1.
         -4    1    1    2    0  503 -0.11063953339E+02  0.25615331894E+01 -0.14706979432E+02  0.18581382074E+02  0.00000000000E+00 0. -1.
</event>
<event>
 6    1  0.5496865E-006  0.1671448E+03  0.7818608E-02  0.1085333E+00
         21   -1    0    0  503  502  0.00000000000E+00  0.00000000000E+00  0.46063008303E+03  0.46063008303E+03  0.00000000000E+00 0.  1.
         21   -1    0    0  501  503 -0.00000000000E+00 -0.00000000000E+00 -0.10470148627E+03  0.10470148627E+03  0.00000000000E+00 0. -1.
        -13    1    1    2    0    0 -0.98133081941E+02 -0.12016978613E+03  0.66352154698E+02  0.16874092232E+03  0.10566000000E+00 0.  1.
         13    1    1    2    0    0  0.13242478576E+03  0.12537397672E+03  0.16007500409E+03  0.24264990423E+03  0.10566000000E+00 0. -1.
          4    1    1    2  501    0 -0.20430205945E+02  0.63246759829E+01 -0.17486265213E+01  0.21458157795E+02  0.00000000000E+00 0.  1.
         -4    1    1    2    0  502 -0.13861497877E+02 -0.11528866572E+02  0.13125006449E+03  0.13248258495E+03  0.00000000000E+00 0. -1.
</event>
<event>
 6    1  0.5496865E-006  0.9496631E+02  0.7818608E-02  0.1173164E+00
         21   -1    0    0  501  502  0.00000000000E+00  0.00000000000E+00  0.10718832794E+03  0.10718832794E+03  0.00000000000E+00 0.  1.
         21   -1    0    0  502  503 -0.00000000000E+00 -0.00000000000E+00 -0.20782810867E+03  0.20782810867E+03  0.00000000000E+00 0. -1.
        -13    1    1    2    0    0  0.10618120655E+03  0.19230315816E+01  0.49384984719E+02  0.11711974451E+03  0.10566000000E+00 0.  1.
         13    1    1    2    0    0 -0.85607790917E+02 -0.61995315229E+01 -0.12922192694E+03  0.15513041488E+03  0.10566000000E+00 0. -1.
          4    1    1    2  501    0 -0.11299060703E+02 -0.10112237186E+02  0.82225693161E+00  0.15185592518E+02  0.00000000000E+00 0.  1.
         -4    1    1    2    0  503 -0.92743549309E+01  0.14388737127E+02 -0.21625095436E+02  0.27580684693E+02  0.00000000000E+00 0. -1.
</event>
<event>
 6    1  0.5496865E-006  0.2389251E+02  0.7818608E-02  0.1479469E+00
         21   -1    0    0  503  502  0.00000000000E+00  0.00000000000E+00  0.27442116846E+03  0.27442116846E+03  0.00000000000E+00 0.  1.
         21   -1    0    0  501  503 -0.00000000000E+00 -0.00000000000E+00 -0.13577984281E+02  0.13577984281E+02  0.00000000000E+00 0. -1.
        -13    1    1    2    0    0  0.36894773124E+02 -0.75213380671E+01  0.15962751486E+03  0.16400838233E+03  0.10566000000E+00 0.  1.
         13    1    1    2    0    0 -0.33260200839E+01  0.13652551479E+02  0.77756239232E+01  0.16060076679E+02  0.10566000000E+00 0. -1.
          4    1    1    2  501    0 -0.12478777450E+02 -0.13416180440E+02  0.86643273290E+01  0.20267815677E+02  0.00000000000E+00 0.  1.
         -4    1    1    2    0  502 -0.21089975590E+02  0.72849670278E+01  0.84775718069E+02  0.87662878056E+02  0.00000000000E+00 0. -1.
</event>
<event>
 6    1  0.5496865E-006  0.7245439E+02  0.7818608E-02  0.1220431E+00
         21   -1    0    0  501  502  0.00000000000E+00  0.00000000000E+00  0.22945289027E+03  0.22945289027E+03  0.00000000000E+00 0. -1.
         21   -1    0    0  502  503 -0.00000000000E+00 -0.00000000000E+00 -0.94054642324E+02  0.94054642324E+02  0.00000000000E+00 0. -1.
        -13    1    1    2    0    0 -0.50002495448E+02  0.64678352467E+02  0.39233688020E+02  0.90679833858E+02  0.10566000000E+00 0.  1.
         13    1    1    2    0    0  0.67190207208E+02 -0.21120939801E+02  0.65539307959E+02  0.96208264170E+02  0.10566000000E+00 0. -1.
          4    1    1    2  501    0 -0.17234030375E+02 -0.32581826088E+02  0.78914724190E+02  0.87098340329E+02  0.00000000000E+00 0.  1.
         -4    1    1    2    0  503  0.46318615647E-01 -0.10975586578E+02 -0.48289472227E+02  0.49521094233E+02  0.00000000000E+00 0. -1.
</event>
<event>
 6    1  0.5496865E-006  0.1080997E+03  0.7818608E-02  0.1151808E+00
         21   -1    0    0  503  502  0.00000000000E+00  0.00000000000E+00  0.59572635409E+03  0.59572635409E+03  0.00000000000E+00 0.  1.
         21   -1    0    0  501  503 -0.00000000000E+00 -0.00000000000E+00 -0.11131110431E+03  0.11131110431E+03  0.00000000000E+00 0. -1.
        -13    1    1    2    0    0  0.85175289773E+02  0.31046239099E+02  0.41061599123E+03  0.42050469958E+03  0.10566000000E+00 0.  1.
         13    1    1    2    0    0 -0.70317087857E+02 -0.12865784685E+03  0.35439072775E+02  0.15084188226E+03  0.10566000000E+00 0. -1.
          4    1    1    2  501    0 -0.76916476143E+01  0.55727097248E+02 -0.23231052165E+02  0.60863392900E+02  0.00000000000E+00 0.  1.
         -4    1    1    2    0  502 -0.71665543013E+01  0.41884510504E+02  0.61591237938E+02  0.74827483663E+02  0.00000000000E+00 0. -1.
</event>
<event>
 6    1  0.5496865E-006  0.1098375E+03  0.7818608E-02  0.1149231E+00
         21   -1    0    0  501  502  0.00000000000E+00  0.00000000000E+00  0.11529596864E+03  0.11529596864E+03  0.00000000000E+00 0. -1.
         21   -1    0    0  502  503 -0.00000000000E+00 -0.00000000000E+00 -0.46641337158E+03  0.46641337158E+03  0.00000000000E+00 0.  1.
        -13    1    1    2    0    0 -0.11803290878E+03  0.25626926211E+02 -0.29271112207E+03  0.31665173148E+03  0.10566000000E+00 0.  1.
         13    1    1    2    0    0  0.61764860728E+02 -0.86862441676E+02 -0.66234985086E+01  0.10678887438E+03  0.10566000000E+00 0. -1.
          4    1    1    2  501    0  0.31122362138E+02  0.21829132463E+02  0.40052588125E+02  0.55220668818E+02  0.00000000000E+00 0.  1.
         -4    1    1    2    0  503  0.25145685916E+02  0.39406383002E+02 -0.91835370483E+02  0.10304806555E+03  0.00000000000E+00 0. -1.
</event>
<event>
 6    1  0.5496865E-006  0.5618025E+02  0.7818608E-02  0.1268486E+00
         21   -1    0    0  501  502  0.00000000000E+00  0.00000000000E+00  0.24218854788E+03  0.24218854788E+03  0.00000000000E+00 0. -1.
         21   -1    0    0  502  503 -0.00000000000E+00 -0.00000000000E+00 -0.82443880977E+02  0.82443880977E+02  0.00000000000E+00 0. -1.
        -13    1    1    2    0    0  0.52209374206E+02  0.62150201687E+01  0.12254820664E+03  0.13335111303E+03  0.10566000000E+00 0.  1.
         13    1    1    2    0    0 -0.61203167184E+02  0.15996802790E+02  0.88043532566E+02  0.10841309959E+03  0.10566000000E+00 0. -1.
          4    1    1    2  501    0 -0.21924550952E+01 -0.20731642696E+02  0.84591395427E+01  0.22498109032E+02  0.00000000000E+00 0.  1.
         -4    1    1    2    0  503  0.11186248073E+02 -0.14801802636E+01 -0.59306211849E+02  0.60370107201E+02  0.00000000000E+00 0. -1.
</event>
<event>
 6    1  0.5496865E-006  0.8325941E+02  0.7818608E-02  0.1195684E+00
         21   -1    0    0  503  502  0.00000000000E+00  0.00000000000E+00  0.67239779799E+02  0.67239779799E+02  0.00000000000E+00 0.  1.
         21   -1    0    0  501  503 -0.00000000000E+00 -0.00000000000E+00 -0.71600014962E+03  0.71600014962E+03  0.00000000000E+00 0.  1.
        -13    1    1    2    0    0 -0.42357965300E+02 -0.10566989784E+03 -0.90709795725E+02  0.14556305417E+03  0.10566000000E+00 0.  1.
         13    1    1    2    0    0  0.34795834273E+02  0.56924069322E+02 -0.45471167320E+01  0.66871422787E+02  0.10566000000E+00 0. -1.
          4    1    1    2  501    0  0.12160930548E+02  0.34004215967E+02 -0.55417321361E+03  0.55534865231E+03  0.00000000000E+00 0.  1.
         -4    1    1    2    0  502 -0.45987995201E+01  0.14741612550E+02  0.66975625015E+00  0.15456800155E+02  0.00000000000E+00 0. -1.
</event>
<event>
 6    1  0.5496865E-006  0.1779862E+03  0.7818608E-02  0.1076374E+00
         21   -1    0    0  501  502  0.00000000000E+00  0.00000000000E+00  0.22561755527E+03  0.22561755527E+03  0.00000000000E+00 0. -1.
         21   -1    0    0  502  503 -0.00000000000E+00 -0.00000000000E+00 -0.27666292470E+03  0.27666292470E+03  0.00000000000E+00 0. -1.
        -13    1    1    2    0    0 -0.12286083568E+03 -0.77410879276E+02 -0.62597172421E+02  0.15813173728E+03  0.10566000000E+00 0.  1.
         13    1    1    2    0    0  0.14663686199E+03  0.15313403952E+03  0.73099032406E+02  0.22426743646E+03  0.10566000000E+00 0. -1.
          4    1    1    2  501    0 -0.17090292254E+02 -0.15616848632E+02  0.10833567165E+02  0.25560325272E+02  0.00000000000E+00 0.  1.
         -4    1    1    2    0  503 -0.66857340580E+01 -0.60106311612E+02 -0.72380796574E+02  0.94320980954E+02  0.00000000000E+00 0. -1.
</event>
<event>
 6    1  0.5496865E-006  0.3089452E+02  0.7818608E-02  0.1454202E+00
         21   -1    0    0  501  502  0.00000000000E+00  0.00000000000E+00  0.34366438674E+03  0.34366438674E+03  0.00000000000E+00 0. -1.
         21   -1    0    0  502  503 -0.00000000000E+00 -0.00000000000E+00 -0.30903262143E+02  0.30903262143E+02  0.00000000000E+00 0.  1.
        -13    1    1    2    0    0  0.53892117935E+02  0.27608073157E+02  0.18159913761E+02  0.63216767640E+02  0.10566000000E+00 0.  1.
         13    1    1    2    0    0 -0.12185038045E+02 -0.18128058422E+02  0.94515159688E+02  0.97006330872E+02  0.10566000000E+00 0. -1.
          4    1    1    2  501    0  0.94039886062E+01  0.50071676504E+01  0.10405136189E+03  0.10459537581E+03  0.00000000000E+00 0.  1.
         -4    1    1    2    0  503 -0.51111068496E+02 -0.14487182386E+02  0.96034689259E+02  0.10974917456E+03  0.00000000000E+00 0. -1.
</event>
<event>
 6    1  0.5496865E-006  0.3060467E+03  0.7818608E-02  0.1004840E+00
         21   -1    0    0  501  502  0.00000000000E+00  0.00000000000E+00  0.44757416890E+03  0.44757416890E+03  0.00000000000E+00 0. -1.
         21   -1    0    0  502  503 -0.00000000000E+00 -0.00000000000E+00 -0.32536753053E+03  0.32536753053E+03  0.00000000000E+00 0.  1.
        -13    1    1    2    0    0 -0.32253841303E+03 -0.60079073100E+02  0.32473010272E+02  0.32968929383E+03  0.10566000000E+00 0.  1.
         13    1    1    2    0    0  0.28976208133E+03 -0.36071802554E+02  0.72305071188E+02  0.30081767434E+03  0.10566000000E+00 0. -1.
          4    1    1    2  501    0  0.22798683380E+02  0.72107921052E+00  0.37984877109E+02  0.44307457703E+02  0.00000000000E+00 0.  1.
         -4    1    1    2    0  503  0.99776483224E+01  0.95429796443E+02 -0.20556320205E+02  0.98127273557E+02  0.00000000000E+00 0. -1.
</event>
<event>
 6    1  0.5496865E-006  0.3859496E+02  0.7818608E-02  0.1385849E+00
         21   -1    0    0  501  502  0.00000000000E+00  0.00000000000E+00  0.10044413157E+03  0.10044413157E+03  0.00000000000E+00 0.  1.
         21   -1    0    0  502  503 -0.00000000000E+00 -0.00000000000E+00 -0.14808368003E+03  0.14808368003E+03  0.00000000000E+00 0. -1.
        -13    1    1    2    0    0 -0.15514125816E+02 -0.32612182627E+01 -0.12113021943E+02  0.19951443783E+02  0.10566000000E+00 0.  1.
         13    1    1    2    0    0 -0.98520528000E+01 -0.38828554324E+02 -0.11333524240E+03  0.12020652191E+03  0.10566000000E+00 0. -1.
          4    1    1    2  501    0  0.14724473145E+02  0.12662254651E+02  0.74399266534E+02  0.76892091031E+02  0.00000000000E+00 0.  1.
         -4    1    1    2    0  503  0.10641705471E+02  0.29427517936E+02  0.34094493459E+01  0.31477754876E+02  0.00000000000E+00 0. -1.
</event>
<event>
 6    1  0.5496865E-006  0.6135434E+02  0.7818608E-02  0.1251422E+00
         21   -1    0    0  501  502  0.00000000000E+00  0.00000000000E+00  0.18628295951E+02  0.18628295951E+02  0.00000000000E+00 0.  1.
         21   -1    0    0  502  503 -0.00000000000E+00 -0.00000000000E+00 -0.35387829662E+03  0.35387829662E+03  0.00000000000E+00 0. -1.
        -13    1    1    2    0    0 -0.55572694662E+02 -0.26161476575E+02 -0.11519744439E+03  0.13054964423E+03  0.10566000000E+00 0.  1.
         13    1    1    2    0    0  0.53801988251E+02  0.29433005981E+02 -0.13802165443E+03  0.15103292368E+03  0.10566000000E+00 0. -1.
          4    1    1    2  501    0 -0.41193989254E+01 -0.17714053034E+02 -0.20309355954E+02  0.27262191065E+02  0.00000000000E+00 0.  1.
         -4    1    1    2    0  503  0.58901053360E+01  0.14442523628E+02 -0.61721545891E+02  0.63661833596E+02  0.00000000000E+00 0. -1.
</event>
<event>
 6    1  0.5496865E-006  0.1027381E+03  0.7818608E-02  0.1160103E+00
         21   -1    0    0  501  502  0.00000000000E+00  0.00000000000E+00  0.14063747755E+03  0.14063747755E+03  0.00000000000E+00 0. -1.
         21   -1    0    0  502  503 -0.00000000000E+00 -0.00000000000E+00 -0.44132616014E+03  0.44132616014E+03  0.00000000000E+00 0.  1.
        -13    1    1    2    0    0  0.11566071645E+03  0.76124528860E+02 -0.29458329260E+03  0.32550218535E+03  0.10566000000E+00 0.  1.
         13    1    1    2    0    0 -0.53050837576E+02 -0.79491307368E+02 -0.91614050480E+02  0.13238732841E+03  0.10566000000E+00 0. -1.
          4    1    1    2  501    0  0.88565020246E+01  0.14043762114E+02  0.23985227069E+02  0.29171150131E+02  0.00000000000E+00 0.  1.
         -4    1    1    2    0  503 -0.71466380901E+02 -0.10676983606E+02  0.61523433414E+02  0.94902973805E+02  0.00000000000E+00 0. -1.
</event>
<event>
 6    1  0.5496865E-006  0.1104549E+03  0.7818608E-02  0.1148328E+00
         21   -1    0    0  503  502  0.00000000000E+00  0.00000000000E+00  0.59827953503E+02  0.59827953503E+02  0.00000000000E+00 0.  1.
         21   -1    0    0  501  503 -0.00000000000E+00 -0.00000000000E+00 -0.39286664171E+03  0.39286664171E+03  0.00000000000E+00 0. -1.
        -13    1    1    2    0    0 -0.36687140847E+02  0.10175394577E+03 -0.84832219429E+02  0.13746391672E+03  0.10566000000E+00 0.  1.
         13    1    1    2    0    0  0.40989575076E+02 -0.11025620067E+03 -0.21660543627E+03  0.24648428193E+03  0.10566000000E+00 0. -1.
          4    1    1    2  501    0  0.48146482099E+01  0.14454058066E+02 -0.47270894881E+02  0.49665260845E+02  0.00000000000E+00 0.  1.
         -4    1    1    2    0  502 -0.91170824382E+01 -0.59518031675E+01  0.15669862377E+02  0.19081135712E+02  0.00000000000E+00 0. -1.
</event>
<event>
 6    1  0.5496865E-006  0.7602813E+02  0.7818608E-02  0.1215290E+00
         21   -1    0    0  503  502  0.00000000000E+00  0.00000000000E+00  0.26324151343E+03  0.26324151343E+03  0.00000000000E+00 0. -1.
         21   -1    0    0  501  503 -0.00000000000E+00 -0.00000000000E+00 -0.60513524242E+03  0.60513524242E+03  0.00000000000E+00 0.  1.
        -13    1    1    2    0    0  0.63482001543E+02  0.88318655005E+02 -0.39977064544E+02  0.11588065497E+03  0.10566000000E+00 0.  1.
         13    1    1    2    0    0 -0.54860546383E+02  0.48449412347E+02 -0.26223357602E+03  0.27225628489E+03  0.10566000000E+00 0. -1.
          4    1    1    2  501    0  0.56959840317E+01 -0.74204853406E+02 -0.24974182810E+03  0.26059505982E+03  0.00000000000E+00 0.  1.
         -4    1    1    2    0  502 -0.14317439191E+02 -0.62563213946E+02  0.21005873966E+03  0.21964475617E+03  0.00000000000E+00 0. -1.
</event>
<event>
 6    1  0.5496865E-006  0.6637872E+02  0.7818608E-02  0.1267471E+00
         21   -1    0    0  501  502  0.00000000000E+00  0.00000000000E+00  0.17139024989E+03  0.17139024989E+03  0.00000000000E+00 0. -1.
         21   -1    0    0  502  503 -0.00000000000E+00 -0.00000000000E+00 -0.25907419788E+03  0.25907419788E+03  0.00000000000E+00 0.  1.
        -13    1    1    2    0    0 -0.21096573290E+02 -0.27825738066E+02 -0.11129681325E+03  0.11664616971E+03  0.10566000000E+00 0.  1.
         13    1    1    2    0    0  0.73193097898E+02  0.18635063147E+02  0.10023058834E+03  0.12550170182E+03  0.10566000000E+00 0. -1.
          4    1    1    2  501    0  0.13183217323E+02 -0.13873938281E+01  0.46613693982E+02  0.48461928844E+02  0.00000000000E+00 0.  1.
         -4    1    1    2    0  503 -0.65279741931E+02  0.10578068747E+02 -0.12323141706E+03  0.13985464739E+03  0.00000000000E+00 0. -1.
</event>
<event>
 6    1  0.5496865E-006  0.5320884E+02  0.7818608E-02  0.1279248E+00
         21   -1    0    0  501  502  0.00000000000E+00  0.00000000000E+00  0.17840597699E+03  0.17840597699E+03  0.00000000000E+00 0.  1.
         21   -1    0    0  502  503 -0.00000000000E+00 -0.00000000000E+00 -0.45731402446E+02  0.45731402446E+02  0.00000000000E+00 0. -1.
        -13    1    1    2    0    0 -0.21583710931E+02 -0.51948216424E+02  0.93362075174E+02  0.10899982574E+03  0.10566000000E+00 0.  1.
         13    1    1    2    0    0  0.19441602246E+02  0.49532761039E+02  0.60689676025E+02  0.80713804606E+02  0.10566000000E+00 0. -1.
          4    1    1    2  501    0  0.10791249556E+02  0.80767541286E+01 -0.37531798020E+01  0.13991832720E+02  0.00000000000E+00 0.  1.
         -4    1    1    2    0  503 -0.86491408712E+01 -0.56612987435E+01 -0.17623996854E+02  0.20431916366E+02  0.00000000000E+00 0. -1.
</event>
<event>
 6    1  0.5496865E-006  0.7358339E+02  0.7818608E-02  0.1217628E+00
         21   -1    0    0  503  502  0.00000000000E+00  0.00000000000E+00  0.94106393531E+02  0.94106393531E+02  0.00000000000E+00 0.  1.
         21   -1    0    0  501  503 -0.00000000000E+00 -0.00000000000E+00 -0.17674923334E+03  0.17674923334E+03  0.00000000000E+00 0. -1.
        -13    1    1    2    0    0  0.74387324024E+02 -0.24612277525E+02  0.31916767745E+02  0.84604547205E+02  0.10566000000E+00 0.  1.
         13    1    1    2    0    0 -0.79081094511E+02 -0.20458968542E+02 -0.10629610283E+03  0.13405693396E+03  0.10566000000E+00 0. -1.
          4    1    1    2  501    0  0.93025431732E+01  0.80081735530E+01  0.39576780727E+01  0.12896951922E+02  0.00000000000E+00 0.  1.
         -4    1    1    2    0  502 -0.46087726864E+01  0.37063072514E+02 -0.12221182794E+02  0.39297193777E+02  0.00000000000E+00 0. -1.
</event>
<event>
 6    1  0.5496865E-006  0.1360382E+03  0.7818608E-02  0.1115761E+00
         21   -1    0    0  501  502  0.00000000000E+00  0.00000000000E+00  0.12590797888E+03  0.12590797888E+03  0.00000000000E+00 0.  1.
         21   -1    0    0  502  503 -0.00000000000E+00 -0.00000000000E+00 -0.10499563682E+04  0.10499563682E+04  0.00000000000E+00 0.  1.
        -13    1    1    2    0    0  0.58688773090E+02  0.14390228902E+03 -0.19577639417E+03  0.24996129410E+03  0.10566000000E+00 0.  1.
         13    1    1    2    0    0  0.40438970281E+02 -0.12118227588E+03 -0.60660255516E+02  0.14142182316E+03  0.10566000000E+00 0. -1.
          4    1    1    2  501    0 -0.11543039845E+03 -0.19937748524E+02 -0.47606019444E+00  0.11714058791E+03  0.00000000000E+00 0.  1.
         -4    1    1    2    0  503  0.16302655079E+02 -0.27822646164E+01 -0.66713567942E+03  0.66734064189E+03  0.00000000000E+00 0. -1.
</event>
<event>
 6    1  0.5496865E-006  0.1595052E+03  0.7818608E-02  0.1101113E+00
         21   -1    0    0  501  502  0.00000000000E+00  0.00000000000E+00  0.17529452822E+04  0.17529452822E+04  0.00000000000E+00 0.  1.
         21   -1    0    0  502  503 -0.00000000000E+00 -0.00000000000E+00 -0.26322490267E+03  0.26322490267E+03  0.00000000000E+00 0.  1.
        -13    1    1    2    0    0 -0.95462695839E+02  0.27303902880E+03  0.23003063069E+02  0.29015959336E+03  0.10566000000E+00 0.  1.
         13    1    1    2    0    0  0.22146806936E+02 -0.11803416741E+03 -0.11251867818E+02  0.12061990477E+03  0.10566000000E+00 0. -1.
          4    1    1    2  501    0  0.62892944690E+02 -0.14244235082E+03  0.15366310653E+04  0.15445000410E+04  0.00000000000E+00 0.  1.
         -4    1    1    2    0  503  0.10422944212E+02 -0.12562510574E+02 -0.58661881091E+02  0.60890645678E+02  0.00000000000E+00 0. -1.
</event>
<event>
 6    1  0.5496865E-006  0.2131371E+03  0.7818608E-02  0.1051485E+00
         21   -1    0    0  501  502  0.00000000000E+00  0.00000000000E+00  0.31844701477E+03  0.31844701477E+03  0.00000000000E+00 0.  1.
         21   -1    0    0  502  503 -0.00000000000E+00 -0.00000000000E+00 -0.38358860060E+03  0.38358860060E+03  0.00000000000E+00 0. -1.
        -13    1    1    2    0    0 -0.10956977156E+03 -0.19992852408E+03  0.11823076000E+03  0.25681797709E+03  0.10566000000E+00 0.  1.
         13    1    1    2    0    0  0.53680232553E+02  0.19435693088E+03  0.40385574642E+02  0.20563849287E+03  0.10566000000E+00 0. -1.
          4    1    1    2  501    0  0.50876214872E+02 -0.18737627598E+02 -0.10408311686E+03  0.11735750143E+03  0.00000000000E+00 0.  1.
         -4    1    1    2    0  503  0.50133241354E+01  0.24309220802E+02 -0.11967480362E+03  0.12222164398E+03  0.00000000000E+00 0. -1.
</event>
<event>
 6    1  0.5496865E-006  0.3053590E+03  0.7818608E-02  0.1005118E+00
         21   -1    0    0  501  502  0.00000000000E+00  0.00000000000E+00  0.29092824681E+03  0.29092824681E+03  0.00000000000E+00 0. -1.
         21   -1    0    0  502  503 -0.00000000000E+00 -0.00000000000E+00 -0.96509415686E+03  0.96509415686E+03  0.00000000000E+00 0.  1.
        -13    1    1    2    0    0  0.91409403659E+02  0.26666442357E+03 -0.81274709545E+03  0.86024615442E+03  0.10566000000E+00 0.  1.
         13    1    1    2    0    0 -0.89993457900E+02 -0.29352313920E+03  0.12899781643E+03  0.33300916432E+03  0.10566000000E+00 0. -1.
          4    1    1    2  501    0 -0.13635031469E+02  0.29231699378E+01  0.27246759187E+02  0.30607922044E+02  0.00000000000E+00 0.  1.
         -4    1    1    2    0  503  0.12219085710E+02  0.23935545693E+02 -0.17663390226E+02  0.32159162885E+02  0.00000000000E+00 0. -1.
</event>
<event>
 6    1  0.5496865E-006  0.4490720E+02  0.7818608E-02  0.1322687E+00
         21   -1    0    0  503  502  0.00000000000E+00  0.00000000000E+00  0.51376253724E+02  0.51376253724E+02  0.00000000000E+00 0.  1.
         21   -1    0    0  501  503 -0.00000000000E+00 -0.00000000000E+00 -0.26574261833E+03  0.26574261833E+03  0.00000000000E+00 0. -1.
        -13    1    1    2    0    0  0.12434785090E+02  0.22427314454E+02  0.12820600393E+02  0.28670320409E+02  0.10566000000E+00 0.  1.
         13    1    1    2    0    0  0.39787967042E+02 -0.40037149896E+00 -0.96777523892E+02  0.10463815228E+03  0.10566000000E+00 0. -1.
          4    1    1    2  501    0 -0.40311661604E+02 -0.27763312140E+02 -0.15133758313E+03  0.15905626561E+03  0.00000000000E+00 0.  1.
         -4    1    1    2    0  502 -0.11911090528E+02  0.57363691848E+01  0.20928142025E+02  0.24754133748E+02  0.00000000000E+00 0. -1.
</event>
<event>
 6    1  0.5496865E-006  0.2450821E+02  0.7818608E-02  0.1455353E+00
         21   -1    0    0  503  502  0.00000000000E+00  0.00000000000E+00  0.25604644916E+02  0.25604644916E+02  0.00000000000E+00 0. -1.
         21   -1    0    0  501  503 -0.00000000000E+00 -0.00000000000E+00 -0.71653032801E+02  0.71653032801E+02  0.00000000000E+00 0.  1.
        -13    1    1    2    0    0  0.25988369176E+02  0.14495188052E+01 -0.19299314277E+02  0.32403258058E+02  0.10566000000E+00 0.  1.
         13    1    1    2    0    0 -0.17781526124E+02 -0.20272686898E+02 -0.26375988416E+02  0.37720928333E+02  0.10566000000E+00 0. -1.
          4    1    1    2  501    0 -0.25761540073E+01  0.97635901741E+01  0.85463536322E+01  0.13228923727E+02  0.00000000000E+00 0.  1.
         -4    1    1    2    0  502 -0.56306890442E+01  0.90595779190E+01 -0.89194388237E+01  0.13904567599E+02  0.00000000000E+00 0. -1.
</event>
<event>
 6    1  0.5496865E-006  0.1270859E+03  0.7818608E-02  0.1126197E+00
         21   -1    0    0  503  502  0.00000000000E+00  0.00000000000E+00  0.65266093139E+03  0.65266093139E+03  0.00000000000E+00 0.  1.
         21   -1    0    0  501  503 -0.00000000000E+00 -0.00000000000E+00 -0.63041544174E+02  0.63041544174E+02  0.00000000000E+00 0. -1.
        -13    1    1    2    0    0 -0.82937271783E+02  0.10066674976E+03  0.30104051965E+03  0.32808198852E+03  0.10566000000E+00 0.  1.
         13    1    1    2    0    0  0.10990596509E+03 -0.68327690196E+02  0.26862726396E+03  0.29817547269E+03  0.10566000000E+00 0. -1.
          4    1    1    2  501    0 -0.10608755893E+02  0.12961817958E+02 -0.20552445532E+02  0.26513344635E+02  0.00000000000E+00 0.  1.
         -4    1    1    2    0  502 -0.16359937412E+02 -0.45300877523E+02  0.40504049141E+02  0.62931669716E+02  0.00000000000E+00 0. -1.
</event>
<event>
 6    1  0.5496865E-006  0.1133270E+03  0.7818608E-02  0.1144212E+00
         21   -1    0    0  503  502  0.00000000000E+00  0.00000000000E+00  0.14963639142E+04  0.14963639142E+04  0.00000000000E+00 0. -1.
         21   -1    0    0  501  503 -0.00000000000E+00 -0.00000000000E+00 -0.55113106776E+03  0.55113106776E+03  0.00000000000E+00 0. -1.
        -13    1    1    2    0    0 -0.98039365068E+02  0.15310649696E+03  0.51006080549E+03  0.54149363152E+03  0.10566000000E+00 0.  1.
         13    1    1    2    0    0  0.59894312160E+02 -0.88381744261E+02 -0.50793921969E+03  0.51903846043E+03  0.10566000000E+00 0. -1.
          4    1    1    2  501    0 -0.37361847435E+02 -0.19848945803E+02  0.26298893715E+01  0.42388732127E+02  0.00000000000E+00 0.  1.
         -4    1    1    2    0  502  0.75506900343E+02 -0.44875806896E+02  0.94048137125E+03  0.94457415787E+03  0.00000000000E+00 0. -1.
</event>
<event>
 6    1  0.5496865E-006  0.1607298E+03  0.7818608E-02  0.1090986E+00
         21   -1    0    0  501  502  0.00000000000E+00  0.00000000000E+00  0.48348177942E+03  0.48348177942E+03  0.00000000000E+00 0.  1.
         21   -1    0    0  502  503 -0.00000000000E+00 -0.00000000000E+00 -0.17920847086E+03  0.17920847086E+03  0.00000000000E+00 0. -1.
        -13    1    1    2    0    0 -0.12574899286E+03 -0.10443894358E+03 -0.29835336208E+02  0.16616395696E+03  0.10566000000E+00 0.  1.
         13    1    1    2    0    0  0.12646282697E+03  0.79790219222E+02  0.18861398447E+03  0.24069601573E+03  0.10566000000E+00 0. -1.
          4    1    1    2  501    0  0.95003890532E+01  0.13846899958E+02  0.19930138066E+03  0.20000758577E+03  0.00000000000E+00 0.  1.
         -4    1    1    2    0  503 -0.10214223156E+02  0.10801824399E+02 -0.53806720364E+02  0.55822691814E+02  0.00000000000E+00 0. -1.
</event>
<event>
 6    1  0.5496865E-006  0.4095473E+02  0.7818608E-02  0.1333741E+00
         21   -1    0    0  503  502  0.00000000000E+00  0.00000000000E+00  0.15091980661E+03  0.15091980661E+03  0.00000000000E+00 0.  1.
         21   -1    0    0  501  503 -0.00000000000E+00 -0.00000000000E+00 -0.47832538545E+02  0.47832538545E+02  0.00000000000E+00 0. -1.
        -13    1    1    2    0    0 -0.31049544615E+02  0.15214607701E+02  0.97278534608E+02  0.10324089775E+03  0.10566000000E+00 0.  1.
         13    1    1    2    0    0  0.33345663168E+02 -0.27093967190E+02 -0.11016290705E+02  0.44355226695E+02  0.10566000000E+00 0. -1.
          4    1    1    2  501    0  0.12206917378E+02  0.24926027656E+02  0.45967097945E+01  0.28132639896E+02  0.00000000000E+00 0.  1.
         -4    1    1    2    0  502 -0.14503035931E+02 -0.13046668167E+02  0.12228314371E+02  0.23023580821E+02  0.00000000000E+00 0. -1.
</event>
<event>
 6    1  0.5496865E-006  0.5287148E+02  0.7818608E-02  0.1280520E+00
         21   -1    0    0  503  502  0.00000000000E+00  0.00000000000E+00  0.33791481049E+02  0.33791481049E+02  0.00000000000E+00 0.  1.
         21   -1    0    0  501  503 -0.00000000000E+00 -0.00000000000E+00 -0.21678318065E+03  0.21678318065E+03  0.00000000000E+00 0. -1.
        -13    1    1    2    0    0  0.43625417388E+02 -0.21754773620E+00 -0.10162123893E+02  0.44794020754E+02  0.10566000000E+00 0.  1.
         13    1    1    2    0    0 -0.49239219738E+02  0.29099996897E+02 -0.81415687324E+02  0.99497919005E+02  0.10566000000E+00 0. -1.
          4    1    1    2  501    0 -0.19674902513E+02 -0.93653147428E+01 -0.30271448803E+02  0.37298411786E+02  0.00000000000E+00 0.  1.
         -4    1    1    2    0  502  0.25288704863E+02 -0.19517134418E+02 -0.61142439586E+02  0.68984310159E+02  0.00000000000E+00 0. -1.
</event>
<event>
 6    1  0.5496865E-006  0.2174634E+03  0.7818608E-02  0.1048781E+00
         21   -1    0    0  503  502  0.00000000000E+00  0.00000000000E+00  0.19777321239E+03  0.19777321239E+03  0.00000000000E+00 0.  1.
         21   -1    0    0  501  503 -0.00000000000E+00 -0.00000000000E+00 -0.68648037946E+03  0.68648037946E+03  0.00000000000E+00 0. -1.
        -13    1    1    2    0    0 -0.13247357127E+03  0.12889500293E+03 -0.35905919899E+02  0.18828811730E+03  0.10566000000E+00 0.  1.
         13    1    1    2    0    0  0.13707848698E+03 -0.19694725502E+03 -0.21234395810E+03  0.32041956956E+03  0.10566000000E+00 0. -1.
          4    1    1    2  501    0  0.14236291771E+02 -0.40057520532E+00 -0.28912046197E+03  0.28947102445E+03  0.00000000000E+00 0.  1.
         -4    1    1    2    0  502 -0.18841207473E+02  0.68452827293E+02  0.48663172908E+02  0.86074880545E+02  0.00000000000E+00 0. -1.
</event>
<event>
 6    1  0.5496865E-006  0.5445500E+02  0.7818608E-02  0.1274641E+00
         21   -1    0    0  503  502  0.00000000000E+00  0.00000000000E+00  0.13976635294E+02  0.13976635294E+02  0.00000000000E+00 0. -1.
         21   -1    0    0  501  503 -0.00000000000E+00 -0.00000000000E+00 -0.35258875295E+03  0.35258875295E+03  0.00000000000E+00 0.  1.
        -13    1    1    2    0    0  0.48555704081E+02 -0.11979183888E+02 -0.94043593032E+02  0.10651462716E+03  0.10566000000E+00 0.  1.
         13    1    1    2    0    0 -0.58282179101E+02  0.19021510531E+02 -0.19324346571E+03  0.20273548892E+03  0.10566000000E+00 0. -1.
          4    1    1    2  501    0 -0.18848874242E+01 -0.12203144363E+02 -0.19914936432E+02  0.23432332919E+02  0.00000000000E+00 0.  1.
         -4    1    1    2    0  502  0.11611362445E+02  0.51608177196E+01 -0.31410122481E+02  0.33882939241E+02  0.00000000000E+00 0. -1.
</event>
<event>
 6    1  0.5496865E-006  0.7827511E+02  0.7818608E-02  0.1206550E+00
         21   -1    0    0  501  502  0.00000000000E+00  0.00000000000E+00  0.18543916711E+03  0.18543916711E+03  0.00000000000E+00 0.  1.
         21   -1    0    0  502  503 -0.00000000000E+00 -0.00000000000E+00 -0.15337098101E+03  0.15337098101E+03  0.00000000000E+00 0.  1.
        -13    1    1    2    0    0 -0.80109009514E+02 -0.13974497983E+02 -0.13177612060E+01  0.81329500539E+02  0.10566000000E+00 0.  1.
         13    1    1    2    0    0  0.62272754774E+02 -0.84275555042E+02 -0.26632207935E+02  0.10811822616E+03  0.10566000000E+00 0. -1.
          4    1    1    2  501    0  0.88413284734E+00  0.33886441268E+02  0.73961004733E+02  0.81359097917E+02  0.00000000000E+00 0.  1.
         -4    1    1    2    0  503  0.16952121893E+02  0.64363611757E+02 -0.13942849491E+02  0.68003323500E+02  0.00000000000E+00 0. -1.
</event>
<event>
 6    1  0.5496865E-006  0.8032092E+02  0.7818608E-02  0.1201985E+00
         21   -1    0    0  501  502  0.00000000000E+00  0.00000000000E+00  0.11516555659E+04  0.11516555659E+04  0.00000000000E+00 0. -1.
         21   -1    0    0  502  503 -0.00000000000E+00 -0.00000000000E+00 -0.12178893555E+03  0.12178893555E+03  0.00000000000E+00 0. -1.
        -13    1    1    2    0    0  0.86282613961E+02  0.51541409769E+00  0.10597600589E+03  0.13665972381E+03  0.10566000000E+00 0.  1.
         13    1    1    2    0    0 -0.12450961710E+03  0.33849235999E+02  0.69702554654E+03  0.70886743417E+03  0.10566000000E+00 0. -1.
          4    1    1    2  501    0  0.57948839223E+02 -0.41537140618E+02  0.32235652927E+03  0.33014713990E+03  0.00000000000E+00 0.  1.
         -4    1    1    2    0  503 -0.19721836080E+02  0.71724905206E+01 -0.95491451321E+02  0.97770203610E+02  0.00000000000E+00 0. -1.
</event>
<event>
 6    1  0.5560252E-006  0.3007991E+02  0.7818608E-02  0.1413814E+00
         21   -1    0    0  501  502  0.00000000000E+00  0.00000000000E+00  0.11306679638E+03  0.11306679638E+03  0.00000000000E+00 0. -1.
         21   -1    0    0  502  503 -0.00000000000E+00 -0.00000000000E+00 -0.38527461871E+03  0.38527461871E+03  0.00000000000E+00 0.  1.
        -13    1    1    2    0    0 -0.10928828583E+01  0.49856657784E+02 -0.18071330015E+03  0.18746783386E+03  0.10566000000E+00 0.  1.
         13    1    1    2    0    0 -0.16633137634E+02 -0.34715628842E+02  0.67045179489E+02  0.77310435325E+02  0.10566000000E+00 0. -1.
          4    1    1    2  501    0  0.20827840560E+02  0.15046198750E+02  0.31764006261E+02  0.40855099228E+02  0.00000000000E+00 0.  1.
         -4    1    1    2    0  503 -0.31018200670E+01 -0.30187227693E+02 -0.19030370793E+03  0.19270804668E+03  0.00000000000E+00 0. -1.
</event>
<event>
 6    1  0.5496865E-006  0.1645767E+03  0.7818608E-02  0.1087563E+00
         21   -1    0    0  501  502  0.00000000000E+00  0.00000000000E+00  0.59522084642E+03  0.59522084642E+03  0.00000000000E+00 0. -1.
         21   -1    0    0  502  503 -0.00000000000E+00 -0.00000000000E+00 -0.22399881262E+03  0.22399881262E+03  0.00000000000E+00 0. -1.
        -13    1    1    2    0    0  0.52568485847E+01  0.15083951847E+03  0.12290596425E+03  0.19464347407E+03  0.10566000000E+00 0.  1.
         13    1    1    2    0    0  0.10222213603E+03 -0.16436555233E+03  0.22330093655E+03  0.29551433014E+03  0.10566000000E+00 0. -1.
          4    1    1    2  501    0 -0.15747632042E+02  0.60138336808E+01  0.16263227535E+03  0.16350355071E+03  0.00000000000E+00 0.  1.
         -4    1    1    2    0  503 -0.91731352571E+02  0.75122001838E+01 -0.13761714235E+03  0.16555830412E+03  0.00000000000E+00 0. -1.
</event>
<event>
 6    1  0.5496865E-006  0.1184461E+03  0.7818608E-02  0.1137197E+00
         21   -1    0    0  501  502  0.00000000000E+00  0.00000000000E+00  0.98532493733E+02  0.98532493733E+02  0.00000000000E+00 0.  1.
         21   -1    0    0  502  503 -0.00000000000E+00 -0.00000000000E+00 -0.63562402379E+03  0.63562402379E+03  0.00000000000E+00 0.  1.
        -13    1    1    2    0    0 -0.66691772842E+02 -0.25986190534E+02 -0.41163631404E+03  0.41781280600E+03  0.10566000000E+00 0.  1.
         13    1    1    2    0    0  0.86292024471E+02  0.78469148238E+02 -0.21981496499E+01  0.11665574884E+03  0.10566000000E+00 0. -1.
          4    1    1    2  501    0  0.17418935139E+02 -0.11278060165E+01  0.29530758338E+02  0.34303890971E+02  0.00000000000E+00 0.  1.
         -4    1    1    2    0  503 -0.37019186768E+02 -0.51355151688E+02 -0.15278782471E+03  0.16538407170E+03  0.00000000000E+00 0. -1.
</event>
<event>
 6    1  0.5496865E-006  0.1671370E+03  0.7818608E-02  0.1085340E+00
         21   -1    0    0  501  502  0.00000000000E+00  0.00000000000E+00  0.79461638713E+02  0.79461638713E+02  0.00000000000E+00 0. -1.
         21   -1    0    0  502  503 -0.00000000000E+00 -0.00000000000E+00 -0.13674865819E+04  0.13674865819E+04  0.00000000000E+00 0.  1.
        -13    1    1    2    0    0  0.10994233863E+03  0.11168756799E+03 -0.44013026118E+03  0.46720026610E+03  0.10566000000E+00 0.  1.
         13    1    1    2    0    0 -0.66693181209E+02 -0.16722024175E+03 -0.72962018536E+03  0.75150263853E+03  0.10566000000E+00 0. -1.
          4    1    1    2  501    0 -0.17008354685E+01  0.69330884702E+02  0.28575625956E+02  0.75008204975E+02  0.00000000000E+00 0.  1.
         -4    1    1    2    0  503 -0.41548321955E+02 -0.13798210944E+02 -0.14685012255E+03  0.15323711096E+03  0.00000000000E+00 0. -1.
</event>
<event>
 6    1  0.5496865E-006  0.3567055E+02  0.7818608E-02  0.1364416E+00
         21   -1    0    0  501  502  0.00000000000E+00  0.00000000000E+00  0.10660240905E+03  0.10660240905E+03  0.00000000000E+00 0. -1.
         21   -1    0    0  502  503 -0.00000000000E+00 -0.00000000000E+00 -0.11110854379E+03  0.11110854379E+03  0.00000000000E+00 0.  1.
        -13    1    1    2    0    0  0.37060387972E+02 -0.24972750910E+02 -0.79705285893E+02  0.91378632120E+02  0.10566000000E+00 0.  1.
         13    1    1    2    0    0 -0.11253116238E+02  0.31127133179E+02  0.53056829728E+02  0.62534545571E+02  0.10566000000E+00 0. -1.
          4    1    1    2  501    0 -0.11671553651E+02 -0.37582007277E+01  0.39456578611E+02  0.41317923871E+02  0.00000000000E+00 0.  1.
         -4    1    1    2    0  503 -0.14135718083E+02 -0.23961815408E+01 -0.17314257180E+02  0.22479851277E+02  0.00000000000E+00 0. -1.
</event>
<event>
 6    1  0.5496865E-006  0.5189479E+02  0.7818608E-02  0.1311866E+00
         21   -1    0    0  503  502  0.00000000000E+00  0.00000000000E+00  0.28684011117E+03  0.28684011117E+03  0.00000000000E+00 0. -1.
         21   -1    0    0  501  503 -0.00000000000E+00 -0.00000000000E+00 -0.85191685826E+02  0.85191685826E+02  0.00000000000E+00 0.  1.
        -13    1    1    2    0    0  0.81288142975E+02 -0.40056133258E+02  0.11516607802E+03  0.14654518992E+03  0.10566000000E+00 0.  1.
         13    1    1    2    0    0 -0.23516753287E+02  0.18166293505E+02 -0.27313283986E+02  0.40361845238E+02  0.10566000000E+00 0. -1.
          4    1    1    2  501    0 -0.44725164865E+02  0.15324839846E+02 -0.19419996318E+02  0.51110931761E+02  0.00000000000E+00 0.  1.
         -4    1    1    2    0  502 -0.13046224822E+02  0.65649999076E+01  0.13321562763E+03  0.13401383008E+03  0.00000000000E+00 0. -1.
</event>
<event>
 6    1  0.5496865E-006  0.2463854E+03  0.7818608E-02  0.1032283E+00
         21   -1    0    0  503  502  0.00000000000E+00  0.00000000000E+00  0.23135355745E+03  0.23135355745E+03  0.00000000000E+00 0. -1.
         21   -1    0    0  501  503 -0.00000000000E+00 -0.00000000000E+00 -0.13365758307E+04  0.13365758307E+04  0.00000000000E+00 0. -1.
        -13    1    1    2    0    0  0.18906700131E+03  0.92868323749E+02 -0.14087956943E+03  0.25341255057E+03  0.10566000000E+00 0.  1.
         13    1    1    2    0    0 -0.25441827581E+03 -0.11686415150E+03 -0.10980675239E+04  0.11331982118E+04  0.10566000000E+00 0. -1.
          4    1    1    2  501    0  0.30117435955E+02 -0.63802672934E+01 -0.82867520767E+01  0.31881625104E+02  0.00000000000E+00 0.  1.
         -4    1    1    2    0  502  0.35233838545E+02  0.30376095047E+02  0.14201157220E+03  0.14943700066E+03  0.00000000000E+00 0. -1.
</event>
<event>
 6    1  0.5496865E-006  0.3488281E+02  0.7818608E-02  0.1369508E+00
         21   -1    0    0  501  502  0.00000000000E+00  0.00000000000E+00  0.97909391570E+02  0.97909391570E+02  0.00000000000E+00 0.  1.
         21   -1    0    0  502  503 -0.00000000000E+00 -0.00000000000E+00 -0.81787059146E+02  0.81787059146E+02  0.00000000000E+00 0. -1.
        -13    1    1    2    0    0 -0.38946358416E+02  0.17659601093E+02  0.10681328575E+02  0.44077004081E+02  0.10566000000E+00 0.  1.
         13    1    1    2    0    0  0.31263409658E+02 -0.13291746872E+01 -0.89045161036E+00  0.31304497391E+02  0.10566000000E+00 0. -1.
          4    1    1    2  501    0 -0.23217830698E+02 -0.22419347394E+02  0.44409929032E+02  0.54899331476E+02  0.00000000000E+00 0.  1.
         -4    1    1    2    0  503  0.30900779456E+02  0.60889209885E+01 -0.38078473573E+02  0.49415617769E+02  0.00000000000E+00 0. -1.
</event>
<event>
 6    1  0.5496865E-006  0.1364620E+03  0.7818608E-02  0.1147048E+00
         21   -1    0    0  503  502  0.00000000000E+00  0.00000000000E+00  0.75497123070E+03  0.75497123070E+03  0.00000000000E+00 0. -1.
         21   -1    0    0  501  503 -0.00000000000E+00 -0.00000000000E+00 -0.81682679807E+02  0.81682679807E+02  0.00000000000E+00 0.  1.
        -13    1    1    2    0    0 -0.52940029449E+02  0.33517655039E+02  0.82940147841E+02  0.10394786773E+03  0.10566000000E+00 0.  1.
         13    1    1    2    0    0  0.11680509236E+03  0.52091800503E+02  0.13549655221E+03  0.18632313894E+03  0.10566000000E+00 0. -1.
          4    1    1    2  501    0  0.29437508797E+02  0.23862356312E+02 -0.25025548506E+02  0.45412080451E+02  0.00000000000E+00 0.  1.
         -4    1    1    2    0  502 -0.93302571707E+02 -0.10947181185E+03  0.47987739934E+03  0.50097082338E+03  0.00000000000E+00 0. -1.
</event>
<event>
 6    1  0.5496865E-006  0.3307632E+03  0.7818608E-02  0.1025944E+00
         21   -1    0    0  501  502  0.00000000000E+00  0.00000000000E+00  0.43067418829E+03  0.43067418829E+03  0.00000000000E+00 0. -1.
         21   -1    0    0  502  503 -0.00000000000E+00 -0.00000000000E+00 -0.60839979096E+03  0.60839979096E+03  0.00000000000E+00 0.  1.
        -13    1    1    2    0    0  0.10031798969E+03  0.39134493022E+03 -0.30784329118E+03  0.50791934060E+03  0.10566000000E+00 0.  1.
         13    1    1    2    0    0  0.25119198720E+02 -0.12175193217E+03  0.14521744485E+03  0.19116125283E+03  0.10566000000E+00 0. -1.
          4    1    1    2  501    0 -0.12453275857E+03 -0.27964675241E+03  0.16752279945E+02  0.30658009226E+03  0.00000000000E+00 0.  1.
         -4    1    1    2    0  503 -0.90442984786E+00  0.10053754348E+02 -0.31852036291E+02  0.33413293548E+02  0.00000000000E+00 0. -1.
</event>
<event>
 6    1  0.5496865E-006  0.3577427E+03  0.7818608E-02  0.1019804E+00
         21   -1    0    0  503  502  0.00000000000E+00  0.00000000000E+00  0.50669181802E+03  0.50669181802E+03  0.00000000000E+00 0. -1.
         21   -1    0    0  501  503 -0.00000000000E+00 -0.00000000000E+00 -0.81463523169E+03  0.81463523169E+03  0.00000000000E+00 0. -1.
        -13    1    1    2    0    0 -0.10765919013E+03  0.37131003027E+02 -0.37352479898E+02  0.11985170639E+03  0.10566000000E+00 0.  1.
         13    1    1    2    0    0  0.44172662972E+03  0.11188237215E+03 -0.36827113351E+03  0.58588712185E+03  0.10566000000E+00 0. -1.
          4    1    1    2  501    0 -0.35047275133E+02  0.18901487665E+02 -0.17373425983E+03  0.17823908316E+03  0.00000000000E+00 0.  1.
         -4    1    1    2    0  502 -0.29902016445E+03 -0.16791486284E+03  0.27141445957E+03  0.43734913831E+03  0.00000000000E+00 0. -1.
</event>
<event>
 6    1  0.5496865E-006  0.1331696E+03  0.7818608E-02  0.1119008E+00
         21   -1    0    0  503  502  0.00000000000E+00  0.00000000000E+00  0.51856602013E+03  0.51856602013E+03  0.00000000000E+00 0.  1.
         21   -1    0    0  501  503 -0.00000000000E+00 -0.00000000000E+00 -0.68935398262E+02  0.68935398262E+02  0.00000000000E+00 0. -1.
        -13    1    1    2    0    0 -0.39282766156E+02  0.11427486891E+03  0.19636959292E+03  0.23057083417E+03  0.10566000000E+00 0.  1.
         13    1    1    2    0    0  0.23967744665E+02 -0.15163276999E+03  0.14049259856E+03  0.20809884942E+03  0.10566000000E+00 0. -1.
          4    1    1    2  501    0  0.20670571322E+01  0.27956553727E+02 -0.62406062414E+01  0.28719101444E+02  0.00000000000E+00 0.  1.
         -4    1    1    2    0  502  0.13247964359E+02  0.94013473442E+01  0.11900903663E+03  0.12011263336E+03  0.00000000000E+00 0. -1.
</event>
<event>
 6    1  0.5496865E-006  0.4104008E+02  0.7818608E-02  0.1333290E+00
         21   -1    0    0  501  502  0.00000000000E+00  0.00000000000E+00  0.18871580078E+03  0.18871580078E+03  0.00000000000E+00 0.  1.
         21   -1    0    0  502  503 -0.00000000000E+00 -0.00000000000E+00 -0.72279895260E+03  0.72279895260E+03  0.00000000000E+00 0. -1.
        -13    1    1    2    0    0  0.26198473668E+02 -0.35509292705E+02  0.25338973112E+02  0.50885603203E+02  0.10566000000E+00 0.  1.
         13    1    1    2    0    0 -0.21978484776E+02  0.33935029742E+02  0.35833313055E+02  0.54024786211E+02  0.10566000000E+00 0. -1.
          4    1    1    2  501    0 -0.50255179556E+01 -0.90033341353E+01  0.10538269804E+03  0.10588592400E+03  0.00000000000E+00 0.  1.
         -4    1    1    2    0  503  0.80552906306E+00  0.10577597098E+02 -0.70063813602E+03  0.70071843995E+03  0.00000000000E+00 0. -1.
</event>
<event>
 6    1  0.5496865E-006  0.6613584E+02  0.7818608E-02  0.1243073E+00
         21   -1    0    0  503  502  0.00000000000E+00  0.00000000000E+00  0.88664491250E+02  0.88664491250E+02  0.00000000000E+00 0.  1.
         21   -1    0    0  501  503 -0.00000000000E+00 -0.00000000000E+00 -0.39149872216E+03  0.39149872216E+03  0.00000000000E+00 0. -1.
        -13    1    1    2    0    0 -0.60704880047E+02 -0.40884705995E+02  0.16306016746E+02  0.74983591485E+02  0.10566000000E+00 0.  1.
         13    1    1    2    0    0  0.20988534143E+02  0.80137970835E+02 -0.28104979636E+03  0.29300445754E+03  0.10566000000E+00 0. -1.
          4    1    1    2  501    0  0.28084228317E+02 -0.65712023691E+02 -0.42184425896E+02  0.82983852200E+02  0.00000000000E+00 0.  1.
         -4    1    1    2    0  502  0.11632117587E+02  0.26458758852E+02  0.40939746008E+01  0.29191312193E+02  0.00000000000E+00 0. -1.
</event>
<event>
 6    1  0.5496865E-006  0.2281273E+03  0.7818608E-02  0.1042395E+00
         21   -1    0    0  501  502  0.00000000000E+00  0.00000000000E+00  0.19872947686E+03  0.19872947686E+03  0.00000000000E+00 0.  1.
         21   -1    0    0  502  503 -0.00000000000E+00 -0.00000000000E+00 -0.76718941949E+03  0.76718941949E+03  0.00000000000E+00 0. -1.
        -13    1    1    2    0    0 -0.19149781438E+03  0.81281213204E+02  0.48207456646E+01  0.20808964243E+03  0.10566000000E+00 0.  1.
         13    1    1    2    0    0  0.76360154816E+02 -0.26165606167E+03 -0.26422570213E+03  0.37961823017E+03  0.10566000000E+00 0. -1.
          4    1    1    2  501    0  0.40332036955E+02  0.34193832504E+02 -0.90908286664E+02  0.10516752336E+03  0.00000000000E+00 0.  1.
         -4    1    1    2    0  503  0.74805622614E+02  0.14618101596E+03 -0.21814669950E+03  0.27304350039E+03  0.00000000000E+00 0. -1.
</event>
<event>
 6    1  0.5496865E-006  0.1757756E+03  0.7818608E-02  0.1078144E+00
         21   -1    0    0  501  502  0.00000000000E+00  0.00000000000E+00  0.55360532333E+03  0.55360532333E+03  0.00000000000E+00 0.  1.
         21   -1    0    0  502  503 -0.00000000000E+00 -0.00000000000E+00 -0.31224752848E+03  0.31224752848E+03  0.00000000000E+00 0. -1.
        -13    1    1    2    0    0 -0.18710260712E+03  0.24516350887E+00 -0.35287344157E+02  0.19040129600E+03  0.10566000000E+00 0.  1.
         13    1    1    2    0    0  0.12802524242E+03  0.15511832807E+03 -0.12204274336E+03  0.23525858278E+03  0.10566000000E+00 0. -1.
          4    1    1    2  501    0  0.77097605731E+02 -0.14276656762E+03  0.37029065278E+03  0.40427898929E+03  0.00000000000E+00 0.  1.
         -4    1    1    2    0  503 -0.18020241035E+02 -0.12596923959E+02  0.28397229585E+02  0.35913983743E+02  0.00000000000E+00 0. -1.
</event>
<event>
 6    1  0.5496865E-006  0.6810890E+02  0.7818608E-02  0.1231779E+00
         21   -1    0    0  503  502  0.00000000000E+00  0.00000000000E+00  0.26927757791E+03  0.26927757791E+03  0.00000000000E+00 0. -1.
         21   -1    0    0  501  503 -0.00000000000E+00 -0.00000000000E+00 -0.24045140941E+03  0.24045140941E+03  0.00000000000E+00 0.  1.
        -13    1    1    2    0    0 -0.91161058988E+02 -0.64311128562E+02 -0.44720245738E+02  0.12019222718E+03  0.10566000000E+00 0.  1.
         13    1    1    2    0    0  0.42642499195E+02  0.93788266819E+01 -0.12086977203E+02  0.45303987787E+02  0.10566000000E+00 0. -1.
          4    1    1    2  501    0 -0.16473301711E+01  0.44030384887E+02 -0.12233186246E+03  0.13002489402E+03  0.00000000000E+00 0.  1.
         -4    1    1    2    0  502  0.50165889965E+02  0.10901916993E+02  0.20796525390E+03  0.21420787834E+03  0.00000000000E+00 0. -1.
</event>
<event>
 6    1  0.5496865E-006  0.4599135E+02  0.7818608E-02  0.1309030E+00
         21   -1    0    0  503  502  0.00000000000E+00  0.00000000000E+00  0.14894771529E+03  0.14894771529E+03  0.00000000000E+00 0.  1.
         21   -1    0    0  501  503 -0.00000000000E+00 -0.00000000000E+00 -0.37006264777E+03  0.37006264777E+03  0.00000000000E+00 0.  1.
        -13    1    1    2    0    0 -0.26236886672E+02  0.41997659728E+02  0.93050159956E+02  0.10540645652E+03  0.10566000000E+00 0.  1.
         13    1    1    2    0    0  0.39502321318E+02 -0.49145384137E+02 -0.63656240060E+02  0.89598159769E+02  0.10566000000E+00 0. -1.
          4    1    1    2  501    0 -0.44692324063E+02  0.34500853390E+01 -0.27830238964E+03  0.28188921051E+03  0.00000000000E+00 0.  1.
         -4    1    1    2    0  502  0.31426889418E+02  0.36976390701E+01  0.27793537259E+02  0.42116536260E+02  0.00000000000E+00 0. -1.
</event>
<event>
 6    1  0.5496865E-006  0.9616626E+02  0.7818608E-02  0.1184026E+00
         21   -1    0    0  501  502  0.00000000000E+00  0.00000000000E+00  0.96129201967E+02  0.96129201967E+02  0.00000000000E+00 0.  1.
         21   -1    0    0  502  503 -0.00000000000E+00 -0.00000000000E+00 -0.15313249028E+04  0.15313249028E+04  0.00000000000E+00 0. -1.
        -13    1    1    2    0    0  0.66500456719E+02  0.25405991366E+02 -0.33929526101E+03  0.34668293937E+03  0.10566000000E+00 0.  1.
         13    1    1    2    0    0 -0.14083615223E+03 -0.65856549902E+02 -0.11171993592E+02  0.15587408875E+03  0.10566000000E+00 0. -1.
          4    1    1    2  501    0 -0.18847958336E+02  0.23970341135E+02  0.51442811489E+01  0.30923881000E+02  0.00000000000E+00 0.  1.
         -4    1    1    2    0  503  0.93183653843E+02  0.16480217402E+02 -0.10898727274E+04  0.10939731957E+04  0.00000000000E+00 0. -1.
</event>
<event>
 6    1  0.5496865E-006  0.3892600E+03  0.7818608E-02  0.9760586E-01
         21   -1    0    0  501  502  0.00000000000E+00  0.00000000000E+00  0.55100424164E+03  0.55100424164E+03  0.00000000000E+00 0.  1.
         21   -1    0    0  502  503 -0.00000000000E+00 -0.00000000000E+00 -0.56810748015E+03  0.56810748015E+03  0.00000000000E+00 0.  1.
        -13    1    1    2    0    0  0.22574972414E+03 -0.31369055650E+03 -0.34644064185E+03  0.51902392302E+03  0.10566000000E+00 0.  1.
         13    1    1    2    0    0 -0.20195087259E+03  0.28759531473E+03  0.16833603225E+03  0.38965658074E+03  0.10566000000E+00 0. -1.
          4    1    1    2  501    0 -0.55859746058E+02  0.32870924969E+02  0.16513836730E+03  0.17740205550E+03  0.00000000000E+00 0.  1.
         -4    1    1    2    0  503  0.32060894518E+02 -0.67756832029E+01 -0.41369962084E+01  0.33029162535E+02  0.00000000000E+00 0. -1.
</event>
<event>
 6    1  0.5496865E-006  0.3442902E+02  0.7818608E-02  0.1372511E+00
         21   -1    0    0  503  502  0.00000000000E+00  0.00000000000E+00  0.26632470283E+03  0.26632470283E+03  0.00000000000E+00 0. -1.
         21   -1    0    0  501  503 -0.00000000000E+00 -0.00000000000E+00 -0.41618236729E+02  0.41618236729E+02  0.00000000000E+00 0. -1.
        -13    1    1    2    0    0 -0.16592287655E+02  0.21485179974E+02  0.99476866428E+02  0.10311437866E+03  0.10566000000E+00 0.  1.
         13    1    1    2    0    0  0.43334751338E+02 -0.24985994925E+02  0.51700689452E+01  0.50288581137E+02  0.10566000000E+00 0. -1.
          4    1    1    2  501    0 -0.14235442856E+02  0.65605135498E+01 -0.13302194549E+02  0.20558126159E+02  0.00000000000E+00 0.  1.
         -4    1    1    2    0  502 -0.12507020827E+02 -0.30596985988E+01  0.13336172528E+03  0.13398185360E+03  0.00000000000E+00 0. -1.
</event>
<event>
 6    1  0.5496865E-006  0.2442379E+03  0.7818608E-02  0.1033423E+00
         21   -1    0    0  503  502  0.00000000000E+00  0.00000000000E+00  0.15000419976E+03  0.15000419976E+03  0.00000000000E+00 0.  1.
         21   -1    0    0  501  503 -0.00000000000E+00 -0.00000000000E+00 -0.15142885016E+04  0.15142885016E+04  0.00000000000E+00 0. -1.
        -13    1    1    2    0    0  0.18385939553E+03  0.24461870221E+03 -0.73809529465E+02  0.31478634754E+03  0.10566000000E+00 0.  1.
         13    1    1    2    0    0 -0.54968423644E+02 -0.22402011523E+03 -0.54664917258E+03  0.59332273568E+03  0.10566000000E+00 0. -1.
          4    1    1    2  501    0 -0.13248660123E+02 -0.84414381533E+01 -0.16812712300E+03  0.16885945150E+03  0.00000000000E+00 0.  1.
         -4    1    1    2    0  502 -0.11564231176E+03 -0.12157148818E+02 -0.57569847681E+03  0.58732416666E+03  0.00000000000E+00 0. -1.
</event>
<event>
 6    1  0.5496865E-006  0.1738357E+03  0.7818608E-02  0.1079721E+00
         21   -1    0    0  503  502  0.00000000000E+00  0.00000000000E+00  0.10043084648E+04  0.10043084648E+04  0.00000000000E+00 0. -1.
         21   -1    0    0  501  503 -0.00000000000E+00 -0.00000000000E+00 -0.14797182895E+03  0.14797182895E+03  0.00000000000E+00 0. -1.
        -13    1    1    2    0    0 -0.17221376075E+03  0.37594108448E+02  0.29555845149E+03  0.34413036162E+03  0.10566000000E+00 0.  1.
         13    1    1    2    0    0  0.15606133022E+03 -0.51939785060E+01  0.27792312610E+02  0.15860182851E+03  0.10566000000E+00 0. -1.
          4    1    1    2  501    0  0.26884895259E+02 -0.16275972976E+02 -0.53872875521E+02  0.62369797229E+02  0.00000000000E+00 0.  1.
         -4    1    1    2    0  502 -0.10732464731E+02 -0.16124156966E+02  0.58685874724E+03  0.58717830635E+03  0.00000000000E+00 0. -1.
</event>
<event>
 6    1  0.5496865E-006  0.1123239E+03  0.7818608E-02  0.1145634E+00
         21   -1    0    0  503  502  0.00000000000E+00  0.00000000000E+00  0.48498519988E+02  0.48498519988E+02  0.00000000000E+00 0.  1.
         21   -1    0    0  501  503 -0.00000000000E+00 -0.00000000000E+00 -0.58155417998E+03  0.58155417998E+03  0.00000000000E+00 0. -1.
        -13    1    1    2    0    0 -0.42743968228E+02 -0.11920092055E+03 -0.15751508038E+03  0.20210620473E+03  0.10566000000E+00 0.  1.
         13    1    1    2    0    0  0.36466561700E+02  0.91766081440E+02 -0.17853029296E+03  0.20401936304E+03  0.10566000000E+00 0. -1.
          4    1    1    2  501    0  0.30123086970E+02  0.76610792045E+01 -0.18952645813E+03  0.19205824854E+03  0.00000000000E+00 0.  1.
         -4    1    1    2    0  502 -0.23845680442E+02  0.19773759904E+02 -0.74838285291E+01  0.31868883663E+02  0.00000000000E+00 0. -1.
</event>
<event>
 6    1  0.5496865E-006  0.1731483E+03  0.7818608E-02  0.1080285E+00
         21   -1    0    0  503  502  0.00000000000E+00  0.00000000000E+00  0.17868151178E+03  0.17868151178E+03  0.00000000000E+00 0.  1.
         21   -1    0    0  501  503 -0.00000000000E+00 -0.00000000000E+00 -0.27550647131E+03  0.27550647131E+03  0.00000000000E+00 0. -1.
        -13    1    1    2    0    0  0.16406747965E+02  0.17453525704E+03 -0.10232260361E+03  0.20298192950E+03  0.10566000000E+00 0.  1.
         13    1    1    2    0    0 -0.74919677855E+01 -0.17015054289E+03 -0.54253593494E+02  0.17874786824E+03  0.10566000000E+00 0. -1.
          4    1    1    2  501    0  0.52243466217E+01 -0.99565084172E+01  0.46331503977E+00  0.11253466946E+02  0.00000000000E+00 0.  1.
         -4    1    1    2    0  502 -0.14139126801E+02  0.55717942668E+01  0.59287922530E+02  0.61204718413E+02  0.00000000000E+00 0. -1.
</event>
<event>
 6    1  0.5496865E-006  0.6626900E+02  0.7818608E-02  0.1236871E+00
         21   -1    0    0  501  502  0.00000000000E+00  0.00000000000E+00  0.65661733021E+03  0.65661733021E+03  0.00000000000E+00 0. -1.
         21   -1    0    0  502  503 -0.00000000000E+00 -0.00000000000E+00 -0.55955463141E+02  0.55955463141E+02  0.00000000000E+00 0. -1.
        -13    1    1    2    0    0 -0.71632365178E+02  0.19512396249E+02  0.15527225341E+03  0.17210872491E+03  0.10566000000E+00 0.  1.
         13    1    1    2    0    0  0.69438535915E+02 -0.13837102124E+02  0.10776353961E+03  0.12894249610E+03  0.10566000000E+00 0. -1.
          4    1    1    2  501    0  0.25775251354E+02 -0.99877448887E+00  0.37016630038E+03  0.37106394472E+03  0.00000000000E+00 0.  1.
         -4    1    1    2    0  503 -0.23581422091E+02 -0.46765196360E+01 -0.32540226330E+02  0.40457627628E+02  0.00000000000E+00 0. -1.
</event>
<event>
 6    1  0.5496865E-006  0.1611541E+03  0.7818608E-02  0.1090604E+00
         21   -1    0    0  501  502  0.00000000000E+00  0.00000000000E+00  0.29291925384E+03  0.29291925384E+03  0.00000000000E+00 0. -1.
         21   -1    0    0  502  503 -0.00000000000E+00 -0.00000000000E+00 -0.43073180918E+03  0.43073180918E+03  0.00000000000E+00 0. -1.
        -13    1    1    2    0    0  0.19476147138E+03 -0.69589488768E+01  0.98507593087E+01  0.19513458516E+03  0.10566000000E+00 0.  1.
         13    1    1    2    0    0 -0.13920720614E+03 -0.22859957629E+02  0.12753579465E+03  0.19017521917E+03  0.10566000000E+00 0. -1.
          4    1    1    2  501    0 -0.15717324042E+02  0.17817434665E+01  0.27512204673E+02  0.31735316145E+02  0.00000000000E+00 0.  1.
         -4    1    1    2    0  503 -0.39836941191E+02  0.28037163039E+02 -0.30271131398E+03  0.30660594254E+03  0.00000000000E+00 0. -1.
</event>
<event>
 6    1  0.5496865E-006  0.6152999E+02  0.7818608E-02  0.1250876E+00
         21   -1    0    0  501  502  0.00000000000E+00  0.00000000000E+00  0.80764214273E+02  0.80764214273E+02  0.00000000000E+00 0. -1.
         21   -1    0    0  502  503 -0.00000000000E+00 -0.00000000000E+00 -0.11262415403E+03  0.11262415403E+03  0.00000000000E+00 0.  1.
        -13    1    1    2    0    0 -0.44491894802E+02 -0.41350703323E+02 -0.26359999883E+02  0.66213821263E+02  0.10566000000E+00 0.  1.
         13    1    1    2    0    0  0.29030701374E+02  0.51226757080E+02  0.14295898019E+02  0.60591634137E+02  0.10566000000E+00 0. -1.
          4    1    1    2  501    0 -0.58642694742E+01  0.22856140410E+02 -0.20816275681E+01  0.23688097945E+02  0.00000000000E+00 0.  1.
         -4    1    1    2    0  503  0.21325462902E+02 -0.32732194168E+02 -0.17714210327E+02  0.42894814961E+02  0.00000000000E+00 0. -1.
</event>
<event>
 6    1  0.5496865E-006  0.3621956E+02  0.7818608E-02  0.1361454E+00
         21   -1    0    0  501  502  0.00000000000E+00  0.00000000000E+00  0.46184125371E+02  0.46184125371E+02  0.00000000000E+00 0. -1.
         21   -1    0    0  502  503 -0.00000000000E+00 -0.00000000000E+00 -0.16583794355E+03  0.16583794355E+03  0.00000000000E+00 0.  1.
        -13    1    1    2    0    0  0.29420671225E+02 -0.31492907146E+02 -0.91151099974E+02  0.10082615378E+03  0.10566000000E+00 0.  1.
         13    1    1    2    0    0  0.25425558170E+02  0.26215232087E+02  0.10098669926E+02  0.37890522561E+02  0.10566000000E+00 0. -1.
          4    1    1    2  501    0 -0.38047315588E+02 -0.81816558251E+01 -0.15954218863E+02  0.42060371075E+02  0.00000000000E+00 0.  1.
         -4    1    1    2    0  503 -0.16798913807E+02  0.13459330884E+02 -0.22647169269E+02  0.31245021505E+02  0.00000000000E+00 0. -1.
</event>
<event>
 6    1  0.5496865E-006  0.3112337E+03  0.7818608E-02  0.1002773E+00
         21   -1    0    0  501  502  0.00000000000E+00  0.00000000000E+00  0.34993437138E+03  0.34993437138E+03  0.00000000000E+00 0. -1.
         21   -1    0    0  502  503 -0.00000000000E+00 -0.00000000000E+00 -0.64160314928E+03  0.64160314928E+03  0.00000000000E+00 0.  1.
        -13    1    1    2    0    0  0.30030042834E+02 -0.27672474960E+03  0.31574181900E+02  0.28013448671E+03  0.10566000000E+00 0.  1.
         13    1    1    2    0    0 -0.71073686481E+01  0.37290830720E+03 -0.51071867347E+02  0.37645646105E+03  0.10566000000E+00 0. -1.
          4    1    1    2  501    0 -0.35201305171E+02  0.87752041280E+01  0.65499795738E+01  0.36865136995E+02  0.00000000000E+00 0.  1.
         -4    1    1    2    0  503  0.12278630985E+02 -0.10495876172E+03 -0.27872107203E+03  0.29808143591E+03  0.00000000000E+00 0. -1.
</event>
<event>
 6    1  0.5496865E-006  0.1765691E+03  0.7818608E-02  0.1077506E+00
         21   -1    0    0  501  502  0.00000000000E+00  0.00000000000E+00  0.33960386391E+03  0.33960386391E+03  0.00000000000E+00 0. -1.
         21   -1    0    0  502  503 -0.00000000000E+00 -0.00000000000E+00 -0.11398039308E+04  0.11398039308E+04  0.00000000000E+00 0. -1.
        -13    1    1    2    0    0 -0.15629409436E+03  0.49539826086E+02 -0.57555737284E+02  0.17376625783E+03  0.10566000000E+00 0.  1.
         13    1    1    2    0    0  0.19252181147E+03 -0.91887028287E+02  0.18488297675E+02  0.21412543561E+03  0.10566000000E+00 0. -1.
          4    1    1    2  501    0 -0.48376987601E+02  0.38981835367E+02  0.15930547508E+03  0.17099166882E+03  0.00000000000E+00 0.  1.
         -4    1    1    2    0  503  0.12149270490E+02  0.33653668334E+01 -0.92043810231E+03  0.92052443241E+03  0.00000000000E+00 0. -1.
</event>
<event>
 6    1  0.5496865E-006  0.3095090E+02  0.7818608E-02  0.1400321E+00
         21   -1    0    0  501  502  0.00000000000E+00  0.00000000000E+00  0.52964698777E+02  0.52964698777E+02  0.00000000000E+00 0.  1.
         21   -1    0    0  502  503 -0.00000000000E+00 -0.00000000000E+00 -0.78034817073E+02  0.78034817073E+02  0.00000000000E+00 0. -1.
        -13    1    1    2    0    0  0.19548474765E+02 -0.26193944227E+02 -0.31012497834E+02  0.45056095767E+02  0.10566000000E+00 0.  1.
         13    1    1    2    0    0 -0.14047102292E+02 -0.23460516777E+02  0.14990928003E+02  0.31184227050E+02  0.10566000000E+00 0. -1.
          4    1    1    2  501    0 -0.10375679368E+02  0.16350255983E+02  0.16657063287E+01  0.19436053371E+02  0.00000000000E+00 0.  1.
         -4    1    1    2    0  503  0.48743068950E+01  0.33304205021E+02 -0.10714254793E+02  0.35323139662E+02  0.00000000000E+00 0. -1.
</event>
<event>
 6    1  0.5496865E-006  0.4749112E+03  0.7818608E-02  0.9534724E-01
         21   -1    0    0  501  502  0.00000000000E+00  0.00000000000E+00  0.22559698088E+03  0.22559698088E+03  0.00000000000E+00 0.  1.
         21   -1    0    0  502  503 -0.00000000000E+00 -0.00000000000E+00 -0.26082885695E+04  0.26082885695E+04  0.00000000000E+00 0.  1.
        -13    1    1    2    0    0  0.45742461792E+02  0.47911155185E+03 -0.74432511143E+03  0.88637471455E+03  0.10566000000E+00 0.  1.
         13    1    1    2    0    0 -0.72200598242E+02 -0.46279614822E+03 -0.13684638454E+04  0.14464046835E+04  0.10566000000E+00 0. -1.
          4    1    1    2  501    0 -0.37652301538E+02 -0.15137186209E+01  0.10962319021E+03  0.11591907085E+03  0.00000000000E+00 0.  1.
         -4    1    1    2    0  503  0.64110437988E+02 -0.14801685008E+02 -0.37952582207E+03  0.38518708150E+03  0.00000000000E+00 0. -1.
</event>
<event>
 6    1  0.5496865E-006  0.7129037E+02  0.7818608E-02  0.1223382E+00
         21   -1    0    0  501  502  0.00000000000E+00  0.00000000000E+00  0.40593387498E+02  0.40593387498E+02  0.00000000000E+00 0. -1.
         21   -1    0    0  502  503 -0.00000000000E+00 -0.00000000000E+00 -0.37343864852E+03  0.37343864852E+03  0.00000000000E+00 0.  1.
        -13    1    1    2    0    0 -0.67626155189E+02  0.44819601403E+02 -0.17676651430E+03  0.19449551480E+03  0.10566000000E+00 0.  1.
         13    1    1    2    0    0  0.44926954486E+02 -0.40912566031E+02 -0.40830316826E+02  0.73207890523E+02  0.10566000000E+00 0. -1.
          4    1    1    2  501    0  0.10816262082E+01 -0.19504818684E+02  0.73453257561E+01  0.20870114461E+02  0.00000000000E+00 0.  1.
         -4    1    1    2    0  503  0.21617574494E+02  0.15597783312E+02 -0.12259375564E+03  0.12545851623E+03  0.00000000000E+00 0. -1.
</event>
<event>
 6    1  0.5496865E-006  0.1503101E+02  0.7818608E-02  0.1596590E+00
         21   -1    0    0  503  502  0.00000000000E+00  0.00000000000E+00  0.75945933060E+02  0.75945933060E+02  0.00000000000E+00 0.  1.
         21   -1    0    0  501  503 -0.00000000000E+00 -0.00000000000E+00 -0.87738766314E+02  0.87738766314E+02  0.00000000000E+00 0.  1.
        -13    1    1    2    0    0 -0.22106673762E+02  0.15367208468E+02  0.90683468725E+01  0.28409544170E+02  0.10566000000E+00 0.  1.
         13    1    1    2    0    0  0.27928076310E+01 -0.11675191876E+02 -0.27105003440E+02  0.29644599092E+02  0.10566000000E+00 0. -1.
          4    1    1    2  501    0  0.12403597606E+02  0.90376998989E+01 -0.47526805364E+02  0.49943232586E+02  0.00000000000E+00 0.  1.
         -4    1    1    2    0  502  0.69102685251E+01 -0.12729716492E+02  0.53770628678E+02  0.55687323526E+02  0.00000000000E+00 0. -1.
</event>
<event>
 6    1  0.5496865E-006  0.1047800E+03  0.7818608E-02  0.1181779E+00
         21   -1    0    0  501  502  0.00000000000E+00  0.00000000000E+00  0.42809524851E+02  0.42809524851E+02  0.00000000000E+00 0. -1.
         21   -1    0    0  502  503 -0.00000000000E+00 -0.00000000000E+00 -0.17799181549E+04  0.17799181549E+04  0.00000000000E+00 0.  1.
        -13    1    1    2    0    0 -0.35054165564E+02  0.13519955616E+03 -0.82185028157E+03  0.83363397903E+03  0.10566000000E+00 0.  1.
         13    1    1    2    0    0  0.19291128843E+02 -0.54152422689E+02  0.11347470487E+02  0.58595296617E+02  0.10566000000E+00 0. -1.
          4    1    1    2  501    0  0.99655266637E+01 -0.68994961592E+02 -0.83726948067E+03  0.84016653094E+03  0.00000000000E+00 0.  1.
         -4    1    1    2    0  503  0.57975100575E+01 -0.12052171875E+02 -0.89336338252E+02  0.90331873124E+02  0.00000000000E+00 0. -1.
</event>
<event>
 6    1  0.5496865E-006  0.3032869E+02  0.7818608E-02  0.1441014E+00
         21   -1    0    0  503  502  0.00000000000E+00  0.00000000000E+00  0.16426156721E+03  0.16426156721E+03  0.00000000000E+00 0.  1.
         21   -1    0    0  501  503 -0.00000000000E+00 -0.00000000000E+00 -0.77468003657E+02  0.77468003657E+02  0.00000000000E+00 0. -1.
        -13    1    1    2    0    0 -0.25429349880E+02 -0.10217811393E+02  0.12168464610E+03  0.12473259304E+03  0.10566000000E+00 0.  1.
         13    1    1    2    0    0 -0.36771012814E+01 -0.14224816403E+02 -0.61144427968E+02  0.62884964110E+02  0.10566000000E+00 0. -1.
          4    1    1    2  501    0  0.29813294404E+02  0.82770939966E+01  0.14874482130E+02  0.34330642681E+02  0.00000000000E+00 0.  1.
         -4    1    1    2    0  502 -0.70684324294E+00  0.16165533800E+02  0.11378863292E+02  0.19781371040E+02  0.00000000000E+00 0. -1.
</event>
<event>
 6    1  0.5496865E-006  0.2709174E+03  0.7818608E-02  0.1020089E+00
         21   -1    0    0  503  502  0.00000000000E+00  0.00000000000E+00  0.54918708312E+03  0.54918708312E+03  0.00000000000E+00 0.  1.
         21   -1    0    0  501  503 -0.00000000000E+00 -0.00000000000E+00 -0.31382840221E+03  0.31382840221E+03  0.00000000000E+00 0. -1.
        -13    1    1    2    0    0 -0.86914352337E+02 -0.23048299318E+03  0.25968340816E+03  0.35792736474E+03  0.10566000000E+00 0.  1.
         13    1    1    2    0    0 -0.15140525125E+02  0.29650199752E+03 -0.72197767702E+02  0.30554083010E+03  0.10566000000E+00 0. -1.
          4    1    1    2  501    0 -0.91216542778E+01 -0.18541755442E+02 -0.43401769166E+02  0.48069895344E+02  0.00000000000E+00 0.  1.
         -4    1    1    2    0  502  0.11117653174E+03 -0.47477248896E+02  0.91274809614E+02  0.15147739515E+03  0.00000000000E+00 0. -1.
</event>
<event>
 6    1  0.5496865E-006  0.5106348E+02  0.7818608E-02  0.1305190E+00
         21   -1    0    0  503  502  0.00000000000E+00  0.00000000000E+00  0.34528545804E+02  0.34528545804E+02  0.00000000000E+00 0.  1.
         21   -1    0    0  501  503 -0.00000000000E+00 -0.00000000000E+00 -0.36654675597E+03  0.36654675597E+03  0.00000000000E+00 0. -1.
        -13    1    1    2    0    0 -0.24368453270E+02  0.72703209858E+02 -0.51976338777E+02  0.92634384519E+02  0.10566000000E+00 0.  1.
         13    1    1    2    0    0  0.22926049975E+02 -0.24901005872E+02 -0.93048833292E+02  0.99013940442E+02  0.10566000000E+00 0. -1.
          4    1    1    2  501    0 -0.26768550128E+02 -0.39230977004E+02 -0.48694480239E+02  0.68020417805E+02  0.00000000000E+00 0.  1.
         -4    1    1    2    0  502  0.28210953423E+02 -0.85712269818E+01 -0.13829855786E+03  0.14140655901E+03  0.00000000000E+00 0. -1.
</event>
<event>
 6    1  0.5496865E-006  0.6142592E+02  0.7818608E-02  0.1251412E+00
         21   -1    0    0  503  502  0.00000000000E+00  0.00000000000E+00  0.26708913727E+03  0.26708913727E+03  0.00000000000E+00 0. -1.
         21   -1    0    0  501  503 -0.00000000000E+00 -0.00000000000E+00 -0.17767802744E+03  0.17767802744E+03  0.00000000000E+00 0.  1.
        -13    1    1    2    0    0  0.46880408587E+02 -0.35771823894E+02 -0.28488915974E+02  0.65490652702E+02  0.10566000000E+00 0.  1.
         13    1    1    2    0    0 -0.68698053122E+02 -0.11896253982E+02  0.41461140816E+01  0.69843716879E+02  0.10566000000E+00 0. -1.
          4    1    1    2  501    0 -0.42475602975E+01 -0.11083717018E+02 -0.92570718183E+02  0.93328604491E+02  0.00000000000E+00 0.  1.
         -4    1    1    2    0  502  0.26065204832E+02  0.58751794894E+02  0.20632462990E+03  0.21610419064E+03  0.00000000000E+00 0. -1.
</event>
<event>
 6    1  0.5496865E-006  0.9845003E+02  0.7818608E-02  0.1167146E+00
         21   -1    0    0  503  502  0.00000000000E+00  0.00000000000E+00  0.10114670370E+03  0.10114670370E+03  0.00000000000E+00 0. -1.
         21   -1    0    0  501  503 -0.00000000000E+00 -0.00000000000E+00 -0.48711742851E+03  0.48711742851E+03  0.00000000000E+00 0.  1.
        -13    1    1    2    0    0 -0.89972833620E+01  0.10465388078E+03 -0.57473480318E+01  0.10519709618E+03  0.10566000000E+00 0.  1.
         13    1    1    2    0    0 -0.48687093582E+01 -0.96046254258E+02 -0.13943214202E+03  0.16938099268E+03  0.10566000000E+00 0. -1.
          4    1    1    2  501    0  0.36482624196E+02  0.22704182915E+01 -0.27154360307E+03  0.27399281931E+03  0.00000000000E+00 0.  1.
         -4    1    1    2    0  502 -0.22616631476E+02 -0.10878044817E+02  0.30752368308E+02  0.39693224042E+02  0.00000000000E+00 0. -1.
</event>
<event>
 6    1  0.5496865E-006  0.1032021E+03  0.7818608E-02  0.1159364E+00
         21   -1    0    0  503  502  0.00000000000E+00  0.00000000000E+00  0.25060005813E+02  0.25060005813E+02  0.00000000000E+00 0.  1.
         21   -1    0    0  501  503 -0.00000000000E+00 -0.00000000000E+00 -0.10525759058E+04  0.10525759058E+04  0.00000000000E+00 0. -1.
        -13    1    1    2    0    0  0.42267362372E+02 -0.90071956852E+02 -0.16595656191E+03  0.19349697398E+03  0.10566000000E+00 0.  1.
         13    1    1    2    0    0 -0.58870622302E+02  0.76041393056E+02 -0.37549580275E+03  0.38761469616E+03  0.10566000000E+00 0. -1.
          4    1    1    2  501    0  0.23394285251E+02  0.46460859914E+02 -0.41343673121E+03  0.41669633403E+03  0.00000000000E+00 0.  1.
         -4    1    1    2    0  502 -0.67910253215E+01 -0.32430296118E+02 -0.72626804143E+02  0.79827907471E+02  0.00000000000E+00 0. -1.
</event>
<event>
 6    1  0.5496865E-006  0.1481745E+03  0.7818608E-02  0.1102926E+00
         21   -1    0    0  501  502  0.00000000000E+00  0.00000000000E+00  0.26139002104E+03  0.26139002104E+03  0.00000000000E+00 0.  1.
         21   -1    0    0  502  503 -0.00000000000E+00 -0.00000000000E+00 -0.79283191959E+03  0.79283191959E+03  0.00000000000E+00 0.  1.
        -13    1    1    2    0    0 -0.16722506571E+03  0.10607800245E+03 -0.28594345199E+03  0.34782241748E+03  0.10566000000E+00 0.  1.
         13    1    1    2    0    0  0.67796437107E+02 -0.97491032056E+02 -0.16188978972E+03  0.20077144566E+03  0.10566000000E+00 0. -1.
          4    1    1    2  501    0  0.97074481680E+02  0.32573960778E+01  0.19969697554E+03  0.22206518787E+03  0.00000000000E+00 0.  1.
         -4    1    1    2    0  503  0.23541469242E+01 -0.11844366475E+02 -0.28330563239E+03  0.28356288962E+03  0.00000000000E+00 0. -1.
</event>
<event>
 6    1  0.5496865E-006  0.4242813E+02  0.7818608E-02  0.1326115E+00
         21   -1    0    0  503  502  0.00000000000E+00  0.00000000000E+00  0.66637980086E+02  0.66637980086E+02  0.00000000000E+00 0. -1.
         21   -1    0    0  501  503 -0.00000000000E+00 -0.00000000000E+00 -0.59201328237E+02  0.59201328237E+02  0.00000000000E+00 0.  1.
        -13    1    1    2    0    0  0.43096567806E+02  0.92144463845E+01 -0.89589138092E+01  0.44972141149E+02  0.10566000000E+00 0.  1.
         13    1    1    2    0    0 -0.41858509296E+02  0.89063843305E+01 -0.12276386995E+02  0.44521672520E+02  0.10566000000E+00 0. -1.
          4    1    1    2  501    0 -0.70979003119E+01 -0.86704343357E+01  0.13808268585E+02  0.17782713564E+02  0.00000000000E+00 0.  1.
         -4    1    1    2    0  502  0.58598418021E+01 -0.94503963793E+01  0.14863684069E+02  0.18562781089E+02  0.00000000000E+00 0. -1.
</event>
<event>
 6    1  0.5496865E-006  0.4773960E+02  0.7818608E-02  0.1301276E+00
         21   -1    0    0  501  502  0.00000000000E+00  0.00000000000E+00  0.33473276025E+03  0.33473276025E+03  0.00000000000E+00 0. -1.
         21   -1    0    0  502  503 -0.00000000000E+00 -0.00000000000E+00 -0.11193646606E+03  0.11193646606E+03  0.00000000000E+00 0.  1.
        -13    1    1    2    0    0 -0.57210924385E+02  0.14707866921E+02 -0.77407306806E+02  0.97372036691E+02  0.10566000000E+00 0.  1.
         13    1    1    2    0    0  0.17523019308E+02 -0.45348821402E+02  0.24405341363E+03  0.24884865214E+03  0.10566000000E+00 0. -1.
          4    1    1    2  501    0  0.29173021088E+02  0.37294508891E+02  0.68267142129E+02  0.83080372214E+02  0.00000000000E+00 0.  1.
         -4    1    1    2    0  503  0.10514883990E+02 -0.66535544100E+01 -0.12116954764E+02  0.17368165256E+02  0.00000000000E+00 0. -1.
</event>
<event>
 6    1  0.5496865E-006  0.6098578E+03  0.7818608E-02  0.9302345E-01
         21   -1    0    0  501  502  0.00000000000E+00  0.00000000000E+00  0.24862423849E+04  0.24862423849E+04  0.00000000000E+00 0. -1.
         21   -1    0    0  502  503 -0.00000000000E+00 -0.00000000000E+00 -0.55948482454E+03  0.55948482454E+03  0.00000000000E+00 0. -1.
        -13    1    1    2    0    0  0.23880672545E+03 -0.62149972338E+03  0.79567573820E+03  0.10374923854E+04  0.10566000000E+00 0.  1.
         13    1    1    2    0    0 -0.42288577239E+02 -0.16752191543E+03  0.65961481710E+03  0.68186775405E+03  0.10566000000E+00 0. -1.
          4    1    1    2  501    0 -0.43573635368E+02  0.94362779762E+01  0.52803057045E+03  0.52990941525E+03  0.00000000000E+00 0.  1.
         -4    1    1    2    0  503 -0.15294451284E+03  0.77958536083E+03 -0.56563565400E+02  0.79645765472E+03  0.00000000000E+00 0. -1.
</event>
<event>
 6    1  0.5496865E-006  0.7749479E+02  0.7818608E-02  0.1208332E+00
         21   -1    0    0  501  502  0.00000000000E+00  0.00000000000E+00  0.38485159411E+03  0.38485159411E+03  0.00000000000E+00 0. -1.
         21   -1    0    0  502  503 -0.00000000000E+00 -0.00000000000E+00 -0.81955029147E+02  0.81955029147E+02  0.00000000000E+00 0.  1.
        -13    1    1    2    0    0 -0.71227077557E+02 -0.99004240337E+02  0.11169097629E+01  0.12196882730E+03  0.10566000000E+00 0.  1.
         13    1    1    2    0    0  0.12513091711E+02  0.63745915957E+02  0.18036814963E+03  0.19171019751E+03  0.10566000000E+00 0. -1.
          4    1    1    2  501    0  0.32795306523E+02 -0.23675919034E+01  0.94602928731E+02  0.10015413993E+03  0.00000000000E+00 0.  1.
         -4    1    1    2    0  503  0.25918679323E+02  0.37625916283E+02  0.26808576834E+02  0.52973458504E+02  0.00000000000E+00 0. -1.
</event>
<event>
 6    1  0.5496865E-006  0.8755395E+02  0.7818608E-02  0.1186972E+00
         21   -1    0    0  501  502  0.00000000000E+00  0.00000000000E+00  0.55361189095E+03  0.55361189095E+03  0.00000000000E+00 0.  1.
         21   -1    0    0  502  503 -0.00000000000E+00 -0.00000000000E+00 -0.12509916871E+03  0.12509916871E+03  0.00000000000E+00 0. -1.
        -13    1    1    2    0    0 -0.60542295629E+02  0.65197374747E+02  0.17767698315E+03  0.19870880388E+03  0.10566000000E+00 0.  1.
         13    1    1    2    0    0 -0.28126760967E+02 -0.10552964651E+03  0.20177646332E+02  0.11106200768E+03  0.10566000000E+00 0. -1.
          4    1    1    2  501    0  0.81402560358E+02  0.22528825776E+02  0.29235753323E+03  0.30431373952E+03  0.00000000000E+00 0.  1.
         -4    1    1    2    0  503  0.72664962382E+01  0.17803445988E+02 -0.61699440471E+02  0.64626508579E+02  0.00000000000E+00 0. -1.
</event>
<event>
 6    1  0.5496865E-006  0.2120957E+02  0.7818608E-02  0.1514363E+00
         21   -1    0    0  503  502  0.00000000000E+00  0.00000000000E+00  0.28014858633E+02  0.28014858633E+02  0.00000000000E+00 0. -1.
         21   -1    0    0  501  503 -0.00000000000E+00 -0.00000000000E+00 -0.13436025128E+03  0.13436025128E+03  0.00000000000E+00 0.  1.
        -13    1    1    2    0    0  0.65441675566E+01  0.14512591168E+02 -0.22619793847E+02  0.27660579696E+02  0.10566000000E+00 0.  1.
         13    1    1    2    0    0 -0.22328200456E+02 -0.86173507459E+01 -0.37716696885E+02  0.44669538361E+02  0.10566000000E+00 0. -1.
          4    1    1    2  501    0  0.21872298674E+02 -0.22420696308E+02 -0.59912995869E+02  0.67606598392E+02  0.00000000000E+00 0.  1.
         -4    1    1    2    0  502 -0.60882657744E+01  0.16525455886E+02  0.13904093955E+02  0.22438393461E+02  0.00000000000E+00 0. -1.
</event>
<event>
 6    1  0.5496865E-006  0.1160685E+03  0.7818608E-02  0.1140406E+00
         21   -1    0    0  501  502  0.00000000000E+00  0.00000000000E+00  0.21661225444E+03  0.21661225444E+03  0.00000000000E+00 0. -1.
         21   -1    0    0  502  503 -0.00000000000E+00 -0.00000000000E+00 -0.21651739852E+03  0.21651739852E+03  0.00000000000E+00 0.  1.
        -13    1    1    2    0    0 -0.13311074483E+02  0.91080332685E+02 -0.17790747059E+02  0.93751445594E+02  0.10566000000E+00 0.  1.
         13    1    1    2    0    0  0.60580573083E+02 -0.13823103646E+03  0.10134669834E+03  0.18179381096E+03  0.10566000000E+00 0. -1.
          4    1    1    2  501    0 -0.59970411326E+01  0.31734661367E+02  0.24788364036E+02  0.40712605247E+02  0.00000000000E+00 0.  1.
         -4    1    1    2    0  503 -0.41272457468E+02  0.15416042407E+02 -0.10824945940E+03  0.11687179116E+03  0.00000000000E+00 0. -1.
</event>
<event>
 6    1  0.5496865E-006  0.1143967E+03  0.7818608E-02  0.1142713E+00
         21   -1    0    0  501  502  0.00000000000E+00  0.00000000000E+00  0.98080865109E+03  0.98080865109E+03  0.00000000000E+00 0. -1.
         21   -1    0    0  502  503 -0.00000000000E+00 -0.00000000000E+00 -0.62207851403E+02  0.62207851403E+02  0.00000000000E+00 0.  1.
        -13    1    1    2    0    0  0.12082046610E+03 -0.61770515152E+01  0.12679423841E+03  0.17524991028E+03  0.10566000000E+00 0.  1.
         13    1    1    2    0    0 -0.14405747239E+03 -0.12274170150E+02  0.53585316445E+03  0.55501516702E+03  0.10566000000E+00 0. -1.
          4    1    1    2  501    0  0.43614458214E+02  0.98403677235E+01  0.27796864832E+03  0.28154151248E+03  0.00000000000E+00 0.  1.
         -4    1    1    2    0  503 -0.20377451928E+02  0.86108539415E+01 -0.22015251499E+02  0.31209912708E+02  0.00000000000E+00 0. -1.
</event>
<event>
 6    1  0.5496865E-006  0.8101011E+02  0.7818608E-02  0.1200481E+00
         21   -1    0    0  501  502  0.00000000000E+00  0.00000000000E+00  0.37120117428E+03  0.37120117428E+03  0.00000000000E+00 0.  1.
         21   -1    0    0  502  503 -0.00000000000E+00 -0.00000000000E+00 -0.64725107394E+03  0.64725107394E+03  0.00000000000E+00 0.  1.
        -13    1    1    2    0    0  0.60601151806E+02 -0.31750522059E+02 -0.38505340438E+03  0.39108404549E+03  0.10566000000E+00 0.  1.
         13    1    1    2    0    0 -0.87738117019E+02  0.18630827663E+02  0.78266289386E+02  0.11904078350E+03  0.10566000000E+00 0. -1.
          4    1    1    2  501    0  0.13297783761E+02  0.14278369536E+02  0.26897672336E+03  0.26968348225E+03  0.00000000000E+00 0.  1.
         -4    1    1    2    0  503  0.13839181452E+02 -0.11586751400E+01 -0.23823950803E+03  0.23864393698E+03  0.00000000000E+00 0. -1.
</event>
<event>
 6    1  0.5496865E-006  0.1881828E+03  0.7818608E-02  0.1068554E+00
         21   -1    0    0  503  502  0.00000000000E+00  0.00000000000E+00  0.62511075038E+02  0.62511075038E+02  0.00000000000E+00 0.  1.
         21   -1    0    0  501  503 -0.00000000000E+00 -0.00000000000E+00 -0.13205157465E+04  0.13205157465E+04  0.00000000000E+00 0. -1.
        -13    1    1    2    0    0 -0.12042524876E+03  0.11797505019E+03 -0.45534610092E+03  0.48555168190E+03  0.10566000000E+00 0.  1.
         13    1    1    2    0    0  0.20360980561E+03 -0.10166316850E+03 -0.66714614536E+03  0.70489456177E+03  0.10566000000E+00 0. -1.
          4    1    1    2  501    0 -0.90298067364E+02 -0.15105349385E+01 -0.14700984771E+03  0.17253381701E+03  0.00000000000E+00 0.  1.
         -4    1    1    2    0  502  0.71135105177E+01 -0.14801346754E+02  0.11497422516E+02  0.20046760889E+02  0.00000000000E+00 0. -1.
</event>
<event>
 6    1  0.5496865E-006  0.1898081E+03  0.7818608E-02  0.1067357E+00
         21   -1    0    0  501  502  0.00000000000E+00  0.00000000000E+00  0.62260893889E+03  0.62260893889E+03  0.00000000000E+00 0. -1.
         21   -1    0    0  502  503 -0.00000000000E+00 -0.00000000000E+00 -0.89618235883E+02  0.89618235883E+02  0.00000000000E+00 0.  1.
        -13    1    1    2    0    0  0.16141551030E+03  0.11053214262E+03  0.11132188013E+03  0.22508863516E+03  0.10566000000E+00 0.  1.
         13    1    1    2    0    0 -0.12045104046E+03 -0.13704669465E+03  0.33834767199E+03  0.38440786668E+03  0.10566000000E+00 0. -1.
          4    1    1    2  501    0 -0.18301499975E+02  0.40829976230E+00  0.55232830930E+02  0.58187431827E+02  0.00000000000E+00 0.  1.
         -4    1    1    2    0  503 -0.22662969860E+02  0.26106252266E+02  0.28088319951E+02  0.44543241102E+02  0.00000000000E+00 0. -1.
</event>
<event>
 6    1  0.5496865E-006  0.3301010E+02  0.7818608E-02  0.1382252E+00
         21   -1    0    0  503  502  0.00000000000E+00  0.00000000000E+00  0.15535327319E+03  0.15535327319E+03  0.00000000000E+00 0.  1.
         21   -1    0    0  501  503 -0.00000000000E+00 -0.00000000000E+00 -0.17293143992E+03  0.17293143992E+03  0.00000000000E+00 0.  1.
        -13    1    1    2    0    0  0.53165018116E+02  0.84575436687E+01  0.63590715824E+02  0.83317702196E+02  0.10566000000E+00 0.  1.
         13    1    1    2    0    0 -0.30954535117E+02 -0.15226228669E+02  0.77304342266E+01  0.35352398238E+02  0.10566000000E+00 0. -1.
          4    1    1    2  501    0  0.87031874611E+01  0.10409918526E+02 -0.14490561361E+03  0.14553950918E+03  0.00000000000E+00 0.  1.
         -4    1    1    2    0  502 -0.30913670460E+02 -0.36412335260E+01  0.56006296834E+02  0.64075103496E+02  0.00000000000E+00 0. -1.
</event>
<event>
 6    1  0.5496865E-006  0.1147825E+03  0.7818608E-02  0.1142176E+00
         21   -1    0    0  503  502  0.00000000000E+00  0.00000000000E+00  0.44519519808E+03  0.44519519808E+03  0.00000000000E+00 0.  1.
         21   -1    0    0  501  503 -0.00000000000E+00 -0.00000000000E+00 -0.59115552346E+02  0.59115552346E+02  0.00000000000E+00 0. -1.
        -13    1    1    2    0    0  0.82444848015E+02  0.10105325790E+03  0.29999353432E+03  0.32711625715E+03  0.10566000000E+00 0.  1.
         13    1    1    2    0    0 -0.57169571890E+02 -0.86424169602E+02  0.26531949783E+02  0.10696472580E+03  0.10566000000E+00 0. -1.
          4    1    1    2  501    0 -0.17146125986E+02  0.10291701346E+01  0.41839833552E+02  0.45228536336E+02  0.00000000000E+00 0.  1.
         -4    1    1    2    0  502 -0.81291501385E+01 -0.15658258434E+02  0.17714328080E+02  0.25001231139E+02  0.00000000000E+00 0. -1.
</event>
<event>
 6    1  0.5496865E-006  0.2333743E+02  0.7818608E-02  0.1468114E+00
         21   -1    0    0  503  502  0.00000000000E+00  0.00000000000E+00  0.94679905750E+03  0.94679905750E+03  0.00000000000E+00 0. -1.
         21   -1    0    0  501  503 -0.00000000000E+00 -0.00000000000E+00 -0.75273969617E+02  0.75273969617E+02  0.00000000000E+00 0.  1.
        -13    1    1    2    0    0  0.35076139675E+02  0.69986585134E+01  0.12381020823E+03  0.12887317651E+03  0.10566000000E+00 0.  1.
         13    1    1    2    0    0 -0.39256779667E+02  0.26390089204E+01 -0.88551657323E+01  0.40329694297E+02  0.10566000000E+00 0. -1.
          4    1    1    2  501    0  0.18745699755E+02 -0.40845858968E+01 -0.46160246968E+02  0.49988533699E+02  0.00000000000E+00 0.  1.
         -4    1    1    2    0  502 -0.14565059762E+02 -0.55530815370E+01  0.80273029235E+03  0.80288162262E+03  0.00000000000E+00 0. -1.
</event>
<event>
 6    1  0.5496865E-006  0.8577675E+02  0.7818608E-02  0.1190509E+00
         21   -1    0    0  501  502  0.00000000000E+00  0.00000000000E+00  0.44038836517E+03  0.44038836517E+03  0.00000000000E+00 0. -1.
         21   -1    0    0  502  503 -0.00000000000E+00 -0.00000000000E+00 -0.26650699152E+03  0.26650699152E+03  0.00000000000E+00 0.  1.
        -13    1    1    2    0    0 -0.15289855292E+02  0.66985729521E+02 -0.85552093700E+02  0.10972711394E+03  0.10566000000E+00 0.  1.
         13    1    1    2    0    0 -0.17583132064E+01 -0.59679323582E+02  0.33999205377E+03  0.34519461340E+03  0.10566000000E+00 0. -1.
          4    1    1    2  501    0  0.29659412312E+02 -0.24884541488E+02  0.80575216779E+02  0.89393997017E+02  0.00000000000E+00 0.  1.
         -4    1    1    2    0  503 -0.12611243813E+02  0.17578135550E+02 -0.16113380319E+03  0.16257963234E+03  0.00000000000E+00 0. -1.
</event>
<event>
 6    1  0.5496865E-006  0.6229600E+02  0.7818608E-02  0.1261467E+00
         21   -1    0    0  501  502  0.00000000000E+00  0.00000000000E+00  0.33714796133E+03  0.33714796133E+03  0.00000000000E+00 0.  1.
         21   -1    0    0  502  503 -0.00000000000E+00 -0.00000000000E+00 -0.78531913127E+02  0.78531913127E+02  0.00000000000E+00 0.  1.
        -13    1    1    2    0    0  0.10788507966E+03 -0.49150002366E+02  0.82851887071E+02  0.14463526369E+03  0.10566000000E+00 0.  1.
         13    1    1    2    0    0 -0.42120422820E+02 -0.17471548285E+02  0.36621740505E+02  0.58485451693E+02  0.10566000000E+00 0. -1.
          4    1    1    2  501    0 -0.49232545539E+02  0.22009245126E+02  0.15363409151E+03  0.16282409062E+03  0.00000000000E+00 0.  1.
         -4    1    1    2    0  503 -0.16532111305E+02  0.44612305525E+02 -0.14491670892E+02  0.49735068450E+02  0.00000000000E+00 0. -1.
</event>
<event>
 6    1  0.5496865E-006  0.8058546E+02  0.7818608E-02  0.1201406E+00
         21   -1    0    0  501  502  0.00000000000E+00  0.00000000000E+00  0.42990403854E+03  0.42990403854E+03  0.00000000000E+00 0.  1.
         21   -1    0    0  502  503 -0.00000000000E+00 -0.00000000000E+00 -0.52162036208E+03  0.52162036208E+03  0.00000000000E+00 0.  1.
        -13    1    1    2    0    0  0.12712299817E+03  0.61210854281E+02 -0.11295294061E+03  0.18073572780E+03  0.10566000000E+00 0.  1.
         13    1    1    2    0    0 -0.56180886528E+02 -0.29315473844E+02  0.30029959069E+02  0.70124878777E+02  0.10566000000E+00 0. -1.
          4    1    1    2  501    0 -0.11691177953E+02 -0.38583119443E+01  0.34279558234E+03  0.34301659068E+03  0.00000000000E+00 0.  1.
         -4    1    1    2    0  503 -0.59250933685E+02 -0.28037068492E+02 -0.35158892434E+03  0.35764720336E+03  0.00000000000E+00 0. -1.
</event>
<event>
 6    1  0.5496865E-006  0.1018545E+03  0.7818608E-02  0.1161523E+00
         21   -1    0    0  503  502  0.00000000000E+00  0.00000000000E+00  0.12691093499E+03  0.12691093499E+03  0.00000000000E+00 0.  1.
         21   -1    0    0  501  503 -0.00000000000E+00 -0.00000000000E+00 -0.44696052356E+03  0.44696052356E+03  0.00000000000E+00 0. -1.
        -13    1    1    2    0    0  0.13334992778E+02 -0.89780605303E+02  0.32065247632E+02  0.96263027122E+02  0.10566000000E+00 0.  1.
         13    1    1    2    0    0 -0.49161190674E+02  0.97978554340E+02 -0.37159679364E+03  0.38742845532E+03  0.10566000000E+00 0. -1.
          4    1    1    2  501    0  0.30120761552E+02  0.43318059073E+01 -0.27626779465E+02  0.41100654040E+02  0.00000000000E+00 0.  1.
         -4    1    1    2    0  502  0.57054363435E+01 -0.12529754944E+02  0.47108736906E+02  0.49079322078E+02  0.00000000000E+00 0. -1.
</event>
<event>
 6    1  0.5496865E-006  0.5695817E+02  0.7818608E-02  0.1265791E+00
         21   -1    0    0  501  502  0.00000000000E+00  0.00000000000E+00  0.10465203072E+03  0.10465203072E+03  0.00000000000E+00 0.  1.
         21   -1    0    0  502  503 -0.00000000000E+00 -0.00000000000E+00 -0.16054320597E+03  0.16054320597E+03  0.00000000000E+00 0.  1.
        -13    1    1    2    0    0  0.36775386376E+02 -0.43786243133E+02 -0.22340832194E+02  0.61390455919E+02  0.10566000000E+00 0.  1.
         13    1    1    2    0    0 -0.42594177119E+02  0.13710100732E+02  0.70978760658E+02  0.83906057082E+02  0.10566000000E+00 0. -1.
          4    1    1    2  501    0 -0.81710545411E+01  0.33469033225E+02 -0.35825556681E+02  0.49703247669E+02  0.00000000000E+00 0.  1.
         -4    1    1    2    0  503  0.13989845284E+02 -0.33928908238E+01 -0.68703547030E+02  0.70195476020E+02  0.00000000000E+00 0. -1.
</event>
<event>
 6    1  0.5496865E-006  0.9759484E+02  0.7818608E-02  0.1168597E+00
         21   -1    0    0  503  502  0.00000000000E+00  0.00000000000E+00  0.40139955528E+03  0.40139955528E+03  0.00000000000E+00 0.  1.
         21   -1    0    0  501  503 -0.00000000000E+00 -0.00000000000E+00 -0.16634644242E+03  0.16634644242E+03  0.00000000000E+00 0.  1.
        -13    1    1    2    0    0 -0.62980769949E+02  0.60995530635E+02  0.26559811360E+03  0.27969519347E+03  0.10566000000E+00 0.  1.
         13    1    1    2    0    0  0.61313328158E+02 -0.11066594340E+03  0.35396201469E+02  0.13137418880E+03  0.10566000000E+00 0. -1.
          4    1    1    2  501    0  0.11836236305E+02  0.48859881860E+02 -0.10494274626E+03  0.11636307205E+03  0.00000000000E+00 0.  1.
         -4    1    1    2    0  502 -0.10168794514E+02  0.81053090755E+00  0.39001544049E+02  0.40313543387E+02  0.00000000000E+00 0. -1.
</event>
<event>
 6    1  0.5496865E-006  0.2553474E+03  0.7818608E-02  0.1027658E+00
         21   -1    0    0  503  502  0.00000000000E+00  0.00000000000E+00  0.90580859615E+03  0.90580859615E+03  0.00000000000E+00 0. -1.
         21   -1    0    0  501  503 -0.00000000000E+00 -0.00000000000E+00 -0.46983759491E+03  0.46983759491E+03  0.00000000000E+00 0.  1.
        -13    1    1    2    0    0 -0.25838473378E+02 -0.29342728274E+03  0.69911685869E+02  0.30274552342E+03  0.10566000000E+00 0.  1.
         13    1    1    2    0    0  0.26187760234E+02  0.22928029750E+03 -0.32155015939E+02  0.23300045026E+03  0.10566000000E+00 0. -1.
          4    1    1    2  501    0 -0.20757957136E+02  0.98622071422E+01 -0.21888177675E+03  0.22008495656E+03  0.00000000000E+00 0.  1.
         -4    1    1    2    0  502  0.20408670280E+02  0.54284778107E+02  0.61709610806E+03  0.61981526082E+03  0.00000000000E+00 0. -1.
</event>
<event>
 6    1  0.5496865E-006  0.2532805E+03  0.7818608E-02  0.1055176E+00
         21   -1    0    0  501  502  0.00000000000E+00  0.00000000000E+00  0.13065010508E+04  0.13065010508E+04  0.00000000000E+00 0. -1.
         21   -1    0    0  502  503 -0.00000000000E+00 -0.00000000000E+00 -0.15858738487E+03  0.15858738487E+03  0.00000000000E+00 0. -1.
        -13    1    1    2    0    0  0.63858100300E+02  0.93244768899E+02 -0.58058524261E+02  0.12705607937E+03  0.10566000000E+00 0.  1.
         13    1    1    2    0    0  0.12090589879E+03 -0.26213520805E+03  0.58711658286E+03  0.65424689277E+03  0.10566000000E+00 0. -1.
          4    1    1    2  501    0  0.10587773545E+02  0.26879729687E+02  0.18495790110E+03  0.18720055021E+03  0.00000000000E+00 0.  1.
         -4    1    1    2    0  503 -0.19535177263E+03  0.14201070947E+03  0.43389770620E+03  0.49658491330E+03  0.00000000000E+00 0. -1.
</event>
<event>
 6    1  0.5496865E-006  0.1008180E+03  0.7818608E-02  0.1163209E+00
         21   -1    0    0  503  502  0.00000000000E+00  0.00000000000E+00  0.84590519098E+02  0.84590519098E+02  0.00000000000E+00 0.  1.
         21   -1    0    0  501  503 -0.00000000000E+00 -0.00000000000E+00 -0.21968839173E+03  0.21968839173E+03  0.00000000000E+00 0. -1.
        -13    1    1    2    0    0  0.51445013449E+02  0.69334623536E+02 -0.26355173391E+02  0.90268963427E+02  0.10566000000E+00 0.  1.
         13    1    1    2    0    0 -0.55736655519E+02 -0.10663785192E+03 -0.69825273634E+02  0.13911788610E+03  0.10566000000E+00 0. -1.
          4    1    1    2  501    0  0.13322066176E+02  0.18880243324E+02 -0.47367314742E+02  0.52702974689E+02  0.00000000000E+00 0.  1.
         -4    1    1    2    0  502 -0.90304241066E+01  0.18422985064E+02  0.84498891352E+01  0.22189086610E+02  0.00000000000E+00 0. -1.
</event>
<event>
 6    1  0.5496865E-006  0.1943016E+03  0.7818608E-02  0.1064114E+00
         21   -1    0    0  503  502  0.00000000000E+00  0.00000000000E+00  0.15331152336E+03  0.15331152336E+03  0.00000000000E+00 0. -1.
         21   -1    0    0  501  503 -0.00000000000E+00 -0.00000000000E+00 -0.38920815959E+03  0.38920815959E+03  0.00000000000E+00 0.  1.
        -13    1    1    2    0    0  0.17723726623E+03 -0.51113331292E+02 -0.33892775350E+02  0.18754826729E+03  0.10566000000E+00 0.  1.
         13    1    1    2    0    0 -0.18487046576E+03  0.55579098224E+02 -0.17497725658E+03  0.26054400157E+03  0.10566000000E+00 0. -1.
          4    1    1    2  501    0 -0.14788523168E+02  0.16842286346E+02 -0.50728166352E+02  0.55459083010E+02  0.00000000000E+00 0.  1.
         -4    1    1    2    0  502  0.22421722699E+02 -0.21308053278E+02  0.23701562057E+02  0.38968331081E+02  0.00000000000E+00 0. -1.
</event>
<event>
 6    1  0.5496865E-006  0.7126881E+02  0.7818608E-02  0.1223437E+00
         21   -1    0    0  501  502  0.00000000000E+00  0.00000000000E+00  0.41052444414E+03  0.41052444414E+03  0.00000000000E+00 0. -1.
         21   -1    0    0  502  503 -0.00000000000E+00 -0.00000000000E+00 -0.80746145157E+02  0.80746145157E+02  0.00000000000E+00 0.  1.
        -13    1    1    2    0    0 -0.35090439818E+02 -0.33100772536E+02 -0.53349131049E+02  0.71924551141E+02  0.10566000000E+00 0.  1.
         13    1    1    2    0    0  0.72144414386E+02  0.39816446490E+02  0.17304514215E+03  0.19166324198E+03  0.10566000000E+00 0. -1.
          4    1    1    2  501    0 -0.28405053586E+01 -0.17296266719E+02  0.18017317640E+03  0.18102376310E+03  0.00000000000E+00 0.  1.
         -4    1    1    2    0  503 -0.34213469209E+02  0.10580592764E+02  0.29909111482E+02  0.46659033082E+02  0.00000000000E+00 0. -1.
</event>
<event>
 6    1  0.5496865E-006  0.2664319E+03  0.7818608E-02  0.1022213E+00
         21   -1    0    0  501  502  0.00000000000E+00  0.00000000000E+00  0.23596498427E+03  0.23596498427E+03  0.00000000000E+00 0.  1.
         21   -1    0    0  502  503 -0.00000000000E+00 -0.00000000000E+00 -0.78574740681E+03  0.78574740681E+03  0.00000000000E+00 0.  1.
        -13    1    1    2    0    0 -0.31183880595E+03 -0.58544825497E+02 -0.34025057409E+03  0.46523263194E+03  0.10566000000E+00 0.  1.
         13    1    1    2    0    0  0.16456457466E+03  0.15095298576E+03 -0.65128754514E+02  0.23261571093E+03  0.10566000000E+00 0. -1.
          4    1    1    2  501    0  0.11488718120E+03 -0.22175922724E+02  0.40194922963E+02  0.12371931047E+03  0.00000000000E+00 0.  1.
         -4    1    1    2    0  503  0.32387050103E+02 -0.70232237541E+02 -0.18459801690E+03  0.20014473774E+03  0.00000000000E+00 0. -1.
</event>
<event>
 6    1  0.5496865E-006  0.1592873E+03  0.7818608E-02  0.1092297E+00
         21   -1    0    0  503  502  0.00000000000E+00  0.00000000000E+00  0.53815467622E+03  0.53815467622E+03  0.00000000000E+00 0. -1.
         21   -1    0    0  501  503 -0.00000000000E+00 -0.00000000000E+00 -0.91058357264E+03  0.91058357264E+03  0.00000000000E+00 0.  1.
        -13    1    1    2    0    0  0.12178811579E+03  0.72916933475E+02  0.68851778839E+02  0.15776502448E+03  0.10566000000E+00 0.  1.
         13    1    1    2    0    0 -0.13789482074E+03 -0.52644014683E+02 -0.13613593992E+03  0.20079686046E+03  0.10566000000E+00 0. -1.
          4    1    1    2  501    0 -0.34623187142E+02  0.10832903900E+02 -0.69492929517E+03  0.69587559390E+03  0.00000000000E+00 0.  1.
         -4    1    1    2    0  502  0.50729892090E+02 -0.31105822692E+02  0.38978455983E+03  0.39430077002E+03  0.00000000000E+00 0. -1.
</event>
<event>
 6    1  0.5496865E-006  0.2135639E+03  0.7818608E-02  0.1051215E+00
         21   -1    0    0  501  502  0.00000000000E+00  0.00000000000E+00  0.28253469710E+03  0.28253469710E+03  0.00000000000E+00 0. -1.
         21   -1    0    0  502  503 -0.00000000000E+00 -0.00000000000E+00 -0.68614282556E+03  0.68614282556E+03  0.00000000000E+00 0.  1.
        -13    1    1    2    0    0 -0.18992996647E+03 -0.12571850748E+03 -0.24447036825E+03  0.33413217055E+03  0.10566000000E+00 0.  1.
         13    1    1    2    0    0  0.59404217716E+02  0.14126814748E+03  0.12624004545E+03  0.19855002093E+03  0.10566000000E+00 0. -1.
          4    1    1    2  501    0  0.96624582645E+02  0.44342306069E+02  0.32171036907E+02  0.11107441512E+03  0.00000000000E+00 0.  1.
         -4    1    1    2    0  503  0.33901166108E+02 -0.59891946075E+02 -0.31754884257E+03  0.32492091605E+03  0.00000000000E+00 0. -1.
</event>
<event>
 6    1  0.5496865E-006  0.1000205E+03  0.7818608E-02  0.1175908E+00
         21   -1    0    0  501  502  0.00000000000E+00  0.00000000000E+00  0.71490749205E+02  0.71490749205E+02  0.00000000000E+00 0. -1.
         21   -1    0    0  502  503 -0.00000000000E+00 -0.00000000000E+00 -0.45406833964E+03  0.45406833964E+03  0.00000000000E+00 0. -1.
        -13    1    1    2    0    0  0.26760408971E+02 -0.74019482200E+01  0.61797445848E+01  0.28444836666E+02  0.10566000000E+00 0.  1.
         13    1    1    2    0    0  0.36597368279E+02  0.12250407571E+03 -0.22434143663E+03  0.25821639623E+03  0.10566000000E+00 0. -1.
          4    1    1    2  501    0 -0.69021957075E+02 -0.32173201078E+02 -0.32104332474E+02  0.82642807247E+02  0.00000000000E+00 0.  1.
         -4    1    1    2    0  503  0.56641798244E+01 -0.82928926412E+02 -0.13231156592E+03  0.15625504870E+03  0.00000000000E+00 0. -1.
</event>
<event>
 6    1  0.5496865E-006  0.5529356E+02  0.7818608E-02  0.1271618E+00
         21   -1    0    0  503  502  0.00000000000E+00  0.00000000000E+00  0.28915240192E+03  0.28915240192E+03  0.00000000000E+00 0. -1.
         21   -1    0    0  501  503 -0.00000000000E+00 -0.00000000000E+00 -0.49625840287E+02  0.49625840287E+02  0.00000000000E+00 0. -1.
        -13    1    1    2    0    0  0.12168034784E+02  0.59916858028E+02  0.85853446894E+02  0.10539884465E+03  0.10566000000E+00 0.  1.
         13    1    1    2    0    0 -0.13823023956E+02 -0.45523743533E+02  0.23513835577E+02  0.53069754514E+02  0.10566000000E+00 0. -1.
          4    1    1    2  501    0 -0.26110861659E+02 -0.49901984893E+01 -0.16141857042E+02  0.31100461834E+02  0.00000000000E+00 0.  1.
         -4    1    1    2    0  502  0.27765850832E+02 -0.94029160051E+01  0.14630113621E+03  0.14920918121E+03  0.00000000000E+00 0. -1.
</event>
<event>
 6    1  0.5496865E-006  0.3695106E+02  0.7818608E-02  0.1400379E+00
         21   -1    0    0  501  502  0.00000000000E+00  0.00000000000E+00  0.66609075992E+02  0.66609075992E+02  0.00000000000E+00 0.  1.
         21   -1    0    0  502  503 -0.00000000000E+00 -0.00000000000E+00 -0.94622137706E+02  0.94622137706E+02  0.00000000000E+00 0.  1.
        -13    1    1    2    0    0  0.49769358229E+01  0.17039728894E+02 -0.57082831249E+02  0.59779453313E+02  0.10566000000E+00 0.  1.
         13    1    1    2    0    0  0.32161706386E+02  0.17814402665E+02 -0.34227605890E+01  0.36924988207E+02  0.10566000000E+00 0. -1.
          4    1    1    2  501    0 -0.69484613776E+01 -0.12761714097E+02  0.20721238794E+02  0.25308342486E+02  0.00000000000E+00 0.  1.
         -4    1    1    2    0  503 -0.30190180832E+02 -0.22092417461E+02  0.11771291330E+02  0.39218429692E+02  0.00000000000E+00 0. -1.
</event>
<event>
 6    1  0.5496865E-006  0.4004560E+02  0.7818608E-02  0.1372027E+00
         21   -1    0    0  501  502  0.00000000000E+00  0.00000000000E+00  0.32492984215E+03  0.32492984215E+03  0.00000000000E+00 0.  1.
         21   -1    0    0  502  503 -0.00000000000E+00 -0.00000000000E+00 -0.15742430137E+03  0.15742430137E+03  0.00000000000E+00 0.  1.
        -13    1    1    2    0    0  0.54574539342E+02  0.36281405077E+02 -0.99487303410E+02  0.11913209224E+03  0.10566000000E+00 0.  1.
         13    1    1    2    0    0 -0.32943635985E+02  0.84940798653E+01  0.13555759462E+02  0.36622429238E+02  0.10566000000E+00 0. -1.
          4    1    1    2  501    0  0.13214943365E+02  0.44746857250E+00  0.26748044761E+03  0.26780706639E+03  0.00000000000E+00 0.  1.
         -4    1    1    2    0  503 -0.34845846722E+02 -0.45222953514E+02 -0.14043362885E+02  0.58792555646E+02  0.00000000000E+00 0. -1.
</event>
<event>
 6    1  0.5496865E-006  0.6383493E+02  0.7818608E-02  0.1250115E+00
         21   -1    0    0  501  502  0.00000000000E+00  0.00000000000E+00  0.43754548658E+02  0.43754548658E+02  0.00000000000E+00 0.  1.
         21   -1    0    0  502  503 -0.00000000000E+00 -0.00000000000E+00 -0.39741331633E+03  0.39741331633E+03  0.00000000000E+00 0.  1.
        -13    1    1    2    0    0  0.70948138177E+02 -0.14399494841E+01 -0.21271413245E+03  0.22423876800E+03  0.10566000000E+00 0.  1.
         13    1    1    2    0    0 -0.20852090734E+02 -0.55607839391E+02 -0.34618426815E+02  0.68742185948E+02  0.10566000000E+00 0. -1.
          4    1    1    2  501    0 -0.15865747500E+02 -0.23854966790E+01  0.55362745115E+01  0.16972415079E+02  0.00000000000E+00 0.  1.
         -4    1    1    2    0  503 -0.34230299943E+02  0.59433285554E+02 -0.11186248292E+03  0.13121449597E+03  0.00000000000E+00 0. -1.
</event>
<event>
 6    1  0.5496865E-006  0.1562339E+03  0.7818608E-02  0.1121073E+00
         21   -1    0    0  503  502  0.00000000000E+00  0.00000000000E+00  0.30854994654E+03  0.30854994654E+03  0.00000000000E+00 0.  1.
         21   -1    0    0  501  503 -0.00000000000E+00 -0.00000000000E+00 -0.16106601315E+04  0.16106601315E+04  0.00000000000E+00 0.  1.
        -13    1    1    2    0    0 -0.77660930336E+02  0.72836032108E+01  0.18198323124E+03  0.19799540043E+03  0.10566000000E+00 0.  1.
         13    1    1    2    0    0  0.55953091287E+02  0.17547132965E+03 -0.11389031567E+03  0.21654549434E+03  0.10566000000E+00 0. -1.
          4    1    1    2  501    0 -0.74595280829E+01 -0.36224012207E+02 -0.13538681614E+04  0.13543732211E+04  0.00000000000E+00 0.  1.
         -4    1    1    2    0  502  0.29167367132E+02 -0.14653092065E+03 -0.16334939151E+02  0.15029596218E+03  0.00000000000E+00 0. -1.
</event>
<event>
 6    1  0.5496865E-006  0.4132170E+02  0.7818608E-02  0.1331808E+00
         21   -1    0    0  503  502  0.00000000000E+00  0.00000000000E+00  0.26741077176E+02  0.26741077176E+02  0.00000000000E+00 0.  1.
         21   -1    0    0  501  503 -0.00000000000E+00 -0.00000000000E+00 -0.22522698700E+03  0.22522698700E+03  0.00000000000E+00 0. -1.
        -13    1    1    2    0    0  0.34989576071E+02  0.34503416924E+01 -0.98786770828E+01  0.36520880553E+02  0.10566000000E+00 0.  1.
         13    1    1    2    0    0 -0.33893854465E+02 -0.68092769070E+01 -0.15507163872E+03  0.15887851938E+03  0.10566000000E+00 0. -1.
          4    1    1    2  501    0 -0.14104531733E+02  0.18124876841E+02 -0.27823097244E+02  0.36077329670E+02  0.00000000000E+00 0.  1.
         -4    1    1    2    0  502  0.13008810127E+02 -0.14765941626E+02 -0.57124967815E+01  0.20491334571E+02  0.00000000000E+00 0. -1.
</event>
<event>
 6    1  0.5496865E-006  0.2918026E+03  0.7818608E-02  0.1010748E+00
         21   -1    0    0  501  502  0.00000000000E+00  0.00000000000E+00  0.14741888825E+03  0.14741888825E+03  0.00000000000E+00 0.  1.
         21   -1    0    0  502  503 -0.00000000000E+00 -0.00000000000E+00 -0.76262365669E+03  0.76262365669E+03  0.00000000000E+00 0. -1.
        -13    1    1    2    0    0  0.23623673642E+03 -0.14725140957E+03 -0.36376597839E+03  0.45805727967E+03  0.10566000000E+00 0.  1.
         13    1    1    2    0    0 -0.22907480513E+03  0.19207230323E+03 -0.15037543257E+03  0.33463385648E+03  0.10566000000E+00 0. -1.
          4    1    1    2  501    0  0.48081160898E+01 -0.37444617989E+02 -0.94642978703E+02  0.10189460640E+03  0.00000000000E+00 0.  1.
         -4    1    1    2    0  503 -0.11970047372E+02 -0.73762756633E+01 -0.64203787760E+01  0.15456802398E+02  0.00000000000E+00 0. -1.
</event>
<event>
 6    1  0.5496865E-006  0.7162892E+02  0.7818608E-02  0.1222517E+00
         21   -1    0    0  503  502  0.00000000000E+00  0.00000000000E+00  0.60474026773E+03  0.60474026773E+03  0.00000000000E+00 0.  1.
         21   -1    0    0  501  503 -0.00000000000E+00 -0.00000000000E+00 -0.29363622877E+02  0.29363622877E+02  0.00000000000E+00 0. -1.
        -13    1    1    2    0    0 -0.83952046452E+02 -0.28825824915E+02  0.90068660570E+02  0.12645651057E+03  0.10566000000E+00 0.  1.
         13    1    1    2    0    0  0.53834980394E+02  0.19432101775E+02  0.12690880479E+03  0.13921805770E+03  0.10566000000E+00 0. -1.
          4    1    1    2  501    0  0.14728717052E+02  0.17832589311E+01  0.66449255784E+01  0.16256388109E+02  0.00000000000E+00 0.  1.
         -4    1    1    2    0  502  0.15388349006E+02  0.76104642085E+01  0.35175425391E+03  0.35217293422E+03  0.00000000000E+00 0. -1.
</event>
<event>
 6    1  0.5496865E-006  0.2191705E+03  0.7818608E-02  0.1047733E+00
         21   -1    0    0  501  502  0.00000000000E+00  0.00000000000E+00  0.56167443331E+03  0.56167443331E+03  0.00000000000E+00 0. -1.
         21   -1    0    0  502  503 -0.00000000000E+00 -0.00000000000E+00 -0.78198698109E+03  0.78198698109E+03  0.00000000000E+00 0. -1.
        -13    1    1    2    0    0  0.42484875945E+02  0.22986513047E+03  0.12515307427E+03  0.26515325012E+03  0.10566000000E+00 0.  1.
         13    1    1    2    0    0 -0.12919666889E+03 -0.15062233602E+03  0.29670564051E+03  0.35694973825E+03  0.10566000000E+00 0. -1.
          4    1    1    2  501    0  0.22801521620E+02 -0.11994566134E+03 -0.62883238881E+02  0.13733598506E+03  0.00000000000E+00 0.  1.
         -4    1    1    2    0  503  0.63910271322E+02  0.40702866889E+02 -0.57928802368E+03  0.58422244097E+03  0.00000000000E+00 0. -1.
</event>
<event>
 6    1  0.5496865E-006  0.3264786E+03  0.7818608E-02  0.9969384E-01
         21   -1    0    0  501  502  0.00000000000E+00  0.00000000000E+00  0.50157925535E+03  0.50157925535E+03  0.00000000000E+00 0. -1.
         21   -1    0    0  502  503 -0.00000000000E+00 -0.00000000000E+00 -0.54764762603E+03  0.54764762603E+03  0.00000000000E+00 0.  1.
        -13    1    1    2    0    0 -0.29418904184E+03 -0.76175850257E+02 -0.25493256791E+03  0.39666179277E+03  0.10566000000E+00 0.  1.
         13    1    1    2    0    0  0.32100465334E+03  0.50459684732E+02  0.19407875656E+02  0.32552548910E+03  0.10566000000E+00 0. -1.
          4    1    1    2  501    0  0.13105251872E+02  0.74823243772E+02  0.23636019135E+03  0.24826680303E+03  0.00000000000E+00 0.  1.
         -4    1    1    2    0  503 -0.39920863368E+02 -0.49107078247E+02 -0.46903869772E+02  0.78772796482E+02  0.00000000000E+00 0. -1.
</event>
<event>
 6    1  0.5496865E-006  0.2561462E+03  0.7818608E-02  0.1027256E+00
         21   -1    0    0  503  502  0.00000000000E+00  0.00000000000E+00  0.26732704096E+03  0.26732704096E+03  0.00000000000E+00 0.  1.
         21   -1    0    0  501  503 -0.00000000000E+00 -0.00000000000E+00 -0.29124747357E+03  0.29124747357E+03  0.00000000000E+00 0. -1.
        -13    1    1    2    0    0 -0.18585174210E+03 -0.19160930834E+03  0.78047094055E+00  0.26693747842E+03  0.10566000000E+00 0.  1.
         13    1    1    2    0    0  0.17348716654E+03  0.17380999608E+03 -0.46318106514E+02  0.24990616208E+03  0.10566000000E+00 0. -1.
          4    1    1    2  501    0 -0.12547326584E+01  0.17539063943E+02  0.17892739549E+01  0.17674688663E+02  0.00000000000E+00 0.  1.
         -4    1    1    2    0  502  0.13619308223E+02  0.26024831658E+00  0.19827929012E+02  0.24056185370E+02  0.00000000000E+00 0. -1.
</event>
<event>
 6    1  0.5496865E-006  0.2387334E+03  0.7818608E-02  0.1036402E+00
         21   -1    0    0  501  502  0.00000000000E+00  0.00000000000E+00  0.14709150544E+03  0.14709150544E+03  0.00000000000E+00 0. -1.
         21   -1    0    0  502  503 -0.00000000000E+00 -0.00000000000E+00 -0.58400574987E+03  0.58400574987E+03  0.00000000000E+00 0.  1.
        -13    1    1    2    0    0 -0.15220865881E+02  0.23908804907E+03 -0.26493233557E+03  0.35718891859E+03  0.10566000000E+00 0.  1.
         13    1    1    2    0    0  0.38270304183E+02 -0.22857682303E+03 -0.66464168543E+02  0.24110055387E+03  0.10566000000E+00 0. -1.
          4    1    1    2  501    0  0.76922096402E+01 -0.14562140366E+02  0.56387433522E+01  0.17407511246E+02  0.00000000000E+00 0.  1.
         -4    1    1    2    0  503 -0.30741647942E+02  0.40509143311E+01 -0.11115648367E+03  0.11540027160E+03  0.00000000000E+00 0. -1.
</event>
<event>
 6    1  0.5496865E-006  0.7407302E+02  0.7818608E-02  0.1216429E+00
         21   -1    0    0  501  502  0.00000000000E+00  0.00000000000E+00  0.16327150311E+03  0.16327150311E+03  0.00000000000E+00 0. -1.
         21   -1    0    0  502  503 -0.00000000000E+00 -0.00000000000E+00 -0.13302527142E+03  0.13302527142E+03  0.00000000000E+00 0.  1.
        -13    1    1    2    0    0  0.33072344855E+02  0.32130136297E+02 -0.94121687410E+02  0.10480948839E+03  0.10566000000E+00 0.  1.
         13    1    1    2    0    0 -0.54027188459E+02 -0.53034429551E+02  0.12330968340E+03  0.14469580849E+03  0.10566000000E+00 0. -1.
          4    1    1    2  501    0 -0.92784527699E+01  0.64623544158E+01  0.61972839211E+01  0.12894108670E+02  0.00000000000E+00 0.  1.
         -4    1    1    2    0  503  0.30233296374E+02  0.14441938838E+02 -0.51390482225E+01  0.33897368979E+02  0.00000000000E+00 0. -1.
</event>
<event>
 6    1  0.5496865E-006  0.2158239E+03  0.7818608E-02  0.1049798E+00
         21   -1    0    0  503  502  0.00000000000E+00  0.00000000000E+00  0.72095175590E+03  0.72095175590E+03  0.00000000000E+00 0. -1.
         21   -1    0    0  501  503 -0.00000000000E+00 -0.00000000000E+00 -0.10156575068E+03  0.10156575068E+03  0.00000000000E+00 0.  1.
        -13    1    1    2    0    0  0.19585431820E+03 -0.65077790220E+02  0.33412009707E+03  0.39272163573E+03  0.10566000000E+00 0.  1.
         13    1    1    2    0    0 -0.20361596588E+03  0.99508523025E+02  0.11287256701E+03  0.25318300745E+03  0.10566000000E+00 0. -1.
          4    1    1    2  501    0  0.68612166790E+01 -0.88008778173E+01  0.31839068853E+02  0.33738080119E+02  0.00000000000E+00 0.  1.
         -4    1    1    2    0  502  0.90043100457E+00 -0.25629854987E+02  0.14055427228E+03  0.14287478328E+03  0.00000000000E+00 0. -1.
</event>
<event>
 6    1  0.5496865E-006  0.3664350E+02  0.7818608E-02  0.1358329E+00
         21   -1    0    0  503  502  0.00000000000E+00  0.00000000000E+00  0.62706982583E+02  0.62706982583E+02  0.00000000000E+00 0. -1.
         21   -1    0    0  501  503 -0.00000000000E+00 -0.00000000000E+00 -0.30222579414E+03  0.30222579414E+03  0.00000000000E+00 0. -1.
        -13    1    1    2    0    0 -0.29619166023E+02  0.97488818653E+01  0.29731604958E+02  0.43084976395E+02  0.10566000000E+00 0.  1.
         13    1    1    2    0    0  0.42555654005E+02 -0.10071200794E+02 -0.17395264597E+03  0.17936540072E+03  0.10566000000E+00 0. -1.
          4    1    1    2  501    0 -0.57587113183E+01  0.97519539070E+01 -0.11711130206E+03  0.11765764077E+03  0.00000000000E+00 0.  1.
         -4    1    1    2    0  502 -0.71777766639E+01 -0.94296349781E+01  0.21813531519E+02  0.24824758830E+02  0.00000000000E+00 0. -1.
</event>
<event>
 6    1  0.5496865E-006  0.1479594E+03  0.7818608E-02  0.1103142E+00
         21   -1    0    0  501  502  0.00000000000E+00  0.00000000000E+00  0.27104828841E+03  0.27104828841E+03  0.00000000000E+00 0. -1.
         21   -1    0    0  502  503 -0.00000000000E+00 -0.00000000000E+00 -0.26774537999E+03  0.26774537999E+03  0.00000000000E+00 0.  1.
        -13    1    1    2    0    0  0.64578788267E+02  0.15152455921E+03 -0.17055861579E+03  0.23710833921E+03  0.10566000000E+00 0.  1.
         13    1    1    2    0    0  0.26034410197E+01 -0.13749485336E+03  0.64896787599E+02  0.15206320005E+03  0.10566000000E+00 0. -1.
          4    1    1    2  501    0  0.10210169957E+02 -0.21626445364E+02  0.34314453243E+02  0.41826216790E+02  0.00000000000E+00 0.  1.
         -4    1    1    2    0  503 -0.77392399244E+02  0.75967395153E+01  0.74650283373E+02  0.10779591235E+03  0.00000000000E+00 0. -1.
</event>
<event>
 6    1  0.5496865E-006  0.6166148E+02  0.7818608E-02  0.1317096E+00
         21   -1    0    0  503  502  0.00000000000E+00  0.00000000000E+00  0.15829466092E+03  0.15829466092E+03  0.00000000000E+00 0.  1.
         21   -1    0    0  501  503 -0.00000000000E+00 -0.00000000000E+00 -0.13465677801E+03  0.13465677801E+03  0.00000000000E+00 0.  1.
        -13    1    1    2    0    0 -0.55504872844E+02 -0.33383881296E+02  0.12540604252E+03  0.14114517741E+03  0.10566000000E+00 0.  1.
         13    1    1    2    0    0 -0.14197497131E+01  0.16048642925E+02 -0.13828022115E+02  0.21232050976E+02  0.10566000000E+00 0. -1.
          4    1    1    2  501    0  0.61353413072E+02  0.74736428766E+01 -0.97963800188E+02  0.11583178657E+03  0.00000000000E+00 0.  1.
         -4    1    1    2    0  502 -0.44287905154E+01  0.98615954935E+01  0.10023662684E+02  0.14742423977E+02  0.00000000000E+00 0. -1.
</event>
<event>
 6    1  0.5496865E-006  0.6266043E+02  0.7818608E-02  0.1247411E+00
         21   -1    0    0  501  502  0.00000000000E+00  0.00000000000E+00  0.31615480642E+02  0.31615480642E+02  0.00000000000E+00 0.  1.
         21   -1    0    0  502  503 -0.00000000000E+00 -0.00000000000E+00 -0.97885201071E+03  0.97885201071E+03  0.00000000000E+00 0. -1.
        -13    1    1    2    0    0  0.50806490050E+02 -0.91315487627E+01 -0.17332736436E+03  0.18085096354E+03  0.10566000000E+00 0.  1.
         13    1    1    2    0    0 -0.77381717168E+02 -0.24941953312E+02 -0.30649276830E+03  0.31709282454E+03  0.10566000000E+00 0. -1.
          4    1    1    2  501    0  0.13055740403E+02  0.22476820539E+01  0.19941361597E+02  0.23940808976E+02  0.00000000000E+00 0.  1.
         -4    1    1    2    0  503  0.13519486714E+02  0.31825820021E+02 -0.48735775900E+03  0.48858289429E+03  0.00000000000E+00 0. -1.
</event>
<event>
 6    1  0.5496865E-006  0.3012829E+02  0.7818608E-02  0.1428863E+00
         21   -1    0    0  501  502  0.00000000000E+00  0.00000000000E+00  0.28375640204E+02  0.28375640204E+02  0.00000000000E+00 0.  1.
         21   -1    0    0  502  503 -0.00000000000E+00 -0.00000000000E+00 -0.12199316709E+03  0.12199316709E+03  0.00000000000E+00 0. -1.
        -13    1    1    2    0    0  0.42261937243E+02  0.16072590591E+02 -0.29607666068E+02  0.54046503697E+02  0.10566000000E+00 0.  1.
         13    1    1    2    0    0 -0.15779955185E+02 -0.13217468269E+02 -0.20948899120E+02  0.29369644047E+02  0.10566000000E+00 0. -1.
          4    1    1    2  501    0 -0.22028633705E+02 -0.12169141887E+02 -0.27215867222E+01  0.25313153724E+02  0.00000000000E+00 0.  1.
         -4    1    1    2    0  503 -0.44533483530E+01  0.93140195654E+01 -0.40339374971E+02  0.41639505822E+02  0.00000000000E+00 0. -1.
</event>
<event>
 6    1  0.5496865E-006  0.5080417E+03  0.7818608E-02  0.9460519E-01
         21   -1    0    0  501  502  0.00000000000E+00  0.00000000000E+00  0.51812532050E+03  0.51812532050E+03  0.00000000000E+00 0.  1.
         21   -1    0    0  502  503 -0.00000000000E+00 -0.00000000000E+00 -0.13778960503E+04  0.13778960503E+04  0.00000000000E+00 0.  1.
        -13    1    1    2    0    0 -0.52864794052E+03 -0.77929567363E+02 -0.27103857541E+03  0.59916907714E+03  0.10566000000E+00 0.  1.
         13    1    1    2    0    0  0.47584820474E+03  0.87862226582E+02 -0.11344852051E+03  0.49701294026E+03  0.10566000000E+00 0. -1.
          4    1    1    2  501    0  0.25070884696E+02 -0.15452992038E+02  0.16062496092E+03  0.16330254834E+03  0.00000000000E+00 0.  1.
         -4    1    1    2    0  503  0.27728851078E+02  0.55203328184E+01 -0.63590859479E+03  0.63653680505E+03  0.00000000000E+00 0. -1.
</event>
<event>
 6    1  0.5496865E-006  0.5825282E+02  0.7818608E-02  0.1261412E+00
         21   -1    0    0  503  502  0.00000000000E+00  0.00000000000E+00  0.23215504708E+03  0.23215504708E+03  0.00000000000E+00 0. -1.
         21   -1    0    0  501  503 -0.00000000000E+00 -0.00000000000E+00 -0.41611000504E+03  0.41611000504E+03  0.00000000000E+00 0.  1.
        -13    1    1    2    0    0 -0.39775617247E+02 -0.25854502088E+02  0.10395647949E+03  0.11426948761E+03  0.10566000000E+00 0.  1.
         13    1    1    2    0    0  0.30480831611E+02  0.23699935857E+02 -0.16370279705E+03  0.16819448558E+03  0.10566000000E+00 0. -1.
          4    1    1    2  501    0  0.19316587461E+02  0.90562063289E+01 -0.24423222260E+03  0.24516224012E+03  0.00000000000E+00 0.  1.
         -4    1    1    2    0  502 -0.10021801824E+02 -0.69016400984E+01  0.12002358219E+03  0.12063883881E+03  0.00000000000E+00 0. -1.
</event>
<event>
 6    1  0.5496865E-006  0.2159330E+03  0.7818608E-02  0.1049730E+00
         21   -1    0    0  503  502  0.00000000000E+00  0.00000000000E+00  0.11391514389E+04  0.11391514389E+04  0.00000000000E+00 0. -1.
         21   -1    0    0  501  503 -0.00000000000E+00 -0.00000000000E+00 -0.14824675569E+03  0.14824675569E+03  0.00000000000E+00 0. -1.
        -13    1    1    2    0    0 -0.23540084464E+03  0.20115792002E+02  0.47350088043E+03  0.52917038625E+03  0.10566000000E+00 0.  1.
         13    1    1    2    0    0  0.20079852014E+03  0.35586824608E+02 -0.10608605301E+02  0.20420338255E+03  0.10566000000E+00 0. -1.
          4    1    1    2  501    0  0.13037562708E+02 -0.95427665865E+01 -0.62608184320E+01  0.17327443058E+02  0.00000000000E+00 0.  1.
         -4    1    1    2    0  502  0.21564761795E+02 -0.46159850023E+02  0.53427322656E+03  0.53669698278E+03  0.00000000000E+00 0. -1.
</event>
<event>
 6    1  0.5496865E-006  0.4184091E+02  0.7818608E-02  0.1329112E+00
         21   -1    0    0  501  502  0.00000000000E+00  0.00000000000E+00  0.66197143168E+03  0.66197143168E+03  0.00000000000E+00 0. -1.
         21   -1    0    0  502  503 -0.00000000000E+00 -0.00000000000E+00 -0.11315163005E+02  0.11315163005E+02  0.00000000000E+00 0.  1.
        -13    1    1    2    0    0 -0.16530996999E+02 -0.24810582030E+02  0.17992899380E+03  0.18238227111E+03  0.10566000000E+00 0.  1.
         13    1    1    2    0    0  0.60533635570E+02  0.19453937017E+02  0.26528835312E+03  0.27280157288E+03  0.10566000000E+00 0. -1.
          4    1    1    2  501    0 -0.35144240113E+02  0.11741017304E+02  0.20370385751E+03  0.20704644567E+03  0.00000000000E+00 0.  1.
         -4    1    1    2    0  503 -0.88583984572E+01 -0.63843722908E+01  0.17350642440E+01  0.11056305020E+02  0.00000000000E+00 0. -1.
</event>
<event>
 6    1  0.5496865E-006  0.3083144E+02  0.7818608E-02  0.1400763E+00
         21   -1    0    0  503  502  0.00000000000E+00  0.00000000000E+00  0.10296457956E+03  0.10296457956E+03  0.00000000000E+00 0. -1.
         21   -1    0    0  501  503 -0.00000000000E+00 -0.00000000000E+00 -0.10820581727E+03  0.10820581727E+03  0.00000000000E+00 0. -1.
        -13    1    1    2    0    0 -0.25706754834E+02  0.17143245472E+02  0.16714349283E+02  0.35129883936E+02  0.10566000000E+00 0.  1.
         13    1    1    2    0    0  0.36448454525E+02  0.24017122467E+02 -0.58123720006E+02  0.72688995042E+02  0.10566000000E+00 0. -1.
          4    1    1    2  501    0  0.37248117275E+01 -0.14404709877E+02 -0.28353405387E+02  0.32020079420E+02  0.00000000000E+00 0.  1.
         -4    1    1    2    0  502 -0.14466511419E+02 -0.26755658062E+02  0.64521538400E+02  0.71331438430E+02  0.00000000000E+00 0. -1.
</event>
<event>
 6    1  0.5496865E-006  0.9760043E+02  0.7818608E-02  0.1179500E+00
         21   -1    0    0  503  502  0.00000000000E+00  0.00000000000E+00  0.10884357474E+03  0.10884357474E+03  0.00000000000E+00 0.  1.
         21   -1    0    0  501  503 -0.00000000000E+00 -0.00000000000E+00 -0.14708996015E+04  0.14708996015E+04  0.00000000000E+00 0. -1.
        -13    1    1    2    0    0  0.56261558544E+02 -0.99531065438E+02  0.24373335900E+02  0.11690109762E+03  0.10566000000E+00 0.  1.
         13    1    1    2    0    0  0.16346934939E+02  0.11283631458E+03 -0.40369402131E+03  0.41948555419E+03  0.10566000000E+00 0. -1.
          4    1    1    2  501    0  0.38106975216E+02 -0.76784451795E+02 -0.86651651741E+03  0.87074615621E+03  0.00000000000E+00 0.  1.
         -4    1    1    2    0  502 -0.11071546870E+03  0.63479202648E+02 -0.11621882390E+03  0.17261036819E+03  0.00000000000E+00 0. -1.
</event>
<event>
 6    1  0.5496865E-006  0.3962479E+02  0.7818608E-02  0.1372616E+00
         21   -1    0    0  503  502  0.00000000000E+00  0.00000000000E+00  0.61450847778E+03  0.61450847778E+03  0.00000000000E+00 0. -1.
         21   -1    0    0  501  503 -0.00000000000E+00 -0.00000000000E+00 -0.29983979257E+02  0.29983979257E+02  0.00000000000E+00 0. -1.
        -13    1    1    2    0    0 -0.43016773861E+02 -0.51008274986E+02  0.39874506496E+03  0.40428940741E+03  0.10566000000E+00 0.  1.
         13    1    1    2    0    0  0.95797923639E+01  0.20290334134E+02 -0.17630815691E+02  0.28536413702E+02  0.10566000000E+00 0. -1.
          4    1    1    2  501    0  0.23514810605E+02  0.25206071437E+02  0.72636084084E+02  0.80400827521E+02  0.00000000000E+00 0.  1.
         -4    1    1    2    0  502  0.99221708921E+01  0.55118694146E+01  0.13077416517E+03  0.13126580840E+03  0.00000000000E+00 0. -1.
</event>
<event>
 6    1  0.5496865E-006  0.1866647E+03  0.7818608E-02  0.1069683E+00
         21   -1    0    0  501  502  0.00000000000E+00  0.00000000000E+00  0.11993982646E+04  0.11993982646E+04  0.00000000000E+00 0. -1.
         21   -1    0    0  502  503 -0.00000000000E+00 -0.00000000000E+00 -0.94551617397E+02  0.94551617397E+02  0.00000000000E+00 0.  1.
        -13    1    1    2    0    0 -0.17274985847E+03  0.29450222639E+02  0.15180023155E+03  0.23184725722E+03  0.10566000000E+00 0.  1.
         13    1    1    2    0    0  0.22562319947E+03 -0.57917634869E+02  0.73692283334E+03  0.77286192429E+03  0.10566000000E+00 0. -1.
          4    1    1    2  501    0 -0.51203401141E+02  0.39990062255E+02  0.24744145401E+03  0.25582858818E+03  0.00000000000E+00 0.  1.
         -4    1    1    2    0  503 -0.16699398522E+01 -0.11522650026E+02 -0.31317871684E+02  0.33412112318E+02  0.00000000000E+00 0. -1.
</event>
<event>
 6    1  0.5496865E-006  0.3775967E+02  0.7818608E-02  0.1351606E+00
         21   -1    0    0  501  502  0.00000000000E+00  0.00000000000E+00  0.24629853720E+03  0.24629853720E+03  0.00000000000E+00 0.  1.
         21   -1    0    0  502  503 -0.00000000000E+00 -0.00000000000E+00 -0.22322870453E+02  0.22322870453E+02  0.00000000000E+00 0. -1.
        -13    1    1    2    0    0 -0.28361906563E+01 -0.34354401578E+02  0.37482825041E+02  0.50923886559E+02  0.10566000000E+00 0.  1.
         13    1    1    2    0    0  0.32707510299E+02  0.34798681153E+02  0.43352024196E+02  0.64499136474E+02  0.10566000000E+00 0. -1.
          4    1    1    2  501    0 -0.16295017668E+02  0.58635634886E+01  0.13510005241E+03  0.13620548131E+03  0.00000000000E+00 0.  1.
         -4    1    1    2    0  503 -0.13576301975E+02 -0.63078430636E+01  0.80407650944E+01  0.16992903305E+02  0.00000000000E+00 0. -1.
</event>
<event>
 6    1  0.5496865E-006  0.9037067E+02  0.7818608E-02  0.1181552E+00
         21   -1    0    0  501  502  0.00000000000E+00  0.00000000000E+00  0.33187051905E+03  0.33187051905E+03  0.00000000000E+00 0. -1.
         21   -1    0    0  502  503 -0.00000000000E+00 -0.00000000000E+00 -0.99720324399E+02  0.99720324399E+02  0.00000000000E+00 0. -1.
        -13    1    1    2    0    0 -0.24296175687E+02  0.10631486889E+03 -0.65186965324E+00  0.10905774433E+03  0.10566000000E+00 0.  1.
         13    1    1    2    0    0 -0.15579297942E+02 -0.42009411724E+02  0.22621476884E+03  0.23060927563E+03  0.10566000000E+00 0. -1.
          4    1    1    2  501    0  0.17631179666E+02 -0.82217132504E+01 -0.18252992659E+02  0.26676334197E+02  0.00000000000E+00 0.  1.
         -4    1    1    2    0  503  0.22244293962E+02 -0.56083743916E+02  0.24840288119E+02  0.65247489296E+02  0.00000000000E+00 0. -1.
</event>
<event>
 6    1  0.5496865E-006  0.1311763E+03  0.7818608E-02  0.1121317E+00
         21   -1    0    0  501  502  0.00000000000E+00  0.00000000000E+00  0.10599332629E+03  0.10599332629E+03  0.00000000000E+00 0. -1.
         21   -1    0    0  502  503 -0.00000000000E+00 -0.00000000000E+00 -0.60903155844E+03  0.60903155844E+03  0.00000000000E+00 0.  1.
        -13    1    1    2    0    0 -0.11839376871E+01 -0.15236613156E+03 -0.44417614811E+03  0.46958417932E+03  0.10566000000E+00 0.  1.
         13    1    1    2    0    0 -0.39593532448E+02  0.13886868521E+03 -0.40754483761E+02  0.15004365583E+03  0.10566000000E+00 0. -1.
          4    1    1    2  501    0  0.91137475276E+01 -0.22220226017E+02  0.22363905422E+02  0.32816811301E+02  0.00000000000E+00 0.  1.
         -4    1    1    2    0  503  0.31663722608E+02  0.35717672370E+02 -0.40471505706E+02  0.62580238279E+02  0.00000000000E+00 0. -1.
</event>
<event>
 6    1  0.5496865E-006  0.1266811E+03  0.7818608E-02  0.1126691E+00
         21   -1    0    0  501  502  0.00000000000E+00  0.00000000000E+00  0.32343383728E+03  0.32343383728E+03  0.00000000000E+00 0.  1.
         21   -1    0    0  502  503 -0.00000000000E+00 -0.00000000000E+00 -0.67796169226E+03  0.67796169226E+03  0.00000000000E+00 0. -1.
        -13    1    1    2    0    0  0.14034770596E+03  0.28757191948E+02 -0.26231048709E+02  0.14564523246E+03  0.10566000000E+00 0.  1.
         13    1    1    2    0    0 -0.11468019516E+03 -0.20593503960E+02 -0.97791789185E+02  0.15211470923E+03  0.10566000000E+00 0. -1.
          4    1    1    2  501    0 -0.18112706414E+02 -0.22370856159E+02  0.23555034627E+03  0.23730253047E+03  0.00000000000E+00 0.  1.
         -4    1    1    2    0  503 -0.75548043898E+01  0.14207168172E+02 -0.46605536336E+03  0.46633305739E+03  0.00000000000E+00 0. -1.
</event>
<event>
 6    1  0.5522852E-006  0.3537339E+02  0.7818608E-02  0.1366319E+00
         21   -1    0    0  501  502  0.00000000000E+00  0.00000000000E+00  0.15066657303E+03  0.15066657303E+03  0.00000000000E+00 0. -1.
         21   -1    0    0  502  503 -0.00000000000E+00 -0.00000000000E+00 -0.62742941042E+03  0.62742941042E+03  0.00000000000E+00 0. -1.
        -13    1    1    2    0    0  0.27336623459E+02 -0.14266236983E+02 -0.50643544881E+02  0.59292464124E+02  0.10566000000E+00 0.  1.
         13    1    1    2    0    0 -0.41501575847E+02 -0.12924195607E+02  0.12548357624E+03  0.13279892582E+03  0.10566000000E+00 0. -1.
          4    1    1    2  501    0  0.55346739340E+01  0.15921350438E+02  0.12960659563E+02  0.21262660032E+02  0.00000000000E+00 0.  1.
         -4    1    1    2    0  503  0.86302784533E+01  0.11269082151E+02 -0.56456352831E+03  0.56474193347E+03  0.00000000000E+00 0. -1.
</event>
<event>
 6    1  0.5496865E-006  0.3124878E+03  0.7818608E-02  0.1002280E+00
         21   -1    0    0  501  502  0.00000000000E+00  0.00000000000E+00  0.39600884629E+03  0.39600884629E+03  0.00000000000E+00 0. -1.
         21   -1    0    0  502  503 -0.00000000000E+00 -0.00000000000E+00 -0.76840574218E+03  0.76840574218E+03  0.00000000000E+00 0.  1.
        -13    1    1    2    0    0  0.10825527374E+03  0.33702212241E+03 -0.37769282779E+03  0.51764369851E+03  0.10566000000E+00 0.  1.
         13    1    1    2    0    0  0.13022723756E+02 -0.31702083110E+03  0.10725550089E+03  0.33492618936E+03  0.10566000000E+00 0. -1.
          4    1    1    2  501    0 -0.61710307782E+01  0.16005239922E+02  0.86451953654E+02  0.88137333840E+02  0.00000000000E+00 0.  1.
         -4    1    1    2    0  503 -0.11510696672E+03 -0.36006531232E+02 -0.18841152265E+03  0.22370736676E+03  0.00000000000E+00 0. -1.
</event>
<event>
 6    1  0.5496865E-006  0.1170175E+03  0.7818608E-02  0.1139115E+00
         21   -1    0    0  501  502  0.00000000000E+00  0.00000000000E+00  0.61123413693E+02  0.61123413693E+02  0.00000000000E+00 0. -1.
         21   -1    0    0  502  503 -0.00000000000E+00 -0.00000000000E+00 -0.79515635979E+03  0.79515635979E+03  0.00000000000E+00 0.  1.
        -13    1    1    2    0    0  0.11290415598E+03 -0.53516060146E+02 -0.23874015661E+03  0.26945907050E+03  0.10566000000E+00 0.  1.
         13    1    1    2    0    0 -0.13390541294E+03  0.46758870063E+02 -0.99234895437E+02  0.17310293810E+03  0.10566000000E+00 0. -1.
          4    1    1    2  501    0 -0.48683637205E+02 -0.51708472796E+00 -0.18688442500E+03  0.19312211736E+03  0.00000000000E+00 0.  1.
         -4    1    1    2    0  503  0.69684894163E+02  0.72742748117E+01 -0.20917346906E+03  0.22059564752E+03  0.00000000000E+00 0. -1.
</event>
<event>
 6    1  0.5496865E-006  0.4644589E+02  0.7818608E-02  0.1306977E+00
         21   -1    0    0  501  502  0.00000000000E+00  0.00000000000E+00  0.37943219321E+03  0.37943219321E+03  0.00000000000E+00 0.  1.
         21   -1    0    0  502  503 -0.00000000000E+00 -0.00000000000E+00 -0.10406556484E+03  0.10406556484E+03  0.00000000000E+00 0.  1.
        -13    1    1    2    0    0 -0.21573647126E+02  0.58684288673E+02 -0.67773495473E+02  0.92209141846E+02  0.10566000000E+00 0.  1.
         13    1    1    2    0    0  0.39678999860E+02 -0.53999448994E+02  0.14066054499E+03  0.15580681501E+03  0.10566000000E+00 0. -1.
          4    1    1    2  501    0 -0.16511168817E+02  0.18369284656E+02  0.20979381643E+03  0.21124273887E+03  0.00000000000E+00 0.  1.
         -4    1    1    2    0  503 -0.15941839173E+01 -0.23054124334E+02 -0.73142375800E+01  0.24239062328E+02  0.00000000000E+00 0. -1.
</event>
<event>
 6    1  0.5496865E-006  0.4740294E+02  0.7818608E-02  0.1305642E+00
         21   -1    0    0  501  502  0.00000000000E+00  0.00000000000E+00  0.96940270554E+02  0.96940270554E+02  0.00000000000E+00 0. -1.
         21   -1    0    0  502  503 -0.00000000000E+00 -0.00000000000E+00 -0.18957577207E+03  0.18957577207E+03  0.00000000000E+00 0.  1.
        -13    1    1    2    0    0  0.20512022837E+02 -0.14245900141E+02 -0.99959317818E+02  0.10303186466E+03  0.10566000000E+00 0.  1.
         13    1    1    2    0    0  0.29080544739E+02 -0.36035185437E+02  0.54583959912E+02  0.71579553753E+02  0.10566000000E+00 0. -1.
          4    1    1    2  501    0 -0.49086335361E+02  0.20135538466E+02  0.31686828168E+01  0.53150247217E+02  0.00000000000E+00 0.  1.
         -4    1    1    2    0  503 -0.50623221440E+00  0.30145547112E+02 -0.50428826431E+02  0.58754377003E+02  0.00000000000E+00 0. -1.
</event>
<event>
 6    1  0.5496865E-006  0.1541327E+03  0.7818608E-02  0.1097106E+00
         21   -1    0    0  503  502  0.00000000000E+00  0.00000000000E+00  0.88857482480E+03  0.88857482480E+03  0.00000000000E+00 0.  1.
         21   -1    0    0  501  503 -0.00000000000E+00 -0.00000000000E+00 -0.59750827966E+02  0.59750827966E+02  0.00000000000E+00 0.  1.
        -13    1    1    2    0    0 -0.60894799267E+02  0.16341341495E+03  0.35963553733E+03  0.39968719224E+03  0.10566000000E+00 0.  1.
         13    1    1    2    0    0  0.22873158686E+01 -0.13917198576E+03  0.16798136985E+03  0.21815550696E+03  0.10566000000E+00 0. -1.
          4    1    1    2  501    0  0.21049160191E+02 -0.16545386245E+02 -0.72769313495E-01  0.26773536302E+02  0.00000000000E+00 0.  1.
         -4    1    1    2    0  502  0.37558323207E+02 -0.76960429457E+01  0.30127985897E+03  0.30370941727E+03  0.00000000000E+00 0. -1.
</event>
<event>
 6    1  0.5496865E-006  0.4479664E+03  0.7818608E-02  0.9599948E-01
         21   -1    0    0  501  502  0.00000000000E+00  0.00000000000E+00  0.22344315402E+04  0.22344315402E+04  0.00000000000E+00 0. -1.
         21   -1    0    0  502  503 -0.00000000000E+00 -0.00000000000E+00 -0.61187768354E+03  0.61187768354E+03  0.00000000000E+00 0. -1.
        -13    1    1    2    0    0 -0.39915891679E+03  0.16928764718E+03  0.91714672484E+03  0.10144674832E+04  0.10566000000E+00 0.  1.
         13    1    1    2    0    0  0.45560880204E+03 -0.65288459864E+02  0.69147713896E+03  0.83065191769E+03  0.10566000000E+00 0. -1.
          4    1    1    2  501    0 -0.90390421987E+02  0.72139396534E+01  0.49654922360E+03  0.50476093427E+03  0.00000000000E+00 0.  1.
         -4    1    1    2    0  503  0.33940536744E+02 -0.11121312697E+03 -0.48261923070E+03  0.49642888866E+03  0.00000000000E+00 0. -1.
</event>
<event>
 6    1  0.5496865E-006  0.5729032E+02  0.7818608E-02  0.1264655E+00
         21   -1    0    0  501  502  0.00000000000E+00  0.00000000000E+00  0.33012536799E+03  0.33012536799E+03  0.00000000000E+00 0.  1.
         21   -1    0    0  502  503 -0.00000000000E+00 -0.00000000000E+00 -0.95229773695E+02  0.95229773695E+02  0.00000000000E+00 0.  1.
        -13    1    1    2    0    0 -0.35509336956E+02  0.40381265513E+02 -0.60148640906E+02  0.80681037316E+02  0.10566000000E+00 0.  1.
         13    1    1    2    0    0  0.59038932133E+02  0.13932622091E+02  0.11320063796E+03  0.12842939330E+03  0.10566000000E+00 0. -1.
          4    1    1    2  501    0 -0.12889969587E+02 -0.53817375368E+02  0.19302559333E+03  0.20080174523E+03  0.00000000000E+00 0.  1.
         -4    1    1    2    0  503 -0.10639625590E+02 -0.49651223618E+00 -0.11181996091E+02  0.15442965832E+02  0.00000000000E+00 0. -1.
</event>
<event>
 6    1  0.5496865E-006  0.4283780E+02  0.7818608E-02  0.1334569E+00
         21   -1    0    0  503  502  0.00000000000E+00  0.00000000000E+00  0.17837398119E+03  0.17837398119E+03  0.00000000000E+00 0.  1.
         21   -1    0    0  501  503 -0.00000000000E+00 -0.00000000000E+00 -0.10220989779E+03  0.10220989779E+03  0.00000000000E+00 0. -1.
        -13    1    1    2    0    0  0.11921442161E+02 -0.38611548531E+02  0.12429054085E+03  0.13069476719E+03  0.10566000000E+00 0.  1.
         13    1    1    2    0    0 -0.29970998609E+02  0.20610857276E+02 -0.59725949822E+02  0.69930454321E+02  0.10566000000E+00 0. -1.
          4    1    1    2  501    0 -0.62756383022E+01  0.42864467162E+02  0.94864109997E-01  0.43321532526E+02  0.00000000000E+00 0.  1.
         -4    1    1    2    0  502  0.24325194750E+02 -0.24863775908E+02  0.11504628270E+02  0.36637124937E+02  0.00000000000E+00 0. -1.
</event>
<event>
 6    1  0.5496865E-006  0.3831788E+03  0.7818608E-02  0.9778923E-01
         21   -1    0    0  501  502  0.00000000000E+00  0.00000000000E+00  0.91025742492E+03  0.91025742492E+03  0.00000000000E+00 0. -1.
         21   -1    0    0  502  503 -0.00000000000E+00 -0.00000000000E+00 -0.33508145707E+03  0.33508145707E+03  0.00000000000E+00 0.  1.
        -13    1    1    2    0    0  0.20940024055E+03 -0.27885813350E+03  0.66974413213E+03  0.75509438684E+03  0.10566000000E+00 0.  1.
         13    1    1    2    0    0 -0.21668537676E+03  0.31413301183E+03 -0.44857238689E+02  0.38424508409E+03  0.10566000000E+00 0. -1.
          4    1    1    2  501    0  0.12827219852E+02 -0.48995906316E+02  0.35011275359E+01  0.50768044072E+02  0.00000000000E+00 0.  1.
         -4    1    1    2    0  503 -0.55420836460E+01  0.13721027983E+02 -0.53212053123E+02  0.55231366972E+02  0.00000000000E+00 0. -1.
</event>
<event>
 6    1  0.5496865E-006  0.9455134E+02  0.7818608E-02  0.1174429E+00
         21   -1    0    0  503  502  0.00000000000E+00  0.00000000000E+00  0.40343251868E+03  0.40343251868E+03  0.00000000000E+00 0.  1.
         21   -1    0    0  501  503 -0.00000000000E+00 -0.00000000000E+00 -0.40201333040E+03  0.40201333040E+03  0.00000000000E+00 0.  1.
        -13    1    1    2    0    0 -0.80331757528E+02  0.94827725355E+02  0.33713363794E+03  0.35931127141E+03  0.10566000000E+00 0.  1.
         13    1    1    2    0    0  0.91406931438E+02  0.18879805616E+02 -0.92910290221E+02  0.13169664904E+03  0.10566000000E+00 0. -1.
          4    1    1    2  501    0 -0.15751196041E+02 -0.93546817776E+02 -0.26655672086E+03  0.28293390169E+03  0.00000000000E+00 0.  1.
         -4    1    1    2    0  502  0.46760221310E+01 -0.20160713194E+02  0.23752561416E+02  0.31504026938E+02  0.00000000000E+00 0. -1.
</event>
<event>
 6    1  0.5496865E-006  0.1657936E+03  0.7818608E-02  0.1086501E+00
         21   -1    0    0  501  502  0.00000000000E+00  0.00000000000E+00  0.41175819995E+03  0.41175819995E+03  0.00000000000E+00 0. -1.
         21   -1    0    0  502  503 -0.00000000000E+00 -0.00000000000E+00 -0.53418336113E+03  0.53418336113E+03  0.00000000000E+00 0. -1.
        -13    1    1    2    0    0  0.13618865425E+03 -0.83421778266E+02  0.16141472150E+02  0.16052134102E+03  0.10566000000E+00 0.  1.
         13    1    1    2    0    0 -0.17519300279E+03  0.51769218003E+02  0.20092727532E+03  0.27155924085E+03  0.10566000000E+00 0. -1.
          4    1    1    2  501    0  0.30269875300E+02  0.19089446313E+02  0.83366981179E+02  0.90723347943E+02  0.00000000000E+00 0.  1.
         -4    1    1    2    0  503  0.87344732464E+01  0.12563113950E+02 -0.42286088983E+03  0.42313763128E+03  0.00000000000E+00 0. -1.
</event>
<event>
 6    1  0.5496865E-006  0.3133862E+03  0.7818608E-02  0.1001928E+00
         21   -1    0    0  503  502  0.00000000000E+00  0.00000000000E+00  0.37540484525E+03  0.37540484525E+03  0.00000000000E+00 0.  1.
         21   -1    0    0  501  503 -0.00000000000E+00 -0.00000000000E+00 -0.38219048875E+03  0.38219048875E+03  0.00000000000E+00 0. -1.
        -13    1    1    2    0    0  0.18368293904E+03 -0.25386532691E+03 -0.14416014892E+03  0.34491910066E+03  0.10566000000E+00 0.  1.
         13    1    1    2    0    0 -0.18863566986E+03  0.24461480073E+03  0.73244203486E+02  0.31746581106E+03  0.10566000000E+00 0. -1.
          4    1    1    2  501    0 -0.62402141196E+01 -0.10945540713E+02 -0.10929499629E+02  0.16679301421E+02  0.00000000000E+00 0.  1.
         -4    1    1    2    0  502  0.11192944940E+02  0.20196066886E+02  0.75059801565E+02  0.78531120870E+02  0.00000000000E+00 0. -1.
</event>
<event>
 6    1  0.5496865E-006  0.6279768E+02  0.7818608E-02  0.1257174E+00
         21   -1    0    0  503  502  0.00000000000E+00  0.00000000000E+00  0.25427215104E+03  0.25427215104E+03  0.00000000000E+00 0.  1.
         21   -1    0    0  501  503 -0.00000000000E+00 -0.00000000000E+00 -0.12352127990E+03  0.12352127990E+03  0.00000000000E+00 0. -1.
        -13    1    1    2    0    0 -0.36632849203E+02 -0.40695270798E+02  0.18609869646E+03  0.19398661473E+03  0.10566000000E+00 0.  1.
         13    1    1    2    0    0 -0.47915733040E+02  0.19238452815E+02 -0.67650900857E+02  0.85104001612E+02  0.10566000000E+00 0. -1.
          4    1    1    2  501    0  0.60576117862E+02  0.22889665729E+02 -0.10481062647E+02  0.65599203704E+02  0.00000000000E+00 0.  1.
         -4    1    1    2    0  502  0.23972464381E+02 -0.14328477456E+01  0.22784138187E+02  0.33103610892E+02  0.00000000000E+00 0. -1.
</event>
<event>
 6    1  0.5496865E-006  0.2415203E+03  0.7818608E-02  0.1034883E+00
         21   -1    0    0  503  502  0.00000000000E+00  0.00000000000E+00  0.59221607122E+02  0.59221607122E+02  0.00000000000E+00 0.  1.
         21   -1    0    0  501  503 -0.00000000000E+00 -0.00000000000E+00 -0.17185313862E+04  0.17185313862E+04  0.00000000000E+00 0. -1.
        -13    1    1    2    0    0 -0.24109537093E+03 -0.56774159264E+01 -0.32630781122E+03  0.40575363185E+03  0.10566000000E+00 0.  1.
         13    1    1    2    0    0  0.22368428824E+03 -0.25710989811E+01 -0.12536641846E+04  0.12734658104E+04  0.10566000000E+00 0. -1.
          4    1    1    2  501    0  0.25962176070E+02 -0.79906828736E+01 -0.74868697931E+02  0.79644256096E+02  0.00000000000E+00 0.  1.
         -4    1    1    2    0  502 -0.85510933824E+01  0.16239197781E+02 -0.44690853893E+01  0.18889295032E+02  0.00000000000E+00 0. -1.
</event>
<event>
 6    1  0.5496865E-006  0.4300490E+02  0.7818608E-02  0.1323224E+00
         21   -1    0    0  503  502  0.00000000000E+00  0.00000000000E+00  0.85116215005E+03  0.85116215005E+03  0.00000000000E+00 0. -1.
         21   -1    0    0  501  503 -0.00000000000E+00 -0.00000000000E+00 -0.98091615045E+02  0.98091615045E+02  0.00000000000E+00 0. -1.
        -13    1    1    2    0    0  0.44679370300E+02 -0.27164400144E+02  0.19984620838E+03  0.20657364046E+03  0.10566000000E+00 0.  1.
         13    1    1    2    0    0 -0.46226743849E+02  0.17560853861E+02 -0.52260722358E+02  0.71947826240E+02  0.10566000000E+00 0. -1.
          4    1    1    2  501    0  0.36411074205E+01 -0.16554253205E+02 -0.30132839594E+02  0.34572951630E+02  0.00000000000E+00 0.  1.
         -4    1    1    2    0  502 -0.20937338716E+01  0.26157799488E+02  0.63561788858E+03  0.63615934676E+03  0.00000000000E+00 0. -1.
</event>
<event>
 6    1  0.5496865E-006  0.1303312E+03  0.7818608E-02  0.1136736E+00
         21   -1    0    0  501  502  0.00000000000E+00  0.00000000000E+00  0.10287675218E+04  0.10287675218E+04  0.00000000000E+00 0.  1.
         21   -1    0    0  502  503 -0.00000000000E+00 -0.00000000000E+00 -0.11318549840E+03  0.11318549840E+03  0.00000000000E+00 0.  1.
        -13    1    1    2    0    0 -0.30941935339E+02  0.21795055451E+03  0.84360623194E+02  0.23574684194E+03  0.10566000000E+00 0.  1.
         13    1    1    2    0    0  0.47954352579E+02 -0.73639920781E+02  0.14464001513E+03  0.16924302941E+03  0.10566000000E+00 0. -1.
          4    1    1    2  501    0 -0.13726797020E+02 -0.12352739149E+03  0.70069122702E+03  0.71162886185E+03  0.00000000000E+00 0.  1.
         -4    1    1    2    0  503 -0.32856202204E+01 -0.20783242248E+02 -0.14109841938E+02  0.25334287006E+02  0.00000000000E+00 0. -1.
</event>
<event>
 6    1  0.5496865E-006  0.2276887E+02  0.7818608E-02  0.1474628E+00
         21   -1    0    0  501  502  0.00000000000E+00  0.00000000000E+00  0.38786543061E+02  0.38786543061E+02  0.00000000000E+00 0. -1.
         21   -1    0    0  502  503 -0.00000000000E+00 -0.00000000000E+00 -0.35975098672E+03  0.35975098672E+03  0.00000000000E+00 0. -1.
        -13    1    1    2    0    0 -0.28987533649E+02  0.18862027770E+02 -0.48000210870E+02  0.59161512880E+02  0.10566000000E+00 0.  1.
         13    1    1    2    0    0  0.25957877614E+02  0.56669725493E+01  0.18886892969E+02  0.32598341648E+02  0.10566000000E+00 0. -1.
          4    1    1    2  501    0 -0.56665703830E+01 -0.85857953452E+01  0.35018685183E+01  0.10866875574E+02  0.00000000000E+00 0.  1.
         -4    1    1    2    0  503  0.86962264176E+01 -0.15943204974E+02 -0.29535299428E+03  0.29591079968E+03  0.00000000000E+00 0. -1.
</event>
<event>
 6    1  0.5496865E-006  0.1369416E+03  0.7818608E-02  0.1114756E+00
         21   -1    0    0  501  502  0.00000000000E+00  0.00000000000E+00  0.96174292275E+03  0.96174292275E+03  0.00000000000E+00 0.  1.
         21   -1    0    0  502  503 -0.00000000000E+00 -0.00000000000E+00 -0.13905271259E+03  0.13905271259E+03  0.00000000000E+00 0. -1.
        -13    1    1    2    0    0 -0.27263360960E+02  0.15109592774E+03  0.76540090551E+02  0.17155659957E+03  0.10566000000E+00 0.  1.
         13    1    1    2    0    0 -0.43755673213E+01 -0.11319230698E+03  0.34749451605E+03  0.36549157828E+03  0.10566000000E+00 0. -1.
          4    1    1    2  501    0 -0.25898703448E+02 -0.29123651039E+02  0.47003385341E+03  0.47164685225E+03  0.00000000000E+00 0.  1.
         -4    1    1    2    0  503  0.57537631730E+02 -0.87799697175E+01 -0.71378249852E+02  0.92100605238E+02  0.00000000000E+00 0. -1.
</event>
<event>
 6    1  0.5496865E-006  0.1196304E+03  0.7818608E-02  0.1135630E+00
         21   -1    0    0  503  502  0.00000000000E+00  0.00000000000E+00  0.12791910644E+03  0.12791910644E+03  0.00000000000E+00 0.  1.
         21   -1    0    0  501  503 -0.00000000000E+00 -0.00000000000E+00 -0.26402179128E+03  0.26402179128E+03  0.00000000000E+00 0.  1.
        -13    1    1    2    0    0 -0.25591236436E+02 -0.13105252059E+03  0.30734352101E+02  0.13701929097E+03  0.10566000000E+00 0.  1.
         13    1    1    2    0    0  0.75274825689E+02  0.99413168034E+02 -0.12780641334E+03  0.17856026382E+03  0.10566000000E+00 0. -1.
          4    1    1    2  501    0 -0.21440144445E+02  0.29546190177E+02 -0.27838919249E+02  0.45909286345E+02  0.00000000000E+00 0.  1.
         -4    1    1    2    0  502 -0.28243444808E+02  0.20931623817E+01 -0.11191704355E+02  0.30452056576E+02  0.00000000000E+00 0. -1.
</event>
<event>
 6    1  0.5496865E-006  0.9463947E+02  0.7818608E-02  0.1173743E+00
         21   -1    0    0  501  502  0.00000000000E+00  0.00000000000E+00  0.58076450598E+03  0.58076450598E+03  0.00000000000E+00 0. -1.
         21   -1    0    0  502  503 -0.00000000000E+00 -0.00000000000E+00 -0.86428521848E+02  0.86428521848E+02  0.00000000000E+00 0. -1.
        -13    1    1    2    0    0  0.75854672268E+02  0.30776951780E+02 -0.24488402346E+02  0.85444982762E+02  0.10566000000E+00 0.  1.
         13    1    1    2    0    0 -0.64859698880E+02 -0.92971719481E+02  0.39468237813E+03  0.41063939404E+03  0.10566000000E+00 0. -1.
          4    1    1    2  501    0 -0.28007658849E+02  0.60098779134E+02  0.13528790887E+03  0.15066223977E+03  0.00000000000E+00 0.  1.
         -4    1    1    2    0  503  0.17012685461E+02  0.20959885660E+01 -0.11145900524E+02  0.20446411253E+02  0.00000000000E+00 0. -1.
</event>
<event>
 6    1  0.5496865E-006  0.4113488E+03  0.7818608E-02  0.9696830E-01
         21   -1    0    0  501  502  0.00000000000E+00  0.00000000000E+00  0.22181464410E+04  0.22181464410E+04  0.00000000000E+00 0.  1.
         21   -1    0    0  502  503 -0.00000000000E+00 -0.00000000000E+00 -0.13473355449E+03  0.13473355449E+03  0.00000000000E+00 0. -1.
        -13    1    1    2    0    0 -0.17292221096E+03 -0.36394603336E+03  0.82402712606E+03  0.91726742114E+03  0.10566000000E+00 0.  1.
         13    1    1    2    0    0  0.12155553145E+03  0.40383909575E+03  0.69083211951E+03  0.80938914683E+03  0.10566000000E+00 0. -1.
          4    1    1    2  501    0  0.79865146695E+02 -0.43559871167E+02  0.58572668622E+03  0.59274923448E+03  0.00000000000E+00 0.  1.
         -4    1    1    2    0  503 -0.28498467186E+02  0.36668087775E+01 -0.17173045249E+02  0.33474193070E+02  0.00000000000E+00 0. -1.
</event>
<event>
 6    1  0.5496865E-006  0.2045942E+03  0.7818608E-02  0.1057031E+00
         21   -1    0    0  503  502  0.00000000000E+00  0.00000000000E+00  0.34028609043E+03  0.34028609043E+03  0.00000000000E+00 0.  1.
         21   -1    0    0  501  503 -0.00000000000E+00 -0.00000000000E+00 -0.46648612126E+03  0.46648612126E+03  0.00000000000E+00 0. -1.
        -13    1    1    2    0    0 -0.19026130008E+03 -0.78315876149E+02  0.19445672304E+03  0.28310098386E+03  0.10566000000E+00 0.  1.
         13    1    1    2    0    0  0.18846639404E+03  0.56535536975E+02 -0.38015219904E+03  0.42805555039E+03  0.10566000000E+00 0. -1.
          4    1    1    2  501    0  0.10704345806E+02 -0.51153621213E+01 -0.13108034786E+02  0.17679664157E+02  0.00000000000E+00 0.  1.
         -4    1    1    2    0  502 -0.89094397683E+01  0.26895701295E+02  0.72603479954E+02  0.77936013284E+02  0.00000000000E+00 0. -1.
</event>
<event>
 6    1  0.5496865E-006  0.1601789E+03  0.7818608E-02  0.1091485E+00
         21   -1    0    0  501  502  0.00000000000E+00  0.00000000000E+00  0.73949182855E+03  0.73949182855E+03  0.00000000000E+00 0. -1.
         21   -1    0    0  502  503 -0.00000000000E+00 -0.00000000000E+00 -0.12088813449E+03  0.12088813449E+03  0.00000000000E+00 0. -1.
        -13    1    1    2    0    0  0.14729467023E+03  0.50292182536E+02  0.19953746280E+03  0.25306171921E+03  0.10566000000E+00 0.  1.
         13    1    1    2    0    0 -0.15371525970E+03 -0.58500316962E+02  0.39308732826E+03  0.42610835119E+03  0.10566000000E+00 0. -1.
          4    1    1    2  501    0 -0.17205103918E+01  0.15626044586E+02  0.10260197107E+03  0.10379931548E+03  0.00000000000E+00 0.  1.
         -4    1    1    2    0  503  0.81410998567E+01 -0.74179101593E+01 -0.76623068069E+02  0.77410577174E+02  0.00000000000E+00 0. -1.
</event>
<event>
 6    1  0.5496865E-006  0.1042818E+03  0.7818608E-02  0.1157659E+00
         21   -1    0    0  503  502  0.00000000000E+00  0.00000000000E+00  0.33427299033E+03  0.33427299033E+03  0.00000000000E+00 0.  1.
         21   -1    0    0  501  503 -0.00000000000E+00 -0.00000000000E+00 -0.10837705755E+03  0.10837705755E+03  0.00000000000E+00 0. -1.
        -13    1    1    2    0    0 -0.11525914408E+03  0.25976873170E+02  0.24406794155E+03  0.27116164826E+03  0.10566000000E+00 0.  1.
         13    1    1    2    0    0  0.78974209272E+02 -0.45000244884E+02  0.14600830148E+02  0.92060540813E+02  0.10566000000E+00 0. -1.
          4    1    1    2  501    0  0.16663909884E+02 -0.14643966241E+02 -0.33819569218E+02  0.40446197621E+02  0.00000000000E+00 0.  1.
         -4    1    1    2    0  502  0.19621024927E+02  0.33667337955E+02  0.10467303010E+01  0.38981661182E+02  0.00000000000E+00 0. -1.
</event>
<event>
 6    1  0.5496865E-006  0.1543815E+03  0.7818608E-02  0.1096869E+00
         21   -1    0    0  503  502  0.00000000000E+00  0.00000000000E+00  0.78184371313E+03  0.78184371313E+03  0.00000000000E+00 0.  1.
         21   -1    0    0  501  503 -0.00000000000E+00 -0.00000000000E+00 -0.94110300329E+02  0.94110300329E+02  0.00000000000E+00 0.  1.
        -13    1    1    2    0    0  0.14575421333E+03 -0.10221514552E+03  0.27373487807E+03  0.32653180751E+03  0.10566000000E+00 0.  1.
         13    1    1    2    0    0 -0.33751084118E+02  0.12930407728E+03  0.72389653423E+02  0.15198339767E+03  0.10566000000E+00 0. -1.
          4    1    1    2  501    0 -0.11935375553E+03  0.83453721445E+01  0.10842970979E+03  0.16146815835E+03  0.00000000000E+00 0.  1.
         -4    1    1    2    0  502  0.73506263203E+01 -0.35434303904E+02  0.23317917152E+03  0.23597064994E+03  0.00000000000E+00 0. -1.
</event>
<event>
 6    1  0.5496865E-006  0.1344294E+03  0.7818608E-02  0.1117571E+00
         21   -1    0    0  501  502  0.00000000000E+00  0.00000000000E+00  0.70682451216E+02  0.70682451216E+02  0.00000000000E+00 0. -1.
         21   -1    0    0  502  503 -0.00000000000E+00 -0.00000000000E+00 -0.56184724016E+03  0.56184724016E+03  0.00000000000E+00 0.  1.
        -13    1    1    2    0    0 -0.53527000251E+01 -0.11616798697E+03 -0.12026170090E+03  0.16729178241E+03  0.10566000000E+00 0.  1.
         13    1    1    2    0    0 -0.24274770898E+02  0.15592304280E+03 -0.19952326699E+03  0.25438318540E+03  0.10566000000E+00 0. -1.
          4    1    1    2  501    0 -0.67383097386E+01 -0.48714292933E+02 -0.17057097835E+02  0.52052202073E+02  0.00000000000E+00 0.  1.
         -4    1    1    2    0  503  0.36365780661E+02  0.89592371079E+01 -0.15432272322E+03  0.15880252150E+03  0.00000000000E+00 0. -1.
</event>
<event>
 6    1  0.5496865E-006  0.1129259E+03  0.7818608E-02  0.1144778E+00
         21   -1    0    0  503  502  0.00000000000E+00  0.00000000000E+00  0.37497414259E+03  0.37497414259E+03  0.00000000000E+00 0.  1.
         21   -1    0    0  501  503 -0.00000000000E+00 -0.00000000000E+00 -0.60329961997E+02  0.60329961997E+02  0.00000000000E+00 0. -1.
        -13    1    1    2    0    0 -0.32936576003E+02 -0.12929409361E+03  0.22201319337E+03  0.25902055879E+03  0.10566000000E+00 0.  1.
         13    1    1    2    0    0  0.45790187629E+02  0.95767128800E+02  0.73341653649E+02  0.12902361631E+03  0.10566000000E+00 0. -1.
          4    1    1    2  501    0 -0.28311911365E+01  0.32982005268E+02  0.15061463941E+02  0.36368612990E+02  0.00000000000E+00 0.  1.
         -4    1    1    2    0  502 -0.10022420490E+02  0.54495954379E+00  0.42278696345E+01  0.10891316497E+02  0.00000000000E+00 0. -1.
</event>
<event>
 6    1  0.5496865E-006  0.1270825E+03  0.7818608E-02  0.1132902E+00
         21   -1    0    0  503  502  0.00000000000E+00  0.00000000000E+00  0.91658051849E+03  0.91658051849E+03  0.00000000000E+00 0. -1.
         21   -1    0    0  501  503 -0.00000000000E+00 -0.00000000000E+00 -0.40500051892E+03  0.40500051892E+03  0.00000000000E+00 0.  1.
        -13    1    1    2    0    0  0.93869672604E+00  0.18268250729E+03  0.15625042137E+03  0.24039131632E+03  0.10566000000E+00 0.  1.
         13    1    1    2    0    0 -0.90644239952E+02 -0.31530762832E+02 -0.19991207066E+03  0.22175530298E+03  0.10566000000E+00 0. -1.
          4    1    1    2  501    0  0.16705664312E+02 -0.48443049667E+02 -0.14196621709E+03  0.15093116006E+03  0.00000000000E+00 0.  1.
         -4    1    1    2    0  502  0.72999878914E+02 -0.10270869479E+03  0.69720786595E+03  0.70850325804E+03  0.00000000000E+00 0. -1.
</event>
<event>
 6    1  0.5496865E-006  0.1882285E+02  0.7818608E-02  0.1559944E+00
         21   -1    0    0  501  502  0.00000000000E+00  0.00000000000E+00  0.36027794467E+02  0.36027794467E+02  0.00000000000E+00 0. -1.
         21   -1    0    0  502  503 -0.00000000000E+00 -0.00000000000E+00 -0.96197534939E+02  0.96197534939E+02  0.00000000000E+00 0. -1.
        -13    1    1    2    0    0 -0.10316306034E+02  0.71630921652E+01 -0.19581995773E+02  0.23263743939E+02  0.10566000000E+00 0.  1.
         13    1    1    2    0    0 -0.18495260501E+02 -0.14730365185E+02  0.13053177156E+02  0.27008423082E+02  0.10566000000E+00 0. -1.
          4    1    1    2  501    0  0.11946984439E+02 -0.15048102377E+00  0.10052580144E+02  0.15614334737E+02  0.00000000000E+00 0.  1.
         -4    1    1    2    0  503  0.16864582096E+02  0.77177540435E+01 -0.63693501999E+02  0.66338827648E+02  0.00000000000E+00 0. -1.
</event>
<event>
 6    1  0.5496865E-006  0.1199995E+03  0.7818608E-02  0.1135145E+00
         21   -1    0    0  503  502  0.00000000000E+00  0.00000000000E+00  0.24800554460E+03  0.24800554460E+03  0.00000000000E+00 0. -1.
         21   -1    0    0  501  503 -0.00000000000E+00 -0.00000000000E+00 -0.47994919919E+03  0.47994919919E+03  0.00000000000E+00 0.  1.
        -13    1    1    2    0    0 -0.19407500562E+02 -0.10241977922E+03 -0.15454140386E+03  0.18641222847E+03  0.10566000000E+00 0.  1.
         13    1    1    2    0    0  0.15509665444E+03  0.71385168329E+02 -0.17723895832E+03  0.24609850464E+03  0.10566000000E+00 0. -1.
          4    1    1    2  501    0 -0.10073984479E+03  0.38855802599E+02 -0.65490246521E+02  0.12628246954E+03  0.00000000000E+00 0.  1.
         -4    1    1    2    0  502 -0.34949309084E+02 -0.78211917076E+01  0.16532695411E+03  0.16916154114E+03  0.00000000000E+00 0. -1.
</event>
<event>
 6    1  0.5496865E-006  0.5773238E+02  0.7818608E-02  0.1263157E+00
         21   -1    0    0  501  502  0.00000000000E+00  0.00000000000E+00  0.20333682560E+03  0.20333682560E+03  0.00000000000E+00 0. -1.
         21   -1    0    0  502  503 -0.00000000000E+00 -0.00000000000E+00 -0.30773491783E+02  0.30773491783E+02  0.00000000000E+00 0.  1.
        -13    1    1    2    0    0 -0.36350940792E+02 -0.41701053612E+02  0.60423241227E+02  0.81922817415E+02  0.10566000000E+00 0.  1.
         13    1    1    2    0    0  0.45244876123E+02  0.40705310206E+02  0.76295386373E+02  0.97596199927E+02  0.10566000000E+00 0. -1.
          4    1    1    2  501    0 -0.62060838935E+01  0.16706786956E+02  0.34202800978E+02  0.38567652281E+02  0.00000000000E+00 0.  1.
         -4    1    1    2    0  503 -0.26878514377E+01 -0.15711043550E+02  0.16419052402E+01  0.16023647762E+02  0.00000000000E+00 0. -1.
</event>
<event>
 6    1  0.5496865E-006  0.1081749E+03  0.7818608E-02  0.1166096E+00
         21   -1    0    0  501  502  0.00000000000E+00  0.00000000000E+00  0.64680279026E+03  0.64680279026E+03  0.00000000000E+00 0.  1.
         21   -1    0    0  502  503 -0.00000000000E+00 -0.00000000000E+00 -0.46521727026E+03  0.46521727026E+03  0.00000000000E+00 0.  1.
        -13    1    1    2    0    0  0.53885222804E+01  0.18329993707E+03 -0.23102631533E+03  0.29495944237E+03  0.10566000000E+00 0.  1.
         13    1    1    2    0    0  0.36949926959E+02 -0.66186405411E+02  0.13528488329E+03  0.15507400870E+03  0.10566000000E+00 0. -1.
          4    1    1    2  501    0 -0.32377840888E+02 -0.10156476621E+03  0.46314430145E+03  0.47525400606E+03  0.00000000000E+00 0.  1.
         -4    1    1    2    0  503 -0.99606083508E+01 -0.15548765454E+02 -0.18581734941E+03  0.18673260339E+03  0.00000000000E+00 0. -1.
</event>
<event>
 6    1  0.5496865E-006  0.2784327E+02  0.7818608E-02  0.1431043E+00
         21   -1    0    0  503  502  0.00000000000E+00  0.00000000000E+00  0.43384122997E+02  0.43384122997E+02  0.00000000000E+00 0.  1.
         21   -1    0    0  501  503 -0.00000000000E+00 -0.00000000000E+00 -0.30299162218E+03  0.30299162218E+03  0.00000000000E+00 0.  1.
        -13    1    1    2    0    0 -0.30319556038E+02 -0.30165869587E+02  0.20134440863E+02  0.47272212125E+02  0.10566000000E+00 0.  1.
         13    1    1    2    0    0  0.24985105825E+02  0.88826983796E+01 -0.44854967608E+02  0.52106977717E+02  0.10566000000E+00 0. -1.
          4    1    1    2  501    0 -0.44374108407E+01 -0.91534186691E+01 -0.19768675803E+03  0.19794830130E+03  0.00000000000E+00 0.  1.
         -4    1    1    2    0  502  0.97718610530E+01  0.30436589877E+02 -0.37200214410E+02  0.49048254036E+02  0.00000000000E+00 0. -1.
</event>
<event>
 6    1  0.5496865E-006  0.2771192E+03  0.7818608E-02  0.1017224E+00
         21   -1    0    0  501  502  0.00000000000E+00  0.00000000000E+00  0.72256677175E+03  0.72256677175E+03  0.00000000000E+00 0. -1.
         21   -1    0    0  502  503 -0.00000000000E+00 -0.00000000000E+00 -0.40209220501E+03  0.40209220501E+03  0.00000000000E+00 0.  1.
        -13    1    1    2    0    0 -0.24852651815E+03  0.16179568802E+03 -0.23812060862E+03  0.38032185093E+03  0.10566000000E+00 0.  1.
         13    1    1    2    0    0  0.17839250342E+03 -0.21445718976E+03  0.20801715853E+03  0.34797546023E+03  0.10566000000E+00 0. -1.
          4    1    1    2  501    0 -0.10768013215E+02 -0.11476667401E+01  0.26976989291E+03  0.26998715223E+03  0.00000000000E+00 0.  1.
         -4    1    1    2    0  503  0.80902027942E+02  0.53809168481E+02  0.80808123915E+02  0.12637451337E+03  0.00000000000E+00 0. -1.
</event>
<event>
 6    1  0.5496865E-006  0.1359935E+03  0.7818608E-02  0.1115811E+00
         21   -1    0    0  501  502  0.00000000000E+00  0.00000000000E+00  0.82359054013E+03  0.82359054013E+03  0.00000000000E+00 0. -1.
         21   -1    0    0  502  503 -0.00000000000E+00 -0.00000000000E+00 -0.67573039714E+02  0.67573039714E+02  0.00000000000E+00 0. -1.
        -13    1    1    2    0    0 -0.32604475826E+02  0.90689068164E+02  0.53532633832E+01  0.96520606718E+02  0.10566000000E+00 0.  1.
         13    1    1    2    0    0  0.45475354261E+02 -0.13205775848E+03  0.64425080856E+03  0.65921648562E+03  0.10566000000E+00 0. -1.
          4    1    1    2  501    0  0.18902666161E+02  0.23315241303E+01  0.71942061864E+02  0.74420474723E+02  0.00000000000E+00 0.  1.
         -4    1    1    2    0  503 -0.31773544596E+02  0.39037166182E+02  0.34471366607E+02  0.61006012781E+02  0.00000000000E+00 0. -1.
</event>
<event>
 6    1  0.5496865E-006  0.1997915E+03  0.7818608E-02  0.1060279E+00
         21   -1    0    0  501  502  0.00000000000E+00  0.00000000000E+00  0.47839336103E+03  0.47839336103E+03  0.00000000000E+00 0.  1.
         21   -1    0    0  502  503 -0.00000000000E+00 -0.00000000000E+00 -0.48811249687E+03  0.48811249687E+03  0.00000000000E+00 0. -1.
        -13    1    1    2    0    0 -0.12845070329E+03  0.11924813348E+03 -0.14498804857E+03  0.22746702158E+03  0.10566000000E+00 0.  1.
         13    1    1    2    0    0  0.13548558399E+03 -0.17495241250E+03  0.19551537517E+03  0.29528115958E+03  0.10566000000E+00 0. -1.
          4    1    1    2  501    0 -0.51463303625E+01  0.20305873338E+02  0.18993026971E+03  0.19108197341E+03  0.00000000000E+00 0.  1.
         -4    1    1    2    0  503 -0.18885503382E+01  0.35398405687E+02 -0.25017673215E+03  0.25267570333E+03  0.00000000000E+00 0. -1.
</event>
<event>
 6    1  0.5496865E-006  0.7027833E+02  0.7818608E-02  0.1225999E+00
         21   -1    0    0  503  502  0.00000000000E+00  0.00000000000E+00  0.20395343075E+03  0.20395343075E+03  0.00000000000E+00 0.  1.
         21   -1    0    0  501  503 -0.00000000000E+00 -0.00000000000E+00 -0.10747767244E+03  0.10747767244E+03  0.00000000000E+00 0. -1.
        -13    1    1    2    0    0 -0.79496255867E+02 -0.37691270736E+02  0.41455486960E+02  0.97256645787E+02  0.10566000000E+00 0.  1.
         13    1    1    2    0    0  0.66432299166E+02 -0.37844179475E+02 -0.34562242818E+02  0.83904660688E+02  0.10566000000E+00 0. -1.
          4    1    1    2  501    0  0.27505047693E+02  0.13157145881E+02  0.26732049894E+02  0.40549237081E+02  0.00000000000E+00 0.  1.
         -4    1    1    2    0  502 -0.14441090992E+02  0.62378304330E+02  0.62850464274E+02  0.89720559626E+02  0.00000000000E+00 0. -1.
</event>
<event>
 6    1  0.5496865E-006  0.7807423E+02  0.7818608E-02  0.1210505E+00
         21   -1    0    0  503  502  0.00000000000E+00  0.00000000000E+00  0.34749356233E+02  0.34749356233E+02  0.00000000000E+00 0. -1.
         21   -1    0    0  501  503 -0.00000000000E+00 -0.00000000000E+00 -0.79195758209E+03  0.79195758209E+03  0.00000000000E+00 0.  1.
        -13    1    1    2    0    0  0.81954594993E+02 -0.35644405039E+02 -0.19268109380E+03  0.21239843296E+03  0.10566000000E+00 0.  1.
         13    1    1    2    0    0 -0.20927474666E+02 -0.57136614752E+02 -0.21397310797E+03  0.22245685882E+03  0.10566000000E+00 0. -1.
          4    1    1    2  501    0 -0.26882976779E+01  0.92427651438E+02 -0.10704790325E+03  0.14145441416E+03  0.00000000000E+00 0.  1.
         -4    1    1    2    0  502 -0.58338822649E+02  0.35336835374E+00 -0.24350612084E+03  0.25039723238E+03  0.00000000000E+00 0. -1.
</event>
<event>
 6    1  0.5496865E-006  0.2404377E+03  0.7818608E-02  0.1035471E+00
         21   -1    0    0  501  502  0.00000000000E+00  0.00000000000E+00  0.33425768959E+03  0.33425768959E+03  0.00000000000E+00 0.  1.
         21   -1    0    0  502  503 -0.00000000000E+00 -0.00000000000E+00 -0.65464735362E+03  0.65464735362E+03  0.00000000000E+00 0.  1.
        -13    1    1    2    0    0 -0.22598503348E+03  0.22004255169E+03 -0.18637247985E+03  0.36636412532E+03  0.10566000000E+00 0.  1.
         13    1    1    2    0    0  0.12418637103E+03 -0.15438149033E+03 -0.16833969345E+03  0.25998877449E+03  0.10566000000E+00 0. -1.
          4    1    1    2  501    0  0.89625977896E+02 -0.61876198692E+02  0.18320080216E+03  0.21312910123E+03  0.00000000000E+00 0.  1.
         -4    1    1    2    0  503  0.12172684554E+02 -0.37848626670E+01 -0.14887829289E+03  0.14942304216E+03  0.00000000000E+00 0. -1.
</event>
<event>
 6    1  0.5496865E-006  0.2722319E+03  0.7818608E-02  0.1028771E+00
         21   -1    0    0  501  502  0.00000000000E+00  0.00000000000E+00  0.13189619531E+04  0.13189619531E+04  0.00000000000E+00 0. -1.
         21   -1    0    0  502  503 -0.00000000000E+00 -0.00000000000E+00 -0.75581936018E+03  0.75581936018E+03  0.00000000000E+00 0.  1.
        -13    1    1    2    0    0 -0.34140269869E+03  0.15958943657E+03 -0.28067148672E+02  0.37790523539E+03  0.10566000000E+00 0.  1.
         13    1    1    2    0    0  0.12152897447E+03 -0.16572741167E+03  0.84518566761E+03  0.86981244559E+03  0.10566000000E+00 0. -1.
          4    1    1    2  501    0  0.24684653268E+03 -0.26674356365E+02  0.23165930701E+03  0.33957439024E+03  0.00000000000E+00 0.  1.
         -4    1    1    2    0  503 -0.26972808462E+02  0.32812331468E+02 -0.48563523307E+03  0.48748924202E+03  0.00000000000E+00 0. -1.
</event>
<event>
 6    1  0.5496865E-006  0.9568961E+02  0.7818608E-02  0.1171891E+00
         21   -1    0    0  501  502  0.00000000000E+00  0.00000000000E+00  0.10117793248E+03  0.10117793248E+03  0.00000000000E+00 0.  1.
         21   -1    0    0  502  503 -0.00000000000E+00 -0.00000000000E+00 -0.11286673992E+04  0.11286673992E+04  0.00000000000E+00 0. -1.
        -13    1    1    2    0    0  0.64519896544E+02  0.82836710208E+02 -0.30391479240E+03  0.32154152113E+03  0.10566000000E+00 0.  1.
         13    1    1    2    0    0 -0.69532091446E+02 -0.61618296446E+02 -0.38225434972E+03  0.39338267024E+03  0.10566000000E+00 0. -1.
          4    1    1    2  501    0 -0.13625856575E+02 -0.12561201499E+02  0.85561206700E+02  0.87545233122E+02  0.00000000000E+00 0.  1.
         -4    1    1    2    0  503  0.18638051477E+02 -0.86572122625E+01 -0.42688153127E+03  0.42737590717E+03  0.00000000000E+00 0. -1.
</event>
<event>
 6    1  0.5496865E-006  0.1349875E+03  0.7818608E-02  0.1116940E+00
         21   -1    0    0  501  502  0.00000000000E+00  0.00000000000E+00  0.25042481540E+02  0.25042481540E+02  0.00000000000E+00 0.  1.
         21   -1    0    0  502  503 -0.00000000000E+00 -0.00000000000E+00 -0.12644239256E+04  0.12644239256E+04  0.00000000000E+00 0. -1.
        -13    1    1    2    0    0  0.12567600121E+03  0.77447840607E+02 -0.55168255899E+03  0.57109218377E+03  0.10566000000E+00 0.  1.
         13    1    1    2    0    0 -0.12343337804E+03 -0.28249490112E+02 -0.53539837064E+03  0.55016839145E+03  0.10566000000E+00 0. -1.
          4    1    1    2  501    0  0.25462523555E+01  0.10417501111E+02 -0.14948541061E+02  0.18397462062E+02  0.00000000000E+00 0.  1.
         -4    1    1    2    0  503 -0.47888755211E+01 -0.59615851606E+02 -0.13735197333E+03  0.14980836982E+03  0.00000000000E+00 0. -1.
</event>
<event>
 6    1  0.5496865E-006  0.4007002E+03  0.7818608E-02  0.9727026E-01
         21   -1    0    0  503  502  0.00000000000E+00  0.00000000000E+00  0.83888338365E+03  0.83888338365E+03  0.00000000000E+00 0. -1.
         21   -1    0    0  501  503 -0.00000000000E+00 -0.00000000000E+00 -0.46660813639E+03  0.46660813639E+03  0.00000000000E+00 0. -1.
        -13    1    1    2    0    0  0.21740935062E+03 -0.29841221885E+03  0.25995686347E+03  0.45154652044E+03  0.10566000000E+00 0.  1.
         13    1    1    2    0    0 -0.53730773849E+02  0.42054246385E+03 -0.12747324289E+03  0.44271028764E+03  0.10566000000E+00 0. -1.
          4    1    1    2  501    0 -0.11298106131E+02  0.90137692622E+01 -0.53631161800E+02  0.55544547477E+02  0.00000000000E+00 0.  1.
         -4    1    1    2    0  502 -0.15238047064E+03 -0.13114401427E+03  0.29342278849E+03  0.35569016449E+03  0.00000000000E+00 0. -1.
</event>
<event>
 6    1  0.5496865E-006  0.1587939E+03  0.7818608E-02  0.1098437E+00
         21   -1    0    0  501  502  0.00000000000E+00  0.00000000000E+00  0.34743528640E+03  0.34743528640E+03  0.00000000000E+00 0. -1.
         21   -1    0    0  502  503 -0.00000000000E+00 -0.00000000000E+00 -0.25040153880E+03  0.25040153880E+03  0.00000000000E+00 0.  1.
        -13    1    1    2    0    0 -0.15546132226E+02  0.85322765069E+02  0.82539454826E+02  0.11972647674E+03  0.10566000000E+00 0.  1.
         13    1    1    2    0    0 -0.79762560235E+02 -0.18623031501E+03 -0.44656779387E+02  0.20745610464E+03  0.10566000000E+00 0. -1.
          4    1    1    2  501    0  0.13157056208E+03  0.12874712624E+03  0.99873514634E+02  0.20943102503E+03  0.00000000000E+00 0.  1.
         -4    1    1    2    0  503 -0.36261869624E+02 -0.27839576295E+02 -0.40722442474E+02  0.61223218781E+02  0.00000000000E+00 0. -1.
</event>
<event>
 6    1  0.5496865E-006  0.1510307E+03  0.7818608E-02  0.1100100E+00
         21   -1    0    0  501  502  0.00000000000E+00  0.00000000000E+00  0.79424851974E+02  0.79424851974E+02  0.00000000000E+00 0. -1.
         21   -1    0    0  502  503 -0.00000000000E+00 -0.00000000000E+00 -0.67006390429E+03  0.67006390429E+03  0.00000000000E+00 0.  1.
        -13    1    1    2    0    0  0.14986121374E+03 -0.47153621143E+02 -0.23623620501E+03  0.28370654397E+03  0.10566000000E+00 0.  1.
         13    1    1    2    0    0 -0.14367042596E+03  0.19528131992E+02 -0.67950505757E+02  0.16012439424E+03  0.10566000000E+00 0. -1.
          4    1    1    2  501    0  0.43139626536E+01  0.46283669726E+02 -0.50121627760E+02  0.68359095418E+02  0.00000000000E+00 0.  1.
         -4    1    1    2    0  503 -0.10504750436E+02 -0.18658180574E+02 -0.23633071379E+03  0.23729872264E+03  0.00000000000E+00 0. -1.
</event>
<event>
 6    1  0.5496865E-006  0.6818747E+02  0.7818608E-02  0.1231565E+00
         21   -1    0    0  501  502  0.00000000000E+00  0.00000000000E+00  0.18796505988E+03  0.18796505988E+03  0.00000000000E+00 0.  1.
         21   -1    0    0  502  503 -0.00000000000E+00 -0.00000000000E+00 -0.70732021649E+02  0.70732021649E+02  0.00000000000E+00 0. -1.
        -13    1    1    2    0    0 -0.22710035503E+02 -0.50342110612E+02 -0.10873684222E+02  0.56287849364E+02  0.10566000000E+00 0.  1.
         13    1    1    2    0    0  0.46893386852E+02  0.45589863116E+02  0.92477256265E+02  0.11326729201E+03  0.10566000000E+00 0. -1.
          4    1    1    2  501    0 -0.15515088288E+01  0.21389137585E+02  0.52266957575E+02  0.56495462122E+02  0.00000000000E+00 0.  1.
         -4    1    1    2    0  503 -0.22631842520E+02 -0.16636890089E+02 -0.16637491392E+02  0.32646478026E+02  0.00000000000E+00 0. -1.
</event>
<event>
 6    1  0.5496865E-006  0.1065001E+03  0.7818608E-02  0.1154227E+00
         21   -1    0    0  501  502  0.00000000000E+00  0.00000000000E+00  0.39275593948E+03  0.39275593948E+03  0.00000000000E+00 0. -1.
         21   -1    0    0  502  503 -0.00000000000E+00 -0.00000000000E+00 -0.22580639847E+03  0.22580639847E+03  0.00000000000E+00 0. -1.
        -13    1    1    2    0    0 -0.83246310273E+02 -0.25020057058E+02  0.16184861725E+03  0.18371428224E+03  0.10566000000E+00 0.  1.
         13    1    1    2    0    0  0.14286953934E+03  0.18821311108E+02  0.13619793259E+03  0.19828221058E+03  0.10566000000E+00 0. -1.
          4    1    1    2  501    0 -0.12943760439E+02  0.10362846913E+02  0.48342680828E+02  0.51107184623E+02  0.00000000000E+00 0.  1.
         -4    1    1    2    0  503 -0.46679468632E+02 -0.41641009623E+01 -0.17943968967E+03  0.18545866051E+03  0.00000000000E+00 0. -1.
</event>
<event>
 6    1  0.5496865E-006  0.4138773E+02  0.7818608E-02  0.1344572E+00
         21   -1    0    0  501  502  0.00000000000E+00  0.00000000000E+00  0.99837480895E+02  0.99837480895E+02  0.00000000000E+00 0.  1.
         21   -1    0    0  502  503 -0.00000000000E+00 -0.00000000000E+00 -0.29064103081E+03  0.29064103081E+03  0.00000000000E+00 0.  1.
        -13    1    1    2    0    0  0.58372087199E+02  0.62845365344E+02 -0.15581601114E+03  0.17786365846E+03  0.10566000000E+00 0.  1.
         13    1    1    2    0    0  0.59154644049E+01 -0.20910547320E+02  0.72573138237E+01  0.22911208530E+02  0.10566000000E+00 0. -1.
          4    1    1    2  501    0 -0.32490861954E+02 -0.14250189994E+02  0.65230662273E+02  0.74254719217E+02  0.00000000000E+00 0.  1.
         -4    1    1    2    0  503 -0.31796689650E+02 -0.27684628030E+02 -0.10747551487E+03  0.11544892550E+03  0.00000000000E+00 0. -1.
</event>
<event>
 6    1  0.5496865E-006  0.2612928E+03  0.7818608E-02  0.1024701E+00
         21   -1    0    0  503  502  0.00000000000E+00  0.00000000000E+00  0.81783722639E+03  0.81783722639E+03  0.00000000000E+00 0. -1.
         21   -1    0    0  501  503 -0.00000000000E+00 -0.00000000000E+00 -0.22763249888E+03  0.22763249888E+03  0.00000000000E+00 0. -1.
        -13    1    1    2    0    0  0.77567233690E+02  0.26450732787E+03  0.10622986540E+03  0.29540751125E+03  0.10566000000E+00 0.  1.
         13    1    1    2    0    0 -0.24130257319E+02 -0.24924713617E+03  0.77598535911E+02  0.26216015743E+03  0.10566000000E+00 0. -1.
          4    1    1    2  501    0 -0.48186525989E+02  0.32264248427E+01 -0.26169862588E+02  0.54929161764E+02  0.00000000000E+00 0.  1.
         -4    1    1    2    0  502 -0.52504503816E+01 -0.18486616544E+02  0.43254618879E+03  0.43297289483E+03  0.00000000000E+00 0. -1.
</event>
<event>
 6    1  0.5496865E-006  0.2170376E+03  0.7818608E-02  0.1049044E+00
         21   -1    0    0  503  502  0.00000000000E+00  0.00000000000E+00  0.13798678703E+04  0.13798678703E+04  0.00000000000E+00 0.  1.
         21   -1    0    0  501  503 -0.00000000000E+00 -0.00000000000E+00 -0.30454979131E+03  0.30454979131E+03  0.00000000000E+00 0.  1.
        -13    1    1    2    0    0 -0.20929702676E+03  0.72616624369E+02  0.11386384710E+04  0.11599896544E+04  0.10566000000E+00 0.  1.
         13    1    1    2    0    0  0.20980907260E+03 -0.87582421744E+02  0.10035784837E+03  0.24852009262E+03  0.10566000000E+00 0. -1.
          4    1    1    2  501    0 -0.17618950518E+02 -0.73318548465E+01 -0.21582663298E+03  0.21666868490E+03  0.00000000000E+00 0.  1.
         -4    1    1    2    0  502  0.17106904686E+02  0.22297652221E+02  0.52148392596E+02  0.59239229679E+02  0.00000000000E+00 0. -1.
</event>
<event>
 6    1  0.5496865E-006  0.7478979E+02  0.7818608E-02  0.1214693E+00
         21   -1    0    0  503  502  0.00000000000E+00  0.00000000000E+00  0.10865013633E+03  0.10865013633E+03  0.00000000000E+00 0.  1.
         21   -1    0    0  501  503 -0.00000000000E+00 -0.00000000000E+00 -0.34618208339E+03  0.34618208339E+03  0.00000000000E+00 0.  1.
        -13    1    1    2    0    0 -0.69610086477E+02 -0.45995060751E+02  0.16711997533E+02  0.85090609226E+02  0.10566000000E+00 0.  1.
         13    1    1    2    0    0  0.30296320585E+02  0.67694881070E+02  0.68076127722E+00  0.74168312399E+02  0.10566000000E+00 0. -1.
          4    1    1    2  501    0  0.21558261147E+02 -0.20469079468E+02 -0.27037512428E+03  0.27200450303E+03  0.00000000000E+00 0.  1.
         -4    1    1    2    0  502  0.17755504746E+02 -0.12307408513E+01  0.15450418406E+02  0.23568795063E+02  0.00000000000E+00 0. -1.
</event>
<event>
 6    1  0.5496865E-006  0.6569378E+02  0.7818608E-02  0.1268490E+00
         21   -1    0    0  503  502  0.00000000000E+00  0.00000000000E+00  0.89445613622E+02  0.89445613622E+02  0.00000000000E+00 0.  1.
         21   -1    0    0  501  503 -0.00000000000E+00 -0.00000000000E+00 -0.52291096869E+03  0.52291096869E+03  0.00000000000E+00 0.  1.
        -13    1    1    2    0    0 -0.10638973090E+03 -0.55210756534E+01  0.17235116496E+02  0.10791810563E+03  0.10566000000E+00 0.  1.
         13    1    1    2    0    0  0.34497400947E+02  0.36529892178E+01 -0.14933271813E+03  0.15330912194E+03  0.10566000000E+00 0. -1.
          4    1    1    2  501    0  0.59601447252E+02 -0.23423091963E+02 -0.31388401338E+03  0.32035003919E+03  0.00000000000E+00 0.  1.
         -4    1    1    2    0  502  0.12290882705E+02  0.25291178398E+02  0.12516259951E+02  0.30779315548E+02  0.00000000000E+00 0. -1.
</event>
<event>
 6    1  0.5496865E-006  0.1240091E+03  0.7818608E-02  0.1130002E+00
         21   -1    0    0  503  502  0.00000000000E+00  0.00000000000E+00  0.10532684081E+04  0.10532684081E+04  0.00000000000E+00 0. -1.
         21   -1    0    0  501  503 -0.00000000000E+00 -0.00000000000E+00 -0.11475766495E+03  0.11475766495E+03  0.00000000000E+00 0. -1.
        -13    1    1    2    0    0 -0.79292952640E+02  0.72026010416E+02  0.40620565918E+03  0.42009304592E+03  0.10566000000E+00 0.  1.
         13    1    1    2    0    0  0.13511383630E+03 -0.15309205455E+03  0.16173607656E+03  0.26048319630E+03  0.10566000000E+00 0. -1.
          4    1    1    2  501    0 -0.61696049830E+02  0.65195215463E+02 -0.23685539571E+02  0.92832232918E+02  0.00000000000E+00 0.  1.
         -4    1    1    2    0  502  0.58751661676E+01  0.15870828673E+02  0.39425454695E+03  0.39461759790E+03  0.00000000000E+00 0. -1.
</event>
<event>
 6    1  0.5496865E-006  0.4271880E+02  0.7818608E-02  0.1351994E+00
         21   -1    0    0  501  502  0.00000000000E+00  0.00000000000E+00  0.49559398250E+02  0.49559398250E+02  0.00000000000E+00 0.  1.
         21   -1    0    0  502  503 -0.00000000000E+00 -0.00000000000E+00 -0.13240428575E+03  0.13240428575E+03  0.00000000000E+00 0. -1.
        -13    1    1    2    0    0  0.23750999204E+02 -0.59190491301E+02 -0.72169070111E+01  0.64185038244E+02  0.10566000000E+00 0.  1.
         13    1    1    2    0    0 -0.13455017751E+02  0.11822640143E+02 -0.14522333355E+02  0.23059090458E+02  0.10566000000E+00 0. -1.
          4    1    1    2  501    0 -0.81309316653E+01 -0.99756549036E+01 -0.33403460760E+01  0.13296001369E+02  0.00000000000E+00 0.  1.
         -4    1    1    2    0  503 -0.21650497873E+01  0.57343506061E+02 -0.57765301056E+02  0.81423553927E+02  0.00000000000E+00 0. -1.
</event>
<event>
 6    1  0.5496865E-006  0.2277146E+03  0.7818608E-02  0.1042635E+00
         21   -1    0    0  501  502  0.00000000000E+00  0.00000000000E+00  0.11811526120E+04  0.11811526120E+04  0.00000000000E+00 0.  1.
         21   -1    0    0  502  503 -0.00000000000E+00 -0.00000000000E+00 -0.14727248989E+03  0.14727248989E+03  0.00000000000E+00 0. -1.
        -13    1    1    2    0    0 -0.11498819717E+03 -0.18243860658E+03  0.25428877297E+03  0.33342003821E+03  0.10566000000E+00 0.  1.
         13    1    1    2    0    0  0.12580283318E+03  0.21464045853E+03  0.12054377952E+03  0.27645558996E+03  0.10566000000E+00 0. -1.
          4    1    1    2  501    0 -0.14159112240E+02  0.53785954968E+01  0.67671801701E+03  0.67688749752E+03  0.00000000000E+00 0.  1.
         -4    1    1    2    0  503  0.33444762380E+01 -0.37580447449E+02 -0.17670447376E+02  0.41661976216E+02  0.00000000000E+00 0. -1.
</event>
<event>
 6    1  0.5496865E-006  0.4332486E+02  0.7818608E-02  0.1321642E+00
         21   -1    0    0  501  502  0.00000000000E+00  0.00000000000E+00  0.63813123003E+03  0.63813123003E+03  0.00000000000E+00 0.  1.
         21   -1    0    0  502  503 -0.00000000000E+00 -0.00000000000E+00 -0.86985139339E+02  0.86985139339E+02  0.00000000000E+00 0.  1.
        -13    1    1    2    0    0 -0.46144281791E+02  0.11592098760E+02  0.13196206921E+02  0.49374310495E+02  0.10566000000E+00 0.  1.
         13    1    1    2    0    0  0.40814400589E+02  0.77431170637E+01  0.89334068936E+01  0.42492211993E+02  0.10566000000E+00 0. -1.
          4    1    1    2  501    0 -0.19877595541E+01 -0.10057977490E+02  0.58041758472E+03  0.58050812806E+03  0.00000000000E+00 0.  1.
         -4    1    1    2    0  503  0.73176407557E+01 -0.92772383338E+01 -0.51401107837E+02  0.52741718821E+02  0.00000000000E+00 0. -1.
</event>
<event>
 6    1  0.5496865E-006  0.1102148E+03  0.7818608E-02  0.1153172E+00
         21   -1    0    0  503  502  0.00000000000E+00  0.00000000000E+00  0.10383435151E+03  0.10383435151E+03  0.00000000000E+00 0.  1.
         21   -1    0    0  501  503 -0.00000000000E+00 -0.00000000000E+00 -0.13861284482E+04  0.13861284482E+04  0.00000000000E+00 0.  1.
        -13    1    1    2    0    0  0.12374481764E+03 -0.87764894678E+02 -0.40151084614E+00  0.15170902744E+03  0.10566000000E+00 0.  1.
         13    1    1    2    0    0 -0.10314597353E+03 -0.20730069843E+02 -0.42175616897E+03  0.43468046296E+03  0.10566000000E+00 0. -1.
          4    1    1    2  501    0  0.10845327816E+02  0.27952199800E+01 -0.74155282410E+03  0.74163739477E+03  0.00000000000E+00 0.  1.
         -4    1    1    2    0  502 -0.31444171931E+02  0.10569974454E+03 -0.11858359281E+03  0.16193591457E+03  0.00000000000E+00 0. -1.
</event>
<event>
 6    1  0.5496865E-006  0.1481300E+03  0.7818608E-02  0.1102970E+00
         21   -1    0    0  503  502  0.00000000000E+00  0.00000000000E+00  0.13575470836E+03  0.13575470836E+03  0.00000000000E+00 0. -1.
         21   -1    0    0  501  503 -0.00000000000E+00 -0.00000000000E+00 -0.39800602322E+03  0.39800602322E+03  0.00000000000E+00 0.  1.
        -13    1    1    2    0    0 -0.11771922684E+03  0.81246251230E+02 -0.20404593735E+03  0.24918572475E+03  0.10566000000E+00 0.  1.
         13    1    1    2    0    0  0.85497669516E+02 -0.13348680514E+03 -0.31598035103E+02  0.16163856478E+03  0.10566000000E+00 0. -1.
          4    1    1    2  501    0  0.64573355375E+01  0.18337795491E+02 -0.63615635655E+02  0.66520079867E+02  0.00000000000E+00 0.  1.
         -4    1    1    2    0  502  0.25764221787E+02  0.33902758416E+02  0.37008293242E+02  0.56416362176E+02  0.00000000000E+00 0. -1.
</event>
<event>
 6    1  0.5496865E-006  0.2300803E+03  0.7818608E-02  0.1041266E+00
         21   -1    0    0  501  502  0.00000000000E+00  0.00000000000E+00  0.48193337177E+03  0.48193337177E+03  0.00000000000E+00 0. -1.
         21   -1    0    0  502  503 -0.00000000000E+00 -0.00000000000E+00 -0.26089857092E+03  0.26089857092E+03  0.00000000000E+00 0. -1.
        -13    1    1    2    0    0 -0.76302366707E+02 -0.15030679473E+03 -0.77223014786E+02  0.18541194375E+03  0.10566000000E+00 0.  1.
         13    1    1    2    0    0  0.16322126517E+03  0.24102971725E+03  0.84307663616E+02  0.30305824409E+03  0.10566000000E+00 0. -1.
          4    1    1    2  501    0 -0.13906352188E+02 -0.46534395192E+02  0.10721175460E+03  0.11769960447E+03  0.00000000000E+00 0.  1.
         -4    1    1    2    0  503 -0.73012546278E+02 -0.44188527332E+02  0.10673839743E+03  0.13666215038E+03  0.00000000000E+00 0. -1.
</event>
<event>
 6    1  0.5496865E-006  0.5941855E+02  0.7818608E-02  0.1262885E+00
         21   -1    0    0  501  502  0.00000000000E+00  0.00000000000E+00  0.63644204844E+02  0.63644204844E+02  0.00000000000E+00 0. -1.
         21   -1    0    0  502  503 -0.00000000000E+00 -0.00000000000E+00 -0.64449529005E+03  0.64449529005E+03  0.00000000000E+00 0.  1.
        -13    1    1    2    0    0  0.43091054655E+02  0.10970397812E+02 -0.23850447683E+03  0.24261406648E+03  0.10566000000E+00 0.  1.
         13    1    1    2    0    0 -0.68327847055E+02 -0.92724269944E+02 -0.61284604738E+01  0.11534320141E+03  0.10566000000E+00 0. -1.
          4    1    1    2  501    0  0.27675070527E+02  0.45769797070E+02 -0.12584326017E+03  0.13673810728E+03  0.00000000000E+00 0.  1.
         -4    1    1    2    0  503 -0.24382781271E+01  0.35984075062E+02 -0.21037488773E+03  0.21344411972E+03  0.00000000000E+00 0. -1.
</event>
<event>
 6    1  0.5496865E-006  0.1786897E+03  0.7818608E-02  0.1121493E+00
         21   -1    0    0  501  502  0.00000000000E+00  0.00000000000E+00  0.25407185599E+04  0.25407185599E+04  0.00000000000E+00 0. -1.
         21   -1    0    0  502  503 -0.00000000000E+00 -0.00000000000E+00 -0.20963608893E+02  0.20963608893E+02  0.00000000000E+00 0. -1.
        -13    1    1    2    0    0 -0.41810027153E+02  0.33210085815E+02  0.20692720318E+03  0.21370509295E+03  0.10566000000E+00 0.  1.
         13    1    1    2    0    0 -0.13658901395E+03 -0.10416263334E+03  0.71002143255E+03  0.73050452344E+03  0.10566000000E+00 0. -1.
          4    1    1    2  501    0  0.79476392801E+01 -0.21808213402E+02  0.16034223472E+03  0.16201356541E+03  0.00000000000E+00 0.  1.
         -4    1    1    2    0  503  0.17045140182E+03  0.92760760932E+02  0.14424640806E+04  0.14554589870E+04  0.00000000000E+00 0. -1.
</event>
<event>
 6    1  0.5496865E-006  0.1731908E+03  0.7818608E-02  0.1080250E+00
         21   -1    0    0  503  502  0.00000000000E+00  0.00000000000E+00  0.21743028366E+03  0.21743028366E+03  0.00000000000E+00 0.  1.
         21   -1    0    0  501  503 -0.00000000000E+00 -0.00000000000E+00 -0.48508633093E+03  0.48508633093E+03  0.00000000000E+00 0. -1.
        -13    1    1    2    0    0 -0.20345442536E+03  0.76113033502E+02  0.53319873402E+02  0.22367368449E+03  0.10566000000E+00 0.  1.
         13    1    1    2    0    0  0.14153784671E+03 -0.75134199431E+02 -0.64079130634E+02  0.17258115807E+03  0.10566000000E+00 0. -1.
          4    1    1    2  501    0 -0.14017897343E+02 -0.97232265832E+01 -0.22127648947E+03  0.22193315969E+03  0.00000000000E+00 0.  1.
         -4    1    1    2    0  502  0.75934475994E+02  0.87443925119E+01 -0.35620300575E+02  0.84328612333E+02  0.00000000000E+00 0. -1.
</event>
<event>
 6    1  0.5496865E-006  0.1509308E+03  0.7818608E-02  0.1126437E+00
         21   -1    0    0  503  502  0.00000000000E+00  0.00000000000E+00  0.14943407186E+03  0.14943407186E+03  0.00000000000E+00 0.  1.
         21   -1    0    0  501  503 -0.00000000000E+00 -0.00000000000E+00 -0.56685874673E+03  0.56685874673E+03  0.00000000000E+00 0.  1.
        -13    1    1    2    0    0  0.11354630456E+03  0.14869294308E+03  0.10397044454E+02  0.18737786502E+03  0.10566000000E+00 0.  1.
         13    1    1    2    0    0 -0.73678653862E+02 -0.13935263734E+02 -0.26484743261E+03  0.27525789604E+03  0.10566000000E+00 0. -1.
          4    1    1    2  501    0 -0.27896664214E+02 -0.14264656347E+03 -0.18002703426E+03  0.23137847568E+03  0.00000000000E+00 0.  1.
         -4    1    1    2    0  502 -0.11970986480E+02  0.78888841248E+01  0.17052747553E+02  0.22278581848E+02  0.00000000000E+00 0. -1.
</event>
<event>
 6    1  0.5496865E-006  0.1698576E+03  0.7818608E-02  0.1083024E+00
         21   -1    0    0  501  502  0.00000000000E+00  0.00000000000E+00  0.44061286534E+03  0.44061286534E+03  0.00000000000E+00 0.  1.
         21   -1    0    0  502  503 -0.00000000000E+00 -0.00000000000E+00 -0.28750648921E+03  0.28750648921E+03  0.00000000000E+00 0.  1.
        -13    1    1    2    0    0 -0.17303363727E+03 -0.12388408813E+03  0.30638554969E+02  0.21500381191E+03  0.10566000000E+00 0.  1.
         13    1    1    2    0    0  0.13645583951E+03  0.33878006332E+01  0.21060806959E+03  0.25097299351E+03  0.10566000000E+00 0. -1.
          4    1    1    2  501    0  0.29502866345E+02  0.60668883452E+02  0.67388372981E+02  0.95353685587E+02  0.00000000000E+00 0.  1.
         -4    1    1    2    0  503  0.70749314230E+01  0.59827404041E+02 -0.15552862141E+03  0.16678886355E+03  0.00000000000E+00 0. -1.
</event>
<event>
 6    1  0.5496865E-006  0.1461332E+03  0.7818608E-02  0.1104989E+00
         21   -1    0    0  501  502  0.00000000000E+00  0.00000000000E+00  0.59487903402E+03  0.59487903402E+03  0.00000000000E+00 0. -1.
         21   -1    0    0  502  503 -0.00000000000E+00 -0.00000000000E+00 -0.51283217774E+03  0.51283217774E+03  0.00000000000E+00 0. -1.
        -13    1    1    2    0    0  0.10625971129E+03  0.11279565563E+03  0.84753507607E+02  0.17662716209E+03  0.10566000000E+00 0.  1.
         13    1    1    2    0    0 -0.12909061531E+02 -0.13931881385E+03  0.20368776690E+03  0.24711352313E+03  0.10566000000E+00 0. -1.
          4    1    1    2  501    0 -0.97856886016E+02 -0.60061625634E+00  0.22830946265E+03  0.24839795010E+03  0.00000000000E+00 0.  1.
         -4    1    1    2    0  503  0.45062362617E+01  0.27123774483E+02 -0.43470388087E+03  0.43557257644E+03  0.00000000000E+00 0. -1.
</event>
<event>
 6    1  0.5496865E-006  0.9459427E+02  0.7818608E-02  0.1173823E+00
         21   -1    0    0  501  502  0.00000000000E+00  0.00000000000E+00  0.11522185185E+04  0.11522185185E+04  0.00000000000E+00 0.  1.
         21   -1    0    0  502  503 -0.00000000000E+00 -0.00000000000E+00 -0.17286712880E+03  0.17286712880E+03  0.00000000000E+00 0. -1.
        -13    1    1    2    0    0 -0.83414325905E+02  0.11104853948E+02  0.37631266379E+02  0.92181293768E+02  0.10566000000E+00 0.  1.
         13    1    1    2    0    0  0.84519051875E+02 -0.33559627467E+02  0.36812087339E+03  0.37918690288E+03  0.10566000000E+00 0. -1.
          4    1    1    2  501    0  0.34361337542E+01 -0.14017788084E+02  0.71117262576E+03  0.71131906275E+03  0.00000000000E+00 0.  1.
         -4    1    1    2    0  503 -0.45408597248E+01  0.36472561603E+02 -0.13757337581E+03  0.14239838794E+03  0.00000000000E+00 0. -1.
</event>
<event>
 6    1  0.5496865E-006  0.1593434E+03  0.7818608E-02  0.1092246E+00
         21   -1    0    0  501  502  0.00000000000E+00  0.00000000000E+00  0.26819722172E+03  0.26819722172E+03  0.00000000000E+00 0. -1.
         21   -1    0    0  502  503 -0.00000000000E+00 -0.00000000000E+00 -0.96488369993E+03  0.96488369993E+03  0.00000000000E+00 0. -1.
        -13    1    1    2    0    0  0.29939563560E+02  0.13507244586E+03  0.17051835668E+03  0.21958475409E+03  0.10566000000E+00 0.  1.
         13    1    1    2    0    0  0.86365944422E+02 -0.20763166394E+03 -0.23136731187E+03  0.32264659984E+03  0.10566000000E+00 0. -1.
          4    1    1    2  501    0 -0.48468625097E+01  0.22369152161E+02  0.15821971072E+02  0.27824554142E+02  0.00000000000E+00 0.  1.
         -4    1    1    2    0  503 -0.11145864547E+03  0.50190065917E+02 -0.65165949410E+03  0.66302501357E+03  0.00000000000E+00 0. -1.
</event>
<event>
 6    1  0.5496865E-006  0.8510092E+02  0.7818608E-02  0.1191879E+00
         21   -1    0    0  503  502  0.00000000000E+00  0.00000000000E+00  0.46652315394E+02  0.46652315394E+02  0.00000000000E+00 0.  1.
         21   -1    0    0  501  503 -0.00000000000E+00 -0.00000000000E+00 -0.74378344040E+03  0.74378344040E+03  0.00000000000E+00 0.  1.
        -13    1    1    2    0    0 -0.14799781968E+02 -0.86509019700E+02 -0.32305110242E+02  0.93522592712E+02  0.10566000000E+00 0.  1.
         13    1    1    2    0    0  0.38811974063E+02  0.77766198561E+02 -0.17523699974E+03  0.19560666709E+03  0.10566000000E+00 0. -1.
          4    1    1    2  501    0 -0.15903285546E+02  0.28717207322E+01 -0.49093879938E+03  0.49120470887E+03  0.00000000000E+00 0.  1.
         -4    1    1    2    0  502 -0.81089065492E+01  0.58711004069E+01  0.13497843533E+01  0.10101787130E+02  0.00000000000E+00 0. -1.
</event>
<event>
 6    1  0.5496865E-006  0.1337211E+03  0.7818608E-02  0.1140216E+00
         21   -1    0    0  501  502  0.00000000000E+00  0.00000000000E+00  0.29860044155E+03  0.29860044155E+03  0.00000000000E+00 0. -1.
         21   -1    0    0  502  503 -0.00000000000E+00 -0.00000000000E+00 -0.20319738640E+03  0.20319738640E+03  0.00000000000E+00 0.  1.
        -13    1    1    2    0    0  0.49555793091E+01  0.20576664525E+03  0.85131735517E+01  0.20600231881E+03  0.10566000000E+00 0.  1.
         13    1    1    2    0    0 -0.52783673071E+02 -0.32258402168E+02 -0.36028832910E+02  0.71587768636E+02  0.10566000000E+00 0. -1.
          4    1    1    2  501    0 -0.65688154727E+01 -0.86348371327E+01  0.18967798215E+02  0.21851478626E+02  0.00000000000E+00 0.  1.
         -4    1    1    2    0  503  0.54396909235E+02 -0.16487340595E+03  0.10395091629E+03  0.20235626188E+03  0.00000000000E+00 0. -1.
</event>
<event>
 6    1  0.5496865E-006  0.5652598E+02  0.7818608E-02  0.1267282E+00
         21   -1    0    0  503  502  0.00000000000E+00  0.00000000000E+00  0.18401707618E+03  0.18401707618E+03  0.00000000000E+00 0.  1.
         21   -1    0    0  501  503 -0.00000000000E+00 -0.00000000000E+00 -0.49730983581E+02  0.49730983581E+02  0.00000000000E+00 0. -1.
        -13    1    1    2    0    0 -0.55840761127E+02  0.29305641047E+02  0.89336273218E+02  0.10935260434E+03  0.10566000000E+00 0.  1.
         13    1    1    2    0    0  0.46202994929E+02 -0.41326642114E+02  0.27179982419E+01  0.62048422762E+02  0.10566000000E+00 0. -1.
          4    1    1    2  501    0 -0.87568401498E+01  0.57423171748E+01 -0.47535522438E+01  0.11500118038E+02  0.00000000000E+00 0.  1.
         -4    1    1    2    0  502  0.18394606348E+02  0.62786838915E+01  0.46985373383E+02  0.50846914617E+02  0.00000000000E+00 0. -1.
</event>
<event>
 6    1  0.5496865E-006  0.2863965E+02  0.7818608E-02  0.1416176E+00
         21   -1    0    0  501  502  0.00000000000E+00  0.00000000000E+00  0.23258521741E+02  0.23258521741E+02  0.00000000000E+00 0.  1.
         21   -1    0    0  502  503 -0.00000000000E+00 -0.00000000000E+00 -0.24483916849E+03  0.24483916849E+03  0.00000000000E+00 0.  1.
        -13    1    1    2    0    0 -0.42668140640E+01  0.21826738840E+02 -0.11831591129E+03  0.12038803204E+03  0.10566000000E+00 0.  1.
         13    1    1    2    0    0  0.35675038349E+02 -0.25870034726E+02 -0.70314818313E+02  0.82982840976E+02  0.10566000000E+00 0. -1.
          4    1    1    2  501    0 -0.19707600983E+02  0.27265769329E+01  0.85014532172E+01  0.21635583308E+02  0.00000000000E+00 0.  1.
         -4    1    1    2    0  503 -0.11700623303E+02  0.13167189524E+01 -0.41451370362E+02  0.43091233904E+02  0.00000000000E+00 0. -1.
</event>
<event>
 6    1  0.5496865E-006  0.1256429E+03  0.7818608E-02  0.1127967E+00
         21   -1    0    0  503  502  0.00000000000E+00  0.00000000000E+00  0.83356450014E+03  0.83356450014E+03  0.00000000000E+00 0.  1.
         21   -1    0    0  501  503 -0.00000000000E+00 -0.00000000000E+00 -0.50862503346E+03  0.50862503346E+03  0.00000000000E+00 0. -1.
        -13    1    1    2    0    0  0.11758846338E+03  0.13202703045E+03  0.50193595141E+03  0.53216340908E+03  0.10566000000E+00 0.  1.
         13    1    1    2    0    0 -0.12198479033E+03 -0.95246140900E+01 -0.24235309704E+03  0.27148856726E+03  0.10566000000E+00 0. -1.
          4    1    1    2  501    0  0.35793128586E+01 -0.31291754909E+02 -0.22859732176E+03  0.23075684371E+03  0.00000000000E+00 0.  1.
         -4    1    1    2    0  502  0.81701408951E+00 -0.91210661453E+02  0.29395393407E+03  0.30778071355E+03  0.00000000000E+00 0. -1.
</event>
<event>
 6    1  0.5496865E-006  0.1054911E+03  0.7818608E-02  0.1160000E+00
         21   -1    0    0  501  502  0.00000000000E+00  0.00000000000E+00  0.46283810187E+03  0.46283810187E+03  0.00000000000E+00 0. -1.
         21   -1    0    0  502  503 -0.00000000000E+00 -0.00000000000E+00 -0.21081449464E+03  0.21081449464E+03  0.00000000000E+00 0. -1.
        -13    1    1    2    0    0  0.87555547406E+02  0.30862293033E+02  0.94574882286E+01  0.93316184343E+02  0.10566000000E+00 0.  1.
         13    1    1    2    0    0 -0.18969419602E+03 -0.79931267654E+02  0.22139416137E+03  0.30230494770E+03  0.10566000000E+00 0. -1.
          4    1    1    2  501    0  0.13312076225E+02  0.70266942202E+01  0.13030518928E+03  0.13117175061E+03  0.00000000000E+00 0.  1.
         -4    1    1    2    0  503  0.88826572385E+02  0.42042280401E+02 -0.10913323166E+03  0.14685971386E+03  0.00000000000E+00 0. -1.
</event>
<event>
 6    1  0.5496865E-006  0.8365474E+02  0.7818608E-02  0.1217052E+00
         21   -1    0    0  501  502  0.00000000000E+00  0.00000000000E+00  0.31347402305E+03  0.31347402305E+03  0.00000000000E+00 0. -1.
         21   -1    0    0  502  503 -0.00000000000E+00 -0.00000000000E+00 -0.10525918035E+03  0.10525918035E+03  0.00000000000E+00 0.  1.
        -13    1    1    2    0    0  0.11373812740E+03 -0.72375399576E+02  0.14624041267E+02  0.13560395951E+03  0.10566000000E+00 0.  1.
         13    1    1    2    0    0 -0.14262774932E+02  0.45622965588E+02  0.29633718641E+02  0.56241000901E+02  0.10566000000E+00 0. -1.
          4    1    1    2  501    0  0.16993766117E+02  0.35131392748E+02  0.30300698842E+02  0.49407845466E+02  0.00000000000E+00 0.  1.
         -4    1    1    2    0  503 -0.11646911858E+03 -0.83789587607E+01  0.13365638395E+03  0.17748039752E+03  0.00000000000E+00 0. -1.
</event>
<event>
 6    1  0.5496865E-006  0.5374724E+02  0.7818608E-02  0.1277241E+00
         21   -1    0    0  501  502  0.00000000000E+00  0.00000000000E+00  0.10076505837E+03  0.10076505837E+03  0.00000000000E+00 0.  1.
         21   -1    0    0  502  503 -0.00000000000E+00 -0.00000000000E+00 -0.13887005730E+03  0.13887005730E+03  0.00000000000E+00 0. -1.
        -13    1    1    2    0    0  0.33035227859E+02  0.93274216593E+01 -0.38366284880E+02  0.51481162128E+02  0.10566000000E+00 0.  1.
         13    1    1    2    0    0 -0.52310025756E+02 -0.64591858281E+01  0.53368007667E+02  0.75008101446E+02  0.10566000000E+00 0. -1.
          4    1    1    2  501    0 -0.10039769849E+02  0.21863239288E+01  0.26361122554E+02  0.28292857284E+02  0.00000000000E+00 0.  1.
         -4    1    1    2    0  503  0.29314567747E+02 -0.50545597600E+01 -0.79467844263E+02  0.84852994811E+02  0.00000000000E+00 0. -1.
</event>
<event>
 6    1  0.5496865E-006  0.6799058E+02  0.7818608E-02  0.1232101E+00
         21   -1    0    0  503  502  0.00000000000E+00  0.00000000000E+00  0.53521268975E+02  0.53521268975E+02  0.00000000000E+00 0.  1.
         21   -1    0    0  501  503 -0.00000000000E+00 -0.00000000000E+00 -0.48822935069E+03  0.48822935069E+03  0.00000000000E+00 0.  1.
        -13    1    1    2    0    0 -0.64680257576E+02 -0.19702767456E+02  0.10701656632E+02  0.68456346559E+02  0.10566000000E+00 0.  1.
         13    1    1    2    0    0  0.55037677064E+02  0.48137773216E+02 -0.30877797474E+03  0.31731725442E+03  0.10566000000E+00 0. -1.
          4    1    1    2  501    0  0.95127994936E+00 -0.10007285850E+02 -0.13517744170E+03  0.13555069697E+03  0.00000000000E+00 0.  1.
         -4    1    1    2    0  502  0.86913005626E+01 -0.18427719910E+02 -0.14543219042E+01  0.20426321714E+02  0.00000000000E+00 0. -1.
</event>
<event>
 6    1  0.5496865E-006  0.5209880E+02  0.7818608E-02  0.1283472E+00
         21   -1    0    0  501  502  0.00000000000E+00  0.00000000000E+00  0.85065510239E+02  0.85065510239E+02  0.00000000000E+00 0.  1.
         21   -1    0    0  502  503 -0.00000000000E+00 -0.00000000000E+00 -0.16560533775E+03  0.16560533775E+03  0.00000000000E+00 0.  1.
        -13    1    1    2    0    0  0.15511282901E+02  0.41352370357E+02 -0.82872240022E+02  0.93906537374E+02  0.10566000000E+00 0.  1.
         13    1    1    2    0    0 -0.29984885983E+02 -0.51943883415E+02  0.10674811159E+01  0.59986757635E+02  0.10566000000E+00 0. -1.
          4    1    1    2  501    0 -0.30107634152E+01  0.10286552401E+02  0.46793958512E+02  0.48005753925E+02  0.00000000000E+00 0.  1.
         -4    1    1    2    0  503  0.17484366497E+02  0.30496065733E+00 -0.45529027115E+02  0.48771799053E+02  0.00000000000E+00 0. -1.
</event>
<event>
 6    1  0.5496865E-006  0.1288503E+03  0.7818608E-02  0.1124068E+00
         21   -1    0    0  503  502  0.00000000000E+00  0.00000000000E+00  0.34888798513E+03  0.34888798513E+03  0.00000000000E+00 0. -1.
         21   -1    0    0  501  503 -0.00000000000E+00 -0.00000000000E+00 -0.51760596020E+03  0.51760596020E+03  0.00000000000E+00 0.  1.
        -13    1    1    2    0    0  0.73531168929E+02  0.11350407758E+03  0.14716465500E+03  0.19986859502E+03  0.10566000000E+00 0.  1.
         13    1    1    2    0    0 -0.79829260120E+02 -0.10975251020E+03 -0.16487541472E+03  0.21354680472E+03  0.10566000000E+00 0. -1.
          4    1    1    2  501    0  0.27057414348E+02 -0.60526475742E+01 -0.30067991608E+03  0.30195554333E+03  0.00000000000E+00 0.  1.
         -4    1    1    2    0  502 -0.20759323157E+02  0.23010801919E+01  0.14967270073E+03  0.15112300226E+03  0.00000000000E+00 0. -1.
</event>
<event>
 6    1  0.5496865E-006  0.1412787E+03  0.7818608E-02  0.1110046E+00
         21   -1    0    0  501  502  0.00000000000E+00  0.00000000000E+00  0.80806655855E+02  0.80806655855E+02  0.00000000000E+00 0. -1.
         21   -1    0    0  502  503 -0.00000000000E+00 -0.00000000000E+00 -0.62339079631E+03  0.62339079631E+03  0.00000000000E+00 0.  1.
        -13    1    1    2    0    0 -0.26605612386E+02 -0.91278350769E+02 -0.41681278619E+03  0.42751901224E+03  0.10566000000E+00 0.  1.
         13    1    1    2    0    0  0.90022903722E+02  0.12696264934E+03 -0.72002602645E+02  0.17148767733E+03  0.10566000000E+00 0. -1.
          4    1    1    2  501    0  0.96371645303E+01 -0.46458403666E+01 -0.35879830693E+01  0.11284165694E+02  0.00000000000E+00 0.  1.
         -4    1    1    2    0  503 -0.73054455866E+02 -0.31038458208E+02 -0.50180768548E+02  0.93906596903E+02  0.00000000000E+00 0. -1.
</event>
<event>
 6    1  0.5496865E-006  0.2770051E+03  0.7818608E-02  0.1017276E+00
         21   -1    0    0  501  502  0.00000000000E+00  0.00000000000E+00  0.61483841801E+03  0.61483841801E+03  0.00000000000E+00 0.  1.
         21   -1    0    0  502  503 -0.00000000000E+00 -0.00000000000E+00 -0.41304586125E+03  0.41304586125E+03  0.00000000000E+00 0.  1.
        -13    1    1    2    0    0  0.28189277170E+03  0.66485744992E+01 -0.98983681314E+02  0.29884028947E+03  0.10566000000E+00 0.  1.
         13    1    1    2    0    0 -0.27909275404E+03  0.37790576334E+02  0.22814619830E+03  0.36245219269E+03  0.10566000000E+00 0. -1.
          4    1    1    2  501    0  0.71510799671E+01 -0.11257718003E+02  0.21736254999E+03  0.21777133029E+03  0.00000000000E+00 0.  1.
         -4    1    1    2    0  503 -0.99510976202E+01 -0.33181432830E+02 -0.14473251022E+03  0.14882046681E+03  0.00000000000E+00 0. -1.
</event>
<event>
 6    1  0.5496865E-006  0.7450449E+02  0.7818608E-02  0.1215382E+00
         21   -1    0    0  501  502  0.00000000000E+00  0.00000000000E+00  0.74465994258E+02  0.74465994258E+02  0.00000000000E+00 0. -1.
         21   -1    0    0  502  503 -0.00000000000E+00 -0.00000000000E+00 -0.45148209688E+03  0.45148209688E+03  0.00000000000E+00 0. -1.
        -13    1    1    2    0    0  0.63504803184E+02 -0.17440367820E+02 -0.17161611623E+03  0.18381819543E+03  0.10566000000E+00 0.  1.
         13    1    1    2    0    0 -0.81482246381E+02  0.31080928147E+01 -0.34534539183E+02  0.88553160739E+02  0.10566000000E+00 0. -1.
          4    1    1    2  501    0  0.48383655865E+01 -0.14277356379E+02  0.38766266925E+02  0.41594183945E+02  0.00000000000E+00 0.  1.
         -4    1    1    2    0  503  0.13139077611E+02  0.28609631385E+02 -0.20963171413E+03  0.21198255102E+03  0.00000000000E+00 0. -1.
</event>
<event>
 6    1  0.5496865E-006  0.3191007E+02  0.7818608E-02  0.1390197E+00
         21   -1    0    0  503  502  0.00000000000E+00  0.00000000000E+00  0.96387816807E+02  0.96387816807E+02  0.00000000000E+00 0. -1.
         21   -1    0    0  501  503 -0.00000000000E+00 -0.00000000000E+00 -0.10673276888E+03  0.10673276888E+03  0.00000000000E+00 0. -1.
        -13    1    1    2    0    0  0.20317071136E+02 -0.24981150166E+01  0.69923945286E+02  0.72858721143E+02  0.10566000000E+00 0.  1.
         13    1    1    2    0    0 -0.50170778143E+02  0.12801381964E+02 -0.37781008969E+02  0.64096787458E+02  0.10566000000E+00 0. -1.
          4    1    1    2  501    0  0.73388868196E+01 -0.11796152531E+02  0.40282861940E+01  0.14464977150E+02  0.00000000000E+00 0.  1.
         -4    1    1    2    0  502  0.22514820187E+02  0.14928855840E+01 -0.46516174587E+02  0.51700099939E+02  0.00000000000E+00 0. -1.
</event>
<event>
 6    1  0.5496865E-006  0.9240067E+02  0.7818608E-02  0.1177780E+00
         21   -1    0    0  503  502  0.00000000000E+00  0.00000000000E+00  0.16373448331E+03  0.16373448331E+03  0.00000000000E+00 0.  1.
         21   -1    0    0  501  503 -0.00000000000E+00 -0.00000000000E+00 -0.23621042600E+03  0.23621042600E+03  0.00000000000E+00 0.  1.
        -13    1    1    2    0    0  0.40496808323E+02 -0.90328253170E+02  0.88688204953E+02  0.13290896759E+03  0.10566000000E+00 0.  1.
         13    1    1    2    0    0 -0.80155841965E+02  0.39360861645E+02 -0.13576118901E+02  0.90324739684E+02  0.10566000000E+00 0. -1.
          4    1    1    2  501    0  0.24949842127E+02  0.44812341432E+02 -0.15179043986E+03  0.16022165334E+03  0.00000000000E+00 0.  1.
         -4    1    1    2    0  502  0.14709191514E+02  0.61550500925E+01  0.42024111131E+01  0.16489548684E+02  0.00000000000E+00 0. -1.
</event>
<event>
 6    1  0.5496865E-006  0.7519732E+02  0.7818608E-02  0.1252407E+00
         21   -1    0    0  503  502  0.00000000000E+00  0.00000000000E+00  0.19926022521E+03  0.19926022521E+03  0.00000000000E+00 0. -1.
         21   -1    0    0  501  503 -0.00000000000E+00 -0.00000000000E+00 -0.22755259496E+03  0.22755259496E+03  0.00000000000E+00 0. -1.
        -13    1    1    2    0    0  0.12541563940E+01 -0.15817064068E+02  0.56633458883E+02  0.58814218120E+02  0.10566000000E+00 0.  1.
         13    1    1    2    0    0 -0.21094677501E+02 -0.25793952004E+02 -0.13821481895E+03  0.14217475416E+03  0.10566000000E+00 0. -1.
          4    1    1    2  501    0 -0.11851921853E+02 -0.30418000628E+02 -0.71325946752E+02  0.78441784107E+02  0.00000000000E+00 0.  1.
         -4    1    1    2    0  502  0.31692442960E+02  0.72029016701E+02  0.12461493706E+03  0.14738206379E+03  0.00000000000E+00 0. -1.
</event>
<event>
 6    1  0.5496865E-006  0.3865093E+03  0.7818608E-02  0.9768836E-01
         21   -1    0    0  501  502  0.00000000000E+00  0.00000000000E+00  0.15967061897E+03  0.15967061897E+03  0.00000000000E+00 0. -1.
         21   -1    0    0  502  503 -0.00000000000E+00 -0.00000000000E+00 -0.17864544898E+04  0.17864544898E+04  0.00000000000E+00 0.  1.
        -13    1    1    2    0    0  0.40616280228E+03  0.36116377862E+02 -0.77949948504E+03  0.87971135781E+03  0.10566000000E+00 0.  1.
         13    1    1    2    0    0 -0.41313177310E+03  0.19255469991E+02 -0.38448344318E+03  0.56469121147E+03  0.10566000000E+00 0. -1.
          4    1    1    2  501    0  0.76961769902E+02 -0.12564959274E+02 -0.85990466490E+02  0.11608338622E+03  0.00000000000E+00 0.  1.
         -4    1    1    2    0  503 -0.69992799083E+02 -0.42806888580E+02 -0.37681047613E+03  0.38563915330E+03  0.00000000000E+00 0. -1.
</event>
<event>
 6    1  0.5496865E-006  0.1724367E+03  0.7818608E-02  0.1080872E+00
         21   -1    0    0  503  502  0.00000000000E+00  0.00000000000E+00  0.34810613816E+03  0.34810613816E+03  0.00000000000E+00 0.  1.
         21   -1    0    0  501  503 -0.00000000000E+00 -0.00000000000E+00 -0.21376442209E+03  0.21376442209E+03  0.00000000000E+00 0. -1.
        -13    1    1    2    0    0  0.47491243677E+02  0.16575564007E+03  0.70778636665E+02  0.18638663314E+03  0.10566000000E+00 0.  1.
         13    1    1    2    0    0 -0.63205182670E+02 -0.15457622819E+03 -0.17170482002E+02  0.16787954626E+03  0.10566000000E+00 0. -1.
          4    1    1    2  501    0  0.11253733277E+01 -0.18882024674E+02 -0.61538012025E+02  0.64379532811E+02  0.00000000000E+00 0.  1.
         -4    1    1    2    0  502  0.14588565665E+02  0.77026127948E+01  0.14227157343E+03  0.14322484804E+03  0.00000000000E+00 0. -1.
</event>
<event>
 6    1  0.5496865E-006  0.6773748E+02  0.7818608E-02  0.1246858E+00
         21   -1    0    0  501  502  0.00000000000E+00  0.00000000000E+00  0.67261928049E+03  0.67261928049E+03  0.00000000000E+00 0.  1.
         21   -1    0    0  502  503 -0.00000000000E+00 -0.00000000000E+00 -0.96148804592E+03  0.96148804592E+03  0.00000000000E+00 0.  1.
        -13    1    1    2    0    0  0.49507552998E+02  0.78823143561E+02 -0.43830915133E+03  0.44808370765E+03  0.10566000000E+00 0.  1.
         13    1    1    2    0    0  0.30542451772E+01 -0.55940822578E+02 -0.15347144092E+03  0.16337747209E+03  0.10566000000E+00 0. -1.
          4    1    1    2  501    0 -0.50470253364E+02 -0.45051701271E+02  0.66070554582E+03  0.66416016181E+03  0.00000000000E+00 0.  1.
         -4    1    1    2    0  503 -0.20915448104E+01  0.22169380289E+02 -0.35779371900E+03  0.35848598486E+03  0.00000000000E+00 0. -1.
</event>
<event>
 6    1  0.5496865E-006  0.1397090E+03  0.7818608E-02  0.1111729E+00
         21   -1    0    0  503  502  0.00000000000E+00  0.00000000000E+00  0.38446352931E+03  0.38446352931E+03  0.00000000000E+00 0.  1.
         21   -1    0    0  501  503 -0.00000000000E+00 -0.00000000000E+00 -0.18841503966E+03  0.18841503966E+03  0.00000000000E+00 0. -1.
        -13    1    1    2    0    0 -0.33877066040E+02  0.18895085721E+03  0.15896667109E+03  0.24923983575E+03  0.10566000000E+00 0.  1.
         13    1    1    2    0    0  0.72068180027E+02 -0.10024823838E+03  0.19419405301E+02  0.12498262414E+03  0.10566000000E+00 0. -1.
          4    1    1    2  501    0 -0.69697680610E+01 -0.79615194284E+01 -0.72731037828E+02  0.73496716402E+02  0.00000000000E+00 0.  1.
         -4    1    1    2    0  502 -0.31221345925E+02 -0.80741099400E+02  0.90393451090E+02  0.12515939267E+03  0.00000000000E+00 0. -1.
</event>
<event>
 6    1  0.5496865E-006  0.1115688E+03  0.7818608E-02  0.1146715E+00
         21   -1    0    0  503  502  0.00000000000E+00  0.00000000000E+00  0.44271790931E+03  0.44271790931E+03  0.00000000000E+00 0.  1.
         21   -1    0    0  501  503 -0.00000000000E+00 -0.00000000000E+00 -0.74340715458E+02  0.74340715458E+02  0.00000000000E+00 0. -1.
        -13    1    1    2    0    0 -0.67025401498E+02 -0.11025258250E+03  0.17015327858E+03  0.21354200001E+03  0.10566000000E+00 0.  1.
         13    1    1    2    0    0  0.71021884908E+02  0.77743241208E+02  0.72947665740E+02  0.12809954251E+03  0.10566000000E+00 0. -1.
          4    1    1    2  501    0 -0.18043588712E+02  0.74435769042E+01 -0.19634213130E+02  0.27685379823E+02  0.00000000000E+00 0.  1.
         -4    1    1    2    0  502  0.14047105301E+02  0.25065764390E+02  0.14491046266E+03  0.14773170242E+03  0.00000000000E+00 0. -1.
</event>
<event>
 6    1  0.5496865E-006  0.6810510E+02  0.7818608E-02  0.1231789E+00
         21   -1    0    0  501  502  0.00000000000E+00  0.00000000000E+00  0.86361446955E+03  0.86361446955E+03  0.00000000000E+00 0.  1.
         21   -1    0    0  502  503 -0.00000000000E+00 -0.00000000000E+00 -0.14849682255E+03  0.14849682255E+03  0.00000000000E+00 0.  1.
        -13    1    1    2    0    0  0.23204620029E+02 -0.49694753351E+02 -0.23993300470E+02  0.59864117238E+02  0.10566000000E+00 0.  1.
         13    1    1    2    0    0 -0.92241718114E+02  0.47606125497E+02  0.52930279309E+03  0.53938514596E+03  0.10566000000E+00 0. -1.
          4    1    1    2  501    0  0.27854922811E+02 -0.22881796274E+02  0.30449994639E+03  0.30662630461E+03  0.00000000000E+00 0.  1.
         -4    1    1    2    0  503  0.41182175274E+02  0.24970424128E+02 -0.94691792017E+02  0.10623572430E+03  0.00000000000E+00 0. -1.
</event>
<event>
 6    1  0.5496865E-006  0.4834313E+02  0.7818608E-02  0.1298686E+00
         21   -1    0    0  503  502  0.00000000000E+00  0.00000000000E+00  0.17806219741E+03  0.17806219741E+03  0.00000000000E+00 0.  1.
         21   -1    0    0  501  503 -0.00000000000E+00 -0.00000000000E+00 -0.18802988599E+03  0.18802988599E+03  0.00000000000E+00 0. -1.
        -13    1    1    2    0    0 -0.13262576104E+02  0.83034664495E+02  0.28926208395E+02  0.88923495932E+02  0.10566000000E+00 0.  1.
         13    1    1    2    0    0  0.21064091996E+02 -0.39736929330E+02 -0.11406893422E+03  0.12261505797E+03  0.10566000000E+00 0. -1.
          4    1    1    2  501    0 -0.12013931630E+02 -0.47945780939E+01 -0.35241522849E+02  0.37540477688E+02  0.00000000000E+00 0.  1.
         -4    1    1    2    0  502  0.42124157377E+01 -0.38503157070E+02  0.11041656009E+03  0.11701305180E+03  0.00000000000E+00 0. -1.
</event>
<event>
 6    1  0.5496865E-006  0.7469654E+02  0.7818608E-02  0.1274882E+00
         21   -1    0    0  503  502  0.00000000000E+00  0.00000000000E+00  0.51594012381E+03  0.51594012381E+03  0.00000000000E+00 0.  1.
         21   -1    0    0  501  503 -0.00000000000E+00 -0.00000000000E+00 -0.45520837625E+02  0.45520837625E+02  0.00000000000E+00 0.  1.
        -13    1    1    2    0    0  0.70576075601E+02 -0.35738139613E+02  0.34077961554E+03  0.34984132775E+03  0.10566000000E+00 0.  1.
         13    1    1    2    0    0  0.12367439177E+02  0.49619425155E+01  0.38356203786E+01  0.13867140045E+02  0.10566000000E+00 0. -1.
          4    1    1    2  501    0 -0.63432273487E+02  0.38532523633E+02  0.41873886687E+01  0.74336686240E+02  0.00000000000E+00 0.  1.
         -4    1    1    2    0  502 -0.19511241291E+02 -0.77563265356E+01  0.12161666160E+03  0.12341580741E+03  0.00000000000E+00 0. -1.
</event>
<event>
 6    1  0.5496865E-006  0.2080979E+03  0.7818608E-02  0.1054722E+00
         21   -1    0    0  501  502  0.00000000000E+00  0.00000000000E+00  0.25490849990E+03  0.25490849990E+03  0.00000000000E+00 0.  1.
         21   -1    0    0  502  503 -0.00000000000E+00 -0.00000000000E+00 -0.66188680356E+03  0.66188680356E+03  0.00000000000E+00 0. -1.
        -13    1    1    2    0    0  0.19162438382E+03  0.10559048111E+02 -0.29976305503E+02  0.19424208613E+03  0.10566000000E+00 0.  1.
         13    1    1    2    0    0 -0.24120100507E+03  0.23350175863E+02  0.40665664537E+02  0.24571703848E+03  0.10566000000E+00 0. -1.
          4    1    1    2  501    0  0.71142218996E+02 -0.10068287402E+03 -0.37492511961E+03  0.39467341152E+03  0.00000000000E+00 0.  1.
         -4    1    1    2    0  503 -0.21565597738E+02  0.66773650046E+02 -0.42742543079E+02  0.82162767329E+02  0.00000000000E+00 0. -1.
</event>
<event>
 6    1  0.5496865E-006  0.7440182E+02  0.7818608E-02  0.1215630E+00
         21   -1    0    0  503  502  0.00000000000E+00  0.00000000000E+00  0.89194610698E+02  0.89194610698E+02  0.00000000000E+00 0.  1.
         21   -1    0    0  501  503 -0.00000000000E+00 -0.00000000000E+00 -0.17223536337E+03  0.17223536337E+03  0.00000000000E+00 0.  1.
        -13    1    1    2    0    0  0.48618500723E+02  0.63019752879E+02  0.18045504795E+02  0.81614332521E+02  0.10566000000E+00 0.  1.
         13    1    1    2    0    0 -0.19560890005E+02 -0.74908507418E+02 -0.22734638142E+02  0.80689453071E+02  0.10566000000E+00 0. -1.
          4    1    1    2  501    0 -0.13399829258E+02  0.15670447467E+02 -0.80296303758E+02  0.82901234884E+02  0.00000000000E+00 0.  1.
         -4    1    1    2    0  502 -0.15657781460E+02 -0.37816929275E+01  0.19446844306E+01  0.16224953595E+02  0.00000000000E+00 0. -1.
</event>
<event>
 6    1  0.5496865E-006  0.1031714E+03  0.7818608E-02  0.1159413E+00
         21   -1    0    0  501  502  0.00000000000E+00  0.00000000000E+00  0.97761934409E+02  0.97761934409E+02  0.00000000000E+00 0. -1.
         21   -1    0    0  502  503 -0.00000000000E+00 -0.00000000000E+00 -0.25333531380E+03  0.25333531380E+03  0.00000000000E+00 0.  1.
        -13    1    1    2    0    0  0.28646552233E+02  0.65995651021E+02  0.51011115047E+00  0.71946662785E+02  0.10566000000E+00 0.  1.
         13    1    1    2    0    0 -0.87980365741E+02 -0.11255048926E+03 -0.67132807931E+02  0.15784480496E+03  0.10566000000E+00 0. -1.
          4    1    1    2  501    0  0.40771925816E+02  0.32092045350E+02 -0.35398227283E+02  0.62811494205E+02  0.00000000000E+00 0.  1.
         -4    1    1    2    0  503  0.18561887691E+02  0.14462792892E+02 -0.53552455328E+02  0.58494286256E+02  0.00000000000E+00 0. -1.
</event>
<event>
 6    1  0.5496865E-006  0.7270812E+02  0.7818608E-02  0.1219796E+00
         21   -1    0    0  501  502  0.00000000000E+00  0.00000000000E+00  0.20094971902E+03  0.20094971902E+03  0.00000000000E+00 0.  1.
         21   -1    0    0  502  503 -0.00000000000E+00 -0.00000000000E+00 -0.45132419471E+02  0.45132419471E+02  0.00000000000E+00 0. -1.
        -13    1    1    2    0    0  0.60534607596E+02  0.23411732010E+02  0.84170342943E+02  0.10628831407E+03  0.10566000000E+00 0.  1.
         13    1    1    2    0    0 -0.79588781098E+02 -0.20538766490E+02  0.69115965708E+02  0.10739293685E+03  0.10566000000E+00 0. -1.
          4    1    1    2  501    0  0.98945950347E+01 -0.11857452929E+02  0.91635811974E+01  0.17957544966E+02  0.00000000000E+00 0.  1.
         -4    1    1    2    0  503  0.91595784674E+01  0.89844874086E+01 -0.66325902948E+01  0.14443342609E+02  0.00000000000E+00 0. -1.
</event>
<event>
 6    1  0.5496865E-006  0.8587223E+02  0.7818608E-02  0.1191668E+00
         21   -1    0    0  503  502  0.00000000000E+00  0.00000000000E+00  0.12876309391E+04  0.12876309391E+04  0.00000000000E+00 0. -1.
         21   -1    0    0  501  503 -0.00000000000E+00 -0.00000000000E+00 -0.52520836821E+02  0.52520836821E+02  0.00000000000E+00 0.  1.
        -13    1    1    2    0    0  0.31006661368E+02  0.51589172638E+02  0.35161962344E+03  0.35673411181E+03  0.10566000000E+00 0.  1.
         13    1    1    2    0    0 -0.68234534787E+02 -0.95933763477E+02  0.15914905525E+03  0.19795876253E+03  0.10566000000E+00 0. -1.
          4    1    1    2  501    0 -0.51139500164E+02  0.65670355572E+02  0.35238293969E+02  0.90385736927E+02  0.00000000000E+00 0.  1.
         -4    1    1    2    0  502  0.88367373583E+02 -0.21325764733E+02  0.68910312964E+03  0.69507316466E+03  0.00000000000E+00 0. -1.
</event>
<event>
 6    1  0.5496865E-006  0.4274517E+02  0.7818608E-02  0.1324519E+00
         21   -1    0    0  503  502  0.00000000000E+00  0.00000000000E+00  0.10893159301E+03  0.10893159301E+03  0.00000000000E+00 0.  1.
         21   -1    0    0  501  503 -0.00000000000E+00 -0.00000000000E+00 -0.25884819905E+03  0.25884819905E+03  0.00000000000E+00 0.  1.
        -13    1    1    2    0    0 -0.10874431613E+02 -0.42266006953E+02 -0.40386406120E+01  0.43829104356E+02  0.10566000000E+00 0.  1.
         13    1    1    2    0    0 -0.46297089272E+01  0.35903971784E+02 -0.41366028609E+02  0.54969890682E+02  0.10566000000E+00 0. -1.
          4    1    1    2  501    0  0.22941522744E+02  0.16376861100E+02 -0.18520071394E+03  0.18733344466E+03  0.00000000000E+00 0.  1.
         -4    1    1    2    0  502 -0.74373822034E+01 -0.10014825931E+02  0.80688777129E+02  0.81647352357E+02  0.00000000000E+00 0. -1.
</event>
<event>
 6    1  0.5496865E-006  0.9643993E+02  0.7818608E-02  0.1201764E+00
         21   -1    0    0  501  502  0.00000000000E+00  0.00000000000E+00  0.15701025774E+03  0.15701025774E+03  0.00000000000E+00 0. -1.
         21   -1    0    0  502  503 -0.00000000000E+00 -0.00000000000E+00 -0.14569507156E+03  0.14569507156E+03  0.00000000000E+00 0. -1.
        -13    1    1    2    0    0 -0.39428372522E+02  0.23870392253E+02 -0.58255435892E+02  0.74283909166E+02  0.10566000000E+00 0.  1.
         13    1    1    2    0    0  0.29902794666E+02 -0.11041445813E+03  0.27698015155E+02  0.11769758239E+03  0.10566000000E+00 0. -1.
          4    1    1    2  501    0 -0.10217641530E+02  0.13098550160E+01  0.16807706650E+02  0.19713318377E+02  0.00000000000E+00 0.  1.
         -4    1    1    2    0  503  0.19743219385E+02  0.85234210857E+02  0.25064900269E+02  0.91010519378E+02  0.00000000000E+00 0. -1.
</event>
<event>
 6    1  0.5496865E-006  0.4598360E+02  0.7818608E-02  0.1309065E+00
         21   -1    0    0  501  502  0.00000000000E+00  0.00000000000E+00  0.19107420271E+03  0.19107420271E+03  0.00000000000E+00 0. -1.
         21   -1    0    0  502  503 -0.00000000000E+00 -0.00000000000E+00 -0.16616394565E+03  0.16616394565E+03  0.00000000000E+00 0. -1.
        -13    1    1    2    0    0 -0.26410750150E+02 -0.24483995012E+02 -0.98129324507E+02  0.10452927450E+03  0.10566000000E+00 0.  1.
         13    1    1    2    0    0  0.35426535637E+02  0.12286710066E+02  0.17377717766E+03  0.17777660507E+03  0.10566000000E+00 0. -1.
          4    1    1    2  501    0  0.10105065484E+01  0.17860660694E+02  0.45495339089E+01  0.18458672290E+02  0.00000000000E+00 0.  1.
         -4    1    1    2    0  503 -0.10026292035E+02 -0.56633757487E+01 -0.55287130001E+02  0.56473596490E+02  0.00000000000E+00 0. -1.
</event>
<event>
 6    1  0.5496865E-006  0.6986170E+02  0.7818608E-02  0.1233900E+00
         21   -1    0    0  501  502  0.00000000000E+00  0.00000000000E+00  0.10859370954E+04  0.10859370954E+04  0.00000000000E+00 0. -1.
         21   -1    0    0  502  503 -0.00000000000E+00 -0.00000000000E+00 -0.60497346759E+02  0.60497346759E+02  0.00000000000E+00 0. -1.
        -13    1    1    2    0    0 -0.39683166888E+02  0.17012434362E+02  0.52589317358E+02  0.68042810946E+02  0.10566000000E+00 0.  1.
         13    1    1    2    0    0  0.58442668097E+02  0.99442137410E+02  0.51642520240E+03  0.52914958659E+03  0.10566000000E+00 0. -1.
          4    1    1    2  501    0 -0.34747818350E+02 -0.49267562133E+02  0.47412836365E+03  0.47794603124E+03  0.00000000000E+00 0.  1.
         -4    1    1    2    0  503  0.15988317141E+02 -0.67187009639E+02 -0.17703134741E+02  0.71296013416E+02  0.00000000000E+00 0. -1.
</event>
<event>
 6    1  0.5496865E-006  0.1240713E+03  0.7818608E-02  0.1129924E+00
         21   -1    0    0  501  502  0.00000000000E+00  0.00000000000E+00  0.11859296943E+03  0.11859296943E+03  0.00000000000E+00 0. -1.
         21   -1    0    0  502  503 -0.00000000000E+00 -0.00000000000E+00 -0.42573454340E+03  0.42573454340E+03  0.00000000000E+00 0.  1.
        -13    1    1    2    0    0  0.97481229103E+02 -0.42588474654E+02 -0.14131603624E+03  0.17688018957E+03  0.10566000000E+00 0.  1.
         13    1    1    2    0    0 -0.12532954708E+03  0.72095800231E+02  0.39973460335E+02  0.15001062788E+03  0.10566000000E+00 0. -1.
          4    1    1    2  501    0  0.13065494385E+02 -0.14250200132E+02 -0.12607854241E+02  0.23081016786E+02  0.00000000000E+00 0.  1.
         -4    1    1    2    0  503  0.14782823592E+02 -0.15257125446E+02 -0.19319114382E+03  0.19435567859E+03  0.00000000000E+00 0. -1.
</event>
<event>
 6    1  0.5496865E-006  0.4045175E+02  0.7818608E-02  0.1336428E+00
         21   -1    0    0  503  502  0.00000000000E+00  0.00000000000E+00  0.15942237779E+03  0.15942237779E+03  0.00000000000E+00 0.  1.
         21   -1    0    0  501  503 -0.00000000000E+00 -0.00000000000E+00 -0.73897034397E+02  0.73897034397E+02  0.00000000000E+00 0. -1.
        -13    1    1    2    0    0  0.91834350732E+01  0.32521931860E+02  0.33589383310E+02  0.47647343754E+02  0.10566000000E+00 0.  1.
         13    1    1    2    0    0  0.13872780600E+02 -0.41152518394E+02 -0.50189231549E+02  0.66369827025E+02  0.10566000000E+00 0. -1.
          4    1    1    2  501    0 -0.11654508115E+02 -0.19209457806E+01 -0.36729475204E+01  0.12369645734E+02  0.00000000000E+00 0.  1.
         -4    1    1    2    0  502 -0.11401707557E+02  0.10551532315E+02  0.10579813915E+03  0.10693259567E+03  0.00000000000E+00 0. -1.
</event>
<event>
 6    1  0.5496865E-006  0.7120792E+02  0.7818608E-02  0.1223593E+00
         21   -1    0    0  501  502  0.00000000000E+00  0.00000000000E+00  0.25748847569E+03  0.25748847569E+03  0.00000000000E+00 0. -1.
         21   -1    0    0  502  503 -0.00000000000E+00 -0.00000000000E+00 -0.20574451476E+03  0.20574451476E+03  0.00000000000E+00 0.  1.
        -13    1    1    2    0    0 -0.97594107777E+02 -0.48451304335E+01 -0.15671480347E+03  0.18468250039E+03  0.10566000000E+00 0.  1.
         13    1    1    2    0    0  0.43957690252E+02 -0.36259811024E+02  0.16826314925E+03  0.17765008018E+03  0.10566000000E+00 0. -1.
          4    1    1    2  501    0  0.12508595511E+02 -0.14837285153E+02  0.21563630867E+02  0.29010345888E+02  0.00000000000E+00 0.  1.
         -4    1    1    2    0  503  0.41127822015E+02  0.55942226610E+02  0.18631984279E+02  0.71890063986E+02  0.00000000000E+00 0. -1.
</event>
<event>
 6    1  0.5496865E-006  0.1888271E+03  0.7818608E-02  0.1068078E+00
         21   -1    0    0  503  502  0.00000000000E+00  0.00000000000E+00  0.26324127517E+03  0.26324127517E+03  0.00000000000E+00 0.  1.
         21   -1    0    0  501  503 -0.00000000000E+00 -0.00000000000E+00 -0.12032877703E+04  0.12032877703E+04  0.00000000000E+00 0. -1.
        -13    1    1    2    0    0 -0.17021391101E+03  0.15443502446E+03  0.68622670613E+02  0.23985836314E+03  0.10566000000E+00 0.  1.
         13    1    1    2    0    0  0.19570394419E+03 -0.83827732117E+02 -0.43555672114E+03  0.48480593122E+03  0.10566000000E+00 0. -1.
          4    1    1    2  501    0 -0.21181665194E+02  0.43567553945E+02 -0.61742058524E+03  0.61931815230E+03  0.00000000000E+00 0.  1.
         -4    1    1    2    0  502 -0.43083679855E+01 -0.11417484629E+03  0.44308140620E+02  0.12254659883E+03  0.00000000000E+00 0. -1.
</event>
<event>
 6    1  0.6173182E-006  0.1454120E+03  0.7818608E-02  0.1105726E+00
         21   -1    0    0  501  502  0.00000000000E+00  0.00000000000E+00  0.56176483162E+03  0.56176483162E+03  0.00000000000E+00 0. -1.
         21   -1    0    0  502  503 -0.00000000000E+00 -0.00000000000E+00 -0.33180841996E+03  0.33180841996E+03  0.00000000000E+00 0.  1.
        -13    1    1    2    0    0 -0.58569479140E+02  0.84309576146E+02 -0.16642102429E+03  0.19553633168E+03  0.10566000000E+00 0.  1.
         13    1    1    2    0    0  0.96397825007E+02 -0.12416764905E+03  0.44373738949E+03  0.47075792902E+03  0.10566000000E+00 0. -1.
          4    1    1    2  501    0 -0.98885621678E+01  0.41419103748E+01  0.85873487514E+02  0.86540134857E+02  0.00000000000E+00 0.  1.
         -4    1    1    2    0  503 -0.27939783698E+02  0.35716162526E+02 -0.13323344106E+03  0.14073885603E+03  0.00000000000E+00 0. -1.
</event>
<event>
 6    1  0.5496865E-006  0.1167245E+03  0.7818608E-02  0.1176367E+00
         21   -1    0    0  503  502  0.00000000000E+00  0.00000000000E+00  0.13155273258E+03  0.13155273258E+03  0.00000000000E+00 0.  1.
         21   -1    0    0  501  503 -0.00000000000E+00 -0.00000000000E+00 -0.88995188491E+03  0.88995188491E+03  0.00000000000E+00 0.  1.
        -13    1    1    2    0    0 -0.24116450117E+02  0.91347894696E+02  0.76989628038E+02  0.12187475137E+03  0.10566000000E+00 0.  1.
         13    1    1    2    0    0  0.15744008368E+02  0.45099271174E+02 -0.13843874400E+03  0.14644833582E+03  0.10566000000E+00 0. -1.
          4    1    1    2  501    0 -0.15279294074E+02 -0.11715609715E+03 -0.71016228581E+03  0.71992324599E+03  0.00000000000E+00 0.  1.
         -4    1    1    2    0  502  0.23651735822E+02 -0.19291068717E+02  0.13212249449E+02  0.33258284309E+02  0.00000000000E+00 0. -1.
</event>
<event>
 6    1  0.5496865E-006  0.1334051E+03  0.7818608E-02  0.1118738E+00
         21   -1    0    0  501  502  0.00000000000E+00  0.00000000000E+00  0.29591642134E+03  0.29591642134E+03  0.00000000000E+00 0. -1.
         21   -1    0    0  502  503 -0.00000000000E+00 -0.00000000000E+00 -0.16474683193E+03  0.16474683193E+03  0.00000000000E+00 0.  1.
        -13    1    1    2    0    0 -0.10009381120E+03 -0.99377218299E+02 -0.23606095504E+02  0.14301000477E+03  0.10566000000E+00 0.  1.
         13    1    1    2    0    0  0.13352560760E+03  0.26551182592E+02  0.62416209302E+01  0.13628287559E+03  0.10566000000E+00 0. -1.
          4    1    1    2  501    0  0.15782889367E+02  0.17396934870E+02  0.67873431123E+02  0.71823085370E+02  0.00000000000E+00 0.  1.
         -4    1    1    2    0  503 -0.49214685771E+02  0.55429100836E+02  0.80660632860E+02  0.10954728754E+03  0.00000000000E+00 0. -1.
</event>
<event>
 6    1  0.5496865E-006  0.1406647E+03  0.7818608E-02  0.1151873E+00
         21   -1    0    0  501  502  0.00000000000E+00  0.00000000000E+00  0.14141944847E+03  0.14141944847E+03  0.00000000000E+00 0. -1.
         21   -1    0    0  502  503 -0.00000000000E+00 -0.00000000000E+00 -0.37705070765E+03  0.37705070765E+03  0.00000000000E+00 0.  1.
        -13    1    1    2    0    0 -0.17777729517E+02 -0.11831325880E+02 -0.93550099263E+02  0.95956553580E+02  0.10566000000E+00 0.  1.
         13    1    1    2    0    0  0.14933777029E+03  0.53328201977E+02 -0.10684432086E+03  0.19121032091E+03  0.10566000000E+00 0. -1.
          4    1    1    2  501    0 -0.11335762112E+03 -0.86971810555E+02  0.33640590058E+02  0.14678465654E+03  0.00000000000E+00 0.  1.
         -4    1    1    2    0  503 -0.18202419652E+02  0.45474934459E+02 -0.68877429118E+02  0.84518625090E+02  0.00000000000E+00 0. -1.
</event>
<event>
 6    1  0.5496865E-006  0.2625027E+02  0.7818608E-02  0.1437817E+00
         21   -1    0    0  501  502  0.00000000000E+00  0.00000000000E+00  0.20068448931E+02  0.20068448931E+02  0.00000000000E+00 0. -1.
         21   -1    0    0  502  503 -0.00000000000E+00 -0.00000000000E+00 -0.31527578233E+03  0.31527578233E+03  0.00000000000E+00 0. -1.
        -13    1    1    2    0    0  0.20417527700E+02  0.86562756956E+01 -0.65954155810E+02  0.69582816693E+02  0.10566000000E+00 0.  1.
         13    1    1    2    0    0 -0.16419366317E+02 -0.79036762021E+01  0.12150838427E+02  0.21902459366E+02  0.10566000000E+00 0. -1.
          4    1    1    2  501    0 -0.16634642664E+02 -0.11139473703E+01 -0.68743909672E+02  0.70736676005E+02  0.00000000000E+00 0.  1.
         -4    1    1    2    0  503  0.12636481281E+02  0.36134787683E+00 -0.17266010635E+03  0.17312227920E+03  0.00000000000E+00 0. -1.
</event>
<event>
 6    1  0.5496865E-006  0.1262178E+02  0.7818608E-02  0.1649759E+00
         21   -1    0    0  501  502  0.00000000000E+00  0.00000000000E+00  0.13750513353E+03  0.13750513353E+03  0.00000000000E+00 0.  1.
         21   -1    0    0  502  503 -0.00000000000E+00 -0.00000000000E+00 -0.81851620856E+01  0.81851620856E+01  0.00000000000E+00 0. -1.
        -13    1    1    2    0    0 -0.13818819000E+02  0.15344043969E+01  0.65217880121E+02  0.66683560245E+02  0.10566000000E+00 0.  1.
         13    1    1    2    0    0  0.15912914986E+02 -0.52486216689E+01  0.32419205391E+02  0.36493628691E+02  0.10566000000E+00 0. -1.
          4    1    1    2  501    0  0.83665936666E+01  0.62440788402E+01  0.29815054718E+02  0.31589965147E+02  0.00000000000E+00 0.  1.
         -4    1    1    2    0  503 -0.10460689653E+02 -0.25298615681E+01  0.18678312170E+01  0.10923141536E+02  0.00000000000E+00 0. -1.
</event>
<event>
 6    1  0.5496865E-006  0.2348963E+03  0.7818608E-02  0.1038531E+00
         21   -1    0    0  501  502  0.00000000000E+00  0.00000000000E+00  0.64446667376E+02  0.64446667376E+02  0.00000000000E+00 0. -1.
         21   -1    0    0  502  503 -0.00000000000E+00 -0.00000000000E+00 -0.13133175876E+04  0.13133175876E+04  0.00000000000E+00 0.  1.
        -13    1    1    2    0    0 -0.23106578534E+03  0.11899874803E+03 -0.64545072542E+03  0.69581516892E+03  0.10566000000E+00 0.  1.
         13    1    1    2    0    0  0.22036314900E+03 -0.30817676409E+02 -0.42866690086E+03  0.48297512324E+03  0.10566000000E+00 0. -1.
          4    1    1    2  501    0 -0.83397193946E+01 -0.33720912214E+02 -0.44009633565E+02  0.56066912583E+02  0.00000000000E+00 0.  1.
         -4    1    1    2    0  503  0.19042355739E+02 -0.54460159409E+02 -0.13074366036E+03  0.14290705021E+03  0.00000000000E+00 0. -1.
</event>
<event>
 6    1  0.7117470E-006  0.4846889E+03  0.7818608E-02  0.9512177E-01
         21   -1    0    0  501  502  0.00000000000E+00  0.00000000000E+00  0.74995049920E+03  0.74995049920E+03  0.00000000000E+00 0.  1.
         21   -1    0    0  502  503 -0.00000000000E+00 -0.00000000000E+00 -0.13597681354E+04  0.13597681354E+04  0.00000000000E+00 0.  1.
        -13    1    1    2    0    0 -0.49492421804E+03 -0.98550404239E+02 -0.19805921828E+03  0.54211588142E+03  0.10566000000E+00 0.  1.
         13    1    1    2    0    0  0.37001193148E+03  0.17516194922E+03  0.45979518021E+03  0.61563151057E+03  0.10566000000E+00 0. -1.
          4    1    1    2  501    0  0.12668409746E+03 -0.30654765449E+02 -0.67831374871E+02  0.14693423907E+03  0.00000000000E+00 0.  1.
         -4    1    1    2    0  503 -0.17718109061E+01 -0.45956779532E+02 -0.80372222331E+03  0.80503700358E+03  0.00000000000E+00 0. -1.
</event>
<event>
 6    1  0.5496865E-006  0.3474810E+03  0.7818608E-02  0.9894351E-01
         21   -1    0    0  503  502  0.00000000000E+00  0.00000000000E+00  0.20765363844E+03  0.20765363844E+03  0.00000000000E+00 0.  1.
         21   -1    0    0  501  503 -0.00000000000E+00 -0.00000000000E+00 -0.86809335131E+03  0.86809335131E+03  0.00000000000E+00 0.  1.
        -13    1    1    2    0    0 -0.29182029623E+03 -0.21931666295E+03 -0.41281442136E+03  0.55106682134E+03  0.10566000000E+00 0.  1.
         13    1    1    2    0    0  0.29104547777E+03  0.18457540030E+03 -0.19852747420E+03  0.39772945290E+03  0.10566000000E+00 0. -1.
          4    1    1    2  501    0  0.21980111121E+02  0.37201984772E+02 -0.79097655446E+02  0.90130749763E+02  0.00000000000E+00 0.  1.
         -4    1    1    2    0  502 -0.21205292655E+02 -0.24607221281E+01  0.29999838124E+02  0.36819965745E+02  0.00000000000E+00 0. -1.
</event>
<event>
 6    1  0.5496865E-006  0.1246468E+03  0.7818608E-02  0.1129204E+00
         21   -1    0    0  501  502  0.00000000000E+00  0.00000000000E+00  0.81846851996E+03  0.81846851996E+03  0.00000000000E+00 0. -1.
         21   -1    0    0  502  503 -0.00000000000E+00 -0.00000000000E+00 -0.29753149093E+02  0.29753149093E+02  0.00000000000E+00 0.  1.
        -13    1    1    2    0    0 -0.96685427069E+02  0.98990172090E+02  0.31043580696E+03  0.33987869511E+03  0.10566000000E+00 0.  1.
         13    1    1    2    0    0  0.99154843709E+02 -0.65787160924E+02  0.39006884804E+03  0.40781533928E+03  0.10566000000E+00 0. -1.
          4    1    1    2  501    0 -0.10245613833E+02 -0.55342283689E+01  0.56679196021E+02  0.57863041296E+02  0.00000000000E+00 0.  1.
         -4    1    1    2    0  503  0.77761971935E+01 -0.27668782797E+02  0.31531519837E+02  0.42664593371E+02  0.00000000000E+00 0. -1.
</event>
<event>
 6    1  0.5496865E-006  0.5091492E+02  0.7818608E-02  0.1288108E+00
         21   -1    0    0  503  502  0.00000000000E+00  0.00000000000E+00  0.53634759026E+02  0.53634759026E+02  0.00000000000E+00 0.  1.
         21   -1    0    0  501  503 -0.00000000000E+00 -0.00000000000E+00 -0.18933952079E+03  0.18933952079E+03  0.00000000000E+00 0.  1.
        -13    1    1    2    0    0  0.45322216626E+02  0.44650499360E+02 -0.50820284446E+02  0.81427777130E+02  0.10566000000E+00 0.  1.
         13    1    1    2    0    0 -0.29076252979E+02 -0.28353128791E+02 -0.54205079244E+02  0.67731308709E+02  0.10566000000E+00 0. -1.
          4    1    1    2  501    0 -0.13642712706E+02 -0.33752222534E+02 -0.53657645298E+02  0.64841954280E+02  0.00000000000E+00 0.  1.
         -4    1    1    2    0  502 -0.26032509414E+01  0.17454851964E+02  0.22978247229E+02  0.28973239692E+02  0.00000000000E+00 0. -1.
</event>
<event>
 6    1  0.5496865E-006  0.2060753E+03  0.7818608E-02  0.1056603E+00
         21   -1    0    0  503  502  0.00000000000E+00  0.00000000000E+00  0.13342999617E+03  0.13342999617E+03  0.00000000000E+00 0. -1.
         21   -1    0    0  501  503 -0.00000000000E+00 -0.00000000000E+00 -0.12223876634E+04  0.12223876634E+04  0.00000000000E+00 0.  1.
        -13    1    1    2    0    0 -0.35236840644E+02  0.14506645244E+03 -0.85402160219E+02  0.17198677477E+03  0.10566000000E+00 0.  1.
         13    1    1    2    0    0  0.14995752639E+03 -0.33454792491E+03 -0.57997157408E+03  0.68613162854E+03  0.10566000000E+00 0. -1.
          4    1    1    2  501    0 -0.66307228919E+02  0.19326090075E+03 -0.28363250534E+03  0.34956232985E+03  0.00000000000E+00 0.  1.
         -4    1    1    2    0  502 -0.48413456831E+02 -0.37794282818E+01 -0.13995142762E+03  0.14813692643E+03  0.00000000000E+00 0. -1.
</event>
<event>
 6    1  0.5496865E-006  0.2268410E+03  0.7818608E-02  0.1043145E+00
         21   -1    0    0  501  502  0.00000000000E+00  0.00000000000E+00  0.17042187831E+03  0.17042187831E+03  0.00000000000E+00 0. -1.
         21   -1    0    0  502  503 -0.00000000000E+00 -0.00000000000E+00 -0.77803283739E+03  0.77803283739E+03  0.00000000000E+00 0.  1.
        -13    1    1    2    0    0 -0.15769516986E+03 -0.19817912649E+03 -0.26277699826E+03  0.36495820960E+03  0.10566000000E+00 0.  1.
         13    1    1    2    0    0  0.12607483509E+03  0.17818911879E+03 -0.11352608644E+03  0.24603741497E+03  0.10566000000E+00 0. -1.
          4    1    1    2  501    0  0.73632349224E+00 -0.18399176187E+02  0.49264562900E+02  0.52593431286E+02  0.00000000000E+00 0.  1.
         -4    1    1    2    0  503  0.30884011280E+02  0.38389183890E+02 -0.28057243729E+03  0.28486565984E+03  0.00000000000E+00 0. -1.
</event>
<event>
 6    1  0.5496865E-006  0.5779668E+02  0.7818608E-02  0.1309436E+00
         21   -1    0    0  503  502  0.00000000000E+00  0.00000000000E+00  0.28152522571E+03  0.28152522571E+03  0.00000000000E+00 0.  1.
         21   -1    0    0  501  503 -0.00000000000E+00 -0.00000000000E+00 -0.43127787412E+02  0.43127787412E+02  0.00000000000E+00 0. -1.
        -13    1    1    2    0    0  0.53289209792E+02 -0.49119047647E+01  0.47439875547E+02  0.71515170731E+02  0.10566000000E+00 0.  1.
         13    1    1    2    0    0 -0.15189824023E+02  0.17077680306E+02  0.33164515962E+01  0.23095192871E+02  0.10566000000E+00 0. -1.
          4    1    1    2  501    0 -0.61092256213E+02 -0.11879582307E+02  0.27129895700E+02  0.67892705689E+02  0.00000000000E+00 0.  1.
         -4    1    1    2    0  502  0.22992870444E+02 -0.28619323436E+00  0.16051121545E+03  0.16214994383E+03  0.00000000000E+00 0. -1.
</event>
<event>
 6    1  0.5496865E-006  0.1715822E+03  0.7818608E-02  0.1081580E+00
         21   -1    0    0  501  502  0.00000000000E+00  0.00000000000E+00  0.99940369816E+03  0.99940369816E+03  0.00000000000E+00 0. -1.
         21   -1    0    0  502  503 -0.00000000000E+00 -0.00000000000E+00 -0.89342043083E+02  0.89342043083E+02  0.00000000000E+00 0.  1.
        -13    1    1    2    0    0  0.15307644564E+02 -0.18214905851E+03  0.18767959832E+03  0.26198520242E+03  0.10566000000E+00 0.  1.
         13    1    1    2    0    0  0.56090137172E+02  0.15639239154E+03  0.56440450255E+03  0.58835120233E+03  0.10566000000E+00 0. -1.
          4    1    1    2  501    0 -0.64881692826E+02  0.16956522824E+02  0.19162739788E+03  0.20302270156E+03  0.00000000000E+00 0.  1.
         -4    1    1    2    0  503 -0.65160889094E+01  0.88001441419E+01 -0.33649843683E+02  0.35386634928E+02  0.00000000000E+00 0. -1.
</event>
<event>
 6    1  0.5496865E-006  0.3178963E+03  0.7818608E-02  0.1000180E+00
         21   -1    0    0  501  502  0.00000000000E+00  0.00000000000E+00  0.42392898164E+03  0.42392898164E+03  0.00000000000E+00 0.  1.
         21   -1    0    0  502  503 -0.00000000000E+00 -0.00000000000E+00 -0.90985719192E+03  0.90985719192E+03  0.00000000000E+00 0. -1.
        -13    1    1    2    0    0 -0.26014030687E+02 -0.33137613592E+03 -0.22605782618E+03  0.40198137418E+03  0.10566000000E+00 0.  1.
         13    1    1    2    0    0  0.73500347480E+00  0.27992427332E+03  0.31392280411E+02  0.28168000542E+03  0.10566000000E+00 0. -1.
          4    1    1    2  501    0  0.28905862245E+02  0.69928736324E+02  0.17125357203E+03  0.18722543355E+03  0.00000000000E+00 0.  1.
         -4    1    1    2    0  503 -0.36268350327E+01 -0.18476873724E+02 -0.46251623654E+03  0.46289936040E+03  0.00000000000E+00 0. -1.
</event>
<event>
 6    1  0.5496865E-006  0.1331753E+03  0.7818608E-02  0.1119001E+00
         21   -1    0    0  503  502  0.00000000000E+00  0.00000000000E+00  0.47689649090E+03  0.47689649090E+03  0.00000000000E+00 0.  1.
         21   -1    0    0  501  503 -0.00000000000E+00 -0.00000000000E+00 -0.10200839798E+03  0.10200839798E+03  0.00000000000E+00 0. -1.
        -13    1    1    2    0    0 -0.84256645987E+02  0.12362159190E+03  0.34394350623E+03  0.37507149588E+03  0.10566000000E+00 0.  1.
         13    1    1    2    0    0  0.55901080988E+02 -0.11739497687E+03  0.68838264917E+02  0.14712317741E+03  0.10566000000E+00 0. -1.
          4    1    1    2  501    0  0.11289623170E+02  0.93339363455E+01 -0.27969499179E+02  0.31573261525E+02  0.00000000000E+00 0.  1.
         -4    1    1    2    0  502  0.17065941829E+02 -0.15560551371E+02 -0.99241790563E+01  0.25136954060E+02  0.00000000000E+00 0. -1.
</event>
<event>
 6    1  0.5496865E-006  0.1034282E+03  0.7818608E-02  0.1230822E+00
         21   -1    0    0  501  502  0.00000000000E+00  0.00000000000E+00  0.68427868844E+03  0.68427868844E+03  0.00000000000E+00 0.  1.
         21   -1    0    0  502  503 -0.00000000000E+00 -0.00000000000E+00 -0.40162112187E+03  0.40162112187E+03  0.00000000000E+00 0.  1.
        -13    1    1    2    0    0  0.12644902432E+03  0.78978406583E+01 -0.35717174524E+03  0.37897677818E+03  0.10566000000E+00 0.  1.
         13    1    1    2    0    0 -0.17945917926E+02  0.85333875621E+01  0.25444781333E+02  0.32285023380E+02  0.10566000000E+00 0. -1.
          4    1    1    2  501    0 -0.10316449440E+03 -0.87253486951E+00  0.63776240910E+03  0.64605306646E+03  0.00000000000E+00 0.  1.
         -4    1    1    2    0  503 -0.53386119869E+01 -0.15558693351E+02 -0.23377878619E+02  0.28584942286E+02  0.00000000000E+00 0. -1.
</event>
<event>
 6    1  0.5496865E-006  0.1055506E+03  0.7818608E-02  0.1163245E+00
         21   -1    0    0  503  502  0.00000000000E+00  0.00000000000E+00  0.19742563331E+03  0.19742563331E+03  0.00000000000E+00 0. -1.
         21   -1    0    0  501  503 -0.00000000000E+00 -0.00000000000E+00 -0.32058036567E+03  0.32058036567E+03  0.00000000000E+00 0. -1.
        -13    1    1    2    0    0  0.86236082452E+02  0.60715750456E+02 -0.32078480989E+01  0.10551476543E+03  0.10566000000E+00 0.  1.
         13    1    1    2    0    0 -0.91892477937E+02  0.68490241658E+02 -0.15178522320E+03  0.19019438964E+03  0.10566000000E+00 0. -1.
          4    1    1    2  501    0  0.22142656689E+02 -0.11729291183E+03 -0.56204441689E+02  0.13193507372E+03  0.00000000000E+00 0.  1.
         -4    1    1    2    0  502 -0.16486261204E+02 -0.11913080280E+02  0.88042780631E+02  0.90361770187E+02  0.00000000000E+00 0. -1.
</event>
<event>
 6    1  0.5496865E-006  0.2105781E+03  0.7818608E-02  0.1053116E+00
         21   -1    0    0  501  502  0.00000000000E+00  0.00000000000E+00  0.35392779729E+03  0.35392779729E+03  0.00000000000E+00 0.  1.
         21   -1    0    0  502  503 -0.00000000000E+00 -0.00000000000E+00 -0.39402927180E+03  0.39402927180E+03  0.00000000000E+00 0. -1.
        -13    1    1    2    0    0 -0.77011757941E+02  0.20637541619E+03  0.38591315743E+02  0.22363122341E+03  0.10566000000E+00 0.  1.
         13    1    1    2    0    0  0.56086037129E+02 -0.19560909621E+03  0.12223767042E+02  0.20385777818E+03  0.10566000000E+00 0. -1.
          4    1    1    2  501    0  0.53545482985E+02 -0.40603835487E+01  0.10702684828E+03  0.11974285664E+03  0.00000000000E+00 0.  1.
         -4    1    1    2    0  503 -0.32619762172E+02 -0.67059364312E+01 -0.19794340557E+03  0.20072521086E+03  0.00000000000E+00 0. -1.
</event>
<event>
 6    1  0.5496865E-006  0.8237724E+02  0.7818608E-02  0.1197545E+00
         21   -1    0    0  501  502  0.00000000000E+00  0.00000000000E+00  0.65166268043E+02  0.65166268043E+02  0.00000000000E+00 0. -1.
         21   -1    0    0  502  503 -0.00000000000E+00 -0.00000000000E+00 -0.67742826184E+03  0.67742826184E+03  0.00000000000E+00 0.  1.
        -13    1    1    2    0    0 -0.84941709880E+02 -0.84729317687E+02 -0.20185866519E+03  0.23482138580E+03  0.10566000000E+00 0.  1.
         13    1    1    2    0    0  0.62795030424E+02  0.54351008007E+02 -0.13625099289E+02  0.84159981060E+02  0.10566000000E+00 0. -1.
          4    1    1    2  501    0 -0.29874518276E+02  0.63332468490E+01 -0.93048913572E+01  0.31924565166E+02  0.00000000000E+00 0.  1.
         -4    1    1    2    0  503  0.52021197732E+02  0.24045062831E+02 -0.38747333797E+03  0.39168859786E+03  0.00000000000E+00 0. -1.
</event>
<event>
 6    1  0.5496865E-006  0.1270086E+03  0.7818608E-02  0.1126292E+00
         21   -1    0    0  503  502  0.00000000000E+00  0.00000000000E+00  0.67857244419E+03  0.67857244419E+03  0.00000000000E+00 0.  1.
         21   -1    0    0  501  503 -0.00000000000E+00 -0.00000000000E+00 -0.87310846197E+02  0.87310846197E+02  0.00000000000E+00 0. -1.
        -13    1    1    2    0    0 -0.13305902000E+03  0.94007330890E+02  0.26508063214E+03  0.31114278678E+03  0.10566000000E+00 0.  1.
         13    1    1    2    0    0  0.71619341993E+01 -0.11776546550E+03  0.12097764491E+03  0.16898402261E+03  0.10566000000E+00 0. -1.
          4    1    1    2  501    0  0.91736741207E+02  0.13125446084E+02  0.17043073366E+02  0.94225120705E+02  0.00000000000E+00 0.  1.
         -4    1    1    2    0  502  0.34160344596E+02  0.10632688522E+02  0.18816024758E+03  0.19153136029E+03  0.00000000000E+00 0. -1.
</event>
<event>
 6    1  0.5496865E-006  0.3233290E+02  0.7818608E-02  0.1387100E+00
         21   -1    0    0  501  502  0.00000000000E+00  0.00000000000E+00  0.17512655914E+03  0.17512655914E+03  0.00000000000E+00 0. -1.
         21   -1    0    0  502  503 -0.00000000000E+00 -0.00000000000E+00 -0.26787538517E+02  0.26787538517E+02  0.00000000000E+00 0.  1.
        -13    1    1    2    0    0  0.26911878888E+02 -0.20371458244E+02  0.27656656901E+01  0.33865994848E+02  0.10566000000E+00 0.  1.
         13    1    1    2    0    0 -0.29082054531E+02  0.21677481047E+02  0.11989124674E+03  0.12525813861E+03  0.10566000000E+00 0. -1.
          4    1    1    2  501    0 -0.26104912961E+01 -0.16229145514E+02  0.20518735235E+02  0.26291031257E+02  0.00000000000E+00 0.  1.
         -4    1    1    2    0  503  0.47806669388E+01  0.14923122711E+02  0.51633729591E+01  0.16498932939E+02  0.00000000000E+00 0. -1.
</event>
<event>
 6    1  0.5496865E-006  0.1831301E+03  0.7818608E-02  0.1072360E+00
         21   -1    0    0  503  502  0.00000000000E+00  0.00000000000E+00  0.39330868540E+03  0.39330868540E+03  0.00000000000E+00 0. -1.
         21   -1    0    0  501  503 -0.00000000000E+00 -0.00000000000E+00 -0.45171735353E+03  0.45171735353E+03  0.00000000000E+00 0.  1.
        -13    1    1    2    0    0  0.11504458151E+03 -0.13687000961E+03 -0.17017994949E+03  0.24683978941E+03  0.10566000000E+00 0.  1.
         13    1    1    2    0    0 -0.32381550716E+02  0.19254687872E+03 -0.95712532493E+02  0.21744830506E+03  0.10566000000E+00 0. -1.
          4    1    1    2  501    0 -0.11522345147E+03  0.97867117858E+02  0.52170760530E+02  0.15992562265E+03  0.00000000000E+00 0.  1.
         -4    1    1    2    0  502  0.32560420677E+02 -0.15354398697E+03  0.15531305333E+03  0.22081232181E+03  0.00000000000E+00 0. -1.
</event>
<event>
 6    1  0.1155641E-005  0.3116455E+03  0.7818608E-02  0.1002611E+00
         21   -1    0    0  503  502  0.00000000000E+00  0.00000000000E+00  0.33958443626E+03  0.33958443626E+03  0.00000000000E+00 0.  1.
         21   -1    0    0  501  503 -0.00000000000E+00 -0.00000000000E+00 -0.13687496391E+04  0.13687496391E+04  0.00000000000E+00 0. -1.
        -13    1    1    2    0    0  0.57085999242E+01  0.33189463900E+03  0.16312037085E+03  0.36985795390E+03  0.10566000000E+00 0.  1.
         13    1    1    2    0    0  0.30432351411E+02 -0.40339449592E+03 -0.10550095747E+04  0.11299108201E+04  0.10566000000E+00 0. -1.
          4    1    1    2  501    0 -0.37434703773E+02  0.11066751852E+03 -0.92136311240E+02  0.14878762230E+03  0.00000000000E+00 0.  1.
         -4    1    1    2    0  502  0.12937524381E+01 -0.39167661590E+02 -0.45139687678E+02  0.59777679058E+02  0.00000000000E+00 0. -1.
</event>
<event>
 6    1  0.5496865E-006  0.3023469E+03  0.7818608E-02  0.1006342E+00
         21   -1    0    0  501  502  0.00000000000E+00  0.00000000000E+00  0.13254860523E+04  0.13254860523E+04  0.00000000000E+00 0.  1.
         21   -1    0    0  502  503 -0.00000000000E+00 -0.00000000000E+00 -0.78827177568E+03  0.78827177568E+03  0.00000000000E+00 0.  1.
        -13    1    1    2    0    0 -0.20789554179E+03  0.23376973424E+03 -0.35532858404E+03  0.47342080514E+03  0.10566000000E+00 0.  1.
         13    1    1    2    0    0  0.97390323485E+02 -0.27399880166E+03 -0.95099156022E+02  0.30594783715E+03  0.10566000000E+00 0. -1.
          4    1    1    2  501    0  0.11079756030E+03  0.28678237179E+02  0.11579989359E+04  0.11636408708E+04  0.00000000000E+00 0.  1.
         -4    1    1    2    0  503 -0.29234198778E+00  0.11550830244E+02 -0.17035691917E+03  0.17074831493E+03  0.00000000000E+00 0. -1.
</event>
<event>
 6    1  0.5496865E-006  0.3057664E+02  0.7818608E-02  0.1410216E+00
         21   -1    0    0  503  502  0.00000000000E+00  0.00000000000E+00  0.99289012325E+02  0.99289012325E+02  0.00000000000E+00 0. -1.
         21   -1    0    0  501  503 -0.00000000000E+00 -0.00000000000E+00 -0.10418151242E+03  0.10418151242E+03  0.00000000000E+00 0. -1.
        -13    1    1    2    0    0  0.45675604960E+02 -0.26825939161E+02  0.10492444646E+02  0.53999948694E+02  0.10566000000E+00 0.  1.
         13    1    1    2    0    0 -0.27964299950E+02  0.64573594617E+01 -0.38951333150E+02  0.48383024721E+02  0.10566000000E+00 0. -1.
          4    1    1    2  501    0  0.15513804176E+02  0.13027240135E+02 -0.30851047210E+02  0.36907644459E+02  0.00000000000E+00 0.  1.
         -4    1    1    2    0  502 -0.33225109185E+02  0.73413395639E+01  0.54417435618E+02  0.64179906873E+02  0.00000000000E+00 0. -1.
</event>
<event>
 6    1  0.5496865E-006  0.3172906E+02  0.7818608E-02  0.1391540E+00
         21   -1    0    0  503  502  0.00000000000E+00  0.00000000000E+00  0.97547357278E+02  0.97547357278E+02  0.00000000000E+00 0. -1.
         21   -1    0    0  501  503 -0.00000000000E+00 -0.00000000000E+00 -0.15182089324E+03  0.15182089324E+03  0.00000000000E+00 0. -1.
        -13    1    1    2    0    0 -0.17600767093E+02 -0.33093567486E+02  0.18376344511E+02  0.41745328036E+02  0.10566000000E+00 0.  1.
         13    1    1    2    0    0  0.10417759091E+02  0.37840560545E+02 -0.52400083190E+02  0.65469211154E+02  0.10566000000E+00 0. -1.
          4    1    1    2  501    0 -0.61107950286E+01 -0.89899146256E+01 -0.80030795367E+02  0.80765639897E+02  0.00000000000E+00 0.  1.
         -4    1    1    2    0  502  0.13293803031E+02  0.42429215667E+01  0.59780998082E+02  0.61388071432E+02  0.00000000000E+00 0. -1.
</event>
<event>
 6    1  0.5496865E-006  0.4526787E+03  0.7818608E-02  0.9974234E-01
         21   -1    0    0  501  502  0.00000000000E+00  0.00000000000E+00  0.56984311823E+03  0.56984311823E+03  0.00000000000E+00 0.  1.
         21   -1    0    0  502  503 -0.00000000000E+00 -0.00000000000E+00 -0.67332480344E+03  0.67332480344E+03  0.00000000000E+00 0. -1.
        -13    1    1    2    0    0  0.25041109143E+02  0.11648448682E+03  0.89122475414E+01  0.11947858443E+03  0.10566000000E+00 0.  1.
         13    1    1    2    0    0  0.43415691144E+03 -0.14697924776E+03 -0.18571308742E+03  0.49455483520E+03  0.10566000000E+00 0. -1.
          4    1    1    2  501    0 -0.40082474874E+01  0.97969333212E+01  0.16416557245E+03  0.16450647746E+03  0.00000000000E+00 0.  1.
         -4    1    1    2    0  503 -0.45518977309E+03  0.20697827616E+02 -0.90846417782E+02  0.46462802458E+03  0.00000000000E+00 0. -1.
</event>
<event>
 6    1  0.5496865E-006  0.8795767E+02  0.7818608E-02  0.1212223E+00
         21   -1    0    0  501  502  0.00000000000E+00  0.00000000000E+00  0.30584754078E+02  0.30584754078E+02  0.00000000000E+00 0. -1.
         21   -1    0    0  502  503 -0.00000000000E+00 -0.00000000000E+00 -0.13071911323E+04  0.13071911323E+04  0.00000000000E+00 0. -1.
        -13    1    1    2    0    0  0.83290808398E+02  0.92202713066E+02 -0.28112495594E+03  0.30735964451E+03  0.10566000000E+00 0.  1.
         13    1    1    2    0    0 -0.21941322850E+02  0.17042334271E+02 -0.49121629172E+01  0.28213530697E+02  0.10566000000E+00 0. -1.
          4    1    1    2  501    0 -0.26165249042E+01 -0.47774769994E+02 -0.15244040013E+03  0.15977280883E+03  0.00000000000E+00 0.  1.
         -4    1    1    2    0  503 -0.58732960643E+02 -0.61470277343E+02 -0.83812885923E+03  0.84242990233E+03  0.00000000000E+00 0. -1.
</event>
<event>
 6    1  0.5496865E-006  0.2614672E+02  0.7818608E-02  0.1438814E+00
         21   -1    0    0  503  502  0.00000000000E+00  0.00000000000E+00  0.16866177147E+03  0.16866177147E+03  0.00000000000E+00 0. -1.
         21   -1    0    0  501  503 -0.00000000000E+00 -0.00000000000E+00 -0.38738019654E+02  0.38738019654E+02  0.00000000000E+00 0.  1.
        -13    1    1    2    0    0 -0.99518557887E+01  0.27051149920E+02  0.21307635347E+02  0.35844534224E+02  0.10566000000E+00 0.  1.
         13    1    1    2    0    0  0.14425098991E+02 -0.29881883572E+02  0.35572139175E+02  0.48645644165E+02  0.10566000000E+00 0. -1.
          4    1    1    2  501    0  0.95808067643E+01 -0.12013754640E+02 -0.21362683784E+02  0.26315136656E+02  0.00000000000E+00 0.  1.
         -4    1    1    2    0  502 -0.14054049966E+02  0.14844488292E+02  0.94406661076E+02  0.96594476077E+02  0.00000000000E+00 0. -1.
</event>
<event>
 6    1  0.5496865E-006  0.5035185E+03  0.7818608E-02  0.9470293E-01
         21   -1    0    0  503  502  0.00000000000E+00  0.00000000000E+00  0.59843813608E+03  0.59843813608E+03  0.00000000000E+00 0. -1.
         21   -1    0    0  501  503 -0.00000000000E+00 -0.00000000000E+00 -0.59261901279E+03  0.59261901279E+03  0.00000000000E+00 0.  1.
        -13    1    1    2    0    0  0.37859795460E+02 -0.50836234862E+03 -0.14039467522E+02  0.50996348832E+03  0.10566000000E+00 0.  1.
         13    1    1    2    0    0  0.83970075074E+02  0.50178204901E+03  0.89719000266E+02  0.51660982220E+03  0.10566000000E+00 0. -1.
          4    1    1    2  501    0 -0.64837420585E+00  0.22133605970E+02 -0.27202086287E+02  0.35075210629E+02  0.00000000000E+00 0.  1.
         -4    1    1    2    0  502 -0.12118149633E+03 -0.15553306363E+02 -0.42658323166E+02  0.12940862771E+03  0.00000000000E+00 0. -1.
</event>
<event>
 6    1  0.5496865E-006  0.7622464E+02  0.7818608E-02  0.1211282E+00
         21   -1    0    0  501  502  0.00000000000E+00  0.00000000000E+00  0.15819221936E+03  0.15819221936E+03  0.00000000000E+00 0. -1.
         21   -1    0    0  502  503 -0.00000000000E+00 -0.00000000000E+00 -0.47450335391E+03  0.47450335391E+03  0.00000000000E+00 0. -1.
        -13    1    1    2    0    0  0.44566360094E+02 -0.30698729927E+02  0.22665819922E+02  0.58671313501E+02  0.10566000000E+00 0.  1.
         13    1    1    2    0    0 -0.11741331620E+03  0.32670807259E+02  0.65471890398E+02  0.13834683973E+03  0.10566000000E+00 0. -1.
          4    1    1    2  501    0  0.55022231613E+02  0.14563596853E+02 -0.38030643423E+02  0.68453445232E+02  0.00000000000E+00 0.  1.
         -4    1    1    2    0  503  0.17824724493E+02 -0.16535674186E+02 -0.36641820144E+03  0.36722397481E+03  0.00000000000E+00 0. -1.
</event>
<event>
 6    1  0.5496865E-006  0.4530512E+02  0.7818608E-02  0.1341794E+00
         21   -1    0    0  501  502  0.00000000000E+00  0.00000000000E+00  0.69280435124E+02  0.69280435124E+02  0.00000000000E+00 0.  1.
         21   -1    0    0  502  503 -0.00000000000E+00 -0.00000000000E+00 -0.33539092069E+03  0.33539092069E+03  0.00000000000E+00 0. -1.
        -13    1    1    2    0    0  0.88785727448E+01  0.26050338011E+02 -0.74627889553E+02  0.79541072583E+02  0.10566000000E+00 0.  1.
         13    1    1    2    0    0 -0.52222760806E+02 -0.26935274730E+02 -0.22814648695E+02  0.63033682505E+02  0.10566000000E+00 0. -1.
          4    1    1    2  501    0  0.30379003408E+01 -0.16303642059E+02  0.42923352459E+02  0.46015777395E+02  0.00000000000E+00 0.  1.
         -4    1    1    2    0  503  0.40306287721E+02  0.17188578778E+02 -0.21159129978E+03  0.21608082333E+03  0.00000000000E+00 0. -1.
</event>
<event>
 6    1  0.5496865E-006  0.6546186E+02  0.7818608E-02  0.1239163E+00
         21   -1    0    0  503  502  0.00000000000E+00  0.00000000000E+00  0.87357589427E+02  0.87357589427E+02  0.00000000000E+00 0.  1.
         21   -1    0    0  501  503 -0.00000000000E+00 -0.00000000000E+00 -0.21163677144E+03  0.21163677144E+03  0.00000000000E+00 0. -1.
        -13    1    1    2    0    0  0.51182057503E+02  0.40115335279E+01 -0.13081214891E+02  0.52979474880E+02  0.10566000000E+00 0.  1.
         13    1    1    2    0    0 -0.80643483762E+02  0.26718378678E+02 -0.83527806865E+02  0.11913919975E+03  0.10566000000E+00 0. -1.
          4    1    1    2  501    0 -0.35139728720E+01 -0.71352322576E+02 -0.17940190578E+02  0.73656991388E+02  0.00000000000E+00 0.  1.
         -4    1    1    2    0  502  0.32975399131E+02  0.40622410371E+02 -0.97299696833E+01  0.53218694856E+02  0.00000000000E+00 0. -1.
</event>
<event>
 6    1  0.5496865E-006  0.1471442E+03  0.7818608E-02  0.1138942E+00
         21   -1    0    0  503  502  0.00000000000E+00  0.00000000000E+00  0.18102975545E+03  0.18102975545E+03  0.00000000000E+00 0.  1.
         21   -1    0    0  501  503 -0.00000000000E+00 -0.00000000000E+00 -0.36832912184E+03  0.36832912184E+03  0.00000000000E+00 0.  1.
        -13    1    1    2    0    0  0.94862635361E+02 -0.13798205910E+03  0.47832057036E+02  0.17414328889E+03  0.10566000000E+00 0.  1.
         13    1    1    2    0    0  0.13190860395E+02  0.53791508967E+02 -0.11802560668E+02  0.56628939927E+02  0.10566000000E+00 0. -1.
          4    1    1    2  501    0 -0.13199045061E+03  0.64144386593E+02 -0.24140390808E+03  0.28250987279E+03  0.00000000000E+00 0.  1.
         -4    1    1    2    0  502  0.23936954858E+02  0.20046163540E+02  0.18075045324E+02  0.36076775688E+02  0.00000000000E+00 0. -1.
</event>
<event>
 6    1  0.5496865E-006  0.2129139E+03  0.7818608E-02  0.1051626E+00
         21   -1    0    0  503  502  0.00000000000E+00  0.00000000000E+00  0.58296048430E+03  0.58296048430E+03  0.00000000000E+00 0.  1.
         21   -1    0    0  501  503 -0.00000000000E+00 -0.00000000000E+00 -0.39765068463E+03  0.39765068463E+03  0.00000000000E+00 0. -1.
        -13    1    1    2    0    0  0.25127824239E+03 -0.27895514202E+02 -0.87326249234E+02  0.26747859687E+03  0.10566000000E+00 0.  1.
         13    1    1    2    0    0 -0.91380048698E+02  0.39303485330E+02  0.20375208101E+03  0.22673773162E+03  0.10566000000E+00 0. -1.
          4    1    1    2  501    0  0.26752624969E+02  0.16659162410E+02 -0.17510568096E+03  0.17791916744E+03  0.00000000000E+00 0.  1.
         -4    1    1    2    0  502 -0.18665081866E+03 -0.28067133538E+02  0.24398964886E+03  0.30847567302E+03  0.00000000000E+00 0. -1.
</event>
<event>
 6    1  0.5496865E-006  0.5699097E+02  0.7818608E-02  0.1265679E+00
         21   -1    0    0  503  502  0.00000000000E+00  0.00000000000E+00  0.26281027270E+03  0.26281027270E+03  0.00000000000E+00 0.  1.
         21   -1    0    0  501  503 -0.00000000000E+00 -0.00000000000E+00 -0.73476891665E+02  0.73476891665E+02  0.00000000000E+00 0. -1.
        -13    1    1    2    0    0 -0.32898566903E+00  0.43392080040E+02  0.15562516991E+03  0.16156170807E+03  0.10566000000E+00 0.  1.
         13    1    1    2    0    0 -0.36256236230E+02 -0.69376548141E+02 -0.23469690637E+02  0.81721830867E+02  0.10566000000E+00 0. -1.
          4    1    1    2  501    0  0.48578872559E+02  0.86059929243E+01  0.27202495388E+02  0.56337782426E+02  0.00000000000E+00 0.  1.
         -4    1    1    2    0  502 -0.11993650660E+02  0.17378475177E+02  0.29975406373E+02  0.36665842999E+02  0.00000000000E+00 0. -1.
</event>
<event>
 6    1  0.5496865E-006  0.1656585E+03  0.7818608E-02  0.1086618E+00
         21   -1    0    0  501  502  0.00000000000E+00  0.00000000000E+00  0.16821000412E+03  0.16821000412E+03  0.00000000000E+00 0. -1.
         21   -1    0    0  502  503 -0.00000000000E+00 -0.00000000000E+00 -0.49595292356E+03  0.49595292356E+03  0.00000000000E+00 0. -1.
        -13    1    1    2    0    0  0.28011837751E+02 -0.13443404515E+03 -0.99200042277E+02  0.16940435385E+03  0.10566000000E+00 0.  1.
         13    1    1    2    0    0 -0.41725121279E+02  0.19066775814E+03 -0.72254684258E+02  0.20812479502E+03  0.10566000000E+00 0. -1.
          4    1    1    2  501    0 -0.54965913566E+02 -0.11054242021E+02  0.43259861339E+02  0.70815701111E+02  0.00000000000E+00 0.  1.
         -4    1    1    2    0  503  0.68679197093E+02 -0.45179470965E+02 -0.19954805425E+03  0.21581807771E+03  0.00000000000E+00 0. -1.
</event>
<event>
 6    1  0.5496865E-006  0.1569878E+03  0.7818608E-02  0.1094418E+00
         21   -1    0    0  503  502  0.00000000000E+00  0.00000000000E+00  0.74407194090E+03  0.74407194090E+03  0.00000000000E+00 0.  1.
         21   -1    0    0  501  503 -0.00000000000E+00 -0.00000000000E+00 -0.15257222664E+03  0.15257222664E+03  0.00000000000E+00 0. -1.
        -13    1    1    2    0    0  0.12103070915E+03  0.89803453638E+02  0.59651528394E+03  0.61525896010E+03  0.10566000000E+00 0.  1.
         13    1    1    2    0    0 -0.11018369994E+03 -0.11850221732E+03 -0.79941448916E+02  0.18048232507E+03  0.10566000000E+00 0. -1.
          4    1    1    2  501    0 -0.24659848069E+02  0.35988255662E+02  0.28979079554E+02  0.52374132013E+02  0.00000000000E+00 0.  1.
         -4    1    1    2    0  502  0.13812838864E+02 -0.72894919846E+01  0.45946799676E+02  0.48528750358E+02  0.00000000000E+00 0. -1.
</event>
<event>
 6    1  0.5496865E-006  0.1893115E+03  0.7818608E-02  0.1067721E+00
         21   -1    0    0  503  502  0.00000000000E+00  0.00000000000E+00  0.74835719974E+03  0.74835719974E+03  0.00000000000E+00 0. -1.
         21   -1    0    0  501  503 -0.00000000000E+00 -0.00000000000E+00 -0.12031253508E+03  0.12031253508E+03  0.00000000000E+00 0.  1.
        -13    1    1    2    0    0  0.35318657573E+02 -0.13585155437E+03  0.92666083039E+02  0.16819651158E+03  0.10566000000E+00 0.  1.
         13    1    1    2    0    0 -0.31508934924E+02  0.26600549573E+03  0.40086555416E+03  0.48212544054E+03  0.10566000000E+00 0. -1.
          4    1    1    2  501    0  0.51896102519E+02 -0.43327595585E+02  0.40706262545E+02  0.78914420775E+02  0.00000000000E+00 0.  1.
         -4    1    1    2    0  502 -0.55705825167E+02 -0.86826345774E+02  0.93806764909E+02  0.13943336194E+03  0.00000000000E+00 0. -1.
</event>
<event>
 6    1  0.5496865E-006  0.1917860E+03  0.7818608E-02  0.1065918E+00
         21   -1    0    0  501  502  0.00000000000E+00  0.00000000000E+00  0.12909123148E+03  0.12909123148E+03  0.00000000000E+00 0. -1.
         21   -1    0    0  502  503 -0.00000000000E+00 -0.00000000000E+00 -0.10264640682E+04  0.10264640682E+04  0.00000000000E+00 0.  1.
        -13    1    1    2    0    0  0.50476050023E+02 -0.20869611989E+03 -0.35196413089E+03  0.41228711195E+03  0.10566000000E+00 0.  1.
         13    1    1    2    0    0 -0.51716509302E+02  0.17091175042E+03 -0.15376450002E+03  0.23564582831E+03  0.10566000000E+00 0. -1.
          4    1    1    2  501    0  0.33720482849E+02  0.11692941470E+02  0.51426203681E+02  0.62597526060E+02  0.00000000000E+00 0.  1.
         -4    1    1    2    0  503 -0.32480023570E+02  0.26091427997E+02 -0.44307040947E+03  0.44502483334E+03  0.00000000000E+00 0. -1.
</event>
<event>
 6    1  0.5496865E-006  0.1131018E+03  0.7818608E-02  0.1144530E+00
         21   -1    0    0  503  502  0.00000000000E+00  0.00000000000E+00  0.85834625594E+03  0.85834625594E+03  0.00000000000E+00 0. -1.
         21   -1    0    0  501  503 -0.00000000000E+00 -0.00000000000E+00 -0.12208604403E+03  0.12208604403E+03  0.00000000000E+00 0.  1.
        -13    1    1    2    0    0 -0.67515984886E+02 -0.43087305514E+02  0.15374997403E+03  0.17336086580E+03  0.10566000000E+00 0.  1.
         13    1    1    2    0    0  0.11043266981E+03  0.38213655807E+02  0.77635397571E+01  0.11711507916E+03  0.10566000000E+00 0. -1.
          4    1    1    2  501    0  0.15987232596E+02  0.14585916869E+02 -0.54107449973E+02  0.58274837791E+02  0.00000000000E+00 0.  1.
         -4    1    1    2    0  502 -0.58903917523E+02 -0.97122671624E+01  0.62885414809E+03  0.63168151723E+03  0.00000000000E+00 0. -1.
</event>
<event>
 6    1  0.5496865E-006  0.2088135E+03  0.7818608E-02  0.1054256E+00
         21   -1    0    0  501  502  0.00000000000E+00  0.00000000000E+00  0.18064227727E+03  0.18064227727E+03  0.00000000000E+00 0. -1.
         21   -1    0    0  502  503 -0.00000000000E+00 -0.00000000000E+00 -0.82022906296E+03  0.82022906296E+03  0.00000000000E+00 0. -1.
        -13    1    1    2    0    0 -0.16217666438E+03 -0.79573254781E+02 -0.20895176237E+03  0.27621372795E+03  0.10566000000E+00 0.  1.
         13    1    1    2    0    0  0.17697162174E+03  0.17198634322E+03 -0.17694212569E+03  0.30365570004E+03  0.10566000000E+00 0. -1.
          4    1    1    2  501    0  0.48529219720E+02 -0.11966113824E+03  0.27040407304E+02  0.13192822593E+03  0.00000000000E+00 0.  1.
         -4    1    1    2    0  503 -0.63324177083E+02  0.27248049795E+02 -0.28073330493E+03  0.28907368631E+03  0.00000000000E+00 0. -1.
</event>
<event>
 6    1  0.5496865E-006  0.1124093E+03  0.7818608E-02  0.1145512E+00
         21   -1    0    0  501  502  0.00000000000E+00  0.00000000000E+00  0.34340759122E+03  0.34340759122E+03  0.00000000000E+00 0. -1.
         21   -1    0    0  502  503 -0.00000000000E+00 -0.00000000000E+00 -0.11724446769E+03  0.11724446769E+03  0.00000000000E+00 0. -1.
        -13    1    1    2    0    0  0.78229738768E+02  0.74666517342E+02  0.78161527175E+02  0.13343244109E+03  0.10566000000E+00 0.  1.
         13    1    1    2    0    0 -0.12317249037E+03 -0.37654645779E+02  0.18500611577E+03  0.22542539513E+03  0.10566000000E+00 0. -1.
          4    1    1    2  501    0  0.20556977548E+02  0.52757740176E+01  0.18303033175E+02  0.28025419548E+02  0.00000000000E+00 0.  1.
         -4    1    1    2    0  503  0.24385774050E+02 -0.42287645581E+02 -0.55307552593E+02  0.73768803152E+02  0.00000000000E+00 0. -1.
</event>
<event>
 6    1  0.5496865E-006  0.4909317E+02  0.7818608E-02  0.1295526E+00
         21   -1    0    0  503  502  0.00000000000E+00  0.00000000000E+00  0.38151825607E+02  0.38151825607E+02  0.00000000000E+00 0.  1.
         21   -1    0    0  501  503 -0.00000000000E+00 -0.00000000000E+00 -0.27373448854E+03  0.27373448854E+03  0.00000000000E+00 0. -1.
        -13    1    1    2    0    0  0.24386275193E+02 -0.20777344720E+02 -0.13861017309E+02  0.34907412340E+02  0.10566000000E+00 0.  1.
         13    1    1    2    0    0 -0.45258808143E+02  0.48757912209E+02 -0.16190450792E+03  0.17503935148E+03  0.10566000000E+00 0. -1.
          4    1    1    2  501    0  0.14002630132E+02 -0.38990609624E+01 -0.72448330672E+02  0.73892062796E+02  0.00000000000E+00 0.  1.
         -4    1    1    2    0  502  0.68699028178E+01 -0.24081506526E+02  0.12631192965E+02  0.28047487535E+02  0.00000000000E+00 0. -1.
</event>
<event>
 6    1  0.5496865E-006  0.6854974E+02  0.7818608E-02  0.1287891E+00
         21   -1    0    0  503  502  0.00000000000E+00  0.00000000000E+00  0.71124945056E+02  0.71124945056E+02  0.00000000000E+00 0.  1.
         21   -1    0    0  501  503 -0.00000000000E+00 -0.00000000000E+00 -0.26899237666E+03  0.26899237666E+03  0.00000000000E+00 0.  1.
        -13    1    1    2    0    0 -0.51724654098E+02  0.36737085981E+02  0.26615089793E+02  0.68799909132E+02  0.10566000000E+00 0.  1.
         13    1    1    2    0    0  0.14122958679E+02  0.15119049675E+01 -0.49937588890E+02  0.51918376002E+02  0.10566000000E+00 0. -1.
          4    1    1    2  501    0  0.37028670894E+02 -0.59192999615E+02 -0.18370974831E+03  0.19653041824E+03  0.00000000000E+00 0.  1.
         -4    1    1    2    0  502  0.57302452512E+00  0.20944008667E+02  0.91648157990E+01  0.22868618340E+02  0.00000000000E+00 0. -1.
</event>
<event>
 6    1  0.5496865E-006  0.9093088E+02  0.7818608E-02  0.1180500E+00
         21   -1    0    0  501  502  0.00000000000E+00  0.00000000000E+00  0.92487062632E+03  0.92487062632E+03  0.00000000000E+00 0. -1.
         21   -1    0    0  502  503 -0.00000000000E+00 -0.00000000000E+00 -0.72066228970E+02  0.72066228970E+02  0.00000000000E+00 0.  1.
        -13    1    1    2    0    0  0.11539007599E+03  0.85575645512E+02  0.49724050946E+02  0.15202155488E+03  0.10566000000E+00 0.  1.
         13    1    1    2    0    0 -0.64400401836E+02 -0.41697751074E+02  0.24957344036E+03  0.26109965052E+03  0.10566000000E+00 0. -1.
          4    1    1    2  501    0 -0.16094535572E+02  0.42644763427E+01  0.50967499812E+03  0.50994688306E+03  0.00000000000E+00 0.  1.
         -4    1    1    2    0  503 -0.34895138583E+02 -0.48142370781E+02  0.43831907920E+02  0.73868766831E+02  0.00000000000E+00 0. -1.
</event>
<event>
 6    1  0.5496865E-006  0.5395911E+03  0.7818608E-02  0.9395177E-01
         21   -1    0    0  501  502  0.00000000000E+00  0.00000000000E+00  0.43390093598E+03  0.43390093598E+03  0.00000000000E+00 0. -1.
         21   -1    0    0  502  503 -0.00000000000E+00 -0.00000000000E+00 -0.16233677926E+04  0.16233677926E+04  0.00000000000E+00 0.  1.
        -13    1    1    2    0    0 -0.18850011061E+02  0.61571279305E+03 -0.34251653091E+03  0.70482278025E+03  0.10566000000E+00 0.  1.
         13    1    1    2    0    0  0.50234014542E+02 -0.44098154034E+03 -0.67094241129E+03  0.80445752254E+03  0.10566000000E+00 0. -1.
          4    1    1    2  501    0 -0.21837132447E+02 -0.26800188429E+02  0.16899064226E+03  0.17249042763E+03  0.00000000000E+00 0.  1.
         -4    1    1    2    0  503 -0.95468710344E+01 -0.14793106428E+03 -0.34499855664E+03  0.37549799815E+03  0.00000000000E+00 0. -1.
</event>
<event>
 6    1  0.5496865E-006  0.1162613E+03  0.7818608E-02  0.1140142E+00
         21   -1    0    0  501  502  0.00000000000E+00  0.00000000000E+00  0.96603965795E+03  0.96603965795E+03  0.00000000000E+00 0. -1.
         21   -1    0    0  502  503 -0.00000000000E+00 -0.00000000000E+00 -0.96911813214E+02  0.96911813214E+02  0.00000000000E+00 0. -1.
        -13    1    1    2    0    0  0.96852679590E+02 -0.42536344005E+01  0.49911003207E+02  0.10903969165E+03  0.10566000000E+00 0.  1.
         13    1    1    2    0    0 -0.18614687607E+03  0.73731901337E+02  0.76228044012E+03  0.78813611344E+03  0.10566000000E+00 0. -1.
          4    1    1    2  501    0  0.12742060173E+02 -0.49954275507E+02  0.68710316059E+02  0.85900507983E+02  0.00000000000E+00 0.  1.
         -4    1    1    2    0  503  0.76552136305E+02 -0.19523991429E+02 -0.11773914656E+02  0.79875158094E+02  0.00000000000E+00 0. -1.
</event>
<event>
 6    1  0.5496865E-006  0.1032753E+03  0.7818608E-02  0.1165675E+00
         21   -1    0    0  503  502  0.00000000000E+00  0.00000000000E+00  0.26431342994E+03  0.26431342994E+03  0.00000000000E+00 0.  1.
         21   -1    0    0  501  503 -0.00000000000E+00 -0.00000000000E+00 -0.20298405845E+03  0.20298405845E+03  0.00000000000E+00 0. -1.
        -13    1    1    2    0    0  0.11299627367E+03  0.20317521229E+02  0.16366502891E+03  0.19991801415E+03  0.10566000000E+00 0.  1.
         13    1    1    2    0    0 -0.58281293424E+02  0.90984330675E+02 -0.63855131531E+02  0.12550835262E+03  0.10566000000E+00 0. -1.
          4    1    1    2  501    0 -0.47578119961E+01 -0.18434566173E+02 -0.30711066886E+02  0.36133635774E+02  0.00000000000E+00 0.  1.
         -4    1    1    2    0  502 -0.49957168254E+02 -0.92867285731E+02 -0.77694590025E+01  0.10573748584E+03  0.00000000000E+00 0. -1.
</event>
<event>
 6    1  0.5496865E-006  0.5582726E+02  0.7818608E-02  0.1269725E+00
         21   -1    0    0  503  502  0.00000000000E+00  0.00000000000E+00  0.16042939940E+03  0.16042939940E+03  0.00000000000E+00 0. -1.
         21   -1    0    0  501  503 -0.00000000000E+00 -0.00000000000E+00 -0.11381318382E+03  0.11381318382E+03  0.00000000000E+00 0. -1.
        -13    1    1    2    0    0  0.38272356776E+02  0.34716406502E+02  0.23373252309E+02  0.56712628762E+02  0.10566000000E+00 0.  1.
         13    1    1    2    0    0 -0.59584479865E+02 -0.83095481560E+01 -0.75240223755E+02  0.96335150730E+02  0.10566000000E+00 0. -1.
          4    1    1    2  501    0  0.10632784854E+02 -0.27881402818E+02  0.91470391183E+01  0.31210528056E+02  0.00000000000E+00 0.  1.
         -4    1    1    2    0  502  0.10679338235E+02  0.14745444725E+01  0.89336147900E+02  0.89984275671E+02  0.00000000000E+00 0. -1.
</event>
<event>
 6    1  0.5496865E-006  0.5008933E+02  0.7818608E-02  0.1342664E+00
         21   -1    0    0  503  502  0.00000000000E+00  0.00000000000E+00  0.93049610816E+02  0.93049610816E+02  0.00000000000E+00 0.  1.
         21   -1    0    0  501  503 -0.00000000000E+00 -0.00000000000E+00 -0.77474114940E+02  0.77474114940E+02  0.00000000000E+00 0. -1.
        -13    1    1    2    0    0  0.20857504245E+02  0.46594130137E+02  0.41083803928E+02  0.65528150865E+02  0.10566000000E+00 0.  1.
         13    1    1    2    0    0  0.16224694337E+02 -0.22176003362E+02 -0.25082803060E+02  0.37204489041E+02  0.10566000000E+00 0. -1.
          4    1    1    2  501    0 -0.28107131349E+02 -0.40040010888E+02  0.44615634607E+01  0.49123506116E+02  0.00000000000E+00 0.  1.
         -4    1    1    2    0  502 -0.89750672331E+01  0.15621884113E+02 -0.48870684539E+01  0.18667579735E+02  0.00000000000E+00 0. -1.
</event>
<event>
 6    1  0.5496865E-006  0.5977847E+02  0.7818608E-02  0.1256413E+00
         21   -1    0    0  501  502  0.00000000000E+00  0.00000000000E+00  0.29865797668E+02  0.29865797668E+02  0.00000000000E+00 0. -1.
         21   -1    0    0  502  503 -0.00000000000E+00 -0.00000000000E+00 -0.45453540229E+03  0.45453540229E+03  0.00000000000E+00 0.  1.
        -13    1    1    2    0    0 -0.53436265682E+02 -0.20004500509E+02 -0.27064819834E+03  0.27659731191E+03  0.10566000000E+00 0.  1.
         13    1    1    2    0    0  0.60397264677E+02  0.38083865672E+01 -0.78186877090E+02  0.98871291596E+02  0.10566000000E+00 0. -1.
          4    1    1    2  501    0 -0.11179126196E+02  0.44812046921E+02 -0.60742600830E+02  0.76306985050E+02  0.00000000000E+00 0.  1.
         -4    1    1    2    0  503  0.42181272012E+01 -0.28615932980E+02 -0.15091928367E+02  0.32625611400E+02  0.00000000000E+00 0. -1.
</event>
<event>
 6    1  0.5496865E-006  0.8191776E+02  0.7818608E-02  0.1198525E+00
         21   -1    0    0  501  502  0.00000000000E+00  0.00000000000E+00  0.39178373618E+03  0.39178373618E+03  0.00000000000E+00 0. -1.
         21   -1    0    0  502  503 -0.00000000000E+00 -0.00000000000E+00 -0.86213062336E+02  0.86213062336E+02  0.00000000000E+00 0. -1.
        -13    1    1    2    0    0 -0.57614008143E+02  0.37566580477E+02  0.80635835047E+02  0.10598476759E+03  0.10566000000E+00 0.  1.
         13    1    1    2    0    0  0.44258121578E+02 -0.88763525610E+02  0.20097811826E+03  0.22412041403E+03  0.10566000000E+00 0. -1.
          4    1    1    2  501    0  0.50290475618E+02  0.21168353595E+02  0.65121993261E+02  0.84959432308E+02  0.00000000000E+00 0.  1.
         -4    1    1    2    0  503 -0.36934589053E+02  0.30028591539E+02 -0.41165272722E+02  0.62932184585E+02  0.00000000000E+00 0. -1.
</event>
<event>
 6    1  0.5496865E-006  0.2733243E+02  0.7818608E-02  0.1427700E+00
         21   -1    0    0  503  502  0.00000000000E+00  0.00000000000E+00  0.15193179117E+03  0.15193179117E+03  0.00000000000E+00 0. -1.
         21   -1    0    0  501  503 -0.00000000000E+00 -0.00000000000E+00 -0.44257643522E+02  0.44257643522E+02  0.00000000000E+00 0. -1.
        -13    1    1    2    0    0 -0.17455412165E+02 -0.12322089613E+02  0.85301549469E+01  0.23006521114E+02  0.10566000000E+00 0.  1.
         13    1    1    2    0    0  0.40029939554E+02  0.20283664064E+02 -0.54062385984E+01  0.45200239694E+02  0.10566000000E+00 0. -1.
          4    1    1    2  501    0 -0.15881984455E+02 -0.16204899876E+02 -0.20476643255E+00  0.22690926370E+02  0.00000000000E+00 0.  1.
         -4    1    1    2    0  502 -0.66925429330E+01  0.82433254247E+01  0.10475499773E+03  0.10529174752E+03  0.00000000000E+00 0. -1.
</event>
<event>
 6    1  0.5496865E-006  0.5638358E+02  0.7818608E-02  0.1308148E+00
         21   -1    0    0  503  502  0.00000000000E+00  0.00000000000E+00  0.26646542795E+03  0.26646542795E+03  0.00000000000E+00 0. -1.
         21   -1    0    0  501  503 -0.00000000000E+00 -0.00000000000E+00 -0.48552833959E+02  0.48552833959E+02  0.00000000000E+00 0. -1.
        -13    1    1    2    0    0  0.53070070571E+02 -0.36630871994E+01  0.66778164736E+02  0.85376724274E+02  0.10566000000E+00 0.  1.
         13    1    1    2    0    0  0.24936736725E+02 -0.89703555844E+01 -0.12290867104E+02  0.29212748861E+02  0.10566000000E+00 0. -1.
          4    1    1    2  501    0 -0.55524108030E+02  0.21417051077E+02  0.33524657917E+02  0.68304607003E+02  0.00000000000E+00 0.  1.
         -4    1    1    2    0  502 -0.22482699265E+02 -0.87836082934E+01  0.12990063844E+03  0.13212418177E+03  0.00000000000E+00 0. -1.
</event>
<event>
 6    1  0.5496865E-006  0.5179596E+02  0.7818608E-02  0.1355567E+00
         21   -1    0    0  501  502  0.00000000000E+00  0.00000000000E+00  0.99007920396E+02  0.99007920396E+02  0.00000000000E+00 0. -1.
         21   -1    0    0  502  503 -0.00000000000E+00 -0.00000000000E+00 -0.33188945283E+03  0.33188945283E+03  0.00000000000E+00 0.  1.
        -13    1    1    2    0    0 -0.16776116631E+01  0.21728537945E+02 -0.77338760184E+02  0.80350723288E+02  0.10566000000E+00 0.  1.
         13    1    1    2    0    0  0.10419979022E+03 -0.16607269226E+02 -0.66208487409E+02  0.12456714110E+03  0.10566000000E+00 0. -1.
          4    1    1    2  501    0 -0.99537454827E+02 -0.15351843805E+02  0.30842506536E+02  0.10533111711E+03  0.00000000000E+00 0.  1.
         -4    1    1    2    0  503 -0.29847237254E+01  0.10230575086E+02 -0.12017679138E+03  0.12064839174E+03  0.00000000000E+00 0. -1.
</event>
<event>
 6    1  0.5496865E-006  0.1816143E+03  0.7818608E-02  0.1076730E+00
         21   -1    0    0  501  502  0.00000000000E+00  0.00000000000E+00  0.13163368146E+04  0.13163368146E+04  0.00000000000E+00 0.  1.
         21   -1    0    0  502  503 -0.00000000000E+00 -0.00000000000E+00 -0.13414718840E+04  0.13414718840E+04  0.00000000000E+00 0. -1.
        -13    1    1    2    0    0  0.63759051690E+02  0.75029585018E+02 -0.56784828827E+03  0.57632139033E+03  0.10566000000E+00 0.  1.
         13    1    1    2    0    0  0.17093060051E+03  0.99435657990E+02  0.65543883038E+03  0.68462018069E+03  0.10566000000E+00 0. -1.
          4    1    1    2  501    0 -0.69039006346E+02 -0.16630719211E+03  0.61999297530E+03  0.64561269811E+03  0.00000000000E+00 0.  1.
         -4    1    1    2    0  503 -0.16565064585E+03 -0.81580508936E+01 -0.73271858683E+03  0.75125442944E+03  0.00000000000E+00 0. -1.
</event>
<event>
 6    1  0.5496865E-006  0.7217110E+02  0.7818608E-02  0.1221143E+00
         21   -1    0    0  501  502  0.00000000000E+00  0.00000000000E+00  0.29063703272E+02  0.29063703272E+02  0.00000000000E+00 0. -1.
         21   -1    0    0  502  503 -0.00000000000E+00 -0.00000000000E+00 -0.36094480606E+03  0.36094480606E+03  0.00000000000E+00 0.  1.
        -13    1    1    2    0    0 -0.96272531124E+00  0.64293004363E+02 -0.11742091036E+03  0.13387381597E+03  0.10566000000E+00 0.  1.
         13    1    1    2    0    0 -0.46337224219E+02 -0.73910800177E+02 -0.12008419147E+03  0.14842563436E+03  0.10566000000E+00 0. -1.
          4    1    1    2  501    0  0.24142620787E+02 -0.27503644761E+00 -0.29522390555E+02  0.38138082380E+02  0.00000000000E+00 0.  1.
         -4    1    1    2    0  503  0.23157328743E+02  0.98928322613E+01 -0.64853610410E+02  0.69570976620E+02  0.00000000000E+00 0. -1.
</event>
<event>
 6    1  0.5496865E-006  0.4587160E+02  0.7818608E-02  0.1338145E+00
         21   -1    0    0  503  502  0.00000000000E+00  0.00000000000E+00  0.11789607452E+03  0.11789607452E+03  0.00000000000E+00 0. -1.
         21   -1    0    0  501  503 -0.00000000000E+00 -0.00000000000E+00 -0.18612209244E+03  0.18612209244E+03  0.00000000000E+00 0. -1.
        -13    1    1    2    0    0  0.13809640852E+02 -0.38424199127E+02  0.18968479163E+02  0.45021546228E+02  0.10566000000E+00 0.  1.
         13    1    1    2    0    0  0.46117532891E+02  0.45742874051E+02 -0.11592642146E+03  0.13288409884E+03  0.10566000000E+00 0. -1.
          4    1    1    2  501    0 -0.57484757369E+02 -0.17136336800E+02 -0.29613643263E+02  0.66896332007E+02  0.00000000000E+00 0.  1.
         -4    1    1    2    0  502 -0.24424163743E+01  0.98176618760E+01  0.58345567637E+02  0.59216189892E+02  0.00000000000E+00 0. -1.
</event>
<event>
 6    1  0.5496865E-006  0.1649223E+02  0.7818608E-02  0.1565472E+00
         21   -1    0    0  501  502  0.00000000000E+00  0.00000000000E+00  0.99860763047E+02  0.99860763047E+02  0.00000000000E+00 0. -1.
         21   -1    0    0  502  503 -0.00000000000E+00 -0.00000000000E+00 -0.14382669344E+02  0.14382669344E+02  0.00000000000E+00 0.  1.
        -13    1    1    2    0    0  0.18399356625E+02 -0.15699625839E+02  0.19521020942E+02  0.31082084846E+02  0.10566000000E+00 0.  1.
         13    1    1    2    0    0 -0.16575085973E+02  0.30423043470E+01  0.33162229903E+02  0.37198571840E+02  0.10566000000E+00 0. -1.
          4    1    1    2  501    0  0.97790459089E+01  0.69565587052E+01  0.30574434667E+02  0.32845387852E+02  0.00000000000E+00 0.  1.
         -4    1    1    2    0  503 -0.11603316560E+02  0.57007627873E+01  0.22204081901E+01  0.13117387853E+02  0.00000000000E+00 0. -1.
</event>
<event>
 6    1  0.5496865E-006  0.4321485E+02  0.7818608E-02  0.1322184E+00
         21   -1    0    0  503  502  0.00000000000E+00  0.00000000000E+00  0.58958421645E+03  0.58958421645E+03  0.00000000000E+00 0. -1.
         21   -1    0    0  501  503 -0.00000000000E+00 -0.00000000000E+00 -0.21774591882E+03  0.21774591882E+03  0.00000000000E+00 0.  1.
        -13    1    1    2    0    0 -0.17419012616E+02  0.34718612742E+02  0.14941194638E+03  0.15437857674E+03  0.10566000000E+00 0.  1.
         13    1    1    2    0    0  0.38853445954E+01 -0.62074676942E+02 -0.57163760326E+02  0.84475251280E+02  0.10566000000E+00 0. -1.
          4    1    1    2  501    0 -0.17945681780E+02  0.20841882038E+02 -0.14251716032E+03  0.14514672758E+03  0.00000000000E+00 0.  1.
         -4    1    1    2    0  502  0.31479349801E+02  0.65141821628E+01  0.42210727191E+03  0.42332957968E+03  0.00000000000E+00 0. -1.
</event>
<event>
 6    1  0.5496865E-006  0.3224129E+02  0.7818608E-02  0.1387766E+00
         21   -1    0    0  501  502  0.00000000000E+00  0.00000000000E+00  0.36407599891E+02  0.36407599891E+02  0.00000000000E+00 0. -1.
         21   -1    0    0  502  503 -0.00000000000E+00 -0.00000000000E+00 -0.19317837800E+03  0.19317837800E+03  0.00000000000E+00 0.  1.
        -13    1    1    2    0    0  0.71489023518E+01  0.31938322591E+02 -0.12143098010E+03  0.12576429281E+03  0.10566000000E+00 0.  1.
         13    1    1    2    0    0  0.19860596379E+02 -0.41693844224E+02  0.61045599380E+00  0.46186618790E+02  0.10566000000E+00 0. -1.
          4    1    1    2  501    0 -0.12025389510E+02  0.12178799403E+02  0.15441189483E+01  0.17184802911E+02  0.00000000000E+00 0.  1.
         -4    1    1    2    0  503 -0.14984109221E+02 -0.24232777698E+01 -0.37494372948E+02  0.40450263375E+02  0.00000000000E+00 0. -1.
</event>
<event>
 6    1  0.5496865E-006  0.1964482E+03  0.7818608E-02  0.1067622E+00
         21   -1    0    0  503  502  0.00000000000E+00  0.00000000000E+00  0.21894460917E+03  0.21894460917E+03  0.00000000000E+00 0.  1.
         21   -1    0    0  501  503 -0.00000000000E+00 -0.00000000000E+00 -0.64450949206E+03  0.64450949206E+03  0.00000000000E+00 0.  1.
        -13    1    1    2    0    0  0.17515712336E+03 -0.74655470893E+02  0.35481938542E+02  0.19368127510E+03  0.10566000000E+00 0.  1.
         13    1    1    2    0    0 -0.14500780111E+02  0.21173429067E+03 -0.11681825857E+03  0.24225647394E+03  0.10566000000E+00 0. -1.
          4    1    1    2  501    0 -0.14495642628E+03 -0.12952668060E+03 -0.35660313988E+03  0.40614692646E+03  0.00000000000E+00 0.  1.
         -4    1    1    2    0  502 -0.15699916973E+02 -0.75521391812E+01  0.12374577020E+02  0.21369425720E+02  0.00000000000E+00 0. -1.
</event>
<event>
 6    1  0.5496865E-006  0.1771879E+03  0.7818608E-02  0.1077010E+00
         21   -1    0    0  503  502  0.00000000000E+00  0.00000000000E+00  0.20134445874E+03  0.20134445874E+03  0.00000000000E+00 0. -1.
         21   -1    0    0  501  503 -0.00000000000E+00 -0.00000000000E+00 -0.52656661196E+03  0.52656661196E+03  0.00000000000E+00 0.  1.
        -13    1    1    2    0    0  0.17246583439E+03  0.32014032590E+02 -0.66172719042E+02  0.18747853804E+03  0.10566000000E+00 0.  1.
         13    1    1    2    0    0 -0.18022719021E+03 -0.58229700220E+01 -0.88391504347E+02  0.20082035822E+03  0.10566000000E+00 0. -1.
          4    1    1    2  501    0 -0.21549957000E+02  0.16786431671E+02 -0.24629900883E+03  0.24780917393E+03  0.00000000000E+00 0.  1.
         -4    1    1    2    0  502  0.29311312813E+02 -0.42977494240E+02  0.75641079000E+02  0.91803000507E+02  0.00000000000E+00 0. -1.
</event>
<event>
 6    1  0.5496865E-006  0.9488865E+02  0.7818608E-02  0.1194256E+00
         21   -1    0    0  501  502  0.00000000000E+00  0.00000000000E+00  0.61777194509E+03  0.61777194509E+03  0.00000000000E+00 0. -1.
         21   -1    0    0  502  503 -0.00000000000E+00 -0.00000000000E+00 -0.65330772682E+02  0.65330772682E+02  0.00000000000E+00 0.  1.
        -13    1    1    2    0    0  0.20166520043E+02 -0.10100182716E+03 -0.71388291553E+01  0.10324258650E+03  0.10566000000E+00 0.  1.
         13    1    1    2    0    0 -0.53295354602E+02  0.20989786952E+02  0.26612932455E+03  0.27222379494E+03  0.10566000000E+00 0. -1.
          4    1    1    2  501    0  0.23093824514E+02  0.56815940193E+02  0.24959311240E+03  0.25701769890E+03  0.00000000000E+00 0.  1.
         -4    1    1    2    0  503  0.10035010044E+02  0.23196100018E+02  0.43857564614E+02  0.50618637442E+02  0.00000000000E+00 0. -1.
</event>
<event>
 6    1  0.5496865E-006  0.1078100E+03  0.7818608E-02  0.1152243E+00
         21   -1    0    0  503  502  0.00000000000E+00  0.00000000000E+00  0.87224292406E+02  0.87224292406E+02  0.00000000000E+00 0.  1.
         21   -1    0    0  501  503 -0.00000000000E+00 -0.00000000000E+00 -0.32225795369E+03  0.32225795369E+03  0.00000000000E+00 0. -1.
        -13    1    1    2    0    0  0.31211768665E+02 -0.13374302797E+03 -0.47379097693E+02  0.14527959972E+03  0.10566000000E+00 0.  1.
         13    1    1    2    0    0 -0.46649216083E+02  0.94092684343E+02 -0.16171558439E+03  0.19282511249E+03  0.10566000000E+00 0. -1.
          4    1    1    2  501    0  0.84688229668E+01  0.47548398313E+02 -0.57911962950E+01  0.48642667476E+02  0.00000000000E+00 0.  1.
         -4    1    1    2    0  502  0.69686244515E+01 -0.78980546889E+01 -0.20147782908E+02  0.22734866411E+02  0.00000000000E+00 0. -1.
</event>
<event>
 6    1  0.5496865E-006  0.6330295E+03  0.7818608E-02  0.9226237E-01
         21   -1    0    0  501  502  0.00000000000E+00  0.00000000000E+00  0.70519626481E+03  0.70519626481E+03  0.00000000000E+00 0. -1.
         21   -1    0    0  502  503 -0.00000000000E+00 -0.00000000000E+00 -0.18414937447E+04  0.18414937447E+04  0.00000000000E+00 0.  1.
        -13    1    1    2    0    0  0.58876155748E+03  0.20761405099E+03 -0.13232921510E+02  0.62443485418E+03  0.10566000000E+00 0.  1.
         13    1    1    2    0    0 -0.57970742697E+03 -0.27162597994E+03 -0.25292607626E+03  0.68834074780E+03  0.10566000000E+00 0. -1.
          4    1    1    2  501    0  0.46960784822E+01  0.34122672499E+02  0.17999733562E+03  0.18326333720E+03  0.00000000000E+00 0.  1.
         -4    1    1    2    0  503 -0.13750208988E+02  0.29889256451E+02 -0.10501358177E+04  0.10506510703E+04  0.00000000000E+00 0. -1.
</event>
<event>
 6    1  0.5496865E-006  0.1463362E+03  0.7818608E-02  0.1104782E+00
         21   -1    0    0  503  502  0.00000000000E+00  0.00000000000E+00  0.74382812952E+03  0.74382812952E+03  0.00000000000E+00 0. -1.
         21   -1    0    0  501  503 -0.00000000000E+00 -0.00000000000E+00 -0.25532201101E+03  0.25532201101E+03  0.00000000000E+00 0.  1.
        -13    1    1    2    0    0 -0.15712954906E+03 -0.33482161177E+02  0.29769180097E+03  0.33827676514E+03  0.10566000000E+00 0.  1.
         13    1    1    2    0    0  0.12929610991E+03  0.32527589944E+02  0.25403613970E+03  0.28689701912E+03  0.10566000000E+00 0. -1.
          4    1    1    2  501    0  0.10572903708E+02  0.22438361727E+01 -0.21798274230E+03  0.21825053731E+03  0.00000000000E+00 0.  1.
         -4    1    1    2    0  502  0.17260535448E+02 -0.12892649403E+01  0.15476092014E+03  0.15572581896E+03  0.00000000000E+00 0. -1.
</event>
<event>
 6    1  0.5496865E-006  0.7986981E+02  0.7818608E-02  0.1245058E+00
         21   -1    0    0  503  502  0.00000000000E+00  0.00000000000E+00  0.87207468935E+02  0.87207468935E+02  0.00000000000E+00 0.  1.
         21   -1    0    0  501  503 -0.00000000000E+00 -0.00000000000E+00 -0.26322077950E+03  0.26322077950E+03  0.00000000000E+00 0. -1.
        -13    1    1    2    0    0  0.14512643355E+02 -0.11562175788E+02  0.45807500600E+02  0.49423061432E+02  0.10566000000E+00 0.  1.
         13    1    1    2    0    0  0.62387062879E+02  0.71477374552E+02 -0.11046943155E+03  0.14561822399E+03  0.10566000000E+00 0. -1.
          4    1    1    2  501    0 -0.45152605957E+02 -0.61708247198E+02 -0.81894099479E+02  0.11204155089E+03  0.00000000000E+00 0.  1.
         -4    1    1    2    0  502 -0.31747100276E+02  0.17930484333E+01 -0.29457280135E+02  0.43345412117E+02  0.00000000000E+00 0. -1.
</event>
<event>
 6    1  0.5496865E-006  0.3701809E+02  0.7818608E-02  0.1366066E+00
         21   -1    0    0  503  502  0.00000000000E+00  0.00000000000E+00  0.83322019489E+02  0.83322019489E+02  0.00000000000E+00 0. -1.
         21   -1    0    0  501  503 -0.00000000000E+00 -0.00000000000E+00 -0.96300880427E+02  0.96300880427E+02  0.00000000000E+00 0.  1.
        -13    1    1    2    0    0 -0.48399526913E+02 -0.18723779363E+02  0.41546383498E+01  0.52061178462E+02  0.10566000000E+00 0.  1.
         13    1    1    2    0    0 -0.13397007386E+02 -0.29645636822E+00 -0.20715148885E+02  0.24671770318E+02  0.10566000000E+00 0. -1.
          4    1    1    2  501    0  0.32497975902E+02  0.88842388138E+01 -0.38153885342E+02  0.50899578621E+02  0.00000000000E+00 0.  1.
         -4    1    1    2    0  502  0.29298558397E+02  0.10135996917E+02  0.41735534939E+02  0.51990372515E+02  0.00000000000E+00 0. -1.
</event>
<event>
 6    1  0.5496865E-006  0.1113628E+03  0.7818608E-02  0.1223956E+00
         21   -1    0    0  503  502  0.00000000000E+00  0.00000000000E+00  0.63361258039E+03  0.63361258039E+03  0.00000000000E+00 0. -1.
         21   -1    0    0  501  503 -0.00000000000E+00 -0.00000000000E+00 -0.31551656507E+02  0.31551656507E+02  0.00000000000E+00 0.  1.
        -13    1    1    2    0    0  0.20126659097E+02 -0.17078625462E+01  0.35304858965E+02  0.40674850110E+02  0.10566000000E+00 0.  1.
         13    1    1    2    0    0  0.80785277623E+02  0.76395297206E+02  0.25161324813E+03  0.27508496926E+03  0.10566000000E+00 0. -1.
          4    1    1    2  501    0 -0.15803210384E+02 -0.25297523811E+01  0.10020122606E+01  0.16035745511E+02  0.00000000000E+00 0.  1.
         -4    1    1    2    0  502 -0.85108726336E+02 -0.72157682279E+02  0.31414080453E+03  0.33336867201E+03  0.00000000000E+00 0. -1.
</event>
<event>
 6    1  0.5496865E-006  0.4015551E+02  0.7818608E-02  0.1339704E+00
         21   -1    0    0  503  502  0.00000000000E+00  0.00000000000E+00  0.49765376068E+03  0.49765376068E+03  0.00000000000E+00 0. -1.
         21   -1    0    0  501  503 -0.00000000000E+00 -0.00000000000E+00 -0.28745562677E+02  0.28745562677E+02  0.00000000000E+00 0.  1.
        -13    1    1    2    0    0 -0.12603108700E+01  0.33157357931E+02  0.15508724084E+03  0.15859716960E+03  0.10566000000E+00 0.  1.
         13    1    1    2    0    0  0.22259004944E+02 -0.44059444737E+02  0.26719807727E+03  0.27171956431E+03  0.10566000000E+00 0. -1.
          4    1    1    2  501    0 -0.41664746938E+02  0.74426420512E+00 -0.25867626205E+01  0.41751603651E+02  0.00000000000E+00 0.  1.
         -4    1    1    2    0  502  0.20666052864E+02  0.10157822600E+02  0.49209642516E+02  0.54330985796E+02  0.00000000000E+00 0. -1.
</event>
<event>
 6    1  0.6536224E-006  0.2606508E+03  0.7818608E-02  0.1025017E+00
         21   -1    0    0  503  502  0.00000000000E+00  0.00000000000E+00  0.10304197569E+04  0.10304197569E+04  0.00000000000E+00 0.  1.
         21   -1    0    0  501  503 -0.00000000000E+00 -0.00000000000E+00 -0.57185176670E+03  0.57185176670E+03  0.00000000000E+00 0.  1.
        -13    1    1    2    0    0 -0.18273241913E+03 -0.17085895572E+03  0.56926699648E+03  0.62181093927E+03  0.10566000000E+00 0.  1.
         13    1    1    2    0    0  0.18191254064E+03  0.21007006203E+03  0.27546050350E+03  0.39128008326E+03  0.10566000000E+00 0. -1.
          4    1    1    2  501    0 -0.17389229552E+01 -0.28531952463E+02 -0.48695264674E+03  0.48779091457E+03  0.00000000000E+00 0.  1.
         -4    1    1    2    0  502  0.25588014429E+01 -0.10679153848E+02  0.10079313693E+03  0.10138958647E+03  0.00000000000E+00 0. -1.
</event>
<event>
 6    1  0.5496865E-006  0.2877656E+03  0.7818608E-02  0.1012487E+00
         21   -1    0    0  501  502  0.00000000000E+00  0.00000000000E+00  0.70160278848E+03  0.70160278848E+03  0.00000000000E+00 0.  1.
         21   -1    0    0  502  503 -0.00000000000E+00 -0.00000000000E+00 -0.13721176447E+04  0.13721176447E+04  0.00000000000E+00 0.  1.
        -13    1    1    2    0    0 -0.28043575710E+03  0.57065220768E+00 -0.86058218231E+03  0.90512222554E+03  0.10566000000E+00 0.  1.
         13    1    1    2    0    0  0.28118073868E+03 -0.47809444016E+02 -0.13699485041E+03  0.31641104745E+03  0.10566000000E+00 0. -1.
          4    1    1    2  501    0  0.82311960287E+01  0.71716506632E+01  0.58796840397E+03  0.58806974861E+03  0.00000000000E+00 0.  1.
         -4    1    1    2    0  503 -0.89761776088E+01  0.40067141145E+02 -0.26090622745E+03  0.26411741155E+03  0.00000000000E+00 0. -1.
</event>
<event>
 6    1  0.5496865E-006  0.1276114E+03  0.7818608E-02  0.1125559E+00
         21   -1    0    0  503  502  0.00000000000E+00  0.00000000000E+00  0.39403000339E+03  0.39403000339E+03  0.00000000000E+00 0.  1.
         21   -1    0    0  501  503 -0.00000000000E+00 -0.00000000000E+00 -0.25346311436E+03  0.25346311436E+03  0.00000000000E+00 0. -1.
        -13    1    1    2    0    0 -0.99365399449E+02 -0.46080496328E+02  0.95172935866E+02  0.14510270030E+03  0.10566000000E+00 0.  1.
         13    1    1    2    0    0  0.22680509985E+03 -0.23130047249E+01 -0.18214986021E+02  0.22754713839E+03  0.10566000000E+00 0. -1.
          4    1    1    2  501    0 -0.11989848870E+03  0.21680736347E+02 -0.68548795061E+02  0.13980214314E+03  0.00000000000E+00 0.  1.
         -4    1    1    2    0  502 -0.75412116980E+01  0.26712764706E+02  0.13215773424E+03  0.13504113593E+03  0.00000000000E+00 0. -1.
</event>
<event>
 6    1  0.5496865E-006  0.8053654E+02  0.7818608E-02  0.1218576E+00
         21   -1    0    0  503  502  0.00000000000E+00  0.00000000000E+00  0.23195781590E+02  0.23195781590E+02  0.00000000000E+00 0. -1.
         21   -1    0    0  501  503 -0.00000000000E+00 -0.00000000000E+00 -0.15253915697E+04  0.15253915697E+04  0.00000000000E+00 0. -1.
        -13    1    1    2    0    0  0.34533361121E+02  0.36272063276E+02 -0.26502525789E+03  0.26971580245E+03  0.10566000000E+00 0.  1.
         13    1    1    2    0    0 -0.87884288626E+00 -0.10788186189E+03 -0.41071505884E+03  0.42464825351E+03  0.10566000000E+00 0. -1.
          4    1    1    2  501    0  0.11736257718E+02  0.87924858279E+01 -0.73153759899E+03  0.73168456748E+03  0.00000000000E+00 0.  1.
         -4    1    1    2    0  502 -0.45390775952E+02  0.62817312782E+02 -0.94917872422E+02  0.12253872789E+03  0.00000000000E+00 0. -1.
</event>
<event>
 6    1  0.5496865E-006  0.7164134E+02  0.7818608E-02  0.1273716E+00
         21   -1    0    0  503  502  0.00000000000E+00  0.00000000000E+00  0.44281171513E+02  0.44281171513E+02  0.00000000000E+00 0.  1.
         21   -1    0    0  501  503 -0.00000000000E+00 -0.00000000000E+00 -0.27989814020E+03  0.27989814020E+03  0.00000000000E+00 0. -1.
        -13    1    1    2    0    0 -0.87514964897E+01 -0.23538920431E+02 -0.55900889641E+01  0.25727994958E+02  0.10566000000E+00 0.  1.
         13    1    1    2    0    0  0.70981566882E+02  0.32773005084E+02 -0.12786413920E+03  0.14987228548E+03  0.10566000000E+00 0. -1.
          4    1    1    2  501    0 -0.74504935744E+02 -0.18983051527E+02 -0.10737191296E+03  0.13206085487E+03  0.00000000000E+00 0.  1.
         -4    1    1    2    0  502  0.12274865353E+02  0.97489668738E+01  0.52091724295E+01  0.16518176411E+02  0.00000000000E+00 0. -1.
</event>
<event>
 6    1  0.5496865E-006  0.1421406E+03  0.7818608E-02  0.1109132E+00
         21   -1    0    0  503  502  0.00000000000E+00  0.00000000000E+00  0.42790194168E+03  0.42790194168E+03  0.00000000000E+00 0. -1.
         21   -1    0    0  501  503 -0.00000000000E+00 -0.00000000000E+00 -0.25132704049E+03  0.25132704049E+03  0.00000000000E+00 0. -1.
        -13    1    1    2    0    0  0.19385205092E+01  0.13438991975E+03 -0.31245623545E+02  0.13798807393E+03  0.10566000000E+00 0.  1.
         13    1    1    2    0    0  0.43010068318E+00 -0.14933687789E+03 -0.62056658981E+02  0.16171805148E+03  0.10566000000E+00 0. -1.
          4    1    1    2  501    0 -0.42065485781E+01 -0.93547705399E+01 -0.53881046182E+02  0.54848645566E+02  0.00000000000E+00 0.  1.
         -4    1    1    2    0  502  0.18379273858E+01  0.24301728682E+02  0.32375822990E+03  0.32467421121E+03  0.00000000000E+00 0. -1.
</event>
<event>
 6    1  0.5496865E-006  0.2236044E+03  0.7818608E-02  0.1045057E+00
         21   -1    0    0  501  502  0.00000000000E+00  0.00000000000E+00  0.58066950039E+03  0.58066950039E+03  0.00000000000E+00 0. -1.
         21   -1    0    0  502  503 -0.00000000000E+00 -0.00000000000E+00 -0.13116093670E+03  0.13116093670E+03  0.00000000000E+00 0.  1.
        -13    1    1    2    0    0  0.22690142982E+03  0.44278289908E+01  0.21477661889E+03  0.31246259249E+03  0.10566000000E+00 0.  1.
         13    1    1    2    0    0 -0.22124375097E+03 -0.17430133744E+02  0.24090646377E+03  0.32754929760E+03  0.10566000000E+00 0. -1.
          4    1    1    2  501    0  0.73493253518E+01  0.90376392165E+01  0.30529692503E+02  0.32676499661E+02  0.00000000000E+00 0.  1.
         -4    1    1    2    0  503 -0.13007004200E+02  0.39646655370E+01 -0.36704211458E+02  0.39142047338E+02  0.00000000000E+00 0. -1.
</event>
<event>
 6    1  0.5496865E-006  0.8913707E+02  0.7818608E-02  0.1183898E+00
         21   -1    0    0  503  502  0.00000000000E+00  0.00000000000E+00  0.31684839127E+03  0.31684839127E+03  0.00000000000E+00 0. -1.
         21   -1    0    0  501  503 -0.00000000000E+00 -0.00000000000E+00 -0.30246445043E+03  0.30246445043E+03  0.00000000000E+00 0. -1.
        -13    1    1    2    0    0 -0.71852547208E+02  0.45321014335E+02 -0.81230782558E+02  0.11753822391E+03  0.10566000000E+00 0.  1.
         13    1    1    2    0    0  0.69350912555E+02 -0.68956731953E+02 -0.18647691842E+03  0.21056645559E+03  0.10566000000E+00 0. -1.
          4    1    1    2  501    0 -0.12928523372E+02  0.34293973362E+01  0.72905937399E+01  0.15233523550E+02  0.00000000000E+00 0.  1.
         -4    1    1    2    0  502  0.15430158025E+02  0.20206320282E+02  0.27480104808E+03  0.27597463865E+03  0.00000000000E+00 0. -1.
</event>
<event>
 6    1  0.5496865E-006  0.3979265E+02  0.7818608E-02  0.1340017E+00
         21   -1    0    0  501  502  0.00000000000E+00  0.00000000000E+00  0.24969916061E+02  0.24969916061E+02  0.00000000000E+00 0. -1.
         21   -1    0    0  502  503 -0.00000000000E+00 -0.00000000000E+00 -0.25880374671E+03  0.25880374671E+03  0.00000000000E+00 0. -1.
        -13    1    1    2    0    0  0.40672643627E+02 -0.37577075486E+01 -0.45008936898E+02  0.60779929832E+02  0.10566000000E+00 0.  1.
         13    1    1    2    0    0 -0.35433880546E+02 -0.27518478283E+02 -0.43857210698E+02  0.62739880712E+02  0.10566000000E+00 0. -1.
          4    1    1    2  501    0 -0.11051104639E+02  0.22857488463E+02 -0.14206779675E+02  0.29093371776E+02  0.00000000000E+00 0.  1.
         -4    1    1    2    0  503  0.58123415585E+01  0.84186973690E+01 -0.13076090338E+03  0.13116048045E+03  0.00000000000E+00 0. -1.
</event>
<event>
 6    1  0.5496865E-006  0.5594896E+02  0.7818608E-02  0.1269297E+00
         21   -1    0    0  501  502  0.00000000000E+00  0.00000000000E+00  0.18163771882E+03  0.18163771882E+03  0.00000000000E+00 0.  1.
         21   -1    0    0  502  503 -0.00000000000E+00 -0.00000000000E+00 -0.66965332327E+02  0.66965332327E+02  0.00000000000E+00 0.  1.
        -13    1    1    2    0    0  0.30675247265E+02 -0.55633342556E+02 -0.32264041424E+02  0.71253204362E+02  0.10566000000E+00 0.  1.
         13    1    1    2    0    0 -0.22331095332E+02  0.41309809931E+02  0.65810706866E+02  0.80847006855E+02  0.10566000000E+00 0. -1.
          4    1    1    2  501    0 -0.12840789792E+02  0.41854777984E+01  0.83973399635E+02  0.85052548187E+02  0.00000000000E+00 0.  1.
         -4    1    1    2    0  503  0.44966378585E+01  0.10138054826E+02 -0.28476785824E+01  0.11450291743E+02  0.00000000000E+00 0. -1.
</event>
<event>
 6    1  0.5496865E-006  0.4756134E+02  0.7818608E-02  0.1302049E+00
         21   -1    0    0  503  502  0.00000000000E+00  0.00000000000E+00  0.54550558594E+02  0.54550558594E+02  0.00000000000E+00 0.  1.
         21   -1    0    0  501  503 -0.00000000000E+00 -0.00000000000E+00 -0.14304142502E+03  0.14304142502E+03  0.00000000000E+00 0. -1.
        -13    1    1    2    0    0 -0.24919069101E+02 -0.51379992969E+02 -0.33911775019E+02  0.66414481338E+02  0.10566000000E+00 0.  1.
         13    1    1    2    0    0  0.39603463524E+02  0.27691375835E+02 -0.45385641358E+02  0.66295657658E+02  0.10566000000E+00 0. -1.
          4    1    1    2  501    0  0.19915053784E+02  0.20956139246E+02  0.25780638279E+00  0.28910821563E+02  0.00000000000E+00 0.  1.
         -4    1    1    2    0  502 -0.34599448208E+02  0.27324778877E+01 -0.94512564359E+01  0.35971023059E+02  0.00000000000E+00 0. -1.
</event>
<event>
 6    1  0.5496865E-006  0.8804600E+02  0.7818608E-02  0.1186009E+00
         21   -1    0    0  503  502  0.00000000000E+00  0.00000000000E+00  0.21860412275E+03  0.21860412275E+03  0.00000000000E+00 0.  1.
         21   -1    0    0  501  503 -0.00000000000E+00 -0.00000000000E+00 -0.65584201086E+02  0.65584201086E+02  0.00000000000E+00 0. -1.
        -13    1    1    2    0    0  0.84140613591E+02 -0.37225010183E+02  0.14964096409E+03  0.17566380827E+03  0.10566000000E+00 0.  1.
         13    1    1    2    0    0 -0.77934719084E+02  0.19632315377E+02  0.13455095369E+01  0.80380780076E+02  0.10566000000E+00 0. -1.
          4    1    1    2  501    0 -0.10672245367E+02  0.53505604566E+01  0.74051937988E+01  0.14048566246E+02  0.00000000000E+00 0.  1.
         -4    1    1    2    0  502  0.44663508595E+01  0.12242134350E+02 -0.53717457610E+01  0.14095169242E+02  0.00000000000E+00 0. -1.
</event>
<event>
 6    1  0.5496865E-006  0.3170934E+03  0.7818608E-02  0.1000489E+00
         21   -1    0    0  501  502  0.00000000000E+00  0.00000000000E+00  0.70884018273E+03  0.70884018273E+03  0.00000000000E+00 0. -1.
         21   -1    0    0  502  503 -0.00000000000E+00 -0.00000000000E+00 -0.19610555861E+03  0.19610555861E+03  0.00000000000E+00 0.  1.
        -13    1    1    2    0    0 -0.26525897855E+02 -0.33158538443E+03  0.19998380453E+03  0.38813145152E+03  0.10566000000E+00 0.  1.
         13    1    1    2    0    0  0.32046465283E+02  0.30064914401E+03  0.14498126348E+03  0.33531546588E+03  0.10566000000E+00 0. -1.
          4    1    1    2  501    0  0.18023258652E+00  0.15778812513E+02  0.16414806244E+03  0.16490479014E+03  0.00000000000E+00 0.  1.
         -4    1    1    2    0  503 -0.57008000149E+01  0.15157427898E+02  0.36214936637E+01  0.16594033796E+02  0.00000000000E+00 0. -1.
</event>
<event>
 6    1  0.5496865E-006  0.4136990E+02  0.7818608E-02  0.1331556E+00
         21   -1    0    0  501  502  0.00000000000E+00  0.00000000000E+00  0.54469614873E+03  0.54469614873E+03  0.00000000000E+00 0.  1.
         21   -1    0    0  502  503 -0.00000000000E+00 -0.00000000000E+00 -0.43309633299E+02  0.43309633299E+02  0.00000000000E+00 0. -1.
        -13    1    1    2    0    0  0.20613982445E+02 -0.53006931866E+02  0.72702711441E+02  0.92305831414E+02  0.10566000000E+00 0.  1.
         13    1    1    2    0    0 -0.26632690960E+02  0.19018761517E+02  0.61328209399E+02  0.69513839986E+02  0.10566000000E+00 0. -1.
          4    1    1    2  501    0 -0.64954084745E+01  0.28638939582E+02  0.39462136421E+03  0.39571252227E+03  0.00000000000E+00 0.  1.
         -4    1    1    2    0  503  0.12514116989E+02  0.53492307663E+01 -0.27265769625E+02  0.30473588352E+02  0.00000000000E+00 0. -1.
</event>
<event>
 6    1  0.5496865E-006  0.1949028E+02  0.7818608E-02  0.1532460E+00
         21   -1    0    0  503  502  0.00000000000E+00  0.00000000000E+00  0.28688259437E+02  0.28688259437E+02  0.00000000000E+00 0.  1.
         21   -1    0    0  501  503 -0.00000000000E+00 -0.00000000000E+00 -0.20596565292E+03  0.20596565292E+03  0.00000000000E+00 0. -1.
        -13    1    1    2    0    0  0.71094357553E+01 -0.19259111933E+02 -0.44084670899E+01  0.20997695476E+02  0.10566000000E+00 0.  1.
         13    1    1    2    0    0 -0.19643125727E+02 -0.11168744865E+02 -0.68253160691E+02  0.71896441904E+02  0.10566000000E+00 0. -1.
          4    1    1    2  501    0  0.41420659004E+01  0.18098819287E+02 -0.11935558933E+03  0.12079106207E+03  0.00000000000E+00 0.  1.
         -4    1    1    2    0  502  0.83916240718E+01  0.12329037510E+02  0.14739823631E+02  0.20968712912E+02  0.00000000000E+00 0. -1.
</event>
<event>
 6    1  0.5496865E-006  0.1018289E+03  0.7818608E-02  0.1161565E+00
         21   -1    0    0  503  502  0.00000000000E+00  0.00000000000E+00  0.40860343130E+02  0.40860343130E+02  0.00000000000E+00 0.  1.
         21   -1    0    0  501  503 -0.00000000000E+00 -0.00000000000E+00 -0.10917600050E+04  0.10917600050E+04  0.00000000000E+00 0. -1.
        -13    1    1    2    0    0  0.28608342241E+02  0.10314519306E+03 -0.14335648861E+03  0.17890908889E+03  0.10566000000E+00 0.  1.
         13    1    1    2    0    0  0.26286258787E+02 -0.96694565131E+02 -0.59069320183E+03  0.59913210244E+03  0.10566000000E+00 0. -1.
          4    1    1    2  501    0 -0.98217410750E+02  0.65856212539E+01 -0.27811059678E+03  0.29501785407E+03  0.00000000000E+00 0.  1.
         -4    1    1    2    0  502  0.43322809721E+02 -0.13036249184E+02 -0.38739374688E+02  0.59561302757E+02  0.00000000000E+00 0. -1.
</event>
<event>
 6    1  0.5496865E-006  0.5174221E+02  0.7818608E-02  0.1284854E+00
         21   -1    0    0  501  502  0.00000000000E+00  0.00000000000E+00  0.10910509726E+03  0.10910509726E+03  0.00000000000E+00 0.  1.
         21   -1    0    0  502  503 -0.00000000000E+00 -0.00000000000E+00 -0.12854848019E+03  0.12854848019E+03  0.00000000000E+00 0. -1.
        -13    1    1    2    0    0  0.42354456176E+01 -0.48718192182E+02 -0.43063290034E+02  0.65160259066E+02  0.10566000000E+00 0.  1.
         13    1    1    2    0    0 -0.27216924435E+02  0.52508706744E+02 -0.53255745837E+02  0.79587127655E+02  0.10566000000E+00 0. -1.
          4    1    1    2  501    0 -0.21086736739E+01  0.11507233991E+02  0.55108177500E+02  0.56336259781E+02  0.00000000000E+00 0.  1.
         -4    1    1    2    0  503  0.25090152491E+02 -0.15297748553E+02  0.21767475433E+02  0.36569930948E+02  0.00000000000E+00 0. -1.
</event>
<event>
 6    1  0.5496865E-006  0.7458770E+02  0.7818608E-02  0.1235192E+00
         21   -1    0    0  503  502  0.00000000000E+00  0.00000000000E+00  0.63147558182E+03  0.63147558182E+03  0.00000000000E+00 0.  1.
         21   -1    0    0  501  503 -0.00000000000E+00 -0.00000000000E+00 -0.14257956815E+03  0.14257956815E+03  0.00000000000E+00 0.  1.
        -13    1    1    2    0    0 -0.14389015740E+03 -0.16645867083E+02  0.10459058412E+03  0.17866354900E+03  0.10566000000E+00 0.  1.
         13    1    1    2    0    0  0.32529975215E+02 -0.56305890314E+01 -0.10680960044E+02  0.34698658358E+02  0.10566000000E+00 0. -1.
          4    1    1    2  501    0  0.63248773518E+02  0.24882635681E+02 -0.67448863480E+02  0.95754384206E+02  0.00000000000E+00 0.  1.
         -4    1    1    2    0  502  0.48111408671E+02 -0.26061795662E+01  0.46243525307E+03  0.46493855841E+03  0.00000000000E+00 0. -1.
</event>
<event>
 6    1  0.5496865E-006  0.7079747E+02  0.7818608E-02  0.1225142E+00
         21   -1    0    0  501  502  0.00000000000E+00  0.00000000000E+00  0.24884288373E+03  0.24884288373E+03  0.00000000000E+00 0. -1.
         21   -1    0    0  502  503 -0.00000000000E+00 -0.00000000000E+00 -0.37822775853E+03  0.37822775853E+03  0.00000000000E+00 0. -1.
        -13    1    1    2    0    0 -0.35010268246E+02 -0.65286814031E+02 -0.72726294178E+02  0.10381335173E+03  0.10566000000E+00 0.  1.
         13    1    1    2    0    0  0.60699179664E+02 -0.26653028603E+02  0.13103547128E+03  0.14685053709E+03  0.10566000000E+00 0. -1.
          4    1    1    2  501    0  0.19146918083E+02  0.36654899801E+02  0.85026581014E+02  0.94550016555E+02  0.00000000000E+00 0.  1.
         -4    1    1    2    0  503 -0.44835829501E+02  0.55284942833E+02 -0.27272063291E+03  0.28185673688E+03  0.00000000000E+00 0. -1.
</event>
<event>
 6    1  0.5496865E-006  0.3208295E+03  0.7818608E-02  0.9990599E-01
         21   -1    0    0  503  502  0.00000000000E+00  0.00000000000E+00  0.39490035319E+03  0.39490035319E+03  0.00000000000E+00 0. -1.
         21   -1    0    0  501  503 -0.00000000000E+00 -0.00000000000E+00 -0.58074380671E+03  0.58074380671E+03  0.00000000000E+00 0. -1.
        -13    1    1    2    0    0 -0.27938729506E+03  0.11600857987E+03 -0.98735277103E+01  0.30267598015E+03  0.10566000000E+00 0.  1.
         13    1    1    2    0    0  0.28605439903E+03 -0.18909680833E+03  0.58831546535E+02  0.34791649021E+03  0.10566000000E+00 0. -1.
          4    1    1    2  501    0 -0.10208561934E+02  0.29766198320E+02 -0.26832215723E+03  0.27016110260E+03  0.00000000000E+00 0.  1.
         -4    1    1    2    0  502  0.35414579655E+01  0.43322030145E+02  0.33520684888E+02  0.54890586950E+02  0.00000000000E+00 0. -1.
</event>
<event>
 6    1  0.5496865E-006  0.5576667E+02  0.7818608E-02  0.1269939E+00
         21   -1    0    0  501  502  0.00000000000E+00  0.00000000000E+00  0.33009225865E+02  0.33009225865E+02  0.00000000000E+00 0. -1.
         21   -1    0    0  502  503 -0.00000000000E+00 -0.00000000000E+00 -0.22694144618E+03  0.22694144618E+03  0.00000000000E+00 0. -1.
        -13    1    1    2    0    0 -0.42832139686E+02  0.27298823309E+02 -0.37924297385E+02  0.63388338362E+02  0.10566000000E+00 0.  1.
         13    1    1    2    0    0  0.46522240379E+02 -0.40614435875E+02 -0.46446640997E+02  0.77273235180E+02  0.10566000000E+00 0. -1.
          4    1    1    2  501    0 -0.11168766609E+02 -0.26277392518E+00 -0.29473752992E+01  0.11554108311E+02  0.00000000000E+00 0.  1.
         -4    1    1    2    0  503  0.74786659158E+01  0.13578386491E+02 -0.10661390664E+03  0.10773499019E+03  0.00000000000E+00 0. -1.
</event>
<event>
 6    1  0.5496865E-006  0.3920726E+02  0.7818608E-02  0.1352114E+00
         21   -1    0    0  503  502  0.00000000000E+00  0.00000000000E+00  0.79092862868E+02  0.79092862868E+02  0.00000000000E+00 0. -1.
         21   -1    0    0  501  503 -0.00000000000E+00 -0.00000000000E+00 -0.73562563707E+02  0.73562563707E+02  0.00000000000E+00 0. -1.
        -13    1    1    2    0    0  0.28220472025E+02 -0.68615156339E+01 -0.74239653711E+00  0.29052327872E+02  0.10566000000E+00 0.  1.
         13    1    1    2    0    0  0.51886493269E+01 -0.14039471127E+02 -0.26800417409E+02  0.30696943963E+02  0.10566000000E+00 0. -1.
          4    1    1    2  501    0  0.18997624699E+02  0.12854128577E+02 -0.95804291963E+01  0.24858056828E+02  0.00000000000E+00 0.  1.
         -4    1    1    2    0  502 -0.52406746052E+02  0.80468581833E+01  0.42653542303E+02  0.68048097912E+02  0.00000000000E+00 0. -1.
</event>
<event>
 6    1  0.5496865E-006  0.9420029E+02  0.7818608E-02  0.1188839E+00
         21   -1    0    0  501  502  0.00000000000E+00  0.00000000000E+00  0.63157949291E+03  0.63157949291E+03  0.00000000000E+00 0. -1.
         21   -1    0    0  502  503 -0.00000000000E+00 -0.00000000000E+00 -0.79407301117E+02  0.79407301117E+02  0.00000000000E+00 0. -1.
        -13    1    1    2    0    0  0.10022567059E+02  0.65860602568E+02  0.90573162894E+02  0.11243478030E+03  0.10566000000E+00 0.  1.
         13    1    1    2    0    0 -0.93094724281E+02 -0.17762195515E+02  0.45719261087E+03  0.46691243063E+03  0.10566000000E+00 0. -1.
          4    1    1    2  501    0 -0.14766862975E+02  0.61305918340E+01 -0.99916524271E+01  0.18854111398E+02  0.00000000000E+00 0.  1.
         -4    1    1    2    0  503  0.97839020198E+02 -0.54228998888E+02  0.14398070460E+02  0.11278547170E+03  0.00000000000E+00 0. -1.
</event>
<event>
 6    1  0.5496865E-006  0.1060419E+03  0.7818608E-02  0.1179373E+00
         21   -1    0    0  501  502  0.00000000000E+00  0.00000000000E+00  0.31566499177E+03  0.31566499177E+03  0.00000000000E+00 0.  1.
         21   -1    0    0  502  503 -0.00000000000E+00 -0.00000000000E+00 -0.12310310848E+03  0.12310310848E+03  0.00000000000E+00 0.  1.
        -13    1    1    2    0    0  0.68589044506E+02 -0.14063319283E+03  0.41289433092E+02  0.16182391789E+03  0.10566000000E+00 0.  1.
         13    1    1    2    0    0 -0.44019271433E+02  0.35664156926E+02  0.40705782659E+01  0.56799728152E+02  0.10566000000E+00 0. -1.
          4    1    1    2  501    0 -0.23725718845E+02  0.92994186750E+02  0.16952029908E+03  0.19480236216E+03  0.00000000000E+00 0.  1.
         -4    1    1    2    0  503 -0.84405422816E+00  0.11974849151E+02 -0.22318427143E+02  0.25342092058E+02  0.00000000000E+00 0. -1.
</event>
<event>
 6    1  0.5496865E-006  0.3347678E+02  0.7818608E-02  0.1395238E+00
         21   -1    0    0  501  502  0.00000000000E+00  0.00000000000E+00  0.70380925974E+03  0.70380925974E+03  0.00000000000E+00 0.  1.
         21   -1    0    0  502  503 -0.00000000000E+00 -0.00000000000E+00 -0.77025212449E+02  0.77025212449E+02  0.00000000000E+00 0. -1.
        -13    1    1    2    0    0 -0.68180779778E+01 -0.32424855321E+02 -0.20009257204E+02  0.38707091958E+02  0.10566000000E+00 0.  1.
         13    1    1    2    0    0  0.13582503519E+02  0.12075609777E+02  0.57859979705E+02  0.60647284926E+02  0.10566000000E+00 0. -1.
          4    1    1    2  501    0  0.15329531221E+02 -0.64773875228E+01  0.62855559792E+03  0.62877586686E+03  0.00000000000E+00 0.  1.
         -4    1    1    2    0  503 -0.22093956762E+02  0.26826633067E+02 -0.39622273132E+02  0.52704228438E+02  0.00000000000E+00 0. -1.
</event>
<event>
 6    1  0.5496865E-006  0.2545159E+02  0.7818608E-02  0.1453970E+00
         21   -1    0    0  503  502  0.00000000000E+00  0.00000000000E+00  0.30054648951E+03  0.30054648951E+03  0.00000000000E+00 0.  1.
         21   -1    0    0  501  503 -0.00000000000E+00 -0.00000000000E+00 -0.74532654033E+02  0.74532654033E+02  0.00000000000E+00 0.  1.
        -13    1    1    2    0    0 -0.16360954800E+02  0.28959605716E+02  0.73778333597E+02  0.80929557503E+02  0.10566000000E+00 0.  1.
         13    1    1    2    0    0  0.26061627621E+01 -0.23847134679E+02 -0.54488615894E+01  0.24600389700E+02  0.10566000000E+00 0. -1.
          4    1    1    2  501    0  0.14736193462E+02 -0.20406718287E+02 -0.52807704462E+02  0.58499941876E+02  0.00000000000E+00 0.  1.
         -4    1    1    2    0  502 -0.98140142363E+00  0.15294247251E+02  0.21049206793E+03  0.21104925446E+03  0.00000000000E+00 0. -1.
</event>
<event>
 6    1  0.5496865E-006  0.1373475E+03  0.7818608E-02  0.1114307E+00
         21   -1    0    0  503  502  0.00000000000E+00  0.00000000000E+00  0.87732140791E+03  0.87732140791E+03  0.00000000000E+00 0.  1.
         21   -1    0    0  501  503 -0.00000000000E+00 -0.00000000000E+00 -0.13143402475E+03  0.13143402475E+03  0.00000000000E+00 0.  1.
        -13    1    1    2    0    0  0.37550207641E+02  0.98985339672E+02  0.52551129273E+03  0.53606925440E+03  0.10566000000E+00 0.  1.
         13    1    1    2    0    0 -0.51269135870E+02 -0.13702306099E+03  0.97941856540E+02  0.17605812098E+03  0.10566000000E+00 0. -1.
          4    1    1    2  501    0 -0.20007938587E+02  0.97364813805E+01 -0.83307610003E+02  0.86228038135E+02  0.00000000000E+00 0.  1.
         -4    1    1    2    0  502  0.33726866816E+02  0.28301239942E+02  0.20574184389E+03  0.21040001914E+03  0.00000000000E+00 0. -1.
</event>
<event>
 6    1  0.5496865E-006  0.3526866E+02  0.7818608E-02  0.1366995E+00
         21   -1    0    0  501  502  0.00000000000E+00  0.00000000000E+00  0.34805615465E+03  0.34805615465E+03  0.00000000000E+00 0. -1.
         21   -1    0    0  502  503 -0.00000000000E+00 -0.00000000000E+00 -0.61097423430E+02  0.61097423430E+02  0.00000000000E+00 0. -1.
        -13    1    1    2    0    0 -0.98317857695E+01 -0.27953705365E+02  0.27374364506E+02  0.40341549936E+02  0.10566000000E+00 0.  1.
         13    1    1    2    0    0  0.86901897576E+01  0.44100612150E+02  0.25242718501E+03  0.25639789057E+03  0.10566000000E+00 0. -1.
          4    1    1    2  501    0 -0.77386890576E+01 -0.84202299431E+01  0.58567410377E+02  0.59673521254E+02  0.00000000000E+00 0.  1.
         -4    1    1    2    0  503  0.88802850695E+01 -0.77266768422E+01 -0.51410228674E+02  0.52740616325E+02  0.00000000000E+00 0. -1.
</event>
<event>
 6    1  0.5496865E-006  0.9971854E+02  0.7818608E-02  0.1177260E+00
         21   -1    0    0  501  502  0.00000000000E+00  0.00000000000E+00  0.19347841182E+03  0.19347841182E+03  0.00000000000E+00 0. -1.
         21   -1    0    0  502  503 -0.00000000000E+00 -0.00000000000E+00 -0.78578925322E+03  0.78578925322E+03  0.00000000000E+00 0. -1.
        -13    1    1    2    0    0 -0.33172860355E+02  0.66301288811E+02 -0.20091307737E+03  0.21415502653E+03  0.10566000000E+00 0.  1.
         13    1    1    2    0    0  0.10485283535E+03 -0.14451089567E+03  0.98093304163E+02  0.20371505475E+03  0.10566000000E+00 0. -1.
          4    1    1    2  501    0 -0.10143911299E+02  0.27539748139E+01  0.30556458662E+02  0.32313781575E+02  0.00000000000E+00 0.  1.
         -4    1    1    2    0  503 -0.61536063700E+02  0.75455632040E+02 -0.52004752685E+03  0.52908380218E+03  0.00000000000E+00 0. -1.
</event>
<event>
 6    1  0.5496865E-006  0.7102519E+02  0.7818608E-02  0.1240799E+00
         21   -1    0    0  501  502  0.00000000000E+00  0.00000000000E+00  0.17463905504E+03  0.17463905504E+03  0.00000000000E+00 0. -1.
         21   -1    0    0  502  503 -0.00000000000E+00 -0.00000000000E+00 -0.33041018136E+03  0.33041018136E+03  0.00000000000E+00 0. -1.
        -13    1    1    2    0    0 -0.32115976693E+02  0.59755370571E+01 -0.59336456627E+02  0.67734549907E+02  0.10566000000E+00 0.  1.
         13    1    1    2    0    0  0.13839804305E+03 -0.30927682924E+02  0.45307766633E+02  0.14887358655E+03  0.10566000000E+00 0. -1.
          4    1    1    2  501    0 -0.69293638125E+02  0.42160011697E+02  0.48075696551E+02  0.94288639134E+02  0.00000000000E+00 0.  1.
         -4    1    1    2    0  503 -0.36988428228E+02 -0.17207865830E+02 -0.18981813288E+03  0.19415246081E+03  0.00000000000E+00 0. -1.
</event>
<event>
 6    1  0.5496865E-006  0.1269117E+03  0.7818608E-02  0.1126410E+00
         21   -1    0    0  501  502  0.00000000000E+00  0.00000000000E+00  0.14397465752E+04  0.14397465752E+04  0.00000000000E+00 0.  1.
         21   -1    0    0  502  503 -0.00000000000E+00 -0.00000000000E+00 -0.39179522093E+02  0.39179522093E+02  0.00000000000E+00 0.  1.
        -13    1    1    2    0    0  0.67211546802E+02 -0.10267470302E+03  0.12438401927E+03  0.17473088473E+03  0.10566000000E+00 0.  1.
         13    1    1    2    0    0 -0.52461618163E+02  0.12122110677E+03  0.31740258469E+03  0.34378945597E+03  0.10566000000E+00 0. -1.
          4    1    1    2  501    0  0.97940484284E+01 -0.33787017861E+01  0.69059995074E+03  0.69067766068E+03  0.00000000000E+00 0.  1.
         -4    1    1    2    0  503 -0.24543977067E+02 -0.15167701960E+02  0.26818049841E+03  0.26972809591E+03  0.00000000000E+00 0. -1.
</event>
<event>
 6    1  0.5496865E-006  0.5119233E+02  0.7818608E-02  0.1287009E+00
         21   -1    0    0  501  502  0.00000000000E+00  0.00000000000E+00  0.27377153242E+03  0.27377153242E+03  0.00000000000E+00 0. -1.
         21   -1    0    0  502  503 -0.00000000000E+00 -0.00000000000E+00 -0.38237048534E+02  0.38237048534E+02  0.00000000000E+00 0.  1.
        -13    1    1    2    0    0  0.37001343110E+02 -0.18343067505E+02  0.11830811533E+01  0.41315594665E+02  0.10566000000E+00 0.  1.
         13    1    1    2    0    0 -0.27671650936E+02  0.53513161268E+02  0.17304815513E+03  0.18323496896E+03  0.10566000000E+00 0. -1.
          4    1    1    2  501    0 -0.16549905197E+02 -0.20851125372E+02  0.65650833065E+02  0.70842788436E+02  0.00000000000E+00 0.  1.
         -4    1    1    2    0  503  0.72202130224E+01 -0.14318968392E+02 -0.43475854544E+01  0.16615228893E+02  0.00000000000E+00 0. -1.
</event>
<event>
 6    1  0.5496865E-006  0.8525134E+02  0.7818608E-02  0.1212314E+00
         21   -1    0    0  501  502  0.00000000000E+00  0.00000000000E+00  0.50606350741E+03  0.50606350741E+03  0.00000000000E+00 0.  1.
         21   -1    0    0  502  503 -0.00000000000E+00 -0.00000000000E+00 -0.33256368846E+03  0.33256368846E+03  0.00000000000E+00 0.  1.
        -13    1    1    2    0    0  0.12666745783E+02 -0.14250594100E+03 -0.26509719072E+03  0.30123897716E+03  0.10566000000E+00 0.  1.
         13    1    1    2    0    0  0.49346272402E+02  0.58112030659E+02  0.86244636978E+02  0.11510956206E+03  0.10566000000E+00 0. -1.
          4    1    1    2  501    0 -0.14314378058E+02 -0.15906822791E+02  0.29774917147E+03  0.29851716457E+03  0.00000000000E+00 0.  1.
         -4    1    1    2    0  503 -0.47698640127E+02  0.10030073313E+03  0.54603201216E+02  0.12376149207E+03  0.00000000000E+00 0. -1.
</event>
<event>
 6    1  0.5496865E-006  0.3442110E+03  0.7818608E-02  0.9905657E-01
         21   -1    0    0  503  502  0.00000000000E+00  0.00000000000E+00  0.46701737856E+03  0.46701737856E+03  0.00000000000E+00 0. -1.
         21   -1    0    0  501  503 -0.00000000000E+00 -0.00000000000E+00 -0.35948796666E+03  0.35948796666E+03  0.00000000000E+00 0.  1.
        -13    1    1    2    0    0  0.26306339072E+02 -0.31191827464E+03  0.17118349238E+03  0.35677560561E+03  0.10566000000E+00 0.  1.
         13    1    1    2    0    0 -0.55945899770E+01  0.36743500830E+03  0.20974629450E+01  0.36748359865E+03  0.10566000000E+00 0. -1.
          4    1    1    2  501    0 -0.35342553129E+02 -0.51923032766E+02 -0.48596882819E+02  0.79415076736E+02  0.00000000000E+00 0.  1.
         -4    1    1    2    0  502  0.14630804034E+02 -0.35937008968E+01 -0.17154660614E+02  0.22831064224E+02  0.00000000000E+00 0. -1.
</event>
<event>
 6    1  0.5496865E-006  0.7647174E+02  0.7818608E-02  0.1210703E+00
         21   -1    0    0  501  502  0.00000000000E+00  0.00000000000E+00  0.25115570951E+03  0.25115570951E+03  0.00000000000E+00 0.  1.
         21   -1    0    0  502  503 -0.00000000000E+00 -0.00000000000E+00 -0.48639473763E+02  0.48639473763E+02  0.00000000000E+00 0.  1.
        -13    1    1    2    0    0  0.96289399500E+02 -0.61671980808E+01  0.59164323137E+02  0.11318176127E+03  0.10566000000E+00 0.  1.
         13    1    1    2    0    0 -0.63077735824E+02  0.18540244713E+02  0.50969010118E+02  0.83188897019E+02  0.10566000000E+00 0. -1.
          4    1    1    2  501    0  0.33405596221E+00 -0.10968086717E+02  0.37627709710E+02  0.39195089714E+02  0.00000000000E+00 0.  1.
         -4    1    1    2    0  503 -0.33545719638E+02 -0.14049599159E+01  0.54755192776E+02  0.64229435264E+02  0.00000000000E+00 0. -1.
</event>
<event>
 6    1  0.5496865E-006  0.4595172E+02  0.7818608E-02  0.1309211E+00
         21   -1    0    0  503  502  0.00000000000E+00  0.00000000000E+00  0.36813741443E+02  0.36813741443E+02  0.00000000000E+00 0. -1.
         21   -1    0    0  501  503 -0.00000000000E+00 -0.00000000000E+00 -0.37966506621E+03  0.37966506621E+03  0.00000000000E+00 0. -1.
        -13    1    1    2    0    0  0.33211733338E+02  0.25298438112E+02 -0.90549621657E+02  0.99710959019E+02  0.10566000000E+00 0.  1.
         13    1    1    2    0    0 -0.37649499952E+02 -0.21780714819E+02 -0.22118937427E+03  0.22542545296E+03  0.10566000000E+00 0. -1.
          4    1    1    2  501    0 -0.11008640677E+02 -0.28217777636E+02 -0.48672149738E+02  0.57327230043E+02  0.00000000000E+00 0.  1.
         -4    1    1    2    0  502  0.15446407290E+02  0.24700054344E+02  0.17559820905E+02  0.34015165632E+02  0.00000000000E+00 0. -1.
</event>
<event>
 6    1  0.5496865E-006  0.6072206E+02  0.7818608E-02  0.1253404E+00
         21   -1    0    0  501  502  0.00000000000E+00  0.00000000000E+00  0.14890456255E+04  0.14890456255E+04  0.00000000000E+00 0.  1.
         21   -1    0    0  502  503 -0.00000000000E+00 -0.00000000000E+00 -0.19633521322E+02  0.19633521322E+02  0.00000000000E+00 0.  1.
        -13    1    1    2    0    0  0.55154632725E+02 -0.37831137266E+02  0.30933681173E+03  0.31648460107E+03  0.10566000000E+00 0.  1.
         13    1    1    2    0    0 -0.36878820590E+02  0.44232585153E+02  0.14200503362E+03  0.15323840816E+03  0.10566000000E+00 0. -1.
          4    1    1    2  501    0  0.22932241782E+01  0.15701028457E+02  0.10064957204E+04  0.10066207908E+04  0.00000000000E+00 0.  1.
         -4    1    1    2    0  503 -0.20569036313E+02 -0.22102476345E+02  0.11574538406E+02  0.32335346832E+02  0.00000000000E+00 0. -1.
</event>
<event>
 6    1  0.5496865E-006  0.5274261E+02  0.7818608E-02  0.1281008E+00
         21   -1    0    0  503  502  0.00000000000E+00  0.00000000000E+00  0.33827349618E+03  0.33827349618E+03  0.00000000000E+00 0.  1.
         21   -1    0    0  501  503 -0.00000000000E+00 -0.00000000000E+00 -0.89602462268E+02  0.89602462268E+02  0.00000000000E+00 0.  1.
        -13    1    1    2    0    0 -0.32006382337E+02  0.35096076223E+02  0.16513855380E+03  0.17183392038E+03  0.10566000000E+00 0.  1.
         13    1    1    2    0    0  0.11060934397E+02 -0.44863931271E+02  0.26627392384E+02  0.53330533356E+02  0.10566000000E+00 0. -1.
          4    1    1    2  501    0  0.17381186806E+02 -0.89691830077E+01 -0.70870663243E+02  0.73520084379E+02  0.00000000000E+00 0.  1.
         -4    1    1    2    0  502  0.35642611346E+01  0.18737038055E+02  0.12777575097E+03  0.12919142034E+03  0.00000000000E+00 0. -1.
</event>
<event>
 6    1  0.5496865E-006  0.7456403E+02  0.7818608E-02  0.1248339E+00
         21   -1    0    0  501  502  0.00000000000E+00  0.00000000000E+00  0.43272474738E+03  0.43272474738E+03  0.00000000000E+00 0.  1.
         21   -1    0    0  502  503 -0.00000000000E+00 -0.00000000000E+00 -0.76074598495E+02  0.76074598495E+02  0.00000000000E+00 0.  1.
        -13    1    1    2    0    0 -0.76547250986E+01  0.11579884628E+03 -0.32294315873E+01  0.11609654606E+03  0.10566000000E+00 0.  1.
         13    1    1    2    0    0 -0.10517347111E+02 -0.34627524779E+02  0.18898683799E+03  0.19242067498E+03  0.10566000000E+00 0. -1.
          4    1    1    2  501    0  0.14232833980E+02 -0.68482691930E+02  0.17320612300E+03  0.18679618225E+03  0.00000000000E+00 0.  1.
         -4    1    1    2    0  503  0.39392382297E+01 -0.12688629569E+02 -0.23133805104E+01  0.13485942591E+02  0.00000000000E+00 0. -1.
</event>
<event>
 6    1  0.5496865E-006  0.1770191E+03  0.7818608E-02  0.1077145E+00
         21   -1    0    0  503  502  0.00000000000E+00  0.00000000000E+00  0.66621077346E+03  0.66621077346E+03  0.00000000000E+00 0.  1.
         21   -1    0    0  501  503 -0.00000000000E+00 -0.00000000000E+00 -0.13540960470E+03  0.13540960470E+03  0.00000000000E+00 0. -1.
        -13    1    1    2    0    0 -0.86763698003E+02  0.17902609933E+03  0.52621055428E+03  0.56256185627E+03  0.10566000000E+00 0.  1.
         13    1    1    2    0    0  0.92551017095E+02 -0.15878234195E+03  0.56807548872E+01  0.18387442731E+03  0.10566000000E+00 0. -1.
          4    1    1    2  501    0  0.10625719637E+02 -0.29299109757E+02 -0.12113590467E+02  0.33437745504E+02  0.00000000000E+00 0.  1.
         -4    1    1    2    0  502 -0.16413038729E+02  0.90553523762E+01  0.11023450058E+02  0.21746349077E+02  0.00000000000E+00 0. -1.
</event>
<event>
 6    1  0.5496865E-006  0.6305453E+02  0.7818608E-02  0.1246222E+00
         21   -1    0    0  503  502  0.00000000000E+00  0.00000000000E+00  0.78417578441E+02  0.78417578441E+02  0.00000000000E+00 0. -1.
         21   -1    0    0  501  503 -0.00000000000E+00 -0.00000000000E+00 -0.31593750091E+03  0.31593750091E+03  0.00000000000E+00 0.  1.
        -13    1    1    2    0    0 -0.81005923970E+02 -0.67896089125E+02 -0.14042136104E+03  0.17575553600E+03  0.10566000000E+00 0.  1.
         13    1    1    2    0    0  0.39518478395E+02  0.15196892194E+02 -0.65053899183E+02  0.77618790444E+02  0.10566000000E+00 0. -1.
          4    1    1    2  501    0 -0.10222518973E+02  0.29463431756E+02 -0.67332807367E+02  0.74204451705E+02  0.00000000000E+00 0.  1.
         -4    1    1    2    0  502  0.51709964547E+02  0.23235765175E+02  0.35288145113E+02  0.66776301202E+02  0.00000000000E+00 0. -1.
</event>
<event>
 6    1  0.5496865E-006  0.6095030E+02  0.7818608E-02  0.1274500E+00
         21   -1    0    0  501  502  0.00000000000E+00  0.00000000000E+00  0.11496701881E+03  0.11496701881E+03  0.00000000000E+00 0.  1.
         21   -1    0    0  502  503 -0.00000000000E+00 -0.00000000000E+00 -0.36121686239E+03  0.36121686239E+03  0.00000000000E+00 0.  1.
        -13    1    1    2    0    0  0.52749102857E+02  0.11225867178E+03 -0.17486036125E+03  0.21438431459E+03  0.10566000000E+00 0.  1.
         13    1    1    2    0    0 -0.21248029551E+02 -0.81293047939E+01  0.54188979148E+02  0.58770919522E+02  0.10566000000E+00 0. -1.
          4    1    1    2  501    0 -0.86457747317E+01 -0.35234108275E+02  0.19219099394E+02  0.41055640150E+02  0.00000000000E+00 0.  1.
         -4    1    1    2    0  503 -0.22855298574E+02 -0.68895258708E+02 -0.14479756086E+03  0.16197300694E+03  0.00000000000E+00 0. -1.
</event>
<event>
 6    1  0.5496865E-006  0.3909771E+03  0.7818608E-02  0.9755471E-01
         21   -1    0    0  503  502  0.00000000000E+00  0.00000000000E+00  0.36617682118E+03  0.36617682118E+03  0.00000000000E+00 0.  1.
         21   -1    0    0  501  503 -0.00000000000E+00 -0.00000000000E+00 -0.13130719007E+04  0.13130719007E+04  0.00000000000E+00 0. -1.
        -13    1    1    2    0    0 -0.66088618426E+02 -0.39331905285E+03 -0.31197097322E+03  0.50635311998E+03  0.10566000000E+00 0.  1.
         13    1    1    2    0    0  0.63367943779E+02  0.37204323970E+03 -0.12311176775E+03  0.39697378632E+03  0.10566000000E+00 0. -1.
          4    1    1    2  501    0 -0.22963791268E+02 -0.26095755698E+01 -0.64132628340E+03  0.64174258654E+03  0.00000000000E+00 0.  1.
         -4    1    1    2    0  502  0.25684465915E+02  0.23885388718E+02  0.12951394487E+03  0.13417922902E+03  0.00000000000E+00 0. -1.
</event>
<event>
 6    1  0.5496865E-006  0.9604260E+02  0.7818608E-02  0.1207159E+00
         21   -1    0    0  501  502  0.00000000000E+00  0.00000000000E+00  0.15431470618E+03  0.15431470618E+03  0.00000000000E+00 0.  1.
         21   -1    0    0  502  503 -0.00000000000E+00 -0.00000000000E+00 -0.22250966961E+03  0.22250966961E+03  0.00000000000E+00 0.  1.
        -13    1    1    2    0    0 -0.55852040251E+02 -0.10084352779E+03 -0.43762941620E+02  0.12330480007E+03  0.10566000000E+00 0.  1.
         13    1    1    2    0    0 -0.37264310301E+01  0.46946566571E+02  0.12289141582E+00  0.47094507826E+02  0.10566000000E+00 0. -1.
          4    1    1    2  501    0  0.37625626674E+02  0.82524385138E+02  0.63866494085E+02  0.11092741317E+03  0.00000000000E+00 0.  1.
         -4    1    1    2    0  503  0.21952844608E+02 -0.28627423924E+02 -0.88421407317E+02  0.95497654730E+02  0.00000000000E+00 0. -1.
</event>
<event>
 6    1  0.5496865E-006  0.1426050E+03  0.7818608E-02  0.1108643E+00
         21   -1    0    0  503  502  0.00000000000E+00  0.00000000000E+00  0.50593986516E+03  0.50593986516E+03  0.00000000000E+00 0. -1.
         21   -1    0    0  501  503 -0.00000000000E+00 -0.00000000000E+00 -0.10996902105E+03  0.10996902105E+03  0.00000000000E+00 0.  1.
        -13    1    1    2    0    0 -0.11281649468E+03  0.50536995942E+02  0.20237111188E+03  0.23714052272E+03  0.10566000000E+00 0.  1.
         13    1    1    2    0    0  0.13958961455E+03 -0.82145510911E+02  0.18905123795E+03  0.24894482760E+03  0.10566000000E+00 0. -1.
          4    1    1    2  501    0 -0.83138999645E+01 -0.13203421988E+02 -0.52615193732E+02  0.54879958967E+02  0.00000000000E+00 0.  1.
         -4    1    1    2    0  502 -0.18459219910E+02  0.44811936957E+02  0.57163688012E+02  0.74943576914E+02  0.00000000000E+00 0. -1.
</event>
<event>
 6    1  0.5496865E-006  0.1264485E+03  0.7818608E-02  0.1126976E+00
         21   -1    0    0  501  502  0.00000000000E+00  0.00000000000E+00  0.25537813181E+02  0.25537813181E+02  0.00000000000E+00 0.  1.
         21   -1    0    0  502  503 -0.00000000000E+00 -0.00000000000E+00 -0.14220679296E+04  0.14220679296E+04  0.00000000000E+00 0.  1.
        -13    1    1    2    0    0 -0.13189521159E+03 -0.54223674510E+01 -0.61094667673E+03  0.62504527986E+03  0.10566000000E+00 0.  1.
         13    1    1    2    0    0  0.11869573559E+03  0.13664069650E+02 -0.35611226408E+03  0.37562127235E+03  0.10566000000E+00 0. -1.
          4    1    1    2  501    0  0.89092092034E+01  0.28912464146E+02 -0.21162065256E+02  0.36920693351E+02  0.00000000000E+00 0.  1.
         -4    1    1    2    0  503  0.42902667986E+01 -0.37154166345E+02 -0.40830911038E+03  0.41001849725E+03  0.00000000000E+00 0. -1.
</event>
<event>
 6    1  0.5496865E-006  0.1790871E+02  0.7818608E-02  0.1607980E+00
         21   -1    0    0  503  502  0.00000000000E+00  0.00000000000E+00  0.22076753997E+02  0.22076753997E+02  0.00000000000E+00 0. -1.
         21   -1    0    0  501  503 -0.00000000000E+00 -0.00000000000E+00 -0.26715208361E+03  0.26715208361E+03  0.00000000000E+00 0.  1.
        -13    1    1    2    0    0  0.31522517285E+02  0.22447320828E+01 -0.75520172826E+02  0.81865838943E+02  0.10566000000E+00 0.  1.
         13    1    1    2    0    0  0.17657246725E+00 -0.11010516486E+02  0.11470537196E+02  0.15901164697E+02  0.10566000000E+00 0. -1.
          4    1    1    2  501    0 -0.92381896329E+01 -0.18975719093E+02 -0.10960267940E+03  0.11161616995E+03  0.00000000000E+00 0.  1.
         -4    1    1    2    0  502 -0.22460900119E+02  0.27741503496E+02 -0.71423014584E+02  0.79845664019E+02  0.00000000000E+00 0. -1.
</event>
<event>
 6    1  0.5496865E-006  0.1695629E+03  0.7818608E-02  0.1083273E+00
         21   -1    0    0  501  502  0.00000000000E+00  0.00000000000E+00  0.36961301210E+03  0.36961301210E+03  0.00000000000E+00 0. -1.
         21   -1    0    0  502  503 -0.00000000000E+00 -0.00000000000E+00 -0.85717398230E+03  0.85717398230E+03  0.00000000000E+00 0.  1.
        -13    1    1    2    0    0  0.20220900391E+03 -0.77777566987E+02 -0.37958406061E+03  0.43706052375E+03  0.10566000000E+00 0.  1.
         13    1    1    2    0    0 -0.18992002087E+03  0.23033612207E+01  0.22965275218E+03  0.29801898857E+03  0.10566000000E+00 0. -1.
          4    1    1    2  501    0  0.48201514987E+02  0.76751633463E+02  0.47175343604E+02  0.10217491047E+03  0.00000000000E+00 0.  1.
         -4    1    1    2    0  503 -0.60490498025E+02 -0.12774276972E+01 -0.38480500538E+03  0.38953257160E+03  0.00000000000E+00 0. -1.
</event>
<event>
 6    1  0.5496865E-006  0.2182687E+03  0.7818608E-02  0.1050539E+00
         21   -1    0    0  503  502  0.00000000000E+00  0.00000000000E+00  0.36865102697E+03  0.36865102697E+03  0.00000000000E+00 0.  1.
         21   -1    0    0  501  503 -0.00000000000E+00 -0.00000000000E+00 -0.90996462714E+03  0.90996462714E+03  0.00000000000E+00 0. -1.
        -13    1    1    2    0    0 -0.30038614459E+03 -0.10208614174E+03  0.31783597883E+01  0.31727516343E+03  0.10566000000E+00 0.  1.
         13    1    1    2    0    0  0.73581168148E+02  0.20160827117E+03 -0.29783557321E+03  0.36710505736E+03  0.10566000000E+00 0. -1.
          4    1    1    2  501    0  0.20496810450E+03 -0.19285004175E+02 -0.38283239929E+03  0.43467744500E+03  0.00000000000E+00 0.  1.
         -4    1    1    2    0  502  0.21836871942E+02 -0.80237125254E+02  0.13617601254E+03  0.15955798832E+03  0.00000000000E+00 0. -1.
</event>
<event>
 6    1  0.5496865E-006  0.2319490E+03  0.7818608E-02  0.1082866E+00
         21   -1    0    0  501  502  0.00000000000E+00  0.00000000000E+00  0.27623339723E+03  0.27623339723E+03  0.00000000000E+00 0. -1.
         21   -1    0    0  502  503 -0.00000000000E+00 -0.00000000000E+00 -0.62071278565E+03  0.62071278565E+03  0.00000000000E+00 0.  1.
        -13    1    1    2    0    0 -0.12342445193E+03 -0.26333699697E+03 -0.27413143799E+03  0.39965988761E+03  0.10566000000E+00 0.  1.
         13    1    1    2    0    0  0.11338717293E+02  0.59603622757E+02  0.69230928814E+02  0.92054826186E+02  0.10566000000E+00 0. -1.
          4    1    1    2  501    0  0.16083098991E+02 -0.73848886359E+01  0.82351834601E+02  0.84231985109E+02  0.00000000000E+00 0.  1.
         -4    1    1    2    0  503  0.96002635643E+02  0.21111826285E+03 -0.22193071385E+03  0.32099948397E+03  0.00000000000E+00 0. -1.
</event>
<event>
 6    1  0.5496865E-006  0.3828496E+03  0.7818608E-02  0.9919920E-01
         21   -1    0    0  503  502  0.00000000000E+00  0.00000000000E+00  0.10518725988E+04  0.10518725988E+04  0.00000000000E+00 0.  1.
         21   -1    0    0  501  503 -0.00000000000E+00 -0.00000000000E+00 -0.42533463187E+03  0.42533463187E+03  0.00000000000E+00 0.  1.
        -13    1    1    2    0    0  0.26714541912E+03 -0.20302215598E+03  0.38069791536E+03  0.50745993409E+03  0.10566000000E+00 0.  1.
         13    1    1    2    0    0 -0.13063417357E+03 -0.19247166510E+03  0.43714080913E+02  0.23668874330E+03  0.10566000000E+00 0. -1.
          4    1    1    2  501    0 -0.10220644152E+03  0.41043527524E+03 -0.95065123519E+02  0.43352122158E+03  0.00000000000E+00 0.  1.
         -4    1    1    2    0  502 -0.34304804031E+02 -0.14941454157E+02  0.29719109414E+03  0.29953733168E+03  0.00000000000E+00 0. -1.
</event>
<event>
 6    1  0.5496865E-006  0.1258501E+03  0.7818608E-02  0.1127711E+00
         21   -1    0    0  503  502  0.00000000000E+00  0.00000000000E+00  0.11742687476E+04  0.11742687476E+04  0.00000000000E+00 0. -1.
         21   -1    0    0  501  503 -0.00000000000E+00 -0.00000000000E+00 -0.52697419175E+03  0.52697419175E+03  0.00000000000E+00 0. -1.
        -13    1    1    2    0    0 -0.21943416767E+02  0.80681424738E+02  0.33738090444E+03  0.34758724327E+03  0.10566000000E+00 0.  1.
         13    1    1    2    0    0  0.14757040565E+02 -0.13866010534E+03 -0.23172981058E+03  0.27044983145E+03  0.10566000000E+00 0. -1.
          4    1    1    2  501    0 -0.19915653970E+02  0.10862807526E+02 -0.26939478953E+03  0.27034826888E+03  0.00000000000E+00 0.  1.
         -4    1    1    2    0  502  0.27102030171E+02  0.47115873076E+02  0.81103825153E+03  0.81285759575E+03  0.00000000000E+00 0. -1.
</event>
<event>
 6    1  0.5496865E-006  0.1084585E+03  0.7818608E-02  0.1151272E+00
         21   -1    0    0  501  502  0.00000000000E+00  0.00000000000E+00  0.34958391779E+03  0.34958391779E+03  0.00000000000E+00 0. -1.
         21   -1    0    0  502  503 -0.00000000000E+00 -0.00000000000E+00 -0.36968573396E+03  0.36968573396E+03  0.00000000000E+00 0. -1.
        -13    1    1    2    0    0 -0.13442797165E+03  0.87731414777E+01  0.15323936759E+03  0.20403470910E+03  0.10566000000E+00 0.  1.
         13    1    1    2    0    0  0.85553962458E+02 -0.98013599511E+01  0.13260216187E+03  0.15811037804E+03  0.10566000000E+00 0. -1.
          4    1    1    2  501    0  0.33602075246E+02  0.53972946970E+01  0.13990771565E+02  0.36796357698E+02  0.00000000000E+00 0.  1.
         -4    1    1    2    0  503  0.15271933944E+02 -0.43690762236E+01 -0.31993411720E+03  0.32032820691E+03  0.00000000000E+00 0. -1.
</event>
<event>
 6    1  0.5496865E-006  0.3614414E+02  0.7818608E-02  0.1361426E+00
         21   -1    0    0  503  502  0.00000000000E+00  0.00000000000E+00  0.12805482511E+03  0.12805482511E+03  0.00000000000E+00 0.  1.
         21   -1    0    0  501  503 -0.00000000000E+00 -0.00000000000E+00 -0.26419427395E+02  0.26419427395E+02  0.00000000000E+00 0. -1.
        -13    1    1    2    0    0  0.24535667805E+02 -0.18788982579E+02  0.68069879108E+02  0.74756568052E+02  0.10566000000E+00 0.  1.
         13    1    1    2    0    0 -0.25720001551E+02  0.21922089507E+02 -0.39852976246E+01  0.34029255786E+02  0.10566000000E+00 0. -1.
          4    1    1    2  501    0  0.13770074528E+01  0.10017314055E+02  0.66420479109E+01  0.12097914318E+02  0.00000000000E+00 0.  1.
         -4    1    1    2    0  502 -0.19267370647E+00 -0.13150420983E+02  0.30908768324E+02  0.33590514353E+02  0.00000000000E+00 0. -1.
</event>
<event>
 6    1  0.5496865E-006  0.2997188E+02  0.7818608E-02  0.1405135E+00
         21   -1    0    0  501  502  0.00000000000E+00  0.00000000000E+00  0.51987790344E+03  0.51987790344E+03  0.00000000000E+00 0.  1.
         21   -1    0    0  502  503 -0.00000000000E+00 -0.00000000000E+00 -0.32874141360E+02  0.32874141360E+02  0.00000000000E+00 0. -1.
        -13    1    1    2    0    0 -0.74953229530E+01  0.17519033118E+02  0.10699552165E+02  0.21853786128E+02  0.10566000000E+00 0.  1.
         13    1    1    2    0    0  0.37781099504E+02 -0.37137612036E+02  0.87417720229E+02  0.10221781978E+03  0.10566000000E+00 0. -1.
          4    1    1    2  501    0 -0.24901646866E+02  0.80553143003E+01  0.40627394819E+03  0.40711607814E+03  0.00000000000E+00 0.  1.
         -4    1    1    2    0  503 -0.53841296852E+01  0.11563264618E+02 -0.17387458503E+02  0.21564360744E+02  0.00000000000E+00 0. -1.
</event>
<event>
 6    1  0.5496865E-006  0.1529201E+03  0.7818608E-02  0.1121861E+00
         21   -1    0    0  501  502  0.00000000000E+00  0.00000000000E+00  0.33864006624E+03  0.33864006624E+03  0.00000000000E+00 0. -1.
         21   -1    0    0  502  503 -0.00000000000E+00 -0.00000000000E+00 -0.18372362470E+03  0.18372362470E+03  0.00000000000E+00 0. -1.
        -13    1    1    2    0    0 -0.79217826022E+01  0.73901741203E+02  0.52972141601E+02  0.91270372752E+02  0.10566000000E+00 0.  1.
         13    1    1    2    0    0  0.14093219044E+03 -0.44250836783E+02  0.83472474626E+02  0.16966933737E+03  0.10566000000E+00 0. -1.
          4    1    1    2  501    0  0.22378999529E+02  0.27485521737E+02  0.77848564848E+02  0.85537550666E+02  0.00000000000E+00 0.  1.
         -4    1    1    2    0  503 -0.15538940737E+03 -0.57136426157E+02 -0.59376739542E+02  0.17588643016E+03  0.00000000000E+00 0. -1.
</event>
<event>
 6    1  0.5496865E-006  0.1110875E+03  0.7818608E-02  0.1147410E+00
         21   -1    0    0  501  502  0.00000000000E+00  0.00000000000E+00  0.34101158677E+03  0.34101158677E+03  0.00000000000E+00 0. -1.
         21   -1    0    0  502  503 -0.00000000000E+00 -0.00000000000E+00 -0.12872058206E+03  0.12872058206E+03  0.00000000000E+00 0.  1.
        -13    1    1    2    0    0 -0.87380236565E+02  0.68260133728E+02 -0.51131551696E+02  0.12210322822E+03  0.10566000000E+00 0.  1.
         13    1    1    2    0    0  0.60676660400E+02 -0.74205469288E+02  0.14172608506E+03  0.17109764212E+03  0.10566000000E+00 0. -1.
          4    1    1    2  501    0  0.37930288224E+02  0.10630857907E+02  0.14499351414E+03  0.15024926306E+03  0.00000000000E+00 0.  1.
         -4    1    1    2    0  503 -0.11226712060E+02 -0.46855223471E+01 -0.23297042794E+02  0.26282035429E+02  0.00000000000E+00 0. -1.
</event>
<event>
 6    1  0.5496865E-006  0.9333148E+02  0.7818608E-02  0.1176086E+00
         21   -1    0    0  501  502  0.00000000000E+00  0.00000000000E+00  0.22468600581E+03  0.22468600581E+03  0.00000000000E+00 0.  1.
         21   -1    0    0  502  503 -0.00000000000E+00 -0.00000000000E+00 -0.52356260530E+03  0.52356260530E+03  0.00000000000E+00 0. -1.
        -13    1    1    2    0    0  0.79889110826E+02  0.12728781908E+02 -0.44509240707E+03  0.45238429892E+03  0.10566000000E+00 0.  1.
         13    1    1    2    0    0 -0.79649642782E+02 -0.21951725640E+02  0.60516246210E+02  0.10241177214E+03  0.10566000000E+00 0. -1.
          4    1    1    2  501    0 -0.89787100606E+01 -0.12789692995E+02  0.13650571506E+03  0.13739724788E+03  0.00000000000E+00 0.  1.
         -4    1    1    2    0  503  0.87392420170E+01  0.22012636726E+02 -0.50806153692E+02  0.56055292164E+02  0.00000000000E+00 0. -1.
</event>
<event>
 6    1  0.5496865E-006  0.1266881E+03  0.7818608E-02  0.1126683E+00
         21   -1    0    0  503  502  0.00000000000E+00  0.00000000000E+00  0.40684881814E+03  0.40684881814E+03  0.00000000000E+00 0. -1.
         21   -1    0    0  501  503 -0.00000000000E+00 -0.00000000000E+00 -0.18968968819E+03  0.18968968819E+03  0.00000000000E+00 0. -1.
        -13    1    1    2    0    0 -0.72927070116E+01 -0.11668905132E+03  0.56007469688E+02  0.12963936940E+03  0.10566000000E+00 0.  1.
         13    1    1    2    0    0  0.95073889227E+02  0.10685706520E+03 -0.88645705993E+02  0.16827224712E+03  0.10566000000E+00 0. -1.
          4    1    1    2  501    0 -0.13823236583E+02  0.22992869084E+00 -0.16821547884E+02  0.21773819372E+02  0.00000000000E+00 0.  1.
         -4    1    1    2    0  502 -0.73957945632E+02  0.96020574231E+01  0.26661891414E+03  0.27685307043E+03  0.00000000000E+00 0. -1.
</event>
<event>
 6    1  0.5496865E-006  0.4844682E+02  0.7818608E-02  0.1298245E+00
         21   -1    0    0  501  502  0.00000000000E+00  0.00000000000E+00  0.19969758815E+03  0.19969758815E+03  0.00000000000E+00 0. -1.
         21   -1    0    0  502  503 -0.00000000000E+00 -0.00000000000E+00 -0.57116681911E+02  0.57116681911E+02  0.00000000000E+00 0. -1.
        -13    1    1    2    0    0 -0.16901198052E+02 -0.33165521010E+02  0.26524176818E+02  0.45707170109E+02  0.10566000000E+00 0.  1.
         13    1    1    2    0    0  0.36020187328E+02  0.49447213593E+02  0.92311800624E+02  0.11074276737E+03  0.10566000000E+00 0. -1.
          4    1    1    2  501    0  0.15742085834E+02 -0.19181715142E+02  0.50537803650E+02  0.56301163930E+02  0.00000000000E+00 0.  1.
         -4    1    1    2    0  503 -0.34861075110E+02  0.29000225587E+01 -0.26792874851E+02  0.44063168649E+02  0.00000000000E+00 0. -1.
</event>
<event>
 6    1  0.5496865E-006  0.1687249E+03  0.7818608E-02  0.1104865E+00
         21   -1    0    0  503  502  0.00000000000E+00  0.00000000000E+00  0.23351605298E+03  0.23351605298E+03  0.00000000000E+00 0. -1.
         21   -1    0    0  501  503 -0.00000000000E+00 -0.00000000000E+00 -0.15102507764E+04  0.15102507764E+04  0.00000000000E+00 0.  1.
        -13    1    1    2    0    0 -0.93175815564E+02 -0.15283736449E+02 -0.39955843102E+02  0.10252709772E+03  0.10566000000E+00 0.  1.
         13    1    1    2    0    0  0.26376174407E+03  0.52002257583E+02 -0.94221802493E+03  0.97982106025E+03  0.10566000000E+00 0. -1.
          4    1    1    2  501    0 -0.15930479641E+02  0.20724264918E+02 -0.44042763208E+03  0.44120264555E+03  0.00000000000E+00 0.  1.
         -4    1    1    2    0  502 -0.15465544887E+03 -0.57442786052E+02  0.14586677666E+03  0.22021602591E+03  0.00000000000E+00 0. -1.
</event>
<event>
 6    1  0.5496865E-006  0.3458899E+02  0.7818608E-02  0.1424428E+00
         21   -1    0    0  501  502  0.00000000000E+00  0.00000000000E+00  0.49261261111E+02  0.49261261111E+02  0.00000000000E+00 0. -1.
         21   -1    0    0  502  503 -0.00000000000E+00 -0.00000000000E+00 -0.10561739594E+03  0.10561739594E+03  0.00000000000E+00 0.  1.
        -13    1    1    2    0    0 -0.59704246613E+01 -0.35003290416E+02 -0.63216210316E+02  0.72506390900E+02  0.10566000000E+00 0.  1.
         13    1    1    2    0    0 -0.63432334468E+01  0.13559626063E+02  0.22756517866E+02  0.27239132493E+02  0.10566000000E+00 0. -1.
          4    1    1    2  501    0  0.36183368320E+01  0.32691414361E+02 -0.22095361799E+02  0.39623552937E+02  0.00000000000E+00 0.  1.
         -4    1    1    2    0  503  0.86953212761E+01 -0.11247750008E+02  0.61989194157E+01  0.15509580725E+02  0.00000000000E+00 0. -1.
</event>
<event>
 6    1  0.5496865E-006  0.2209018E+03  0.7818608E-02  0.1046680E+00
         21   -1    0    0  501  502  0.00000000000E+00  0.00000000000E+00  0.53407270630E+02  0.53407270630E+02  0.00000000000E+00 0.  1.
         21   -1    0    0  502  503 -0.00000000000E+00 -0.00000000000E+00 -0.34374912758E+04  0.34374912758E+04  0.00000000000E+00 0.  1.
        -13    1    1    2    0    0 -0.64965050965E+02 -0.15447506125E+03 -0.89087838996E+03  0.90650279605E+03  0.10566000000E+00 0.  1.
         13    1    1    2    0    0  0.14058780698E+03  0.24725321083E+03 -0.10706017519E+04  0.11077396825E+04  0.10566000000E+00 0. -1.
          4    1    1    2  501    0  0.12879282675E+02 -0.23188330872E+02  0.17745316916E+02  0.31913490616E+02  0.00000000000E+00 0.  1.
         -4    1    1    2    0  503 -0.88502038685E+02 -0.69589818702E+02 -0.14403491802E+04  0.14447425773E+04  0.00000000000E+00 0. -1.
</event>
<event>
 6    1  0.5496865E-006  0.3359063E+02  0.7818608E-02  0.1383302E+00
         21   -1    0    0  503  502  0.00000000000E+00  0.00000000000E+00  0.13286117713E+03  0.13286117713E+03  0.00000000000E+00 0.  1.
         21   -1    0    0  501  503 -0.00000000000E+00 -0.00000000000E+00 -0.27414236783E+03  0.27414236783E+03  0.00000000000E+00 0.  1.
        -13    1    1    2    0    0 -0.29279988624E+01 -0.33438020668E+02  0.11873056782E+03  0.12338408853E+03  0.10566000000E+00 0.  1.
         13    1    1    2    0    0 -0.15532923793E+02 -0.11880291422E+02 -0.28433998342E+02  0.34509657657E+02  0.10566000000E+00 0. -1.
          4    1    1    2  501    0 -0.11116372025E+02  0.36839661824E+02 -0.20460599656E+03  0.20819305521E+03  0.00000000000E+00 0.  1.
         -4    1    1    2    0  502  0.29577294681E+02  0.84786502668E+01 -0.26971763619E+02  0.40916743562E+02  0.00000000000E+00 0. -1.
</event>
<event>
 6    1  0.5496865E-006  0.2157562E+03  0.7818608E-02  0.1049840E+00
         21   -1    0    0  501  502  0.00000000000E+00  0.00000000000E+00  0.13341595452E+04  0.13341595452E+04  0.00000000000E+00 0.  1.
         21   -1    0    0  502  503 -0.00000000000E+00 -0.00000000000E+00 -0.80368169057E+02  0.80368169057E+02  0.00000000000E+00 0.  1.
        -13    1    1    2    0    0  0.37033411558E+02 -0.26369904509E+03  0.90785818811E+03  0.94610525885E+03  0.10566000000E+00 0.  1.
         13    1    1    2    0    0  0.77709418681E+01  0.15711758877E+03  0.82591179137E+02  0.17767284056E+03  0.10566000000E+00 0. -1.
          4    1    1    2  501    0 -0.20110116477E+02  0.68757285860E+02  0.11323435198E+03  0.13399253566E+03  0.00000000000E+00 0.  1.
         -4    1    1    2    0  503 -0.24694236949E+02  0.37824170457E+02  0.15010765692E+03  0.15675707919E+03  0.00000000000E+00 0. -1.
</event>
<event>
 6    1  0.5496865E-006  0.2926359E+02  0.7818608E-02  0.1410921E+00
         21   -1    0    0  501  502  0.00000000000E+00  0.00000000000E+00  0.38175435033E+03  0.38175435033E+03  0.00000000000E+00 0.  1.
         21   -1    0    0  502  503 -0.00000000000E+00 -0.00000000000E+00 -0.15989811960E+02  0.15989811960E+02  0.00000000000E+00 0.  1.
        -13    1    1    2    0    0  0.41372545503E+02 -0.11556896878E+02  0.32267619305E+02  0.53725783443E+02  0.10566000000E+00 0.  1.
         13    1    1    2    0    0 -0.12478751291E+02  0.20237985024E+02  0.58062977613E+02  0.62742456159E+02  0.10566000000E+00 0. -1.
          4    1    1    2  501    0 -0.15866834114E+02 -0.81637978371E+01  0.26181613177E+03  0.26242349528E+03  0.00000000000E+00 0.  1.
         -4    1    1    2    0  503 -0.13026960098E+02 -0.51729030857E+00  0.13617809682E+02  0.18852427409E+02  0.00000000000E+00 0. -1.
</event>
<event>
 6    1  0.5496865E-006  0.7592480E+02  0.7818608E-02  0.1211988E+00
         21   -1    0    0  503  502  0.00000000000E+00  0.00000000000E+00  0.19363720887E+03  0.19363720887E+03  0.00000000000E+00 0.  1.
         21   -1    0    0  501  503 -0.00000000000E+00 -0.00000000000E+00 -0.73294134343E+02  0.73294134343E+02  0.00000000000E+00 0. -1.
        -13    1    1    2    0    0 -0.27021751431E+01 -0.88724798376E+02  0.22764901395E+02  0.91638657219E+02  0.10566000000E+00 0.  1.
         13    1    1    2    0    0 -0.21538120011E+01  0.61128092939E+02  0.10810700909E+03  0.12421118803E+03  0.10566000000E+00 0. -1.
          4    1    1    2  501    0 -0.35176092503E+01  0.10601160231E+02 -0.24907183588E+02  0.27296995574E+02  0.00000000000E+00 0.  1.
         -4    1    1    2    0  502  0.83735963946E+01  0.16995545206E+02  0.14378347624E+02  0.23784502388E+02  0.00000000000E+00 0. -1.
</event>
<event>
 6    1  0.5496865E-006  0.2580197E+03  0.7818608E-02  0.1076609E+00
         21   -1    0    0  501  502  0.00000000000E+00  0.00000000000E+00  0.51285211254E+03  0.51285211254E+03  0.00000000000E+00 0.  1.
         21   -1    0    0  502  503 -0.00000000000E+00 -0.00000000000E+00 -0.18842274155E+03  0.18842274155E+03  0.00000000000E+00 0.  1.
        -13    1    1    2    0    0  0.20129850623E+03 -0.20073171854E+03  0.24913067274E+03  0.37799525751E+03  0.10566000000E+00 0.  1.
         13    1    1    2    0    0 -0.14613642468E+02  0.54260230624E+02  0.17889105110E+02  0.58972556492E+02  0.10566000000E+00 0. -1.
          4    1    1    2  501    0 -0.18475339732E+03  0.13155902223E+03  0.77080116279E+02  0.23954736166E+03  0.00000000000E+00 0.  1.
         -4    1    1    2    0  503 -0.19314664430E+01  0.14912465686E+02 -0.19670523140E+02  0.24759678432E+02  0.00000000000E+00 0. -1.
</event>
<event>
 6    1  0.5496865E-006  0.9380814E+02  0.7818608E-02  0.1175227E+00
         21   -1    0    0  501  502  0.00000000000E+00  0.00000000000E+00  0.45359941079E+03  0.45359941079E+03  0.00000000000E+00 0.  1.
         21   -1    0    0  502  503 -0.00000000000E+00 -0.00000000000E+00 -0.17536355788E+03  0.17536355788E+03  0.00000000000E+00 0.  1.
        -13    1    1    2    0    0 -0.96974650450E+02 -0.25149822546E+01 -0.11045509296E+03  0.14700594101E+03  0.10566000000E+00 0.  1.
         13    1    1    2    0    0  0.58319553651E+02 -0.40955851168E+02  0.41209271075E+02  0.82321122863E+02  0.10566000000E+00 0. -1.
          4    1    1    2  501    0  0.50829756617E+02  0.32638652870E+02  0.36828711362E+03  0.37320817767E+03  0.00000000000E+00 0.  1.
         -4    1    1    2    0  503 -0.12174659818E+02  0.10832180552E+02 -0.20805438819E+02  0.26427727137E+02  0.00000000000E+00 0. -1.
</event>
<event>
 6    1  0.5496865E-006  0.1090486E+03  0.7818608E-02  0.1150394E+00
         21   -1    0    0  503  502  0.00000000000E+00  0.00000000000E+00  0.95204806708E+02  0.95204806708E+02  0.00000000000E+00 0. -1.
         21   -1    0    0  501  503 -0.00000000000E+00 -0.00000000000E+00 -0.36357132841E+03  0.36357132841E+03  0.00000000000E+00 0. -1.
        -13    1    1    2    0    0  0.11584712275E+03 -0.89602420468E+01 -0.23838588880E+03  0.26519555979E+03  0.10566000000E+00 0.  1.
         13    1    1    2    0    0 -0.11228655270E+03 -0.10567190271E+01 -0.47314486227E+02  0.12185260910E+03  0.10566000000E+00 0. -1.
          4    1    1    2  501    0 -0.12179305388E+02 -0.78619513657E+00 -0.24661970064E+02  0.27516655864E+02  0.00000000000E+00 0.  1.
         -4    1    1    2    0  502  0.86187353358E+01  0.10803156210E+02  0.41995823387E+02  0.44211310373E+02  0.00000000000E+00 0. -1.
</event>
<event>
 6    1  0.5496865E-006  0.2777921E+03  0.7818608E-02  0.1016918E+00
         21   -1    0    0  503  502  0.00000000000E+00  0.00000000000E+00  0.16209175453E+04  0.16209175453E+04  0.00000000000E+00 0. -1.
         21   -1    0    0  501  503 -0.00000000000E+00 -0.00000000000E+00 -0.62399111101E+03  0.62399111101E+03  0.00000000000E+00 0. -1.
        -13    1    1    2    0    0  0.23127065468E+03  0.20708468113E+03  0.11081209004E+02  0.31063320047E+03  0.10566000000E+00 0.  1.
         13    1    1    2    0    0 -0.21841706738E+03 -0.18711948925E+00 -0.37269811096E+03  0.43198373050E+03  0.10566000000E+00 0. -1.
          4    1    1    2  501    0 -0.70168564232E+02 -0.14404704602E+03  0.20485234907E+02  0.16153273267E+03  0.00000000000E+00 0.  1.
         -4    1    1    2    0  502  0.57314976938E+02 -0.62850515627E+02  0.13380581014E+04  0.13407589927E+04  0.00000000000E+00 0. -1.
</event>
<event>
 6    1  0.5496865E-006  0.3758518E+02  0.7818608E-02  0.1352639E+00
         21   -1    0    0  503  502  0.00000000000E+00  0.00000000000E+00  0.17290933817E+02  0.17290933817E+02  0.00000000000E+00 0.  1.
         21   -1    0    0  501  503 -0.00000000000E+00 -0.00000000000E+00 -0.54109491316E+03  0.54109491316E+03  0.00000000000E+00 0.  1.
        -13    1    1    2    0    0  0.56879327454E+01 -0.36259979376E+02 -0.16159900193E+02  0.40103518818E+02  0.10566000000E+00 0.  1.
         13    1    1    2    0    0  0.22066277496E+01  0.33561248857E+02 -0.11708952808E+03  0.12182444493E+03  0.10566000000E+00 0. -1.
          4    1    1    2  501    0  0.12451549308E+02  0.62504231826E+01 -0.35548815189E+03  0.35576106448E+03  0.00000000000E+00 0.  1.
         -4    1    1    2    0  502 -0.20346109803E+02 -0.35516926635E+01 -0.35066399176E+02  0.40696818747E+02  0.00000000000E+00 0. -1.
</event>
<event>
 6    1  0.5496865E-006  0.4313199E+02  0.7818608E-02  0.1322594E+00
         21   -1    0    0  503  502  0.00000000000E+00  0.00000000000E+00  0.24303154791E+02  0.24303154791E+02  0.00000000000E+00 0.  1.
         21   -1    0    0  501  503 -0.00000000000E+00 -0.00000000000E+00 -0.64523221498E+03  0.64523221498E+03  0.00000000000E+00 0.  1.
        -13    1    1    2    0    0 -0.63293250765E+02  0.17281858381E+02 -0.40512993559E+02  0.77110388617E+02  0.10566000000E+00 0.  1.
         13    1    1    2    0    0  0.38721841694E+02  0.14278642160E+02 -0.24443121324E+03  0.24789088289E+03  0.10566000000E+00 0. -1.
          4    1    1    2  501    0 -0.28465126197E+00 -0.33590642772E+02 -0.29236388870E+03  0.29428736929E+03  0.00000000000E+00 0.  1.
         -4    1    1    2    0  502  0.24856060333E+02  0.20301422308E+01 -0.43620964679E+02  0.50246728971E+02  0.00000000000E+00 0. -1.
</event>
<event>
 6    1  0.5496865E-006  0.2024612E+02  0.7818608E-02  0.1533570E+00
         21   -1    0    0  503  502  0.00000000000E+00  0.00000000000E+00  0.29900535366E+02  0.29900535366E+02  0.00000000000E+00 0.  1.
         21   -1    0    0  501  503 -0.00000000000E+00 -0.00000000000E+00 -0.18440247655E+03  0.18440247655E+03  0.00000000000E+00 0.  1.
        -13    1    1    2    0    0  0.15339209142E+02 -0.28949933457E+02  0.68984612373E+01  0.33481187490E+02  0.10566000000E+00 0.  1.
         13    1    1    2    0    0 -0.13554068675E+02  0.49337133324E+01 -0.44764053717E+02  0.47030691831E+02  0.10566000000E+00 0. -1.
          4    1    1    2  501    0  0.15996481285E+02  0.48075597264E+01 -0.10286815150E+03  0.10421543378E+03  0.00000000000E+00 0.  1.
         -4    1    1    2    0  502 -0.17781621752E+02  0.19208660399E+02 -0.13768197205E+02  0.29575698820E+02  0.00000000000E+00 0. -1.
</event>
<event>
 6    1  0.5496865E-006  0.5468755E+02  0.7818608E-02  0.1273797E+00
         21   -1    0    0  503  502  0.00000000000E+00  0.00000000000E+00  0.50638735350E+03  0.50638735350E+03  0.00000000000E+00 0.  1.
         21   -1    0    0  501  503 -0.00000000000E+00 -0.00000000000E+00 -0.30477246032E+02  0.30477246032E+02  0.00000000000E+00 0. -1.
        -13    1    1    2    0    0  0.52487180108E+02 -0.14402119730E+02  0.11530811458E+03  0.12750802947E+03  0.10566000000E+00 0.  1.
         13    1    1    2    0    0 -0.44506710940E+02  0.12592284597E+02  0.23059959310E+02  0.51683516110E+02  0.10566000000E+00 0. -1.
          4    1    1    2  501    0 -0.13901616395E+02  0.12597067618E+02 -0.11143676464E+01  0.18793160091E+02  0.00000000000E+00 0.  1.
         -4    1    1    2    0  502  0.59211472263E+01 -0.10787232484E+02  0.33865640123E+03  0.33887989386E+03  0.00000000000E+00 0. -1.
</event>
<event>
 6    1  0.5496865E-006  0.1241871E+03  0.7818608E-02  0.1129998E+00
         21   -1    0    0  501  502  0.00000000000E+00  0.00000000000E+00  0.97767555726E+02  0.97767555726E+02  0.00000000000E+00 0. -1.
         21   -1    0    0  502  503 -0.00000000000E+00 -0.00000000000E+00 -0.91915596720E+03  0.91915596720E+03  0.00000000000E+00 0. -1.
        -13    1    1    2    0    0 -0.81492061163E+01 -0.12991203089E+03 -0.23296466954E+03  0.26686343651E+03  0.10566000000E+00 0.  1.
         13    1    1    2    0    0  0.50082198260E+02 -0.36935747154E+02  0.37567797828E+02  0.72689934640E+02  0.10566000000E+00 0. -1.
          4    1    1    2  501    0 -0.44828183417E+02  0.31181230241E+02 -0.22921463370E+02  0.59221859401E+02  0.00000000000E+00 0.  1.
         -4    1    1    2    0  503  0.28951912739E+01  0.13566654780E+03 -0.60307007639E+03  0.61814829237E+03  0.00000000000E+00 0. -1.
</event>
<event>
 6    1  0.5496865E-006  0.1983192E+03  0.7818608E-02  0.1062982E+00
         21   -1    0    0  501  502  0.00000000000E+00  0.00000000000E+00  0.52190048395E+03  0.52190048395E+03  0.00000000000E+00 0. -1.
         21   -1    0    0  502  503 -0.00000000000E+00 -0.00000000000E+00 -0.42141170474E+03  0.42141170474E+03  0.00000000000E+00 0.  1.
        -13    1    1    2    0    0  0.20126918452E+03 -0.58908241474E+02 -0.24932098795E+03  0.32579200688E+03  0.10566000000E+00 0.  1.
         13    1    1    2    0    0 -0.69252285033E+02  0.18485888715E+03  0.16669379984E+03  0.25837089854E+03  0.10566000000E+00 0. -1.
          4    1    1    2  501    0  0.22268357459E+02  0.10669108308E+02  0.14806510249E+03  0.15010990704E+03  0.00000000000E+00 0.  1.
         -4    1    1    2    0  503 -0.15428525694E+03 -0.13661975399E+03  0.35050864822E+02  0.20903937623E+03  0.00000000000E+00 0. -1.
</event>
<event>
 6    1  0.5496865E-006  0.1066781E+03  0.7818608E-02  0.1153956E+00
         21   -1    0    0  501  502  0.00000000000E+00  0.00000000000E+00  0.19866281170E+03  0.19866281170E+03  0.00000000000E+00 0. -1.
         21   -1    0    0  502  503 -0.00000000000E+00 -0.00000000000E+00 -0.11110588695E+03  0.11110588695E+03  0.00000000000E+00 0.  1.
        -13    1    1    2    0    0 -0.40135793124E+02  0.94525968856E+02 -0.19298066381E+02  0.10449146955E+03  0.10566000000E+00 0.  1.
         13    1    1    2    0    0  0.41899223598E+02 -0.10007012810E+03  0.29760707937E+02  0.11249571715E+03  0.10566000000E+00 0. -1.
          4    1    1    2  501    0 -0.11672176466E+02 -0.80624748604E+01  0.74393510855E+02  0.75733992775E+02  0.00000000000E+00 0.  1.
         -4    1    1    2    0  503  0.99087459914E+01  0.13606634104E+02  0.27007723431E+01  0.17047519175E+02  0.00000000000E+00 0. -1.
</event>
<event>
 6    1  0.5496865E-006  0.4132719E+02  0.7818608E-02  0.1384894E+00
         21   -1    0    0  503  502  0.00000000000E+00  0.00000000000E+00  0.47008839938E+02  0.47008839938E+02  0.00000000000E+00 0.  1.
         21   -1    0    0  501  503 -0.00000000000E+00 -0.00000000000E+00 -0.38641837120E+03  0.38641837120E+03  0.00000000000E+00 0. -1.
        -13    1    1    2    0    0  0.16804550707E+01 -0.16041322184E+02  0.31359039790E+02  0.35263982862E+02  0.10566000000E+00 0.  1.
         13    1    1    2    0    0 -0.44079636456E+02  0.25688093046E+02 -0.28242763055E+03  0.28699872845E+03  0.10566000000E+00 0. -1.
          4    1    1    2  501    0  0.71330269897E+01  0.93806220832E+01 -0.62230975477E+02  0.63336959617E+02  0.00000000000E+00 0.  1.
         -4    1    1    2    0  502  0.35266154396E+02 -0.19027392946E+02 -0.26109965029E+02  0.47827540204E+02  0.00000000000E+00 0. -1.
</event>
<event>
 6    1  0.5496865E-006  0.6680215E+02  0.7818608E-02  0.1235377E+00
         21   -1    0    0  501  502  0.00000000000E+00  0.00000000000E+00  0.56355366960E+02  0.56355366960E+02  0.00000000000E+00 0. -1.
         21   -1    0    0  502  503 -0.00000000000E+00 -0.00000000000E+00 -0.47715721028E+03  0.47715721028E+03  0.00000000000E+00 0.  1.
        -13    1    1    2    0    0  0.60038260944E+02  0.99713525932E+01 -0.25688963452E+03  0.26400059875E+03  0.10566000000E+00 0.  1.
         13    1    1    2    0    0 -0.80769607325E+02  0.37286247142E+02 -0.35888909795E+02  0.95927153110E+02  0.10566000000E+00 0. -1.
          4    1    1    2  501    0  0.34627425565E+02  0.11186100683E+02 -0.50700759366E+01  0.36740891657E+02  0.00000000000E+00 0.  1.
         -4    1    1    2    0  503 -0.13896079184E+02 -0.58443700419E+02 -0.12295322307E+03  0.13684393373E+03  0.00000000000E+00 0. -1.
</event>
<event>
 6    1  0.5496865E-006  0.1202366E+03  0.7818608E-02  0.1134835E+00
         21   -1    0    0  501  502  0.00000000000E+00  0.00000000000E+00  0.35644191778E+03  0.35644191778E+03  0.00000000000E+00 0. -1.
         21   -1    0    0  502  503 -0.00000000000E+00 -0.00000000000E+00 -0.76886236268E+02  0.76886236268E+02  0.00000000000E+00 0. -1.
        -13    1    1    2    0    0  0.14016741095E+02  0.12654334303E+03  0.13017873802E+03  0.18208844470E+03  0.10566000000E+00 0.  1.
         13    1    1    2    0    0 -0.26479541029E+02 -0.11053336466E+03  0.97984713550E+02  0.15006600565E+03  0.10566000000E+00 0. -1.
          4    1    1    2  501    0  0.37464796136E+02 -0.15229911018E+01  0.60237673113E+02  0.70954264942E+02  0.00000000000E+00 0.  1.
         -4    1    1    2    0  503 -0.25001996203E+02 -0.14486987269E+02 -0.88454431685E+01  0.30219438762E+02  0.00000000000E+00 0. -1.
</event>
<event>
 6    1  0.5496865E-006  0.5220487E+02  0.7818608E-02  0.1372039E+00
         21   -1    0    0  501  502  0.00000000000E+00  0.00000000000E+00  0.23034916872E+03  0.23034916872E+03  0.00000000000E+00 0. -1.
         21   -1    0    0  502  503 -0.00000000000E+00 -0.00000000000E+00 -0.24092928331E+03  0.24092928331E+03  0.00000000000E+00 0.  1.
        -13    1    1    2    0    0 -0.32695040240E+02 -0.11763467233E+03 -0.16490627881E+03  0.20518521815E+03  0.10566000000E+00 0.  1.
         13    1    1    2    0    0 -0.96558929373E+01  0.11210766873E+02  0.31974947173E+02  0.35232456245E+02  0.10566000000E+00 0. -1.
          4    1    1    2  501    0  0.14073567665E+02 -0.17937279997E+02  0.98512540437E+02  0.10111642767E+03  0.00000000000E+00 0.  1.
         -4    1    1    2    0  503  0.28277365512E+02  0.12436118545E+03  0.23838676614E+02  0.12974434998E+03  0.00000000000E+00 0. -1.
</event>
<event>
 6    1  0.5496865E-006  0.8453370E+02  0.7818608E-02  0.1200658E+00
         21   -1    0    0  501  502  0.00000000000E+00  0.00000000000E+00  0.68109430795E+03  0.68109430795E+03  0.00000000000E+00 0.  1.
         21   -1    0    0  502  503 -0.00000000000E+00 -0.00000000000E+00 -0.52622132118E+02  0.52622132118E+02  0.00000000000E+00 0.  1.
        -13    1    1    2    0    0  0.13849199348E+02 -0.10646046057E+03  0.13247112418E+03  0.17051170017E+03  0.10566000000E+00 0.  1.
         13    1    1    2    0    0 -0.69610379140E+02  0.12239076086E+02  0.34010657399E+03  0.34737284394E+03  0.10566000000E+00 0. -1.
          4    1    1    2  501    0 -0.11289323809E+02  0.70844160344E+02  0.10985497109E+03  0.13120388165E+03  0.00000000000E+00 0.  1.
         -4    1    1    2    0  503  0.67050503602E+02  0.23377224142E+02  0.46039506568E+02  0.84628014315E+02  0.00000000000E+00 0. -1.
</event>
<event>
 6    1  0.5496865E-006  0.3884709E+02  0.7818608E-02  0.1408184E+00
         21   -1    0    0  501  502  0.00000000000E+00  0.00000000000E+00  0.16157650038E+03  0.16157650038E+03  0.00000000000E+00 0. -1.
         21   -1    0    0  502  503 -0.00000000000E+00 -0.00000000000E+00 -0.11171102874E+03  0.11171102874E+03  0.00000000000E+00 0. -1.
        -13    1    1    2    0    0 -0.18116264204E+01  0.13253934164E+02 -0.45342826368E+01  0.14125142271E+02  0.10566000000E+00 0.  1.
         13    1    1    2    0    0 -0.16963104522E+02 -0.35613371749E+02  0.54233522117E+02  0.67062249049E+02  0.10566000000E+00 0. -1.
          4    1    1    2  501    0  0.24618264292E+01 -0.12853573137E+02  0.91726246006E+02  0.92655162501E+02  0.00000000000E+00 0.  1.
         -4    1    1    2    0  503  0.16312904513E+02  0.35213010722E+02 -0.91560013845E+02  0.99444975303E+02  0.00000000000E+00 0. -1.
</event>
<event>
 6    1  0.5496865E-006  0.7057398E+02  0.7818608E-02  0.1225229E+00
         21   -1    0    0  501  502  0.00000000000E+00  0.00000000000E+00  0.18982381353E+03  0.18982381353E+03  0.00000000000E+00 0. -1.
         21   -1    0    0  502  503 -0.00000000000E+00 -0.00000000000E+00 -0.70959162083E+02  0.70959162083E+02  0.00000000000E+00 0.  1.
        -13    1    1    2    0    0  0.61222923149E+02 -0.65251736582E+02  0.26947496833E+01  0.89517083765E+02  0.10566000000E+00 0.  1.
         13    1    1    2    0    0 -0.63249476095E+02  0.27250939381E+02  0.50312552390E+02  0.85290527115E+02  0.10566000000E+00 0. -1.
          4    1    1    2  501    0  0.17643308237E+02  0.96794663323E+01  0.39199257964E+02  0.44063139005E+02  0.00000000000E+00 0.  1.
         -4    1    1    2    0  503 -0.15616755291E+02  0.28321330868E+02  0.26658091411E+02  0.41912225730E+02  0.00000000000E+00 0. -1.
</event>
<event>
 6    1  0.5496865E-006  0.5461325E+02  0.7818608E-02  0.1280237E+00
         21   -1    0    0  501  502  0.00000000000E+00  0.00000000000E+00  0.23101101860E+02  0.23101101860E+02  0.00000000000E+00 0.  1.
         21   -1    0    0  502  503 -0.00000000000E+00 -0.00000000000E+00 -0.67578097403E+03  0.67578097403E+03  0.00000000000E+00 0. -1.
        -13    1    1    2    0    0 -0.43290970735E+02 -0.37415409721E+02 -0.67443821536E+02  0.88446035859E+02  0.10566000000E+00 0.  1.
         13    1    1    2    0    0  0.43531621736E+02 -0.28476573721E+02 -0.91584175618E+02  0.10532611134E+03  0.10566000000E+00 0. -1.
          4    1    1    2  501    0  0.96025574681E+01  0.57849639497E+02 -0.14756710341E+03  0.15879181311E+03  0.00000000000E+00 0.  1.
         -4    1    1    2    0  503 -0.98432084693E+01  0.80423439461E+01 -0.34608477161E+03  0.34631811559E+03  0.00000000000E+00 0. -1.
</event>
<event>
 6    1  0.5496865E-006  0.6560146E+02  0.7818608E-02  0.1247922E+00
         21   -1    0    0  501  502  0.00000000000E+00  0.00000000000E+00  0.80898257783E+02  0.80898257783E+02  0.00000000000E+00 0.  1.
         21   -1    0    0  502  503 -0.00000000000E+00 -0.00000000000E+00 -0.41701537711E+03  0.41701537711E+03  0.00000000000E+00 0.  1.
        -13    1    1    2    0    0 -0.87765896183E+02 -0.63015006579E+02 -0.10345940127E+03  0.14959145184E+03  0.10566000000E+00 0.  1.
         13    1    1    2    0    0  0.36705183035E+02  0.44598553702E+02 -0.76020494787E+02  0.95474751875E+02  0.10566000000E+00 0. -1.
          4    1    1    2  501    0  0.48723101955E+02  0.33989051696E+02  0.29303457613E+02  0.66241142256E+02  0.00000000000E+00 0.  1.
         -4    1    1    2    0  503  0.23376111939E+01 -0.15572598819E+02 -0.18594068089E+03  0.18660628893E+03  0.00000000000E+00 0. -1.
</event>
<event>
 6    1  0.5496865E-006  0.9027659E+02  0.7818608E-02  0.1181730E+00
         21   -1    0    0  501  502  0.00000000000E+00  0.00000000000E+00  0.10374773355E+03  0.10374773355E+03  0.00000000000E+00 0.  1.
         21   -1    0    0  502  503 -0.00000000000E+00 -0.00000000000E+00 -0.24306618245E+03  0.24306618245E+03  0.00000000000E+00 0.  1.
        -13    1    1    2    0    0  0.39833988369E+02  0.11183278797E+03 -0.70610407024E+02  0.13812733198E+03  0.10566000000E+00 0.  1.
         13    1    1    2    0    0 -0.28139632850E+02 -0.62281145278E+02 -0.28605774598E+02  0.74088335779E+02  0.10566000000E+00 0. -1.
          4    1    1    2  501    0  0.27493395425E+01 -0.35242527637E+02  0.39168653623E+02  0.52761520531E+02  0.00000000000E+00 0.  1.
         -4    1    1    2    0  503 -0.14443695061E+02 -0.14309115057E+02 -0.79270920903E+02  0.81836727705E+02  0.00000000000E+00 0. -1.
</event>
<event>
 6    1  0.5496865E-006  0.1197790E+03  0.7818608E-02  0.1135435E+00
         21   -1    0    0  503  502  0.00000000000E+00  0.00000000000E+00  0.10632079621E+03  0.10632079621E+03  0.00000000000E+00 0. -1.
         21   -1    0    0  501  503 -0.00000000000E+00 -0.00000000000E+00 -0.71815144547E+03  0.71815144547E+03  0.00000000000E+00 0. -1.
        -13    1    1    2    0    0  0.60274110741E+02  0.10838408982E+03 -0.23396257711E+03  0.26479912765E+03  0.10566000000E+00 0.  1.
         13    1    1    2    0    0 -0.23014386624E+02 -0.11053730858E+03 -0.43319373381E+03  0.44766614877E+03  0.10566000000E+00 0. -1.
          4    1    1    2  501    0 -0.20652437606E+02 -0.97298811005E+01 -0.22195799709E+02  0.31840968736E+02  0.00000000000E+00 0.  1.
         -4    1    1    2    0  502 -0.16607286511E+02  0.11883099858E+02  0.77521461368E+02  0.80165996533E+02  0.00000000000E+00 0. -1.
</event>
<event>
 6    1  0.5496865E-006  0.1441973E+03  0.7818608E-02  0.1140363E+00
         21   -1    0    0  501  502  0.00000000000E+00  0.00000000000E+00  0.31585664287E+03  0.31585664287E+03  0.00000000000E+00 0. -1.
         21   -1    0    0  502  503 -0.00000000000E+00 -0.00000000000E+00 -0.19372648354E+03  0.19372648354E+03  0.00000000000E+00 0. -1.
        -13    1    1    2    0    0 -0.40486902634E+02 -0.44411065563E+02 -0.43545207909E+02  0.74214070938E+02  0.10566000000E+00 0.  1.
         13    1    1    2    0    0  0.16844303700E+03  0.67873082611E+02  0.18032446710E+03  0.25592330229E+03  0.10566000000E+00 0. -1.
          4    1    1    2  501    0  0.96290366452E+01 -0.21074849211E+02  0.27091462604E+02  0.35648491722E+02  0.00000000000E+00 0.  1.
         -4    1    1    2    0  503 -0.13758517101E+03 -0.23871678367E+01 -0.41740562461E+02  0.14379726147E+03  0.00000000000E+00 0. -1.
</event>
<event>
 6    1  0.5496865E-006  0.1300393E+03  0.7818608E-02  0.1122654E+00
         21   -1    0    0  503  502  0.00000000000E+00  0.00000000000E+00  0.36904050870E+03  0.36904050870E+03  0.00000000000E+00 0. -1.
         21   -1    0    0  501  503 -0.00000000000E+00 -0.00000000000E+00 -0.27967611104E+03  0.27967611104E+03  0.00000000000E+00 0. -1.
        -13    1    1    2    0    0  0.98276383709E+02 -0.63134322803E+02 -0.90833486999E+02  0.14796933410E+03  0.10566000000E+00 0.  1.
         13    1    1    2    0    0 -0.10560079631E+03  0.11283260967E+03 -0.74049047700E+02  0.17136510326E+03  0.10566000000E+00 0. -1.
          4    1    1    2  501    0 -0.81160859513E+02 -0.39492810249E+02  0.42704218837E+02  0.99851977871E+02  0.00000000000E+00 0.  1.
         -4    1    1    2    0  502  0.88485272116E+02 -0.10205476621E+02  0.21154271352E+03  0.22953020450E+03  0.00000000000E+00 0. -1.
</event>
<event>
 6    1  0.5496865E-006  0.6098293E+02  0.7818608E-02  0.1252583E+00
         21   -1    0    0  503  502  0.00000000000E+00  0.00000000000E+00  0.12590263767E+03  0.12590263767E+03  0.00000000000E+00 0. -1.
         21   -1    0    0  501  503 -0.00000000000E+00 -0.00000000000E+00 -0.22424794233E+03  0.22424794233E+03  0.00000000000E+00 0. -1.
        -13    1    1    2    0    0  0.61259848763E+02 -0.36602957469E+02  0.87761950337E+02  0.11311373328E+03  0.10566000000E+00 0.  1.
         13    1    1    2    0    0 -0.45285993333E+02 -0.22190726505E+02 -0.10162125686E+03  0.11344664184E+03  0.10566000000E+00 0. -1.
          4    1    1    2  501    0 -0.20934553084E+02  0.20894051919E+02 -0.79770756504E+02  0.85077555863E+02  0.00000000000E+00 0.  1.
         -4    1    1    2    0  502  0.49606976540E+01  0.37899632054E+02 -0.47152416380E+01  0.38512649023E+02  0.00000000000E+00 0. -1.
</event>
<event>
 6    1  0.5496865E-006  0.1081164E+03  0.7818608E-02  0.1160255E+00
         21   -1    0    0  503  502  0.00000000000E+00  0.00000000000E+00  0.53425857525E+03  0.53425857525E+03  0.00000000000E+00 0. -1.
         21   -1    0    0  501  503 -0.00000000000E+00 -0.00000000000E+00 -0.25388456982E+03  0.25388456982E+03  0.00000000000E+00 0. -1.
        -13    1    1    2    0    0 -0.74198404291E+02 -0.25472312718E+02  0.49945595686E+02  0.92999008634E+02  0.10566000000E+00 0.  1.
         13    1    1    2    0    0  0.14921975002E+03 -0.67088670006E+02 -0.14243354199E+03  0.21692106510E+03  0.10566000000E+00 0. -1.
          4    1    1    2  501    0 -0.64058094261E+02  0.80649306461E+02 -0.19983932240E+01  0.10301331782E+03  0.00000000000E+00 0.  1.
         -4    1    1    2    0  502 -0.10963251464E+02  0.11911676262E+02  0.37486034495E+03  0.37520975351E+03  0.00000000000E+00 0. -1.
</event>
<event>
 6    1  0.5496865E-006  0.2246304E+03  0.7818608E-02  0.1044447E+00
         21   -1    0    0  501  502  0.00000000000E+00  0.00000000000E+00  0.37089145581E+03  0.37089145581E+03  0.00000000000E+00 0. -1.
         21   -1    0    0  502  503 -0.00000000000E+00 -0.00000000000E+00 -0.23669444694E+03  0.23669444694E+03  0.00000000000E+00 0.  1.
        -13    1    1    2    0    0 -0.14958658298E+03 -0.10528170906E+03  0.13468178726E+03  0.22715540728E+03  0.10566000000E+00 0.  1.
         13    1    1    2    0    0  0.18711015141E+03  0.19773749848E+03 -0.11139227935E+02  0.27245994316E+03  0.10566000000E+00 0. -1.
          4    1    1    2  501    0 -0.32217135895E+02 -0.40437687325E+02 -0.82769547007E+01  0.52360847783E+02  0.00000000000E+00 0.  1.
         -4    1    1    2    0  503 -0.53064325343E+01 -0.52018102094E+02  0.18931404245E+02  0.55609704534E+02  0.00000000000E+00 0. -1.
</event>
<event>
 6    1  0.5496865E-006  0.8189946E+02  0.7818608E-02  0.1198564E+00
         21   -1    0    0  503  502  0.00000000000E+00  0.00000000000E+00  0.14996128740E+03  0.14996128740E+03  0.00000000000E+00 0.  1.
         21   -1    0    0  501  503 -0.00000000000E+00 -0.00000000000E+00 -0.25992124677E+03  0.25992124677E+03  0.00000000000E+00 0. -1.
        -13    1    1    2    0    0  0.13234134802E+02  0.90854588990E+02  0.40028954694E+02  0.10016000720E+03  0.10566000000E+00 0.  1.
         13    1    1    2    0    0 -0.12104023761E+02 -0.99887273017E+02 -0.60203862095E+02  0.11725395890E+03  0.10566000000E+00 0. -1.
          4    1    1    2  501    0 -0.66225181620E+01  0.33153281217E+02 -0.13595139368E+03  0.14009203848E+03  0.00000000000E+00 0.  1.
         -4    1    1    2    0  502  0.54924071210E+01 -0.24120597190E+02  0.46166341713E+02  0.52376529590E+02  0.00000000000E+00 0. -1.
</event>
<event>
 6    1  0.5496865E-006  0.9775332E+02  0.7818608E-02  0.1168327E+00
         21   -1    0    0  503  502  0.00000000000E+00  0.00000000000E+00  0.41835112091E+03  0.41835112091E+03  0.00000000000E+00 0.  1.
         21   -1    0    0  501  503 -0.00000000000E+00 -0.00000000000E+00 -0.45124038196E+02  0.45124038196E+02  0.00000000000E+00 0. -1.
        -13    1    1    2    0    0 -0.97783786718E+02 -0.41267603996E+02  0.19678051881E+03  0.22357832595E+03  0.10566000000E+00 0.  1.
         13    1    1    2    0    0  0.79884556040E+02  0.21919321170E+02  0.28699450291E+02  0.87667944799E+02  0.10566000000E+00 0. -1.
          4    1    1    2  501    0  0.20333295511E+02  0.42377884091E+01  0.98164275472E+02  0.10033756393E+03  0.00000000000E+00 0.  1.
         -4    1    1    2    0  502 -0.24340648337E+01  0.15110494417E+02  0.49582838140E+02  0.51891324431E+02  0.00000000000E+00 0. -1.
</event>
<event>
 6    1  0.5496865E-006  0.2704699E+03  0.7818608E-02  0.1020299E+00
         21   -1    0    0  503  502  0.00000000000E+00  0.00000000000E+00  0.19984512965E+03  0.19984512965E+03  0.00000000000E+00 0.  1.
         21   -1    0    0  501  503 -0.00000000000E+00 -0.00000000000E+00 -0.10276216851E+04  0.10276216851E+04  0.00000000000E+00 0. -1.
        -13    1    1    2    0    0 -0.47203779692E+02 -0.28226937473E+03 -0.17681048825E+03  0.33640177860E+03  0.10566000000E+00 0.  1.
         13    1    1    2    0    0  0.15138469663E+03  0.21560130774E+03 -0.64547609546E+03  0.69716615756E+03  0.10566000000E+00 0. -1.
          4    1    1    2  501    0 -0.10748875664E+03  0.54663419369E+02 -0.62305612954E+02  0.13573471047E+03  0.00000000000E+00 0.  1.
         -4    1    1    2    0  502  0.33078397072E+01  0.12004647619E+02  0.56815641202E+02  0.58164168121E+02  0.00000000000E+00 0. -1.
</event>
<event>
 6    1  0.5496865E-006  0.2423016E+03  0.7818608E-02  0.1034461E+00
         21   -1    0    0  503  502  0.00000000000E+00  0.00000000000E+00  0.88290951165E+03  0.88290951165E+03  0.00000000000E+00 0.  1.
         21   -1    0    0  501  503 -0.00000000000E+00 -0.00000000000E+00 -0.26707611980E+03  0.26707611980E+03  0.00000000000E+00 0. -1.
        -13    1    1    2    0    0  0.22008935801E+03 -0.13973179266E+03  0.56250229373E+03  0.61997833914E+03  0.10566000000E+00 0.  1.
         13    1    1    2    0    0 -0.12354674093E+03  0.14276666596E+03 -0.13705783603E+03  0.23330447849E+03  0.10566000000E+00 0. -1.
          4    1    1    2  501    0 -0.86315897394E+02 -0.78807714677E+01 -0.17568649388E+02  0.88437538089E+02  0.00000000000E+00 0.  1.
         -4    1    1    2    0  502 -0.10226719683E+02  0.48458981722E+01  0.20795758354E+03  0.20826527574E+03  0.00000000000E+00 0. -1.
</event>
<event>
 6    1  0.5496865E-006  0.2136296E+02  0.7818608E-02  0.1491734E+00
         21   -1    0    0  503  502  0.00000000000E+00  0.00000000000E+00  0.18689968008E+02  0.18689968008E+02  0.00000000000E+00 0.  1.
         21   -1    0    0  501  503 -0.00000000000E+00 -0.00000000000E+00 -0.18587263507E+03  0.18587263507E+03  0.00000000000E+00 0. -1.
        -13    1    1    2    0    0 -0.24362167310E+01 -0.13111067672E+02  0.38582890535E+01  0.13882824133E+02  0.10566000000E+00 0.  1.
         13    1    1    2    0    0  0.30054870455E+01  0.29719542136E+02 -0.13911513268E+03  0.14228603390E+03  0.10566000000E+00 0. -1.
          4    1    1    2  501    0  0.11021713454E+02 -0.10466521432E+02 -0.31833140538E+02  0.35275700912E+02  0.00000000000E+00 0.  1.
         -4    1    1    2    0  502 -0.11590983768E+02 -0.61419530325E+01 -0.92682894439E-01  0.13118044133E+02  0.00000000000E+00 0. -1.
</event>
<event>
 6    1  0.5496865E-006  0.9127311E+02  0.7818608E-02  0.1215506E+00
         21   -1    0    0  503  502  0.00000000000E+00  0.00000000000E+00  0.29138038167E+03  0.29138038167E+03  0.00000000000E+00 0.  1.
         21   -1    0    0  501  503 -0.00000000000E+00 -0.00000000000E+00 -0.20150273330E+03  0.20150273330E+03  0.00000000000E+00 0. -1.
        -13    1    1    2    0    0 -0.54270178516E+02  0.16360847174E+02  0.26534348595E+02  0.62586040104E+02  0.10566000000E+00 0.  1.
         13    1    1    2    0    0  0.38239228321E+02 -0.15778516082E+03 -0.78295030446E+02  0.18024571705E+03  0.10566000000E+00 0. -1.
          4    1    1    2  501    0  0.32234025311E+01  0.13293754488E+03  0.28656093022E+02  0.13602923520E+03  0.00000000000E+00 0.  1.
         -4    1    1    2    0  502  0.12807547664E+02  0.84867687716E+01  0.11298223721E+03  0.11402212261E+03  0.00000000000E+00 0. -1.
</event>
<event>
 6    1  0.5496865E-006  0.2300165E+03  0.7818608E-02  0.1041302E+00
         21   -1    0    0  503  502  0.00000000000E+00  0.00000000000E+00  0.90131491438E+02  0.90131491438E+02  0.00000000000E+00 0.  1.
         21   -1    0    0  501  503 -0.00000000000E+00 -0.00000000000E+00 -0.74203029370E+03  0.74203029370E+03  0.00000000000E+00 0. -1.
        -13    1    1    2    0    0  0.22805620975E+03 -0.28484423651E+02 -0.20478088333E+03  0.30782498036E+03  0.10566000000E+00 0.  1.
         13    1    1    2    0    0 -0.23123797967E+03  0.36908907434E+02 -0.38468491985E+03  0.45035071823E+03  0.10566000000E+00 0. -1.
          4    1    1    2  501    0  0.77415832584E+01 -0.19434400080E+02 -0.57321086358E+02  0.61019136007E+02  0.00000000000E+00 0.  1.
         -4    1    1    2    0  502 -0.45598133307E+01  0.11009916298E+02 -0.51119127323E+01  0.12966950539E+02  0.00000000000E+00 0. -1.
</event>
<event>
 6    1  0.5496865E-006  0.2295062E+03  0.7818608E-02  0.1041596E+00
         21   -1    0    0  501  502  0.00000000000E+00  0.00000000000E+00  0.11597485218E+03  0.11597485218E+03  0.00000000000E+00 0. -1.
         21   -1    0    0  502  503 -0.00000000000E+00 -0.00000000000E+00 -0.23000191257E+04  0.23000191257E+04  0.00000000000E+00 0.  1.
        -13    1    1    2    0    0  0.31171003745E+03 -0.71238811313E+02 -0.11773808115E+04  0.12200261072E+04  0.10566000000E+00 0.  1.
         13    1    1    2    0    0 -0.16978911779E+03 -0.31256242495E+02 -0.78529238624E+03  0.80404567051E+03  0.10566000000E+00 0. -1.
          4    1    1    2  501    0 -0.30377598745E+02  0.99860708719E+01  0.64179894133E+02  0.71704804078E+02  0.00000000000E+00 0.  1.
         -4    1    1    2    0  503 -0.11154332092E+03  0.92508982936E+02 -0.28555096987E+03  0.32021739609E+03  0.00000000000E+00 0. -1.
</event>
<event>
 6    1  0.5496865E-006  0.1263495E+03  0.7818608E-02  0.1127097E+00
         21   -1    0    0  503  502  0.00000000000E+00  0.00000000000E+00  0.80393660548E+02  0.80393660548E+02  0.00000000000E+00 0.  1.
         21   -1    0    0  501  503 -0.00000000000E+00 -0.00000000000E+00 -0.56832323892E+03  0.56832323892E+03  0.00000000000E+00 0. -1.
        -13    1    1    2    0    0 -0.86475571692E+02 -0.28561496028E+02 -0.13599632481E+03  0.16367282939E+03  0.10566000000E+00 0.  1.
         13    1    1    2    0    0  0.16770498761E+03  0.86052122050E+02 -0.23706659320E+03  0.30287045309E+03  0.10566000000E+00 0. -1.
          4    1    1    2  501    0 -0.72622203353E+02 -0.66565432044E+02 -0.12963572209E+03  0.16282002826E+03  0.00000000000E+00 0.  1.
         -4    1    1    2    0  502 -0.86072125648E+01  0.90748060221E+01  0.14769061722E+02  0.19353588727E+02  0.00000000000E+00 0. -1.
</event>
<event>
 6    1  0.5496865E-006  0.4075884E+02  0.7818608E-02  0.1334782E+00
         21   -1    0    0  503  502  0.00000000000E+00  0.00000000000E+00  0.74289802041E+02  0.74289802041E+02  0.00000000000E+00 0. -1.
         21   -1    0    0  501  503 -0.00000000000E+00 -0.00000000000E+00 -0.10660516015E+03  0.10660516015E+03  0.00000000000E+00 0. -1.
        -13    1    1    2    0    0 -0.39743947615E+02  0.14150262577E+02 -0.10491701539E+02  0.43472960196E+02  0.10566000000E+00 0.  1.
         13    1    1    2    0    0  0.40689511640E+02 -0.21253532175E+02  0.41658912643E+01  0.46094628770E+02  0.10566000000E+00 0. -1.
          4    1    1    2  501    0  0.13951669059E+02  0.60526505313E+01 -0.55880668266E+02  0.57913148195E+02  0.00000000000E+00 0.  1.
         -4    1    1    2    0  502 -0.14897233083E+02  0.10506190671E+01  0.29891120429E+02  0.33414225032E+02  0.00000000000E+00 0. -1.
</event>
<event>
 6    1  0.5496865E-006  0.2654989E+03  0.7818608E-02  0.1022660E+00
         21   -1    0    0  501  502  0.00000000000E+00  0.00000000000E+00  0.15848792994E+04  0.15848792994E+04  0.00000000000E+00 0. -1.
         21   -1    0    0  502  503 -0.00000000000E+00 -0.00000000000E+00 -0.20208417410E+03  0.20208417410E+03  0.00000000000E+00 0.  1.
        -13    1    1    2    0    0 -0.20208150516E+03 -0.15517486128E+03  0.51678827922E+03  0.57618253098E+03  0.10566000000E+00 0.  1.
         13    1    1    2    0    0  0.16364912501E+03  0.22399387527E+03 -0.36733717481E+02  0.27982792827E+03  0.10566000000E+00 0. -1.
          4    1    1    2  501    0 -0.18272167861E+02 -0.25361349337E+01  0.78083961510E+03  0.78105749379E+03  0.00000000000E+00 0.  1.
         -4    1    1    2    0  503  0.56704548011E+02 -0.66282879055E+02  0.12190094851E+03  0.14989552051E+03  0.00000000000E+00 0. -1.
</event>
<event>
 6    1  0.5496865E-006  0.8103082E+02  0.7818608E-02  0.1200436E+00
         21   -1    0    0  501  502  0.00000000000E+00  0.00000000000E+00  0.51604994411E+02  0.51604994411E+02  0.00000000000E+00 0. -1.
         21   -1    0    0  502  503 -0.00000000000E+00 -0.00000000000E+00 -0.62841611346E+03  0.62841611346E+03  0.00000000000E+00 0. -1.
        -13    1    1    2    0    0  0.28679282344E+01  0.10267656473E+03 -0.25236268573E+03  0.27246584790E+03  0.10566000000E+00 0.  1.
         13    1    1    2    0    0 -0.15686888073E+02 -0.81215770372E+02 -0.23521859984E+02  0.85996330594E+02  0.10566000000E+00 0. -1.
          4    1    1    2  501    0 -0.13971404417E+02  0.11827833700E+02 -0.71287672248E+00  0.18319551977E+02  0.00000000000E+00 0.  1.
         -4    1    1    2    0  503  0.26790364256E+02 -0.33288628055E+02 -0.30021369661E+03  0.30323937740E+03  0.00000000000E+00 0. -1.
</event>
<event>
 6    1  0.5496865E-006  0.1106699E+03  0.7818608E-02  0.1163380E+00
         21   -1    0    0  501  502  0.00000000000E+00  0.00000000000E+00  0.11121569167E+03  0.11121569167E+03  0.00000000000E+00 0. -1.
         21   -1    0    0  502  503 -0.00000000000E+00 -0.00000000000E+00 -0.48108299721E+03  0.48108299721E+03  0.00000000000E+00 0. -1.
        -13    1    1    2    0    0  0.71041012662E+02 -0.65169337614E+01 -0.16918614109E+03  0.18361170280E+03  0.10566000000E+00 0.  1.
         13    1    1    2    0    0 -0.10735568213E+03 -0.61583385598E+02 -0.12935320139E+03  0.17902518745E+03  0.10566000000E+00 0. -1.
          4    1    1    2  501    0 -0.62360161657E+02  0.43274638364E+02  0.34037566916E+02  0.83186778090E+02  0.00000000000E+00 0.  1.
         -4    1    1    2    0  503  0.98674831130E+02  0.24825680996E+02 -0.10536552998E+03  0.14647502054E+03  0.00000000000E+00 0. -1.
</event>
<event>
 6    1  0.5496865E-006  0.1900689E+03  0.7818608E-02  0.1067166E+00
         21   -1    0    0  503  502  0.00000000000E+00  0.00000000000E+00  0.25137292761E+03  0.25137292761E+03  0.00000000000E+00 0.  1.
         21   -1    0    0  501  503 -0.00000000000E+00 -0.00000000000E+00 -0.73789561649E+03  0.73789561649E+03  0.00000000000E+00 0.  1.
        -13    1    1    2    0    0  0.13807183427E+03  0.10790414704E+03  0.15705036915E+03  0.23531248581E+03  0.10566000000E+00 0.  1.
         13    1    1    2    0    0 -0.15950217756E+03 -0.13766754815E+03 -0.17891868866E+03  0.27641491779E+03  0.10566000000E+00 0. -1.
          4    1    1    2  501    0  0.17232649307E+02  0.14020076627E+02 -0.46008248912E+03  0.46061852280E+03  0.00000000000E+00 0.  1.
         -4    1    1    2    0  502  0.41976939880E+01  0.15743324483E+02 -0.45718802522E+01  0.16922617694E+02  0.00000000000E+00 0. -1.
</event>
<event>
 6    1  0.5496865E-006  0.6267126E+02  0.7818608E-02  0.1247378E+00
         21   -1    0    0  501  502  0.00000000000E+00  0.00000000000E+00  0.39833251083E+02  0.39833251083E+02  0.00000000000E+00 0. -1.
         21   -1    0    0  502  503 -0.00000000000E+00 -0.00000000000E+00 -0.28519618274E+03  0.28519618274E+03  0.00000000000E+00 0.  1.
        -13    1    1    2    0    0 -0.15354080845E+02 -0.48758437253E+02 -0.15375624363E+03  0.16203125199E+03  0.10566000000E+00 0.  1.
         13    1    1    2    0    0  0.12491415104E+02  0.78183530568E+02 -0.34176180401E+02  0.86236432987E+02  0.10566000000E+00 0. -1.
          4    1    1    2  501    0 -0.79904674029E+01 -0.15482754682E+02 -0.80271529013E+00  0.17441548489E+02  0.00000000000E+00 0.  1.
         -4    1    1    2    0  503  0.10853133144E+02 -0.13942338634E+02 -0.56627792329E+02  0.59320200351E+02  0.00000000000E+00 0. -1.
</event>
<event>
 6    1  0.5496865E-006  0.2848687E+02  0.7818608E-02  0.1417486E+00
         21   -1    0    0  501  502  0.00000000000E+00  0.00000000000E+00  0.30846547385E+03  0.30846547385E+03  0.00000000000E+00 0. -1.
         21   -1    0    0  502  503 -0.00000000000E+00 -0.00000000000E+00 -0.18865567980E+02  0.18865567980E+02  0.00000000000E+00 0. -1.
        -13    1    1    2    0    0  0.37720640384E+02 -0.80307174232E+01  0.16559479632E+03  0.17002642990E+03  0.10566000000E+00 0.  1.
         13    1    1    2    0    0 -0.19351793681E+02  0.72093988117E+01  0.60568997213E+02  0.63992827233E+02  0.10566000000E+00 0. -1.
          4    1    1    2  501    0 -0.30836462656E+01  0.11030633561E+02  0.72090825161E+02  0.72995005469E+02  0.00000000000E+00 0.  1.
         -4    1    1    2    0  503 -0.15285200437E+02 -0.10209314950E+02 -0.86547128213E+01  0.20316779227E+02  0.00000000000E+00 0. -1.
</event>
<event>
 6    1  0.5496865E-006  0.1891862E+03  0.7818608E-02  0.1067813E+00
         21   -1    0    0  503  502  0.00000000000E+00  0.00000000000E+00  0.17310528249E+03  0.17310528249E+03  0.00000000000E+00 0.  1.
         21   -1    0    0  501  503 -0.00000000000E+00 -0.00000000000E+00 -0.77156712181E+03  0.77156712181E+03  0.00000000000E+00 0.  1.
        -13    1    1    2    0    0  0.63436034754E+02 -0.18979572672E+03  0.13296880368E+02  0.20055763904E+03  0.10566000000E+00 0.  1.
         13    1    1    2    0    0 -0.96788904162E+02  0.15049429929E+03 -0.19656271075E+03  0.26580732968E+03  0.10566000000E+00 0. -1.
          4    1    1    2  501    0  0.10926685468E+02  0.20455925076E+02 -0.43958137090E+03  0.44019270663E+03  0.00000000000E+00 0.  1.
         -4    1    1    2    0  502  0.22426183940E+02  0.18845502350E+02  0.24385361964E+02  0.38114728952E+02  0.00000000000E+00 0. -1.
</event>
<event>
 6    1  0.5496865E-006  0.4511864E+02  0.7818608E-02  0.1320964E+00
         21   -1    0    0  503  502  0.00000000000E+00  0.00000000000E+00  0.61007644246E+03  0.61007644246E+03  0.00000000000E+00 0.  1.
         21   -1    0    0  501  503 -0.00000000000E+00 -0.00000000000E+00 -0.57937640300E+02  0.57937640300E+02  0.00000000000E+00 0.  1.
        -13    1    1    2    0    0 -0.22626704831E+02 -0.94039074276E+01  0.78139077341E+02  0.81890950771E+02  0.10566000000E+00 0.  1.
         13    1    1    2    0    0  0.67587938531E+02 -0.23745711434E+02  0.89594552019E+02  0.11471348291E+03  0.10566000000E+00 0. -1.
          4    1    1    2  501    0 -0.19761763070E+01  0.38801374449E+02 -0.33476616444E+02  0.51284849424E+02  0.00000000000E+00 0.  1.
         -4    1    1    2    0  502 -0.42985057393E+02 -0.56517555872E+01  0.41788178924E+03  0.42012479965E+03  0.00000000000E+00 0. -1.
</event>
<event>
 6    1  0.5496865E-006  0.3295055E+02  0.7818608E-02  0.1382673E+00
         21   -1    0    0  503  502  0.00000000000E+00  0.00000000000E+00  0.16777668630E+03  0.16777668630E+03  0.00000000000E+00 0.  1.
         21   -1    0    0  501  503 -0.00000000000E+00 -0.00000000000E+00 -0.20155306714E+03  0.20155306714E+03  0.00000000000E+00 0.  1.
        -13    1    1    2    0    0 -0.14912935787E+02 -0.38113351509E+02  0.10124262438E+03  0.10920212165E+03  0.10566000000E+00 0.  1.
         13    1    1    2    0    0 -0.36119280302E+01  0.32744738386E+02 -0.72742890700E+02  0.79854888563E+02  0.10566000000E+00 0. -1.
          4    1    1    2  501    0  0.22732403658E+02 -0.58464448686E+01 -0.11951287300E+03  0.12179601761E+03  0.00000000000E+00 0.  1.
         -4    1    1    2    0  502 -0.42075398412E+01  0.11215057992E+02  0.57236758482E+02  0.58476725616E+02  0.00000000000E+00 0. -1.
</event>
<event>
 6    1  0.5496865E-006  0.2289654E+03  0.7818608E-02  0.1094196E+00
         21   -1    0    0  501  502  0.00000000000E+00  0.00000000000E+00  0.51567183669E+03  0.51567183669E+03  0.00000000000E+00 0. -1.
         21   -1    0    0  502  503 -0.00000000000E+00 -0.00000000000E+00 -0.57959170810E+03  0.57959170810E+03  0.00000000000E+00 0.  1.
        -13    1    1    2    0    0 -0.24527561147E+02 -0.44781558655E+02 -0.28588931950E+03  0.29041298769E+03  0.10566000000E+00 0.  1.
         13    1    1    2    0    0  0.16449205014E+03 -0.15557661216E+03  0.27210689612E+03  0.35398289633E+03  0.10566000000E+00 0. -1.
          4    1    1    2  501    0  0.71510830454E+01  0.24050960305E+02  0.14645161277E+03  0.14858553618E+03  0.00000000000E+00 0.  1.
         -4    1    1    2    0  503 -0.14711557204E+03  0.17630721051E+03 -0.19658906081E+03  0.30228212458E+03  0.00000000000E+00 0. -1.
</event>
<event>
 6    1  0.5496865E-006  0.1059244E+03  0.7818608E-02  0.1161636E+00
         21   -1    0    0  501  502  0.00000000000E+00  0.00000000000E+00  0.12313177569E+03  0.12313177569E+03  0.00000000000E+00 0.  1.
         21   -1    0    0  502  503 -0.00000000000E+00 -0.00000000000E+00 -0.48454922826E+03  0.48454922826E+03  0.00000000000E+00 0.  1.
        -13    1    1    2    0    0 -0.10499958839E+02  0.10504402923E+03 -0.28172025904E+03  0.30085014996E+03  0.10566000000E+00 0.  1.
         13    1    1    2    0    0  0.88917524502E+02 -0.53268292601E+02 -0.17438515990E+02  0.10510922968E+03  0.10566000000E+00 0. -1.
          4    1    1    2  501    0 -0.99784765390E+02 -0.40181985442E+02  0.25588472261E+02  0.11057287764E+03  0.00000000000E+00 0.  1.
         -4    1    1    2    0  503  0.21367199726E+02 -0.11593751192E+02 -0.87847149799E+02  0.91148746665E+02  0.00000000000E+00 0. -1.
</event>
<event>
 6    1  0.5496865E-006  0.2482401E+02  0.7818608E-02  0.1452051E+00
         21   -1    0    0  503  502  0.00000000000E+00  0.00000000000E+00  0.57352986723E+02  0.57352986723E+02  0.00000000000E+00 0. -1.
         21   -1    0    0  501  503 -0.00000000000E+00 -0.00000000000E+00 -0.20830820930E+03  0.20830820930E+03  0.00000000000E+00 0. -1.
        -13    1    1    2    0    0 -0.21392361699E+02 -0.19433123853E+02 -0.21948731163E+02  0.36291009981E+02  0.10566000000E+00 0.  1.
         13    1    1    2    0    0 -0.11976621419E+02  0.24058092791E+02 -0.12199354650E+03  0.12491864489E+03  0.10566000000E+00 0. -1.
          4    1    1    2  501    0  0.10006208686E+02  0.31982112760E+01 -0.52058786427E+02  0.53108097423E+02  0.00000000000E+00 0.  1.
         -4    1    1    2    0  502  0.23362774432E+02 -0.78231802144E+01  0.45045841505E+02  0.51343443737E+02  0.00000000000E+00 0. -1.
</event>
<event>
 6    1  0.5496865E-006  0.9515062E+02  0.7818608E-02  0.1172838E+00
         21   -1    0    0  503  502  0.00000000000E+00  0.00000000000E+00  0.10031122474E+03  0.10031122474E+03  0.00000000000E+00 0.  1.
         21   -1    0    0  501  503 -0.00000000000E+00 -0.00000000000E+00 -0.42736164410E+03  0.42736164410E+03  0.00000000000E+00 0. -1.
        -13    1    1    2    0    0  0.46652206873E+02 -0.52148561098E+02  0.47997604446E+02  0.84850940050E+02  0.10566000000E+00 0.  1.
         13    1    1    2    0    0 -0.97028783516E+02  0.89596414886E+02 -0.26394464555E+03  0.29514215129E+03  0.10566000000E+00 0. -1.
          4    1    1    2  501    0  0.39528298262E+02 -0.12653174174E+02 -0.11316641212E+03  0.12053723911E+03  0.00000000000E+00 0.  1.
         -4    1    1    2    0  502  0.10848278380E+02 -0.24794679613E+02  0.20630338681E+01  0.27142538380E+02  0.00000000000E+00 0. -1.
</event>
<event>
 6    1  0.5496865E-006  0.3942429E+03  0.7818608E-02  0.9745821E-01
         21   -1    0    0  501  502  0.00000000000E+00  0.00000000000E+00  0.66268097857E+03  0.66268097857E+03  0.00000000000E+00 0.  1.
         21   -1    0    0  502  503 -0.00000000000E+00 -0.00000000000E+00 -0.10643586997E+04  0.10643586997E+04  0.00000000000E+00 0.  1.
        -13    1    1    2    0    0 -0.32908403694E+03  0.14543626515E+03 -0.51708157894E+03  0.62993760091E+03  0.10566000000E+00 0.  1.
         13    1    1    2    0    0  0.29824441847E+03 -0.29903055499E+03 -0.15631919211E+03  0.45033843602E+03  0.10566000000E+00 0. -1.
          4    1    1    2  501    0  0.18871914945E+02  0.27706476514E+02  0.43720950848E+03  0.43849281901E+03  0.00000000000E+00 0.  1.
         -4    1    1    2    0  503  0.11967703526E+02  0.12588781332E+03 -0.16548645856E+03  0.20827082234E+03  0.00000000000E+00 0. -1.
</event>
<event>
 6    1  0.5496865E-006  0.9897772E+02  0.7818608E-02  0.1166258E+00
         21   -1    0    0  503  502  0.00000000000E+00  0.00000000000E+00  0.20859198822E+03  0.20859198822E+03  0.00000000000E+00 0. -1.
         21   -1    0    0  501  503 -0.00000000000E+00 -0.00000000000E+00 -0.45505209558E+03  0.45505209558E+03  0.00000000000E+00 0. -1.
        -13    1    1    2    0    0  0.10657948612E+03  0.28511136718E+02 -0.27030204049E+02  0.11359011785E+03  0.10566000000E+00 0.  1.
         13    1    1    2    0    0 -0.10388804033E+03 -0.24351071627E+02 -0.21935542438E+03  0.24393136941E+03  0.10566000000E+00 0. -1.
          4    1    1    2  501    0  0.13651421820E+02  0.47246547545E+01 -0.15218992299E+03  0.15287398843E+03  0.00000000000E+00 0.  1.
         -4    1    1    2    0  502 -0.16342867609E+02 -0.88847198454E+01  0.15211544406E+03  0.15324860812E+03  0.00000000000E+00 0. -1.
</event>
<event>
 6    1  0.5496865E-006  0.1111394E+03  0.7818608E-02  0.1147335E+00
         21   -1    0    0  501  502  0.00000000000E+00  0.00000000000E+00  0.49710164043E+03  0.49710164043E+03  0.00000000000E+00 0. -1.
         21   -1    0    0  502  503 -0.00000000000E+00 -0.00000000000E+00 -0.18333205972E+03  0.18333205972E+03  0.00000000000E+00 0.  1.
        -13    1    1    2    0    0  0.11735569709E+03 -0.22276197706E+02 -0.80893439704E+02  0.14426485495E+03  0.10566000000E+00 0.  1.
         13    1    1    2    0    0 -0.17618973281E+03  0.16667705678E+02  0.38881023848E+03  0.42719321983E+03  0.10566000000E+00 0. -1.
          4    1    1    2  501    0  0.77037976457E+02  0.39070679197E+01  0.26345889328E+02  0.81512090397E+02  0.00000000000E+00 0.  1.
         -4    1    1    2    0  503 -0.18203940732E+02  0.17014241083E+01 -0.20493107391E+02  0.27463534964E+02  0.00000000000E+00 0. -1.
</event>
<event>
 6    1  0.5496865E-006  0.6449676E+02  0.7818608E-02  0.1241951E+00
         21   -1    0    0  501  502  0.00000000000E+00  0.00000000000E+00  0.36814303780E+03  0.36814303780E+03  0.00000000000E+00 0. -1.
         21   -1    0    0  502  503 -0.00000000000E+00 -0.00000000000E+00 -0.51519668542E+02  0.51519668542E+02  0.00000000000E+00 0.  1.
        -13    1    1    2    0    0  0.35333432160E+02  0.20917366598E+02 -0.11366091988E+02  0.42605009855E+02  0.10566000000E+00 0.  1.
         13    1    1    2    0    0 -0.39625711314E+02 -0.70673256257E+02  0.20062513247E+03  0.21636857695E+03  0.10566000000E+00 0. -1.
          4    1    1    2  501    0 -0.18286549173E+02  0.28503582184E+02  0.12509592131E+03  0.12959877162E+03  0.00000000000E+00 0.  1.
         -4    1    1    2    0  503  0.22578828327E+02  0.21252307474E+02  0.22684074733E+01  0.31090347925E+02  0.00000000000E+00 0. -1.
</event>
<event>
 6    1  0.5496865E-006  0.2642129E+03  0.7818608E-02  0.1023280E+00
         21   -1    0    0  501  502  0.00000000000E+00  0.00000000000E+00  0.19260291078E+03  0.19260291078E+03  0.00000000000E+00 0.  1.
         21   -1    0    0  502  503 -0.00000000000E+00 -0.00000000000E+00 -0.11133148841E+04  0.11133148841E+04  0.00000000000E+00 0.  1.
        -13    1    1    2    0    0  0.27261388972E+03  0.94059161571E+02 -0.83966582148E+03  0.88780862897E+03  0.10566000000E+00 0.  1.
         13    1    1    2    0    0 -0.20639755882E+03 -0.13479683994E+03  0.55521017102E+02  0.25269098688E+03  0.10566000000E+00 0. -1.
          4    1    1    2  501    0 -0.23461548598E+02 -0.11132301637E+02 -0.33909789133E+02  0.42711195270E+02  0.00000000000E+00 0.  1.
         -4    1    1    2    0  503 -0.42754782299E+02  0.51869980010E+02 -0.10265737980E+03  0.12270698376E+03  0.00000000000E+00 0. -1.
</event>
<event>
 6    1  0.5496865E-006  0.3138105E+02  0.7818608E-02  0.1421855E+00
         21   -1    0    0  501  502  0.00000000000E+00  0.00000000000E+00  0.16175311869E+03  0.16175311869E+03  0.00000000000E+00 0.  1.
         21   -1    0    0  502  503 -0.00000000000E+00 -0.00000000000E+00 -0.62487290033E+02  0.62487290033E+02  0.00000000000E+00 0.  1.
        -13    1    1    2    0    0 -0.31596060956E+02 -0.16183745782E+02 -0.40796594236E+02  0.54079552151E+02  0.10566000000E+00 0.  1.
         13    1    1    2    0    0  0.20147066574E+02 -0.19696656165E+02  0.36955051286E+02  0.46470953672E+02  0.10566000000E+00 0. -1.
          4    1    1    2  501    0 -0.70109021561E+01  0.13174602662E+02  0.90675929451E+02  0.91895849123E+02  0.00000000000E+00 0.  1.
         -4    1    1    2    0  503  0.18459896539E+02  0.22705799285E+02  0.12431442154E+02  0.31794053774E+02  0.00000000000E+00 0. -1.
</event>
<event>
 6    1  0.5496865E-006  0.4391617E+02  0.7818608E-02  0.1318759E+00
         21   -1    0    0  503  502  0.00000000000E+00  0.00000000000E+00  0.12416218696E+03  0.12416218696E+03  0.00000000000E+00 0.  1.
         21   -1    0    0  501  503 -0.00000000000E+00 -0.00000000000E+00 -0.41810743356E+02  0.41810743356E+02  0.00000000000E+00 0. -1.
        -13    1    1    2    0    0  0.37054236257E+02 -0.28938948169E+02  0.74398687909E+02  0.88009403318E+02  0.10566000000E+00 0.  1.
         13    1    1    2    0    0 -0.46577901590E+02  0.10500379399E+02 -0.94972673927E+01  0.48682318515E+02  0.10566000000E+00 0. -1.
          4    1    1    2  501    0  0.80255585381E+01  0.64752823278E+01  0.36091113150E+01  0.10925408713E+02  0.00000000000E+00 0.  1.
         -4    1    1    2    0  502  0.14981067947E+01  0.11963286442E+02  0.13840911772E+02  0.18355799769E+02  0.00000000000E+00 0. -1.
</event>
<event>
 6    1  0.5496865E-006  0.1504080E+03  0.7818608E-02  0.1100710E+00
         21   -1    0    0  503  502  0.00000000000E+00  0.00000000000E+00  0.19410930661E+03  0.19410930661E+03  0.00000000000E+00 0. -1.
         21   -1    0    0  501  503 -0.00000000000E+00 -0.00000000000E+00 -0.58159305410E+03  0.58159305410E+03  0.00000000000E+00 0. -1.
        -13    1    1    2    0    0  0.12398631303E+03  0.99397810721E+02 -0.30723279063E+03  0.34589670336E+03  0.10566000000E+00 0.  1.
         13    1    1    2    0    0 -0.18947615306E+03 -0.77402242786E+02 -0.11544730884E+03  0.23499023820E+03  0.10566000000E+00 0. -1.
          4    1    1    2  501    0 -0.34016209366E+02 -0.25511047481E+02 -0.48674328677E+02  0.64630537019E+02  0.00000000000E+00 0.  1.
         -4    1    1    2    0  502  0.99506049395E+02  0.35154795460E+01  0.83870680662E+02  0.13018488214E+03  0.00000000000E+00 0. -1.
</event>
<event>
 6    1  0.5496865E-006  0.7337187E+02  0.7818608E-02  0.1218149E+00
         21   -1    0    0  501  502  0.00000000000E+00  0.00000000000E+00  0.22739069972E+03  0.22739069972E+03  0.00000000000E+00 0. -1.
         21   -1    0    0  502  503 -0.00000000000E+00 -0.00000000000E+00 -0.10319609177E+03  0.10319609177E+03  0.00000000000E+00 0.  1.
        -13    1    1    2    0    0  0.20427163358E+02  0.57834114494E+02  0.30644374531E+02  0.68564879177E+02  0.10566000000E+00 0.  1.
         13    1    1    2    0    0 -0.36629970962E+02 -0.62338530335E+02 -0.42223884327E+02  0.83730010801E+02  0.10566000000E+00 0. -1.
          4    1    1    2  501    0  0.12438067649E+02  0.24967607934E+02  0.15033203797E+03  0.15289803339E+03  0.00000000000E+00 0.  1.
         -4    1    1    2    0  503  0.37647399551E+01 -0.20463192094E+02 -0.14557920222E+02  0.25393868134E+02  0.00000000000E+00 0. -1.
</event>
<event>
 6    1  0.5496865E-006  0.3782921E+02  0.7818608E-02  0.1363269E+00
         21   -1    0    0  503  502  0.00000000000E+00  0.00000000000E+00  0.81697152656E+02  0.81697152656E+02  0.00000000000E+00 0.  1.
         21   -1    0    0  501  503 -0.00000000000E+00 -0.00000000000E+00 -0.31193649214E+03  0.31193649214E+03  0.00000000000E+00 0. -1.
        -13    1    1    2    0    0 -0.27929555967E+02 -0.12406265482E+02  0.37845338345E+02  0.48644180723E+02  0.10566000000E+00 0.  1.
         13    1    1    2    0    0  0.67450655604E+02  0.12203759066E+01 -0.22907539692E+03  0.23880248930E+03  0.10566000000E+00 0. -1.
          4    1    1    2  501    0 -0.29811032576E+01  0.11893330849E+02 -0.61873904346E+02  0.63077082481E+02  0.00000000000E+00 0.  1.
         -4    1    1    2    0  502 -0.36539996380E+02 -0.70744127321E+00  0.22864623435E+02  0.43109892292E+02  0.00000000000E+00 0. -1.
</event>
<event>
 6    1  0.5496865E-006  0.2331106E+02  0.7818608E-02  0.1468411E+00
         21   -1    0    0  501  502  0.00000000000E+00  0.00000000000E+00  0.10599509984E+03  0.10599509984E+03  0.00000000000E+00 0.  1.
         21   -1    0    0  502  503 -0.00000000000E+00 -0.00000000000E+00 -0.10403243069E+03  0.10403243069E+03  0.00000000000E+00 0. -1.
        -13    1    1    2    0    0  0.18848406920E+02  0.38637550848E+00 -0.57035518224E+02  0.60070568772E+02  0.10566000000E+00 0.  1.
         13    1    1    2    0    0 -0.29142056640E+02  0.15512132373E+02  0.24082580615E+02  0.40864013129E+02  0.10566000000E+00 0. -1.
          4    1    1    2  501    0  0.10750563993E+02 -0.13350222814E+01  0.70141172103E+02  0.70972818280E+02  0.00000000000E+00 0.  1.
         -4    1    1    2    0  503 -0.45691427356E+00 -0.14563485600E+02 -0.35225565347E+02  0.38120130345E+02  0.00000000000E+00 0. -1.
</event>
<event>
 6    1  0.5496865E-006  0.2641319E+03  0.7818608E-02  0.1023319E+00
         21   -1    0    0  503  502  0.00000000000E+00  0.00000000000E+00  0.17833044595E+03  0.17833044595E+03  0.00000000000E+00 0.  1.
         21   -1    0    0  501  503 -0.00000000000E+00 -0.00000000000E+00 -0.13219968375E+04  0.13219968375E+04  0.00000000000E+00 0.  1.
        -13    1    1    2    0    0  0.27195064129E+03  0.57406424972E+02 -0.88072984267E+02  0.29156390491E+03  0.10566000000E+00 0.  1.
         13    1    1    2    0    0 -0.27564024224E+03  0.79652387149E+02 -0.60626324447E+03  0.67072884140E+03  0.10566000000E+00 0. -1.
          4    1    1    2  501    0  0.22935281549E+02 -0.45980777664E+02 -0.44164998689E+03  0.44462902511E+03  0.00000000000E+00 0.  1.
         -4    1    1    2    0  502 -0.19245680595E+02 -0.91078034458E+02 -0.76801759763E+01  0.93405512071E+02  0.00000000000E+00 0. -1.
</event>
<event>
 6    1  0.5496865E-006  0.1110207E+03  0.7818608E-02  0.1147506E+00
         21   -1    0    0  501  502  0.00000000000E+00  0.00000000000E+00  0.45252763374E+03  0.45252763374E+03  0.00000000000E+00 0.  1.
         21   -1    0    0  502  503 -0.00000000000E+00 -0.00000000000E+00 -0.39884157331E+03  0.39884157331E+03  0.00000000000E+00 0. -1.
        -13    1    1    2    0    0 -0.39634815508E+02  0.96200145722E+02 -0.24263070308E+03  0.26399821188E+03  0.10566000000E+00 0.  1.
         13    1    1    2    0    0  0.25282398726E+02 -0.15480618267E+03 -0.38265125770E+02  0.16145706827E+03  0.10566000000E+00 0. -1.
          4    1    1    2  501    0  0.23672828182E+02  0.63294407057E+02  0.37660257061E+03  0.38261740806E+03  0.00000000000E+00 0.  1.
         -4    1    1    2    0  503 -0.93204114001E+01 -0.46883701043E+01 -0.42020681343E+02  0.43296518838E+02  0.00000000000E+00 0. -1.
</event>
<event>
 6    1  0.5496865E-006  0.1607351E+03  0.7818608E-02  0.1090982E+00
         21   -1    0    0  503  502  0.00000000000E+00  0.00000000000E+00  0.48755455569E+03  0.48755455569E+03  0.00000000000E+00 0.  1.
         21   -1    0    0  501  503 -0.00000000000E+00 -0.00000000000E+00 -0.12611663536E+04  0.12611663536E+04  0.00000000000E+00 0. -1.
        -13    1    1    2    0    0 -0.12481573427E+00 -0.21602085386E+03  0.26778989960E+03  0.34405881238E+03  0.10566000000E+00 0.  1.
         13    1    1    2    0    0 -0.10431927590E+03  0.13448938854E+03 -0.66184557703E+03  0.68338092302E+03  0.10566000000E+00 0. -1.
          4    1    1    2  501    0  0.88293786712E+01 -0.68986992870E+01 -0.52553195500E+03  0.52565139181E+03  0.00000000000E+00 0.  1.
         -4    1    1    2    0  502  0.95614712963E+02  0.88430164611E+02  0.14597583456E+03  0.19562978204E+03  0.00000000000E+00 0. -1.
</event>
<event>
 6    1  0.5496865E-006  0.4717264E+03  0.7818608E-02  0.9542192E-01
         21   -1    0    0  501  502  0.00000000000E+00  0.00000000000E+00  0.10780896814E+04  0.10780896814E+04  0.00000000000E+00 0. -1.
         21   -1    0    0  502  503 -0.00000000000E+00 -0.00000000000E+00 -0.52181683721E+03  0.52181683721E+03  0.00000000000E+00 0. -1.
        -13    1    1    2    0    0 -0.41217085229E+03 -0.26669097698E+03  0.59517717045E+03  0.77152107170E+03  0.10566000000E+00 0.  1.
         13    1    1    2    0    0  0.45069570568E+03  0.11112813559E+03  0.17569518431E+03  0.49633143220E+03  0.10566000000E+00 0. -1.
          4    1    1    2  501    0  0.94955185381E+01  0.97452464747E+01  0.35822536515E+02  0.38319561891E+02  0.00000000000E+00 0.  1.
         -4    1    1    2    0  503 -0.48020371925E+02  0.14581759491E+03 -0.25042204708E+03  0.29373445282E+03  0.00000000000E+00 0. -1.
</event>
<event>
 6    1  0.5496865E-006  0.9819996E+02  0.7818608E-02  0.1167569E+00
         21   -1    0    0  503  502  0.00000000000E+00  0.00000000000E+00  0.42114012442E+03  0.42114012442E+03  0.00000000000E+00 0.  1.
         21   -1    0    0  501  503 -0.00000000000E+00 -0.00000000000E+00 -0.47410488240E+03  0.47410488240E+03  0.00000000000E+00 0. -1.
        -13    1    1    2    0    0 -0.96483617392E+02  0.73176750669E+02  0.37336233227E+03  0.39250906688E+03  0.10566000000E+00 0.  1.
         13    1    1    2    0    0  0.84560835924E+02 -0.88115690520E+02 -0.10516476427E+03  0.16116621450E+03  0.10566000000E+00 0. -1.
          4    1    1    2  501    0 -0.19375469590E+02  0.26676549520E+02 -0.30043377309E+03  0.30223748796E+03  0.00000000000E+00 0.  1.
         -4    1    1    2    0  502  0.31298251057E+02 -0.11737609668E+02 -0.20728552893E+02  0.39332237478E+02  0.00000000000E+00 0. -1.
</event>
<event>
 6    1  0.5496865E-006  0.4641109E+02  0.7818608E-02  0.1322176E+00
         21   -1    0    0  503  502  0.00000000000E+00  0.00000000000E+00  0.63235755565E+02  0.63235755565E+02  0.00000000000E+00 0. -1.
         21   -1    0    0  501  503 -0.00000000000E+00 -0.00000000000E+00 -0.44766654871E+03  0.44766654871E+03  0.00000000000E+00 0.  1.
        -13    1    1    2    0    0 -0.50055141672E+02 -0.41429387078E+02 -0.12052031312E+03  0.13691993412E+03  0.10566000000E+00 0.  1.
         13    1    1    2    0    0  0.32638773525E+02  0.18361248451E+02 -0.92940738308E+02  0.10020188114E+03  0.10566000000E+00 0. -1.
          4    1    1    2  501    0  0.21351394711E+02  0.36766604166E+02 -0.21930469118E+03  0.22338803193E+03  0.00000000000E+00 0.  1.
         -4    1    1    2    0  502 -0.39350265632E+01 -0.13698465539E+02  0.48334949457E+02  0.50392457087E+02  0.00000000000E+00 0. -1.
</event>
<event>
 6    1  0.9084753E-006  0.7104123E+02  0.7818608E-02  0.1272382E+00
         21   -1    0    0  503  502  0.00000000000E+00  0.00000000000E+00  0.35535690597E+03  0.35535690597E+03  0.00000000000E+00 0.  1.
         21   -1    0    0  501  503 -0.00000000000E+00 -0.00000000000E+00 -0.90804336895E+03  0.90804336895E+03  0.00000000000E+00 0.  1.
        -13    1    1    2    0    0 -0.50144922694E+02  0.13191748388E+02  0.30309386870E+03  0.30749705674E+03  0.10566000000E+00 0.  1.
         13    1    1    2    0    0  0.53157393235E+02  0.11495298956E+03 -0.35171903956E+03  0.37382641991E+03  0.10566000000E+00 0. -1.
          4    1    1    2  501    0 -0.11027418306E+02 -0.11746566745E+03 -0.53527705830E+03  0.54812527412E+03  0.00000000000E+00 0.  1.
         -4    1    1    2    0  502  0.80149477650E+01 -0.10679070498E+02  0.31215766185E+02  0.33951524162E+02  0.00000000000E+00 0. -1.
</event>
<event>
 6    1  0.5496865E-006  0.5585121E+02  0.7818608E-02  0.1288116E+00
         21   -1    0    0  501  502  0.00000000000E+00  0.00000000000E+00  0.12824193308E+03  0.12824193308E+03  0.00000000000E+00 0.  1.
         21   -1    0    0  502  503 -0.00000000000E+00 -0.00000000000E+00 -0.48627537854E+03  0.48627537854E+03  0.00000000000E+00 0.  1.
        -13    1    1    2    0    0 -0.74252659464E+02  0.45882563756E+01 -0.26250880340E+03  0.27284682985E+03  0.10566000000E+00 0.  1.
         13    1    1    2    0    0  0.18728208668E+02 -0.63889983827E+02 -0.49440751105E+02  0.82928130735E+02  0.10566000000E+00 0. -1.
          4    1    1    2  501    0 -0.38017397672E+01  0.34299429952E+02  0.96399058615E+02  0.10238985605E+03  0.00000000000E+00 0.  1.
         -4    1    1    2    0  503  0.59326190563E+02  0.25002297500E+02 -0.14248294957E+03  0.15635249498E+03  0.00000000000E+00 0. -1.
</event>
<event>
 6    1  0.5496865E-006  0.2634115E+03  0.7818608E-02  0.1023668E+00
         21   -1    0    0  503  502  0.00000000000E+00  0.00000000000E+00  0.89308803145E+02  0.89308803145E+02  0.00000000000E+00 0. -1.
         21   -1    0    0  501  503 -0.00000000000E+00 -0.00000000000E+00 -0.17166530203E+04  0.17166530203E+04  0.00000000000E+00 0.  1.
        -13    1    1    2    0    0 -0.25911931496E+03  0.26185067510E+02 -0.59156115573E+03  0.64635368744E+03  0.10566000000E+00 0.  1.
         13    1    1    2    0    0  0.25840267323E+03 -0.38824513610E+02 -0.10394352491E+04  0.10717765311E+04  0.10566000000E+00 0. -1.
          4    1    1    2  501    0 -0.23561771235E+02 -0.25758354844E+02 -0.15916937163E+02  0.38366636505E+02  0.00000000000E+00 0.  1.
         -4    1    1    2    0  502  0.24278412963E+02  0.38397800945E+02  0.19569124818E+02  0.49464968407E+02  0.00000000000E+00 0. -1.
</event>
<event>
 6    1  0.5496865E-006  0.2902004E+02  0.7818608E-02  0.1454201E+00
         21   -1    0    0  503  502  0.00000000000E+00  0.00000000000E+00  0.20786575125E+02  0.20786575125E+02  0.00000000000E+00 0.  1.
         21   -1    0    0  501  503 -0.00000000000E+00 -0.00000000000E+00 -0.30819220343E+03  0.30819220343E+03  0.00000000000E+00 0. -1.
        -13    1    1    2    0    0  0.10411581320E+02 -0.91097269574E+00  0.11456744868E+02  0.15508032236E+02  0.10566000000E+00 0.  1.
         13    1    1    2    0    0 -0.28399944514E+02 -0.15910276440E+02 -0.16213257259E+03  0.16536830410E+03  0.10566000000E+00 0. -1.
          4    1    1    2  501    0  0.29113186639E+02  0.67180088289E+01 -0.12635915469E+03  0.12984354144E+03  0.00000000000E+00 0.  1.
         -4    1    1    2    0  502 -0.11124823445E+02  0.10103240307E+02 -0.10370645903E+02  0.18258900784E+02  0.00000000000E+00 0. -1.
</event>
<event>
 6    1  0.5496865E-006  0.1414773E+03  0.7818608E-02  0.1109835E+00
         21   -1    0    0  503  502  0.00000000000E+00  0.00000000000E+00  0.43010326392E+03  0.43010326392E+03  0.00000000000E+00 0.  1.
         21   -1    0    0  501  503 -0.00000000000E+00 -0.00000000000E+00 -0.25719791218E+03  0.25719791218E+03  0.00000000000E+00 0.  1.
        -13    1    1    2    0    0  0.98598741598E+02  0.11257850572E+03  0.27807348595E+03  0.31578553886E+03  0.10566000000E+00 0.  1.
         13    1    1    2    0    0 -0.60593108906E+02 -0.12591976918E+03  0.36512188937E+02  0.14443152088E+03  0.10566000000E+00 0. -1.
          4    1    1    2  501    0  0.98589682259E+01 -0.63739901394E+01 -0.16841395568E+03  0.16882265095E+03  0.00000000000E+00 0.  1.
         -4    1    1    2    0  502 -0.47864600919E+02  0.19715253597E+02  0.26733632527E+02  0.58261465426E+02  0.00000000000E+00 0. -1.
</event>
<event>
 6    1  0.5496865E-006  0.7206074E+02  0.7818608E-02  0.1221422E+00
         21   -1    0    0  503  502  0.00000000000E+00  0.00000000000E+00  0.53549432599E+03  0.53549432599E+03  0.00000000000E+00 0.  1.
         21   -1    0    0  501  503 -0.00000000000E+00 -0.00000000000E+00 -0.24244191587E+03  0.24244191587E+03  0.00000000000E+00 0. -1.
        -13    1    1    2    0    0  0.11451618756E+03 -0.41975677787E+02  0.26050246826E+03  0.28764120337E+03  0.10566000000E+00 0.  1.
         13    1    1    2    0    0 -0.73684942385E+02  0.15363847458E+02 -0.19875650915E+03  0.21253159680E+03  0.10566000000E+00 0. -1.
          4    1    1    2  501    0  0.71392153880E+01  0.75727807050E+01 -0.19284131110E+02  0.21913309121E+02  0.00000000000E+00 0.  1.
         -4    1    1    2    0  502 -0.47970460561E+02  0.19039049624E+02  0.25059058211E+03  0.25585013258E+03  0.00000000000E+00 0. -1.
</event>
<event>
 6    1  0.5496865E-006  0.6492867E+02  0.7818608E-02  0.1240697E+00
         21   -1    0    0  501  502  0.00000000000E+00  0.00000000000E+00  0.12523713912E+03  0.12523713912E+03  0.00000000000E+00 0. -1.
         21   -1    0    0  502  503 -0.00000000000E+00 -0.00000000000E+00 -0.39665454446E+03  0.39665454446E+03  0.00000000000E+00 0. -1.
        -13    1    1    2    0    0  0.19432879184E+02 -0.55595951715E+02  0.17687734953E+02  0.61493201025E+02  0.10566000000E+00 0.  1.
         13    1    1    2    0    0 -0.60530078461E+02  0.48354159084E+02  0.16650947413E+02  0.79241910079E+02  0.10566000000E+00 0. -1.
          4    1    1    2  501    0  0.21454460627E+02 -0.22264187069E+01  0.34236925747E+02  0.40465020766E+02  0.00000000000E+00 0.  1.
         -4    1    1    2    0  503  0.19642738650E+02  0.94682113375E+01 -0.33999301346E+03  0.34069155171E+03  0.00000000000E+00 0. -1.
</event>
<event>
 6    1  0.5496865E-006  0.1551319E+03  0.7818608E-02  0.1096158E+00
         21   -1    0    0  501  502  0.00000000000E+00  0.00000000000E+00  0.27508436844E+03  0.27508436844E+03  0.00000000000E+00 0. -1.
         21   -1    0    0  502  503 -0.00000000000E+00 -0.00000000000E+00 -0.52547471423E+03  0.52547471423E+03  0.00000000000E+00 0.  1.
        -13    1    1    2    0    0 -0.88356535821E+02  0.11720799259E+03 -0.25838736688E+03  0.29716768579E+03  0.10566000000E+00 0.  1.
         13    1    1    2    0    0  0.75924112172E+02 -0.14301643678E+03  0.20921038374E+03  0.26455087947E+03  0.10566000000E+00 0. -1.
          4    1    1    2  501    0  0.13382845981E+02  0.15543940514E+02  0.13062032721E+02  0.24317305609E+02  0.00000000000E+00 0.  1.
         -4    1    1    2    0  503 -0.95042233233E+00  0.10264503672E+02 -0.21427539538E+03  0.21452321180E+03  0.00000000000E+00 0. -1.
</event>
<event>
 6    1  0.5496865E-006  0.1238424E+03  0.7818608E-02  0.1130212E+00
         21   -1    0    0  501  502  0.00000000000E+00  0.00000000000E+00  0.12275844944E+04  0.12275844944E+04  0.00000000000E+00 0.  1.
         21   -1    0    0  502  503 -0.00000000000E+00 -0.00000000000E+00 -0.21560080569E+03  0.21560080569E+03  0.00000000000E+00 0.  1.
        -13    1    1    2    0    0  0.14281843053E+03  0.19924756427E+02 -0.17561357355E+02  0.14526703843E+03  0.10566000000E+00 0.  1.
         13    1    1    2    0    0 -0.10803394482E+03 -0.63504977927E+02  0.35644294374E+03  0.37783038358E+03  0.10566000000E+00 0. -1.
          4    1    1    2  501    0 -0.21270489938E+01  0.12348357863E+02  0.79241008556E+03  0.79250914820E+03  0.00000000000E+00 0.  1.
         -4    1    1    2    0  503 -0.32657436716E+02  0.31231863637E+02 -0.11930798318E+03  0.12757872993E+03  0.00000000000E+00 0. -1.
</event>
<event>
 6    1  0.5496865E-006  0.5444304E+02  0.7818608E-02  0.1305263E+00
         21   -1    0    0  501  502  0.00000000000E+00  0.00000000000E+00  0.24290588726E+03  0.24290588726E+03  0.00000000000E+00 0. -1.
         21   -1    0    0  502  503 -0.00000000000E+00 -0.00000000000E+00 -0.93013237509E+02  0.93013237509E+02  0.00000000000E+00 0.  1.
        -13    1    1    2    0    0  0.23816584900E+02  0.17752104098E+02 -0.72575308858E+02  0.78419089105E+02  0.10566000000E+00 0.  1.
         13    1    1    2    0    0  0.36355838706E+02  0.14846051428E+02  0.79448826281E+02  0.88624372565E+02  0.10566000000E+00 0. -1.
          4    1    1    2  501    0  0.11124564673E+02 -0.29466306143E+01  0.28702217915E+02  0.30923387337E+02  0.00000000000E+00 0.  1.
         -4    1    1    2    0  503 -0.71296988280E+02 -0.29651524912E+02  0.11431691442E+03  0.13795227577E+03  0.00000000000E+00 0. -1.
</event>
<event>
 6    1  0.5496865E-006  0.6458769E+02  0.7818608E-02  0.1241686E+00
         21   -1    0    0  503  502  0.00000000000E+00  0.00000000000E+00  0.36943214638E+02  0.36943214638E+02  0.00000000000E+00 0. -1.
         21   -1    0    0  501  503 -0.00000000000E+00 -0.00000000000E+00 -0.30701878747E+03  0.30701878747E+03  0.00000000000E+00 0.  1.
        -13    1    1    2    0    0  0.78984891102E+02 -0.35030409653E+01 -0.71243856319E+02  0.10642641846E+03  0.10566000000E+00 0.  1.
         13    1    1    2    0    0 -0.51137897428E+02 -0.26236215157E+02 -0.49783982639E+02  0.76038671941E+02  0.10566000000E+00 0. -1.
          4    1    1    2  501    0 -0.56394302631E+01  0.35792679666E+02 -0.11353664127E+03  0.11917838732E+03  0.00000000000E+00 0.  1.
         -4    1    1    2    0  502 -0.22207563411E+02 -0.60534235438E+01 -0.35511092600E+02  0.42318524394E+02  0.00000000000E+00 0. -1.
</event>
<event>
 6    1  0.5496865E-006  0.1133104E+03  0.7818608E-02  0.1200455E+00
         21   -1    0    0  503  502  0.00000000000E+00  0.00000000000E+00  0.20256728919E+03  0.20256728919E+03  0.00000000000E+00 0. -1.
         21   -1    0    0  501  503 -0.00000000000E+00 -0.00000000000E+00 -0.72781191256E+03  0.72781191256E+03  0.00000000000E+00 0. -1.
        -13    1    1    2    0    0 -0.14009878958E+02 -0.26582265588E+02  0.30055457149E+02  0.42499826125E+02  0.10566000000E+00 0.  1.
         13    1    1    2    0    0 -0.10132046576E+03 -0.27836067426E+02 -0.35547984079E+03  0.37068397834E+03  0.10566000000E+00 0. -1.
          4    1    1    2  501    0  0.47067023548E+01  0.27814936290E+02 -0.33744896675E+03  0.33862609009E+03  0.00000000000E+00 0.  1.
         -4    1    1    2    0  502  0.11062364236E+03  0.26603396724E+02  0.13762872702E+03  0.17856930718E+03  0.00000000000E+00 0. -1.
</event>
<event>
 6    1  0.5496865E-006  0.5670742E+02  0.7818608E-02  0.1266654E+00
         21   -1    0    0  501  502  0.00000000000E+00  0.00000000000E+00  0.81866085246E+02  0.81866085246E+02  0.00000000000E+00 0. -1.
         21   -1    0    0  502  503 -0.00000000000E+00 -0.00000000000E+00 -0.31884921080E+03  0.31884921080E+03  0.00000000000E+00 0.  1.
        -13    1    1    2    0    0 -0.44112243531E+02 -0.20550478653E+02 -0.52435147988E+02  0.71537878853E+02  0.10566000000E+00 0.  1.
         13    1    1    2    0    0  0.72004069499E+02 -0.48972891277E+02 -0.78230448870E+02  0.11705957628E+03  0.10566000000E+00 0. -1.
          4    1    1    2  501    0 -0.15532653302E+02  0.26686053712E+02  0.44884456992E+02  0.54479567370E+02  0.00000000000E+00 0.  1.
         -4    1    1    2    0  503 -0.12359172667E+02  0.42837316218E+02 -0.15120198569E+03  0.15763827354E+03  0.00000000000E+00 0. -1.
</event>
<event>
 6    1  0.5496865E-006  0.2485683E+03  0.7818608E-02  0.1031137E+00
         21   -1    0    0  503  502  0.00000000000E+00  0.00000000000E+00  0.67473943965E+02  0.67473943965E+02  0.00000000000E+00 0.  1.
         21   -1    0    0  501  503 -0.00000000000E+00 -0.00000000000E+00 -0.18525240943E+04  0.18525240943E+04  0.00000000000E+00 0. -1.
        -13    1    1    2    0    0 -0.18169993579E+03  0.11951023903E+03 -0.42967943083E+03  0.48158279490E+03  0.10566000000E+00 0.  1.
         13    1    1    2    0    0  0.24531367070E+03 -0.17983714590E+03 -0.12550792107E+04  0.12914116433E+04  0.10566000000E+00 0. -1.
          4    1    1    2  501    0 -0.63501241890E+02  0.19672565110E+02 -0.56439342833E+02  0.87205601649E+02  0.00000000000E+00 0.  1.
         -4    1    1    2    0  502 -0.11249302087E+00  0.40654341752E+02 -0.43852165977E+02  0.59797998452E+02  0.00000000000E+00 0. -1.
</event>
<event>
 6    1  0.5496865E-006  0.1266768E+03  0.7818608E-02  0.1126697E+00
         21   -1    0    0  503  502  0.00000000000E+00  0.00000000000E+00  0.68262381261E+02  0.68262381261E+02  0.00000000000E+00 0.  1.
         21   -1    0    0  501  503 -0.00000000000E+00 -0.00000000000E+00 -0.50291098672E+03  0.50291098672E+03  0.00000000000E+00 0. -1.
        -13    1    1    2    0    0 -0.13037669164E+02  0.13827248307E+03 -0.21603487325E+03  0.25682744794E+03  0.10566000000E+00 0.  1.
         13    1    1    2    0    0  0.42427017263E+02 -0.11511985172E+03 -0.41357674484E+02  0.12947239264E+03  0.10566000000E+00 0. -1.
          4    1    1    2  501    0 -0.29861066091E+02 -0.20639976934E+01 -0.12470550282E+03  0.12824743969E+03  0.00000000000E+00 0.  1.
         -4    1    1    2    0  502  0.47171799086E+00 -0.21088633661E+02 -0.52550554904E+02  0.56626087701E+02  0.00000000000E+00 0. -1.
</event>
<event>
 6    1  0.5496865E-006  0.5683065E+02  0.7818608E-02  0.1266229E+00
         21   -1    0    0  501  502  0.00000000000E+00  0.00000000000E+00  0.41971445589E+02  0.41971445589E+02  0.00000000000E+00 0. -1.
         21   -1    0    0  502  503 -0.00000000000E+00 -0.00000000000E+00 -0.62238485082E+03  0.62238485082E+03  0.00000000000E+00 0. -1.
        -13    1    1    2    0    0  0.48149481982E+02  0.26144270195E+02 -0.78171210161E+02  0.95460173587E+02  0.10566000000E+00 0.  1.
         13    1    1    2    0    0 -0.61964338371E+02 -0.16640169690E+02 -0.15866404917E+03  0.17114545317E+03  0.10566000000E+00 0. -1.
          4    1    1    2  501    0  0.25737965966E+01 -0.13858675259E+02  0.25147225158E+02  0.28828288919E+02  0.00000000000E+00 0.  1.
         -4    1    1    2    0  503  0.11241059792E+02  0.43545747538E+01 -0.36872537105E+03  0.36892238073E+03  0.00000000000E+00 0. -1.
</event>
<event>
 6    1  0.5496865E-006  0.3404756E+02  0.7818608E-02  0.1401904E+00
         21   -1    0    0  503  502  0.00000000000E+00  0.00000000000E+00  0.15542812017E+03  0.15542812017E+03  0.00000000000E+00 0.  1.
         21   -1    0    0  501  503 -0.00000000000E+00 -0.00000000000E+00 -0.70161741554E+02  0.70161741554E+02  0.00000000000E+00 0.  1.
        -13    1    1    2    0    0  0.17966117697E+02  0.47497486468E+02  0.76878558190E+02  0.92136401489E+02  0.10566000000E+00 0.  1.
         13    1    1    2    0    0  0.66324275179E+01 -0.23465395021E+02  0.21530271069E+02  0.32529641784E+02  0.10566000000E+00 0. -1.
          4    1    1    2  501    0 -0.53658881666E+01 -0.32663145976E+02 -0.49115892952E+02  0.59228749787E+02  0.00000000000E+00 0.  1.
         -4    1    1    2    0  502 -0.19232657048E+02  0.86310545286E+01  0.35973442313E+02  0.41695068669E+02  0.00000000000E+00 0. -1.
</event>
<event>
 6    1  0.5496865E-006  0.3663584E+02  0.7818608E-02  0.1358376E+00
         21   -1    0    0  503  502  0.00000000000E+00  0.00000000000E+00  0.87088879907E+02  0.87088879907E+02  0.00000000000E+00 0. -1.
         21   -1    0    0  501  503 -0.00000000000E+00 -0.00000000000E+00 -0.87623380888E+02  0.87623380888E+02  0.00000000000E+00 0. -1.
        -13    1    1    2    0    0  0.25127853613E+02  0.91186924723E+00  0.47265314483E+02  0.53537478928E+02  0.10566000000E+00 0.  1.
         13    1    1    2    0    0 -0.36635066984E+02 -0.20072808617E+02 -0.50687607135E+02  0.65683258596E+02  0.10566000000E+00 0. -1.
          4    1    1    2  501    0 -0.11078945804E+01  0.12656288040E+02 -0.22824369115E+02  0.26122038260E+02  0.00000000000E+00 0.  1.
         -4    1    1    2    0  502  0.12615107952E+02  0.65046513303E+01  0.25712160785E+02  0.29369485011E+02  0.00000000000E+00 0. -1.
</event>
<event>
 6    1  0.5496865E-006  0.4752151E+02  0.7818608E-02  0.1302222E+00
         21   -1    0    0  503  502  0.00000000000E+00  0.00000000000E+00  0.33926414518E+03  0.33926414518E+03  0.00000000000E+00 0. -1.
         21   -1    0    0  501  503 -0.00000000000E+00 -0.00000000000E+00 -0.18923257810E+03  0.18923257810E+03  0.00000000000E+00 0.  1.
        -13    1    1    2    0    0  0.29951788425E+02  0.37639398222E+02  0.81603764372E+01  0.48789720598E+02  0.10566000000E+00 0.  1.
         13    1    1    2    0    0 -0.46870595906E+02 -0.33680037633E+02 -0.48990758827E+02  0.75705371738E+02  0.10566000000E+00 0. -1.
          4    1    1    2  501    0  0.95100005598E+01  0.11573912815E+02 -0.10579281669E+03  0.10684809607E+03  0.00000000000E+00 0.  1.
         -4    1    1    2    0  502  0.74088069209E+01 -0.15533273404E+02  0.29665476617E+03  0.29715353488E+03  0.00000000000E+00 0. -1.
</event>
<event>
 6    1  0.5496865E-006  0.2315547E+02  0.7818608E-02  0.1474890E+00
         21   -1    0    0  503  502  0.00000000000E+00  0.00000000000E+00  0.47099554571E+02  0.47099554571E+02  0.00000000000E+00 0.  1.
         21   -1    0    0  501  503 -0.00000000000E+00 -0.00000000000E+00 -0.24619407841E+03  0.24619407841E+03  0.00000000000E+00 0.  1.
        -13    1    1    2    0    0  0.18037241862E+02  0.28218703938E+02  0.19989966291E+02  0.39003169900E+02  0.10566000000E+00 0.  1.
         13    1    1    2    0    0 -0.13316014192E+02 -0.18094261137E+02 -0.33774717748E+02  0.40564285314E+02  0.10566000000E+00 0. -1.
          4    1    1    2  501    0 -0.28851526399E+01 -0.22809237744E+02 -0.19581129766E+03  0.19715640929E+03  0.00000000000E+00 0.  1.
         -4    1    1    2    0  502 -0.18360750305E+01  0.12684794943E+02  0.10501525278E+02  0.16569768479E+02  0.00000000000E+00 0. -1.
</event>
<event>
 6    1  0.5496865E-006  0.7871103E+02  0.7818608E-02  0.1205564E+00
         21   -1    0    0  501  502  0.00000000000E+00  0.00000000000E+00  0.65969359519E+02  0.65969359519E+02  0.00000000000E+00 0. -1.
         21   -1    0    0  502  503 -0.00000000000E+00 -0.00000000000E+00 -0.83699879981E+03  0.83699879981E+03  0.00000000000E+00 0.  1.
        -13    1    1    2    0    0  0.87750012800E+02  0.15883240466E+02 -0.47249461959E+03  0.48083627025E+03  0.10566000000E+00 0.  1.
         13    1    1    2    0    0 -0.82391936443E+02 -0.30510147339E+01 -0.15580648441E+03  0.17627652036E+03  0.10566000000E+00 0. -1.
          4    1    1    2  501    0  0.10515582526E+02  0.17747476006E+01  0.50405141347E+02  0.51520922732E+02  0.00000000000E+00 0.  1.
         -4    1    1    2    0  503 -0.15873658883E+02 -0.14606973333E+02 -0.19313347762E+03  0.19433444598E+03  0.00000000000E+00 0. -1.
</event>
<event>
 6    1  0.5496865E-006  0.1532872E+03  0.7818608E-02  0.1097914E+00
         21   -1    0    0  501  502  0.00000000000E+00  0.00000000000E+00  0.45182717791E+02  0.45182717791E+02  0.00000000000E+00 0. -1.
         21   -1    0    0  502  503 -0.00000000000E+00 -0.00000000000E+00 -0.88461218233E+03  0.88461218233E+03  0.00000000000E+00 0. -1.
        -13    1    1    2    0    0 -0.11934089186E+03 -0.97221542595E+02 -0.35742199240E+03  0.38915905313E+03  0.10566000000E+00 0.  1.
         13    1    1    2    0    0  0.79977141922E+02  0.13537489939E+03 -0.21816628775E+03  0.26892238080E+03  0.10566000000E+00 0. -1.
          4    1    1    2  501    0  0.18048528644E+02 -0.19393751822E+02 -0.56102443949E+02  0.62043139935E+02  0.00000000000E+00 0.  1.
         -4    1    1    2    0  503  0.21315221296E+02 -0.18759604978E+02 -0.20773874044E+03  0.20967032626E+03  0.00000000000E+00 0. -1.
</event>
<event>
 6    1  0.5496865E-006  0.1052271E+03  0.7818608E-02  0.1156185E+00
         21   -1    0    0  501  502  0.00000000000E+00  0.00000000000E+00  0.31814535894E+03  0.31814535894E+03  0.00000000000E+00 0. -1.
         21   -1    0    0  502  503 -0.00000000000E+00 -0.00000000000E+00 -0.11087758890E+03  0.11087758890E+03  0.00000000000E+00 0.  1.
        -13    1    1    2    0    0 -0.95678308360E+02  0.44633418554E+02 -0.17120887955E+02  0.10695614387E+03  0.10566000000E+00 0.  1.
         13    1    1    2    0    0  0.48175080740E+02 -0.89489751602E+02  0.18220327096E+03  0.20863196581E+03  0.10566000000E+00 0. -1.
          4    1    1    2  501    0  0.28768060481E+02  0.95522640230E+01  0.61859823054E+02  0.68887478979E+02  0.00000000000E+00 0.  1.
         -4    1    1    2    0  503  0.18735167138E+02  0.35304069026E+02 -0.19674436024E+02  0.44547359185E+02  0.00000000000E+00 0. -1.
</event>
<event>
 6    1  0.5496865E-006  0.6742313E+02  0.7818608E-02  0.1252780E+00
         21   -1    0    0  503  502  0.00000000000E+00  0.00000000000E+00  0.24897841687E+03  0.24897841687E+03  0.00000000000E+00 0.  1.
         21   -1    0    0  501  503 -0.00000000000E+00 -0.00000000000E+00 -0.31062513553E+03  0.31062513553E+03  0.00000000000E+00 0. -1.
        -13    1    1    2    0    0 -0.29699064634E+02  0.33598674477E+02  0.18729987644E+03  0.19259325078E+03  0.10566000000E+00 0.  1.
         13    1    1    2    0    0 -0.47555861194E+01 -0.10372306639E+03 -0.16445507756E+03  0.19449054938E+03  0.10566000000E+00 0. -1.
          4    1    1    2  501    0  0.45057780987E+01  0.13826859781E+02 -0.10463901936E+03  0.10564472755E+03  0.00000000000E+00 0.  1.
         -4    1    1    2    0  502  0.29948872655E+02  0.56297532127E+02  0.20147501820E+02  0.66875024684E+02  0.00000000000E+00 0. -1.
</event>
<event>
 6    1  0.5496865E-006  0.1028241E+03  0.7818608E-02  0.1163184E+00
         21   -1    0    0  501  502  0.00000000000E+00  0.00000000000E+00  0.12504134138E+03  0.12504134138E+03  0.00000000000E+00 0.  1.
         21   -1    0    0  502  503 -0.00000000000E+00 -0.00000000000E+00 -0.30777101832E+03  0.30777101832E+03  0.00000000000E+00 0.  1.
        -13    1    1    2    0    0  0.90707996096E+02 -0.78326153527E+02 -0.13398857354E+03  0.17976617003E+03  0.10566000000E+00 0.  1.
         13    1    1    2    0    0 -0.83540409930E+02 -0.50119631989E+02 -0.33563241751E+02  0.10304115664E+03  0.10566000000E+00 0. -1.
          4    1    1    2  501    0 -0.51150280008E+01  0.10609918274E+03  0.20184643701E+02  0.10812317019E+03  0.00000000000E+00 0.  1.
         -4    1    1    2    0  503 -0.20525581656E+01  0.22346602772E+02 -0.35362505349E+02  0.41881862840E+02  0.00000000000E+00 0. -1.
</event>
<event>
 6    1  0.5496865E-006  0.1203488E+03  0.7818608E-02  0.1134689E+00
         21   -1    0    0  503  502  0.00000000000E+00  0.00000000000E+00  0.55313061375E+03  0.55313061375E+03  0.00000000000E+00 0.  1.
         21   -1    0    0  501  503 -0.00000000000E+00 -0.00000000000E+00 -0.26337613122E+03  0.26337613122E+03  0.00000000000E+00 0. -1.
        -13    1    1    2    0    0 -0.42820420602E+02 -0.16128274695E+03  0.32951911724E+03  0.36936238666E+03  0.10566000000E+00 0.  1.
         13    1    1    2    0    0  0.90583515512E+01  0.87574317436E+02 -0.21535411685E+03  0.23265580074E+03  0.10566000000E+00 0. -1.
          4    1    1    2  501    0 -0.93756975421E+01  0.32053474606E+02  0.51294269332E+01  0.33788163007E+02  0.00000000000E+00 0.  1.
         -4    1    1    2    0  502  0.43137766593E+02  0.41654954903E+02  0.17046005521E+03  0.18070039457E+03  0.00000000000E+00 0. -1.
</event>
<event>
 6    1  0.5496865E-006  0.7962993E+02  0.7818608E-02  0.1214446E+00
         21   -1    0    0  503  502  0.00000000000E+00  0.00000000000E+00  0.15112644503E+03  0.15112644503E+03  0.00000000000E+00 0.  1.
         21   -1    0    0  501  503 -0.00000000000E+00 -0.00000000000E+00 -0.50918930535E+03  0.50918930535E+03  0.00000000000E+00 0. -1.
        -13    1    1    2    0    0  0.87062351911E+02  0.26151673917E+02  0.71141770610E+02  0.11543364266E+03  0.10566000000E+00 0.  1.
         13    1    1    2    0    0 -0.41545878449E+02  0.93035477204E+02 -0.17813675619E+03  0.20521787229E+03  0.10566000000E+00 0. -1.
          4    1    1    2  501    0 -0.27909351352E+02 -0.83093647215E+02 -0.27787984964E+03  0.29137724162E+03  0.00000000000E+00 0.  1.
         -4    1    1    2    0  502 -0.17607122110E+02 -0.36093503905E+02  0.26811974898E+02  0.48286993809E+02  0.00000000000E+00 0. -1.
</event>
<event>
 6    1  0.5496865E-006  0.3236353E+02  0.7818608E-02  0.1392093E+00
         21   -1    0    0  503  502  0.00000000000E+00  0.00000000000E+00  0.22873293118E+03  0.22873293118E+03  0.00000000000E+00 0. -1.
         21   -1    0    0  501  503 -0.00000000000E+00 -0.00000000000E+00 -0.10053761230E+03  0.10053761230E+03  0.00000000000E+00 0. -1.
        -13    1    1    2    0    0 -0.34291910160E+02 -0.33084827414E+02 -0.36540816842E+02  0.60048175384E+02  0.10566000000E+00 0.  1.
         13    1    1    2    0    0  0.13362083673E+02  0.23817186345E+02 -0.41005252917E+02  0.49267084106E+02  0.10566000000E+00 0. -1.
          4    1    1    2  501    0 -0.73652879538E+01 -0.95797305592E+01  0.68882610391E+00  0.12103436935E+02  0.00000000000E+00 0.  1.
         -4    1    1    2    0  502  0.28295114440E+02  0.18847371628E+02  0.20505256254E+03  0.20785184705E+03  0.00000000000E+00 0. -1.
</event>
<event>
 6    1  0.5496865E-006  0.7683080E+02  0.7818608E-02  0.1209866E+00
         21   -1    0    0  503  502  0.00000000000E+00  0.00000000000E+00  0.21070131277E+03  0.21070131277E+03  0.00000000000E+00 0. -1.
         21   -1    0    0  501  503 -0.00000000000E+00 -0.00000000000E+00 -0.42882969515E+03  0.42882969515E+03  0.00000000000E+00 0. -1.
        -13    1    1    2    0    0 -0.79460004826E+02  0.12260151122E+02 -0.27398657127E+02  0.84940574809E+02  0.10566000000E+00 0.  1.
         13    1    1    2    0    0  0.70724247478E+02  0.20393763458E+02 -0.33821040178E+03  0.34612730578E+03  0.10566000000E+00 0. -1.
          4    1    1    2  501    0  0.60186489892E+01 -0.90745860187E+01 -0.28697152483E+02  0.30693628129E+02  0.00000000000E+00 0.  1.
         -4    1    1    2    0  502  0.27171083583E+01 -0.23579328561E+02  0.17617782901E+03  0.17776949920E+03  0.00000000000E+00 0. -1.
</event>
<event>
 6    1  0.5496865E-006  0.2336911E+03  0.7818608E-02  0.1039209E+00
         21   -1    0    0  503  502  0.00000000000E+00  0.00000000000E+00  0.67986270182E+03  0.67986270182E+03  0.00000000000E+00 0. -1.
         21   -1    0    0  501  503 -0.00000000000E+00 -0.00000000000E+00 -0.16305756276E+03  0.16305756276E+03  0.00000000000E+00 0.  1.
        -13    1    1    2    0    0 -0.17601887537E+03  0.13586909480E+03  0.83785269179E+02  0.23761952340E+03  0.10566000000E+00 0.  1.
         13    1    1    2    0    0  0.17201852002E+03 -0.17113872916E+03  0.24207116251E+03  0.34274960938E+03  0.10566000000E+00 0. -1.
          4    1    1    2  501    0 -0.43650343105E+02 -0.23173709555E+02 -0.77505232965E+01  0.50024432822E+02  0.00000000000E+00 0.  1.
         -4    1    1    2    0  502  0.47650698452E+02  0.58443343910E+02  0.19869923067E+03  0.21252669898E+03  0.00000000000E+00 0. -1.
</event>
<event>
 6    1  0.5496865E-006  0.3127879E+02  0.7818608E-02  0.1404175E+00
         21   -1    0    0  501  502  0.00000000000E+00  0.00000000000E+00  0.12415911494E+03  0.12415911494E+03  0.00000000000E+00 0.  1.
         21   -1    0    0  502  503 -0.00000000000E+00 -0.00000000000E+00 -0.66883750955E+03  0.66883750955E+03  0.00000000000E+00 0. -1.
        -13    1    1    2    0    0 -0.28847432310E+02  0.85988906863E+01 -0.82111912940E+02  0.87455661238E+02  0.10566000000E+00 0.  1.
         13    1    1    2    0    0  0.13338065553E+02  0.49132239048E+02 -0.37189938264E+02  0.63047470835E+02  0.10566000000E+00 0. -1.
          4    1    1    2  501    0  0.12884054826E+02 -0.30719198567E+02  0.10564830329E+03  0.11077559306E+03  0.00000000000E+00 0.  1.
         -4    1    1    2    0  503  0.26253119307E+01 -0.27011931167E+02 -0.53102484670E+03  0.53171789936E+03  0.00000000000E+00 0. -1.
</event>
<event>
 6    1  0.5496865E-006  0.1749656E+03  0.7818608E-02  0.1123512E+00
         21   -1    0    0  501  502  0.00000000000E+00  0.00000000000E+00  0.18797619549E+03  0.18797619549E+03  0.00000000000E+00 0. -1.
         21   -1    0    0  502  503 -0.00000000000E+00 -0.00000000000E+00 -0.13096386914E+04  0.13096386914E+04  0.00000000000E+00 0.  1.
        -13    1    1    2    0    0 -0.37626166936E+02 -0.19855513805E+03 -0.26616236989E+03  0.33418900280E+03  0.10566000000E+00 0.  1.
         13    1    1    2    0    0 -0.46822158144E+01  0.51863386989E+02  0.13853685441E+03  0.14800069340E+03  0.10566000000E+00 0. -1.
          4    1    1    2  501    0  0.52931153957E+02  0.12600569782E+03 -0.43634049991E+03  0.45724410855E+03  0.00000000000E+00 0.  1.
         -4    1    1    2    0  503 -0.10622771207E+02  0.20686053242E+02 -0.55769648052E+03  0.55818108213E+03  0.00000000000E+00 0. -1.
</event>
<event>
 6    1  0.5496865E-006  0.1732268E+03  0.7818608E-02  0.1080220E+00
         21   -1    0    0  501  502  0.00000000000E+00  0.00000000000E+00  0.17399851222E+03  0.17399851222E+03  0.00000000000E+00 0. -1.
         21   -1    0    0  502  503 -0.00000000000E+00 -0.00000000000E+00 -0.20945266894E+04  0.20945266894E+04  0.00000000000E+00 0. -1.
        -13    1    1    2    0    0 -0.26245383600E+03 -0.37455348563E+02 -0.34395915459E+03  0.43427276032E+03  0.10566000000E+00 0.  1.
         13    1    1    2    0    0  0.16533379523E+03 -0.17396694038E+02  0.22894856067E+02  0.16781565603E+03  0.10566000000E+00 0. -1.
          4    1    1    2  501    0 -0.15141358852E+02 -0.22157202159E+02  0.24762304221E+02  0.36515394914E+02  0.00000000000E+00 0.  1.
         -4    1    1    2    0  503  0.11226139962E+03  0.77009244761E+02 -0.16242261829E+04  0.16299213904E+04  0.00000000000E+00 0. -1.
</event>
<event>
 6    1  0.5496865E-006  0.2419594E+03  0.7818608E-02  0.1034646E+00
         21   -1    0    0  501  502  0.00000000000E+00  0.00000000000E+00  0.53036474361E+03  0.53036474361E+03  0.00000000000E+00 0.  1.
         21   -1    0    0  502  503 -0.00000000000E+00 -0.00000000000E+00 -0.51712848403E+03  0.51712848403E+03  0.00000000000E+00 0.  1.
        -13    1    1    2    0    0 -0.95335839621E+02  0.21643368751E+03 -0.32644608871E+02  0.23874284295E+03  0.10566000000E+00 0.  1.
         13    1    1    2    0    0  0.19007559321E+03 -0.16955814299E+03 -0.24646666838E+03  0.35443550157E+03  0.10566000000E+00 0. -1.
          4    1    1    2  501    0 -0.77447918682E+02 -0.38764695002E+02  0.36709120569E+03  0.37716950431E+03  0.00000000000E+00 0.  1.
         -4    1    1    2    0  503 -0.17291834911E+02 -0.81108495148E+01 -0.74743668871E+02  0.77145378804E+02  0.00000000000E+00 0. -1.
</event>
<event>
 6    1  0.5496865E-006  0.5198516E+02  0.7818608E-02  0.1297845E+00
         21   -1    0    0  503  502  0.00000000000E+00  0.00000000000E+00  0.23930884581E+03  0.23930884581E+03  0.00000000000E+00 0. -1.
         21   -1    0    0  501  503 -0.00000000000E+00 -0.00000000000E+00 -0.24228462352E+03  0.24228462352E+03  0.00000000000E+00 0. -1.
        -13    1    1    2    0    0  0.19681037062E+02 -0.34400633510E+02  0.18266126709E+03  0.18691146691E+03  0.10566000000E+00 0.  1.
         13    1    1    2    0    0 -0.44411976402E+02 -0.22440946886E+02 -0.16992274732E+03  0.17705866533E+03  0.10566000000E+00 0. -1.
          4    1    1    2  501    0 -0.13715407216E+01  0.10967646071E+02 -0.52266167831E+02  0.53422117929E+02  0.00000000000E+00 0.  1.
         -4    1    1    2    0  502  0.26102480062E+02  0.45873934325E+02  0.36551870360E+02  0.64201219167E+02  0.00000000000E+00 0. -1.
</event>
<event>
 6    1  0.5496865E-006  0.1102971E+03  0.7818608E-02  0.1148558E+00
         21   -1    0    0  501  502  0.00000000000E+00  0.00000000000E+00  0.44893975785E+03  0.44893975785E+03  0.00000000000E+00 0.  1.
         21   -1    0    0  502  503 -0.00000000000E+00 -0.00000000000E+00 -0.21086222436E+03  0.21086222436E+03  0.00000000000E+00 0.  1.
        -13    1    1    2    0    0 -0.98450656167E+02  0.15885857549E+01 -0.19009753521E+02  0.10028178896E+03  0.10566000000E+00 0.  1.
         13    1    1    2    0    0  0.12107853012E+03 -0.11555943456E+02  0.12470778663E+02  0.12226643763E+03  0.10566000000E+00 0. -1.
          4    1    1    2  501    0 -0.18860967212E+01  0.14524161329E+02  0.33960481647E+03  0.33992049069E+03  0.00000000000E+00 0.  1.
         -4    1    1    2    0  503 -0.20741777234E+02 -0.45568036281E+01 -0.94988308121E+02  0.97333264930E+02  0.00000000000E+00 0. -1.
</event>
<event>
 6    1  0.5496865E-006  0.1270704E+03  0.7818608E-02  0.1126216E+00
         21   -1    0    0  503  502  0.00000000000E+00  0.00000000000E+00  0.12731732866E+03  0.12731732866E+03  0.00000000000E+00 0.  1.
         21   -1    0    0  501  503 -0.00000000000E+00 -0.00000000000E+00 -0.31999208834E+03  0.31999208834E+03  0.00000000000E+00 0.  1.
        -13    1    1    2    0    0 -0.12353138530E+03  0.11133798842E+03 -0.33254187912E+02  0.16959364079E+03  0.10566000000E+00 0.  1.
         13    1    1    2    0    0  0.10350539248E+03 -0.33853084945E+02 -0.53105845415E+02  0.12115956262E+03  0.10566000000E+00 0. -1.
          4    1    1    2  501    0  0.16962964790E+00 -0.14492687410E+02 -0.86348750546E+02  0.87556687257E+02  0.00000000000E+00 0.  1.
         -4    1    1    2    0  502  0.19856363173E+02 -0.62992216070E+02 -0.19965975800E+02  0.68999526328E+02  0.00000000000E+00 0. -1.
</event>
<event>
 6    1  0.5496865E-006  0.1736092E+03  0.7818608E-02  0.1079906E+00
         21   -1    0    0  501  502  0.00000000000E+00  0.00000000000E+00  0.10097663994E+03  0.10097663994E+03  0.00000000000E+00 0. -1.
         21   -1    0    0  502  503 -0.00000000000E+00 -0.00000000000E+00 -0.13719644744E+04  0.13719644744E+04  0.00000000000E+00 0. -1.
        -13    1    1    2    0    0 -0.21011315155E+02 -0.20982101483E+03 -0.34195037307E+03  0.40174171110E+03  0.10566000000E+00 0.  1.
         13    1    1    2    0    0  0.46889197920E+02  0.14227289870E+03 -0.19426570137E+03  0.24531479466E+03  0.10566000000E+00 0. -1.
          4    1    1    2  501    0 -0.14332929697E+02  0.12708180877E+02  0.42488340976E+02  0.46606757598E+02  0.00000000000E+00 0.  1.
         -4    1    1    2    0  503 -0.11544953069E+02  0.54839935260E+02 -0.77726010099E+03  0.77927785099E+03  0.00000000000E+00 0. -1.
</event>
<event>
 6    1  0.5496865E-006  0.4957533E+02  0.7818608E-02  0.1293527E+00
         21   -1    0    0  501  502  0.00000000000E+00  0.00000000000E+00  0.40980758060E+03  0.40980758060E+03  0.00000000000E+00 0. -1.
         21   -1    0    0  502  503 -0.00000000000E+00 -0.00000000000E+00 -0.12369033953E+02  0.12369033953E+02  0.00000000000E+00 0.  1.
        -13    1    1    2    0    0  0.16761971241E+02  0.62363313953E+02  0.15587000117E+03  0.16871755995E+03  0.10566000000E+00 0.  1.
         13    1    1    2    0    0 -0.12002631262E+02 -0.36239203964E+02  0.14648879925E+03  0.15138138106E+03  0.10566000000E+00 0. -1.
          4    1    1    2  501    0 -0.65841065560E+01 -0.11111295389E+02  0.78823102958E+02  0.79874231792E+02  0.00000000000E+00 0.  1.
         -4    1    1    2    0  503  0.18247665766E+01 -0.15012814600E+02  0.16256643264E+02  0.22203441749E+02  0.00000000000E+00 0. -1.
</event>
<event>
 6    1  0.5496865E-006  0.1914728E+03  0.7818608E-02  0.1066144E+00
         21   -1    0    0  501  502  0.00000000000E+00  0.00000000000E+00  0.40900421448E+03  0.40900421448E+03  0.00000000000E+00 0.  1.
         21   -1    0    0  502  503 -0.00000000000E+00 -0.00000000000E+00 -0.62279795465E+03  0.62279795465E+03  0.00000000000E+00 0. -1.
        -13    1    1    2    0    0 -0.20590817604E+03 -0.12913133042E+03 -0.22945488932E+03  0.33424936029E+03  0.10566000000E+00 0.  1.
         13    1    1    2    0    0  0.10363110147E+03  0.10121091385E+03 -0.56304812912E+02  0.15541331151E+03  0.10566000000E+00 0. -1.
          4    1    1    2  501    0  0.69978259455E+02  0.50607139498E+02  0.29924571739E+03  0.31145792451E+03  0.00000000000E+00 0.  1.
         -4    1    1    2    0  503  0.32298815118E+02 -0.22686722921E+02 -0.22727975533E+03  0.23068157282E+03  0.00000000000E+00 0. -1.
</event>
<event>
 6    1  0.5496865E-006  0.1102244E+03  0.7818608E-02  0.1148664E+00
         21   -1    0    0  503  502  0.00000000000E+00  0.00000000000E+00  0.12065598119E+03  0.12065598119E+03  0.00000000000E+00 0. -1.
         21   -1    0    0  501  503 -0.00000000000E+00 -0.00000000000E+00 -0.30841234684E+03  0.30841234684E+03  0.00000000000E+00 0.  1.
        -13    1    1    2    0    0  0.76018620964E+02 -0.32512728561E+02 -0.22647465353E+02  0.85725300248E+02  0.10566000000E+00 0.  1.
         13    1    1    2    0    0 -0.17011063473E+03 -0.20461949634E+02 -0.57017513226E+02  0.18057499110E+03  0.10566000000E+00 0. -1.
          4    1    1    2  501    0  0.85022131278E+02  0.26356215325E+02 -0.99183632893E+02  0.13326967370E+03  0.00000000000E+00 0.  1.
         -4    1    1    2    0  502  0.90698824921E+01  0.26618462870E+02 -0.89077541777E+01  0.29498362980E+02  0.00000000000E+00 0. -1.
</event>
<event>
 6    1  0.5496865E-006  0.2777843E+03  0.7818608E-02  0.1044424E+00
         21   -1    0    0  501  502  0.00000000000E+00  0.00000000000E+00  0.12717316081E+04  0.12717316081E+04  0.00000000000E+00 0. -1.
         21   -1    0    0  502  503 -0.00000000000E+00 -0.00000000000E+00 -0.15106290219E+03  0.15106290219E+03  0.00000000000E+00 0.  1.
        -13    1    1    2    0    0 -0.22032530925E+03 -0.24661080274E+03  0.27023175861E+03  0.42706597201E+03  0.10566000000E+00 0.  1.
         13    1    1    2    0    0  0.64059276434E+01  0.81236353509E+02  0.56306691774E+02  0.99049663013E+02  0.10566000000E+00 0. -1.
          4    1    1    2  501    0  0.24691159310E+03  0.51178911429E+02  0.31750602910E+03  0.40545615582E+03  0.00000000000E+00 0.  1.
         -4    1    1    2    0  503 -0.32992211485E+02  0.11419553780E+03  0.47662422644E+03  0.49122271945E+03  0.00000000000E+00 0. -1.
</event>
<event>
 6    1  0.5496865E-006  0.6768975E+02  0.7818608E-02  0.1232923E+00
         21   -1    0    0  503  502  0.00000000000E+00  0.00000000000E+00  0.25926418327E+03  0.25926418327E+03  0.00000000000E+00 0. -1.
         21   -1    0    0  501  503 -0.00000000000E+00 -0.00000000000E+00 -0.17356161491E+03  0.17356161491E+03  0.00000000000E+00 0. -1.
        -13    1    1    2    0    0  0.40528498561E+02  0.56571440016E+02  0.65110320425E+02  0.95300850002E+02  0.10566000000E+00 0.  1.
         13    1    1    2    0    0  0.12420413328E+02 -0.67324792481E+02 -0.10975166265E+03  0.12935351935E+03  0.10566000000E+00 0. -1.
          4    1    1    2  501    0 -0.99777668469E+01 -0.22028689600E+01 -0.35199051950E+02  0.36652172120E+02  0.00000000000E+00 0.  1.
         -4    1    1    2    0  502 -0.42971145043E+02  0.12956221424E+02  0.16554296253E+03  0.17151925671E+03  0.00000000000E+00 0. -1.
</event>
<event>
 6    1  0.5496865E-006  0.5998604E+02  0.7818608E-02  0.1255746E+00
         21   -1    0    0  503  502  0.00000000000E+00  0.00000000000E+00  0.18612936448E+03  0.18612936448E+03  0.00000000000E+00 0.  1.
         21   -1    0    0  501  503 -0.00000000000E+00 -0.00000000000E+00 -0.51506614930E+02  0.51506614930E+02  0.00000000000E+00 0. -1.
        -13    1    1    2    0    0 -0.99618398144E+01  0.50999872667E+02  0.51380065300E+02  0.73076313117E+02  0.10566000000E+00 0.  1.
         13    1    1    2    0    0 -0.19683518880E+02 -0.82145033506E+02  0.36049252379E+02  0.91841206472E+02  0.10566000000E+00 0. -1.
          4    1    1    2  501    0  0.10521552674E+02  0.33922924084E+02  0.25861524110E+02  0.43935023368E+02  0.00000000000E+00 0.  1.
         -4    1    1    2    0  502  0.19123806020E+02 -0.27777632450E+01  0.21331907764E+02  0.28783436456E+02  0.00000000000E+00 0. -1.
</event>
<event>
 6    1  0.5496865E-006  0.8418232E+02  0.7818608E-02  0.1193764E+00
         21   -1    0    0  503  502  0.00000000000E+00  0.00000000000E+00  0.74067373268E+03  0.74067373268E+03  0.00000000000E+00 0.  1.
         21   -1    0    0  501  503 -0.00000000000E+00 -0.00000000000E+00 -0.35555705311E+02  0.35555705311E+02  0.00000000000E+00 0.  1.
        -13    1    1    2    0    0  0.65515476857E+02  0.32061609212E+02  0.32665188329E+03  0.33469641246E+03  0.10566000000E+00 0.  1.
         13    1    1    2    0    0 -0.12819367267E+03 -0.31671823482E+02  0.28588818027E+03  0.31491075703E+03  0.10566000000E+00 0. -1.
          4    1    1    2  501    0  0.63381918353E+02  0.97263654476E+01  0.45907857943E+02  0.78863180128E+02  0.00000000000E+00 0.  1.
         -4    1    1    2    0  502 -0.70372254180E+00 -0.10116151178E+02  0.46670105871E+02  0.47759088371E+02  0.00000000000E+00 0. -1.
</event>
<event>
 6    1  0.5496865E-006  0.1163504E+03  0.7818608E-02  0.1140021E+00
         21   -1    0    0  501  502  0.00000000000E+00  0.00000000000E+00  0.31217678573E+03  0.31217678573E+03  0.00000000000E+00 0. -1.
         21   -1    0    0  502  503 -0.00000000000E+00 -0.00000000000E+00 -0.81220776275E+03  0.81220776275E+03  0.00000000000E+00 0. -1.
        -13    1    1    2    0    0 -0.10469990264E+03 -0.38810631089E+02 -0.17333403578E+03  0.20618689052E+03  0.10566000000E+00 0.  1.
         13    1    1    2    0    0  0.15551704041E+03  0.11015838671E+03  0.13297767353E+03  0.23238651605E+03  0.10566000000E+00 0. -1.
          4    1    1    2  501    0 -0.58263524177E+02 -0.59624639751E+02  0.97603743634E+02  0.12835975493E+03  0.00000000000E+00 0.  1.
         -4    1    1    2    0  503  0.74463864088E+01 -0.11723115874E+02 -0.55727835840E+03  0.55745138699E+03  0.00000000000E+00 0. -1.
</event>
<event>
 6    1  0.5496865E-006  0.6415704E+02  0.7818608E-02  0.1242946E+00
         21   -1    0    0  503  502  0.00000000000E+00  0.00000000000E+00  0.82279470506E+02  0.82279470506E+02  0.00000000000E+00 0.  1.
         21   -1    0    0  501  503 -0.00000000000E+00 -0.00000000000E+00 -0.19901682071E+03  0.19901682071E+03  0.00000000000E+00 0. -1.
        -13    1    1    2    0    0  0.40740126078E+02  0.69789306876E+02  0.57968401780E+01  0.81018021126E+02  0.10566000000E+00 0.  1.
         13    1    1    2    0    0 -0.12020264866E+02 -0.46552292695E+02 -0.12125466841E+03  0.13043890714E+03  0.10566000000E+00 0. -1.
          4    1    1    2  501    0  0.28247869130E+01 -0.19763059083E+02 -0.23696429165E+02  0.30985136446E+02  0.00000000000E+00 0.  1.
         -4    1    1    2    0  502 -0.31544648125E+02 -0.34739550985E+01  0.22416907186E+02  0.38854226503E+02  0.00000000000E+00 0. -1.
</event>
<event>
 6    1  0.5496865E-006  0.3654615E+02  0.7818608E-02  0.1358928E+00
         21   -1    0    0  503  502  0.00000000000E+00  0.00000000000E+00  0.26338870160E+03  0.26338870160E+03  0.00000000000E+00 0.  1.
         21   -1    0    0  501  503 -0.00000000000E+00 -0.00000000000E+00 -0.46407747808E+02  0.46407747808E+02  0.00000000000E+00 0. -1.
        -13    1    1    2    0    0 -0.29930391871E+02 -0.14813554291E+02  0.18371408925E+03  0.18672479081E+03  0.10566000000E+00 0.  1.
         13    1    1    2    0    0  0.30425459929E+02  0.35355022483E+02 -0.98557466200E+00  0.46654782693E+02  0.10566000000E+00 0. -1.
          4    1    1    2  501    0  0.65198218109E+01 -0.30064978895E+02 -0.86151905218E+01  0.31947340110E+02  0.00000000000E+00 0.  1.
         -4    1    1    2    0  502 -0.70148898683E+01  0.95235107030E+01  0.42867629719E+02  0.44469535793E+02  0.00000000000E+00 0. -1.
</event>
<event>
 6    1  0.5496865E-006  0.4616998E+02  0.7818608E-02  0.1308220E+00
         21   -1    0    0  503  502  0.00000000000E+00  0.00000000000E+00  0.15293732401E+03  0.15293732401E+03  0.00000000000E+00 0.  1.
         21   -1    0    0  501  503 -0.00000000000E+00 -0.00000000000E+00 -0.93819330394E+02  0.93819330394E+02  0.00000000000E+00 0. -1.
        -13    1    1    2    0    0  0.21120471111E+02 -0.58588083534E+02  0.10066525235E+03  0.11837289397E+03  0.10566000000E+00 0.  1.
         13    1    1    2    0    0  0.10890277638E+02  0.51363513182E+02 -0.61099568518E+02  0.80560393932E+02  0.10566000000E+00 0. -1.
          4    1    1    2  501    0 -0.18617138856E+02 -0.96989754543E+01  0.43867561889E+01  0.21445549979E+02  0.00000000000E+00 0.  1.
         -4    1    1    2    0  502 -0.13393609893E+02  0.16923545806E+02  0.15165553595E+02  0.26377816521E+02  0.00000000000E+00 0. -1.
</event>
<event>
 6    1  0.5496865E-006  0.9692162E+02  0.7818608E-02  0.1209023E+00
         21   -1    0    0  501  502  0.00000000000E+00  0.00000000000E+00  0.14278062691E+03  0.14278062691E+03  0.00000000000E+00 0. -1.
         21   -1    0    0  502  503 -0.00000000000E+00 -0.00000000000E+00 -0.32775805409E+03  0.32775805409E+03  0.00000000000E+00 0. -1.
        -13    1    1    2    0    0 -0.16446242686E+02  0.36375492728E+02 -0.13640943902E+03  0.14213093115E+03  0.10566000000E+00 0.  1.
         13    1    1    2    0    0  0.80487001596E+02 -0.77032946368E+02 -0.23510622137E+02  0.11386392216E+03  0.10566000000E+00 0. -1.
          4    1    1    2  501    0  0.21211508790E+01 -0.22214635617E+02  0.75507828026E+02  0.78736404603E+02  0.00000000000E+00 0.  1.
         -4    1    1    2    0  503 -0.66161909789E+02  0.62872089258E+02 -0.10056519404E+03  0.13580742309E+03  0.00000000000E+00 0. -1.
</event>
<event>
 6    1  0.5496865E-006  0.5786862E+02  0.7818608E-02  0.1262698E+00
         21   -1    0    0  503  502  0.00000000000E+00  0.00000000000E+00  0.20119016347E+03  0.20119016347E+03  0.00000000000E+00 0.  1.
         21   -1    0    0  501  503 -0.00000000000E+00 -0.00000000000E+00 -0.97014510137E+02  0.97014510137E+02  0.00000000000E+00 0. -1.
        -13    1    1    2    0    0 -0.81482943033E+01 -0.58271381830E+02  0.13976513645E+03  0.15164515545E+03  0.10566000000E+00 0.  1.
         13    1    1    2    0    0 -0.36931964854E+02  0.58261479529E+02 -0.19842081431E+01  0.69009552026E+02  0.10566000000E+00 0. -1.
          4    1    1    2  501    0  0.11052342045E+02 -0.11450395109E+02 -0.38170262718E+02  0.41354984812E+02  0.00000000000E+00 0.  1.
         -4    1    1    2    0  502  0.34027917111E+02  0.11460297410E+02  0.45649877463E+01  0.36194981320E+02  0.00000000000E+00 0. -1.
</event>
<event>
 6    1  0.5496865E-006  0.3803081E+03  0.7818608E-02  0.9787704E-01
         21   -1    0    0  503  502  0.00000000000E+00  0.00000000000E+00  0.54242351323E+03  0.54242351323E+03  0.00000000000E+00 0. -1.
         21   -1    0    0  501  503 -0.00000000000E+00 -0.00000000000E+00 -0.52222187451E+03  0.52222187451E+03  0.00000000000E+00 0. -1.
        -13    1    1    2    0    0 -0.22010213077E+03  0.14457582397E+03  0.18465688591E+03  0.32162912418E+03  0.10566000000E+00 0.  1.
         13    1    1    2    0    0  0.44881419681E+03 -0.18081237883E+03 -0.66835874497E+02  0.48846120100E+03  0.10566000000E+00 0. -1.
          4    1    1    2  501    0 -0.20429696358E+02  0.84455986667E+01 -0.22125341077E+02  0.31276690169E+02  0.00000000000E+00 0.  1.
         -4    1    1    2    0  502 -0.20828236969E+03  0.27790956201E+02 -0.75494031617E+02  0.22327837239E+03  0.00000000000E+00 0. -1.
</event>
<event>
 6    1  0.5496865E-006  0.5539723E+02  0.7818608E-02  0.1287445E+00
         21   -1    0    0  503  502  0.00000000000E+00  0.00000000000E+00  0.52290063608E+02  0.52290063608E+02  0.00000000000E+00 0. -1.
         21   -1    0    0  501  503 -0.00000000000E+00 -0.00000000000E+00 -0.21147696848E+03  0.21147696848E+03  0.00000000000E+00 0.  1.
        -13    1    1    2    0    0 -0.12042606452E+02 -0.20306421303E+02 -0.68912548561E+02  0.72844530539E+02  0.10566000000E+00 0.  1.
         13    1    1    2    0    0  0.28652227786E+01 -0.31987278012E+02 -0.57463475619E+02  0.65829003110E+02  0.10566000000E+00 0. -1.
          4    1    1    2  501    0 -0.39766159557E+02 -0.47626065193E+01 -0.29692300853E+02  0.49856419814E+02  0.00000000000E+00 0.  1.
         -4    1    1    2    0  502  0.48943543231E+02  0.57056305835E+02 -0.31185798382E+01  0.75237078623E+02  0.00000000000E+00 0. -1.
</event>
<event>
 6    1  0.5496865E-006  0.3980994E+02  0.7818608E-02  0.1339922E+00
         21   -1    0    0  503  502  0.00000000000E+00  0.00000000000E+00  0.34148182952E+03  0.34148182952E+03  0.00000000000E+00 0.  1.
         21   -1    0    0  501  503 -0.00000000000E+00 -0.00000000000E+00 -0.43026054518E+02  0.43026054518E+02  0.00000000000E+00 0. -1.
        -13    1    1    2    0    0  0.40766226849E+02  0.11851264755E+02  0.20414610462E+03  0.20851374277E+03  0.10566000000E+00 0.  1.
         13    1    1    2    0    0 -0.22989596674E+02 -0.15455478694E+02 -0.20466595172E+02  0.34442503667E+02  0.10566000000E+00 0. -1.
          4    1    1    2  501    0 -0.53328943003E+01 -0.15191200229E+02 -0.71088409990E+01  0.17599657564E+02  0.00000000000E+00 0.  1.
         -4    1    1    2    0  502 -0.12443735876E+02  0.18795414168E+02  0.12188510655E+03  0.12395198004E+03  0.00000000000E+00 0. -1.
</event>
<event>
 6    1  0.5496865E-006  0.7393091E+02  0.7818608E-02  0.1216776E+00
         21   -1    0    0  501  502  0.00000000000E+00  0.00000000000E+00  0.76660186112E+02  0.76660186112E+02  0.00000000000E+00 0.  1.
         21   -1    0    0  502  503 -0.00000000000E+00 -0.00000000000E+00 -0.30100306297E+03  0.30100306297E+03  0.00000000000E+00 0.  1.
        -13    1    1    2    0    0 -0.20969935050E+02 -0.84943920176E+02 -0.19613155463E+03  0.21476220719E+03  0.10566000000E+00 0.  1.
         13    1    1    2    0    0  0.80658383862E+01  0.64246211515E+02 -0.71092092385E+02  0.96159919959E+02  0.10566000000E+00 0. -1.
          4    1    1    2  501    0 -0.35178535464E+01  0.10651691232E+02  0.45903453522E+02  0.47254215314E+02  0.00000000000E+00 0.  1.
         -4    1    1    2    0  503  0.16421950210E+02  0.10046017429E+02 -0.30226833653E+01  0.19486906620E+02  0.00000000000E+00 0. -1.
</event>
<event>
 6    1  0.5496865E-006  0.2492056E+03  0.7818608E-02  0.1030805E+00
         21   -1    0    0  503  502  0.00000000000E+00  0.00000000000E+00  0.34228803927E+03  0.34228803927E+03  0.00000000000E+00 0. -1.
         21   -1    0    0  501  503 -0.00000000000E+00 -0.00000000000E+00 -0.77479161933E+03  0.77479161933E+03  0.00000000000E+00 0. -1.
        -13    1    1    2    0    0 -0.21603033689E+03  0.14838248953E+02  0.43156091008E+02  0.22079796069E+03  0.10566000000E+00 0.  1.
         13    1    1    2    0    0  0.31289776779E+03 -0.86192124084E+01 -0.78392970133E+02  0.32268370402E+03  0.10566000000E+00 0. -1.
          4    1    1    2  501    0 -0.88735080287E+02 -0.14527974748E+02 -0.48086278180E+03  0.48919729297E+03  0.00000000000E+00 0.  1.
         -4    1    1    2    0  502 -0.81323506084E+01  0.83089382034E+01  0.83596080872E+02  0.84400700931E+02  0.00000000000E+00 0. -1.
</event>
<event>
 6    1  0.5496865E-006  0.3943579E+03  0.7818608E-02  0.9745483E-01
         21   -1    0    0  501  502  0.00000000000E+00  0.00000000000E+00  0.94467162129E+03  0.94467162129E+03  0.00000000000E+00 0.  1.
         21   -1    0    0  502  503 -0.00000000000E+00 -0.00000000000E+00 -0.21582947926E+03  0.21582947926E+03  0.00000000000E+00 0. -1.
        -13    1    1    2    0    0 -0.25453447984E+03 -0.30248706956E+03  0.44887392318E+03  0.59814215597E+03  0.10566000000E+00 0.  1.
         13    1    1    2    0    0  0.20646885195E+03  0.34441088533E+03  0.27281589712E+03  0.48546551849E+03  0.10566000000E+00 0. -1.
          4    1    1    2  501    0  0.35853709900E+01 -0.27396136420E+02 -0.60286220828E+01  0.28279806578E+02  0.00000000000E+00 0.  1.
         -4    1    1    2    0  503  0.44480256901E+02 -0.14527679352E+02  0.13180943816E+02  0.48613619503E+02  0.00000000000E+00 0. -1.
</event>
<event>
 6    1  0.5496865E-006  0.1877447E+03  0.7818608E-02  0.1068878E+00
         21   -1    0    0  501  502  0.00000000000E+00  0.00000000000E+00  0.68497217207E+02  0.68497217207E+02  0.00000000000E+00 0.  1.
         21   -1    0    0  502  503 -0.00000000000E+00 -0.00000000000E+00 -0.78759728786E+03  0.78759728786E+03  0.00000000000E+00 0. -1.
        -13    1    1    2    0    0  0.79774939580E+02 -0.18645204050E+03 -0.21582792438E+03  0.29615892439E+03  0.10566000000E+00 0.  1.
         13    1    1    2    0    0 -0.46889869429E+02  0.17029864588E+03 -0.31928661316E+03  0.36488935467E+03  0.10566000000E+00 0. -1.
          4    1    1    2  501    0 -0.38927260681E+02  0.47385058141E+01 -0.69219852034E+02  0.79556099560E+02  0.00000000000E+00 0.  1.
         -4    1    1    2    0  503  0.60421905300E+01  0.11414888801E+02 -0.11476568108E+03  0.11549012645E+03  0.00000000000E+00 0. -1.
</event>
<event>
 6    1  0.5496865E-006  0.1464372E+03  0.7818608E-02  0.1104679E+00
         21   -1    0    0  501  502  0.00000000000E+00  0.00000000000E+00  0.17705959888E+03  0.17705959888E+03  0.00000000000E+00 0. -1.
         21   -1    0    0  502  503 -0.00000000000E+00 -0.00000000000E+00 -0.76820718730E+03  0.76820718730E+03  0.00000000000E+00 0.  1.
        -13    1    1    2    0    0  0.12969776362E+03 -0.66530878667E+01 -0.36086233852E+03  0.38351976741E+03  0.10566000000E+00 0.  1.
         13    1    1    2    0    0 -0.23598069851E+03 -0.78491406836E+02 -0.23224489475E+02  0.24977425627E+03  0.10566000000E+00 0. -1.
          4    1    1    2  501    0  0.95535891182E+02  0.91882752874E+02 -0.31875666684E+02  0.13632903178E+03  0.00000000000E+00 0.  1.
         -4    1    1    2    0  503  0.10747043712E+02 -0.67382581712E+01 -0.17518509374E+03  0.17564373071E+03  0.00000000000E+00 0. -1.
</event>
<event>
 6    1  0.5496865E-006  0.1233687E+03  0.7818608E-02  0.1130809E+00
         21   -1    0    0  501  502  0.00000000000E+00  0.00000000000E+00  0.14692598418E+03  0.14692598418E+03  0.00000000000E+00 0. -1.
         21   -1    0    0  502  503 -0.00000000000E+00 -0.00000000000E+00 -0.40770368908E+03  0.40770368908E+03  0.00000000000E+00 0. -1.
        -13    1    1    2    0    0  0.12398150405E+03  0.11404780514E+02 -0.46622322595E+02  0.13294786381E+03  0.10566000000E+00 0.  1.
         13    1    1    2    0    0 -0.11874886858E+03  0.11566715957E+02  0.63423372127E+02  0.13512075341E+03  0.10566000000E+00 0. -1.
          4    1    1    2  501    0  0.62315381460E+01  0.18533860405E+02 -0.34136662871E+02  0.39340155073E+02  0.00000000000E+00 0.  1.
         -4    1    1    2    0  503 -0.11464173613E+02 -0.41505356877E+02 -0.24344209156E+03  0.24722090096E+03  0.00000000000E+00 0. -1.
</event>
<event>
 6    1  0.7908712E-006  0.1996737E+03  0.7818608E-02  0.1060360E+00
         21   -1    0    0  501  502  0.00000000000E+00  0.00000000000E+00  0.45155152099E+03  0.45155152099E+03  0.00000000000E+00 0. -1.
         21   -1    0    0  502  503 -0.00000000000E+00 -0.00000000000E+00 -0.67970155398E+03  0.67970155398E+03  0.00000000000E+00 0.  1.
        -13    1    1    2    0    0  0.19735270265E+03 -0.69956732349E+02 -0.31759790667E+03  0.38040830055E+03  0.10566000000E+00 0.  1.
         13    1    1    2    0    0 -0.22543886721E+03  0.66017070273E+02  0.34168563242E+03  0.41464444888E+03  0.10566000000E+00 0. -1.
          4    1    1    2  501    0  0.43582553579E+02  0.53531395259E+01  0.30226397030E+02  0.53307880812E+02  0.00000000000E+00 0.  1.
         -4    1    1    2    0  503 -0.15496389015E+02 -0.14134774497E+01 -0.28246415577E+03  0.28289244473E+03  0.00000000000E+00 0. -1.
</event>
<event>
 6    1  0.5496865E-006  0.2085493E+03  0.7818608E-02  0.1054428E+00
         21   -1    0    0  503  502  0.00000000000E+00  0.00000000000E+00  0.43053512040E+03  0.43053512040E+03  0.00000000000E+00 0.  1.
         21   -1    0    0  501  503 -0.00000000000E+00 -0.00000000000E+00 -0.44682293042E+03  0.44682293042E+03  0.00000000000E+00 0. -1.
        -13    1    1    2    0    0 -0.27398306382E+02 -0.17749847081E+03  0.29770331010E+03  0.34768325576E+03  0.10566000000E+00 0.  1.
         13    1    1    2    0    0  0.34682930332E+02  0.20637888818E+03 -0.35748236500E+03  0.41423278914E+03  0.10566000000E+00 0. -1.
          4    1    1    2  501    0 -0.42037440974E+02  0.72531539729E+01 -0.81921505643E+01  0.43438071056E+02  0.00000000000E+00 0.  1.
         -4    1    1    2    0  502  0.34752817024E+02 -0.36133571345E+02  0.51683395462E+02  0.72003934862E+02  0.00000000000E+00 0. -1.
</event>
<event>
 6    1  0.5496865E-006  0.9736725E+02  0.7818608E-02  0.1168986E+00
         21   -1    0    0  503  502  0.00000000000E+00  0.00000000000E+00  0.12546949095E+04  0.12546949095E+04  0.00000000000E+00 0. -1.
         21   -1    0    0  501  503 -0.00000000000E+00 -0.00000000000E+00 -0.24552247745E+02  0.24552247745E+02  0.00000000000E+00 0. -1.
        -13    1    1    2    0    0 -0.60167473958E+01  0.90811250090E+02  0.49257477429E+03  0.50091197213E+03  0.10566000000E+00 0.  1.
         13    1    1    2    0    0 -0.21207042380E+02 -0.88389559618E+02  0.90017264959E+02  0.12792799557E+03  0.10566000000E+00 0. -1.
          4    1    1    2  501    0  0.83618015236E+01 -0.14581220475E+02  0.56909823025E+02  0.59340202831E+02  0.00000000000E+00 0.  1.
         -4    1    1    2    0  502  0.18861988252E+02  0.12159530003E+02  0.59064079944E+03  0.59106698667E+03  0.00000000000E+00 0. -1.
</event>
<event>
 6    1  0.5496865E-006  0.1197153E+03  0.7818608E-02  0.1135518E+00
         21   -1    0    0  501  502  0.00000000000E+00  0.00000000000E+00  0.31145635153E+02  0.31145635153E+02  0.00000000000E+00 0. -1.
         21   -1    0    0  502  503 -0.00000000000E+00 -0.00000000000E+00 -0.86071167171E+03  0.86071167171E+03  0.00000000000E+00 0.  1.
        -13    1    1    2    0    0  0.99434945315E+02 -0.87587705290E+02 -0.64023992777E+03  0.65380890996E+03  0.10566000000E+00 0.  1.
         13    1    1    2    0    0 -0.77461044972E+02  0.71632836951E+02 -0.12771973568E+03  0.16566176042E+03  0.10566000000E+00 0. -1.
          4    1    1    2  501    0 -0.13254887433E+02  0.91044957636E+01 -0.86056400117E+01  0.18238446315E+02  0.00000000000E+00 0.  1.
         -4    1    1    2    0  503 -0.87190129103E+01  0.68503725747E+01 -0.53000733089E+02  0.54148190169E+02  0.00000000000E+00 0. -1.
</event>
<event>
 6    1  0.5496865E-006  0.5749016E+02  0.7818608E-02  0.1263976E+00
         21   -1    0    0  501  502  0.00000000000E+00  0.00000000000E+00  0.17717309587E+02  0.17717309587E+02  0.00000000000E+00 0. -1.
         21   -1    0    0  502  503 -0.00000000000E+00 -0.00000000000E+00 -0.28723724309E+03  0.28723724309E+03  0.00000000000E+00 0.  1.
        -13    1    1    2    0    0  0.50296654143E+02 -0.26439964614E+02 -0.10832881481E+03  0.12232730043E+03  0.10566000000E+00 0.  1.
         13    1    1    2    0    0 -0.38431235015E+02  0.46823037783E+02 -0.11025165833E+03  0.12579664551E+03  0.10566000000E+00 0. -1.
          4    1    1    2  501    0 -0.10084024894E+02 -0.96414035556E+01 -0.23790271590E+02  0.27579362627E+02  0.00000000000E+00 0.  1.
         -4    1    1    2    0  503 -0.17813942335E+01 -0.10741669614E+02 -0.27149188768E+02  0.29251244115E+02  0.00000000000E+00 0. -1.
</event>
<event>
 6    1  0.5496865E-006  0.7164839E+02  0.7818608E-02  0.1222468E+00
         21   -1    0    0  501  502  0.00000000000E+00  0.00000000000E+00  0.40540835727E+03  0.40540835727E+03  0.00000000000E+00 0. -1.
         21   -1    0    0  502  503 -0.00000000000E+00 -0.00000000000E+00 -0.11772880847E+03  0.11772880847E+03  0.00000000000E+00 0. -1.
        -13    1    1    2    0    0 -0.48082600264E+02  0.48164430713E+02  0.18568340220E+02  0.70544618906E+02  0.10566000000E+00 0.  1.
         13    1    1    2    0    0  0.19111177432E+02 -0.71416941566E+02  0.73706612357E+02  0.10439488740E+03  0.10566000000E+00 0. -1.
          4    1    1    2  501    0  0.45225715985E+02  0.92862011023E+01  0.26828661306E+03  0.27223024385E+03  0.00000000000E+00 0.  1.
         -4    1    1    2    0  503 -0.16254293153E+02  0.13966309751E+02 -0.72882016831E+02  0.75967415589E+02  0.00000000000E+00 0. -1.
</event>
<event>
 6    1  0.5496865E-006  0.8672536E+02  0.7818608E-02  0.1188609E+00
         21   -1    0    0  503  502  0.00000000000E+00  0.00000000000E+00  0.28792650083E+03  0.28792650083E+03  0.00000000000E+00 0.  1.
         21   -1    0    0  501  503 -0.00000000000E+00 -0.00000000000E+00 -0.31477449703E+03  0.31477449703E+03  0.00000000000E+00 0.  1.
        -13    1    1    2    0    0 -0.59689326744E+02 -0.66901239648E+01  0.15498345651E+03  0.16621509089E+03  0.10566000000E+00 0.  1.
         13    1    1    2    0    0  0.59951514157E+02  0.45164111132E+02 -0.25078982086E+02  0.79138786259E+02  0.10566000000E+00 0. -1.
          4    1    1    2  501    0  0.38980843144E+02 -0.15684663109E+02 -0.25007261985E+03  0.25357805502E+03  0.00000000000E+00 0.  1.
         -4    1    1    2    0  502 -0.39243030557E+02 -0.22789324057E+02  0.93320149238E+02  0.10376906568E+03  0.00000000000E+00 0. -1.
</event>
<event>
 6    1  0.5496865E-006  0.9725343E+02  0.7818608E-02  0.1169181E+00
         21   -1    0    0  501  502  0.00000000000E+00  0.00000000000E+00  0.10201109434E+03  0.10201109434E+03  0.00000000000E+00 0.  1.
         21   -1    0    0  502  503 -0.00000000000E+00 -0.00000000000E+00 -0.60687836421E+03  0.60687836421E+03  0.00000000000E+00 0.  1.
        -13    1    1    2    0    0 -0.51185463808E+02  0.79197514503E+02 -0.34883658387E+03  0.36135740123E+03  0.10566000000E+00 0.  1.
         13    1    1    2    0    0  0.54609081768E+02 -0.70178078197E+02 -0.10603570930E+03  0.13838604439E+03  0.10566000000E+00 0. -1.
          4    1    1    2  501    0  0.15718013436E+02 -0.10272606881E+02  0.77741597886E+02  0.79977111978E+02  0.00000000000E+00 0.  1.
         -4    1    1    2    0  503 -0.19141631396E+02  0.12531705743E+01 -0.12773657457E+03  0.12916890095E+03  0.00000000000E+00 0. -1.
</event>
<event>
 6    1  0.5496865E-006  0.1814169E+03  0.7818608E-02  0.1073681E+00
         21   -1    0    0  501  502  0.00000000000E+00  0.00000000000E+00  0.24996760996E+03  0.24996760996E+03  0.00000000000E+00 0. -1.
         21   -1    0    0  502  503 -0.00000000000E+00 -0.00000000000E+00 -0.49925611809E+03  0.49925611809E+03  0.00000000000E+00 0. -1.
        -13    1    1    2    0    0 -0.15696436594E+03  0.71071097194E+02 -0.21323239269E+03  0.27414772931E+03  0.10566000000E+00 0.  1.
         13    1    1    2    0    0  0.15539703653E+03 -0.88548721628E+02  0.13759322722E+03  0.22565686873E+03  0.10566000000E+00 0. -1.
          4    1    1    2  501    0  0.98592591758E+01  0.71983969245E+01  0.36688998921E+02  0.38666581846E+02  0.00000000000E+00 0.  1.
         -4    1    1    2    0  503 -0.82919297662E+01  0.10279227509E+02 -0.21033834158E+03  0.21075254817E+03  0.00000000000E+00 0. -1.
</event>
<event>
 6    1  0.5496865E-006  0.1728439E+03  0.7818608E-02  0.1080536E+00
         21   -1    0    0  503  502  0.00000000000E+00  0.00000000000E+00  0.87173952603E+02  0.87173952603E+02  0.00000000000E+00 0. -1.
         21   -1    0    0  501  503 -0.00000000000E+00 -0.00000000000E+00 -0.60945651997E+03  0.60945651997E+03  0.00000000000E+00 0. -1.
        -13    1    1    2    0    0  0.11322704088E+03  0.10887983160E+03 -0.12094212344E+03  0.19824779671E+03  0.10566000000E+00 0.  1.
         13    1    1    2    0    0 -0.10932339154E+03 -0.14827817790E+03 -0.24811702327E+03  0.30903088904E+03  0.10566000000E+00 0. -1.
          4    1    1    2  501    0 -0.22862077606E+02 -0.54956907809E+01 -0.13545499349E+03  0.13748066217E+03  0.00000000000E+00 0.  1.
         -4    1    1    2    0  502  0.18958428262E+02  0.44894037087E+02 -0.17768427168E+02  0.51871124648E+02  0.00000000000E+00 0. -1.
</event>
<event>
 6    1  0.5496865E-006  0.4561836E+02  0.7818608E-02  0.1310735E+00
         21   -1    0    0  503  502  0.00000000000E+00  0.00000000000E+00  0.66841641087E+02  0.66841641087E+02  0.00000000000E+00 0.  1.
         21   -1    0    0  501  503 -0.00000000000E+00 -0.00000000000E+00 -0.13463647206E+03  0.13463647206E+03  0.00000000000E+00 0. -1.
        -13    1    1    2    0    0 -0.10598899021E+02 -0.41017575543E+02  0.32057942151E+02  0.53127215087E+02  0.10566000000E+00 0.  1.
         13    1    1    2    0    0  0.85016849222E+01  0.40013492846E+02 -0.43942260720E+02  0.60035753493E+02  0.10566000000E+00 0. -1.
          4    1    1    2  501    0 -0.29565759574E+02  0.13890235578E+02 -0.36583671294E+02  0.49045262655E+02  0.00000000000E+00 0.  1.
         -4    1    1    2    0  502  0.31662973673E+02 -0.12886152882E+02 -0.19326841107E+02  0.39269881908E+02  0.00000000000E+00 0. -1.
</event>
<event>
 6    1  0.5496865E-006  0.9881294E+02  0.7818608E-02  0.1166535E+00
         21   -1    0    0  503  502  0.00000000000E+00  0.00000000000E+00  0.89033143877E+02  0.89033143877E+02  0.00000000000E+00 0.  1.
         21   -1    0    0  501  503 -0.00000000000E+00 -0.00000000000E+00 -0.24995831960E+03  0.24995831960E+03  0.00000000000E+00 0. -1.
        -13    1    1    2    0    0  0.23091089929E+02  0.10153498294E+03 -0.10540025101E+03  0.14816131503E+03  0.10566000000E+00 0.  1.
         13    1    1    2    0    0  0.16672881157E+02 -0.97077977397E+02 -0.56729084922E+02  0.11366758070E+03  0.10566000000E+00 0. -1.
          4    1    1    2  501    0 -0.19345481044E+02 -0.50990912269E+01 -0.32257529981E+02  0.37957826711E+02  0.00000000000E+00 0.  1.
         -4    1    1    2    0  502 -0.20418490042E+02  0.64208568045E+00  0.33461690187E+02  0.39204741037E+02  0.00000000000E+00 0. -1.
</event>
<event>
 6    1  0.5496865E-006  0.3200986E+02  0.7818608E-02  0.1405276E+00
         21   -1    0    0  503  502  0.00000000000E+00  0.00000000000E+00  0.23692139330E+03  0.23692139330E+03  0.00000000000E+00 0.  1.
         21   -1    0    0  501  503 -0.00000000000E+00 -0.00000000000E+00 -0.81083687067E+02  0.81083687067E+02  0.00000000000E+00 0. -1.
        -13    1    1    2    0    0  0.51002615209E+02  0.37787645421E+02  0.45414170072E+02  0.78048900774E+02  0.10566000000E+00 0.  1.
         13    1    1    2    0    0 -0.18792015349E+02 -0.13929477702E+02 -0.32308034167E+02  0.39887221334E+02  0.10566000000E+00 0. -1.
          4    1    1    2  501    0 -0.80592963997E+01 -0.28244849030E+02 -0.19975299993E+02  0.35520928550E+02  0.00000000000E+00 0.  1.
         -4    1    1    2    0  502 -0.24151303460E+02  0.43866813117E+01  0.16270687032E+03  0.16454802971E+03  0.00000000000E+00 0. -1.
</event>
<event>
 6    1  0.5496865E-006  0.2259430E+03  0.7818608E-02  0.1076368E+00
         21   -1    0    0  503  502  0.00000000000E+00  0.00000000000E+00  0.40916043159E+03  0.40916043159E+03  0.00000000000E+00 0. -1.
         21   -1    0    0  501  503 -0.00000000000E+00 -0.00000000000E+00 -0.82002826589E+03  0.82002826589E+03  0.00000000000E+00 0.  1.
        -13    1    1    2    0    0  0.11468227035E+02  0.88340289877E+02  0.94948571937E+02  0.13019512097E+03  0.10566000000E+00 0.  1.
         13    1    1    2    0    0 -0.16416800429E+03 -0.20987740820E+03  0.20991957920E+01  0.26646590380E+03  0.10566000000E+00 0. -1.
          4    1    1    2  501    0  0.92566220688E+01 -0.26680463292E+02 -0.60422728115E+03  0.60488688154E+03  0.00000000000E+00 0.  1.
         -4    1    1    2    0  502  0.14344315518E+03  0.14821758161E+03  0.96311679119E+02  0.22764079117E+03  0.00000000000E+00 0. -1.
</event>
<event>
 6    1  0.5496865E-006  0.2183254E+03  0.7818608E-02  0.1048251E+00
         21   -1    0    0  503  502  0.00000000000E+00  0.00000000000E+00  0.51075053491E+02  0.51075053491E+02  0.00000000000E+00 0.  1.
         21   -1    0    0  501  503 -0.00000000000E+00 -0.00000000000E+00 -0.19028038446E+04  0.19028038446E+04  0.00000000000E+00 0. -1.
        -13    1    1    2    0    0  0.52670517227E+01 -0.19742407296E+03 -0.33297658494E+03  0.38714005695E+03  0.10566000000E+00 0.  1.
         13    1    1    2    0    0 -0.45395410568E+02  0.24117238377E+03 -0.10299715687E+04  0.10588041866E+04  0.10566000000E+00 0. -1.
          4    1    1    2  501    0  0.12319847085E+02 -0.26500333793E+02 -0.46855486658E+03  0.46946534411E+03  0.00000000000E+00 0.  1.
         -4    1    1    2    0  502  0.27808511761E+02 -0.17247977026E+02 -0.20225770845E+02  0.38469310419E+02  0.00000000000E+00 0. -1.
</event>
<event>
 6    1  0.5496865E-006  0.1150160E+03  0.7818608E-02  0.1141853E+00
         21   -1    0    0  503  502  0.00000000000E+00  0.00000000000E+00  0.98726554355E+03  0.98726554355E+03  0.00000000000E+00 0.  1.
         21   -1    0    0  501  503 -0.00000000000E+00 -0.00000000000E+00 -0.55132794494E+02  0.55132794494E+02  0.00000000000E+00 0. -1.
        -13    1    1    2    0    0 -0.14551048516E+02 -0.11031745795E+03  0.46967989665E+03  0.48268094123E+03  0.10566000000E+00 0.  1.
         13    1    1    2    0    0  0.47671888489E+02  0.10085975646E+03  0.57054884863E+02  0.12530191729E+03  0.10566000000E+00 0. -1.
          4    1    1    2  501    0 -0.92081108691E+01  0.10381142467E+02 -0.10766555877E+02  0.17563489122E+02  0.00000000000E+00 0.  1.
         -4    1    1    2    0  502 -0.23912729104E+02 -0.92344097421E+00  0.41616452342E+03  0.41685199041E+03  0.00000000000E+00 0. -1.
</event>
<event>
 6    1  0.5496865E-006  0.2519212E+03  0.7818608E-02  0.1029402E+00
         21   -1    0    0  501  502  0.00000000000E+00  0.00000000000E+00  0.74287137257E+03  0.74287137257E+03  0.00000000000E+00 0. -1.
         21   -1    0    0  502  503 -0.00000000000E+00 -0.00000000000E+00 -0.61095806398E+03  0.61095806398E+03  0.00000000000E+00 0. -1.
        -13    1    1    2    0    0 -0.77925446096E+02  0.23386670089E+03 -0.46682165188E+02  0.25088890897E+03  0.10566000000E+00 0.  1.
         13    1    1    2    0    0  0.14297936186E+03 -0.22366250221E+03  0.38724702556E+03  0.46949790498E+03  0.10566000000E+00 0. -1.
          4    1    1    2  501    0 -0.31396695067E+02 -0.84435647350E+00  0.21050378928E+03  0.21283399799E+03  0.00000000000E+00 0.  1.
         -4    1    1    2    0  503 -0.33657220693E+02 -0.93598422119E+01 -0.41915534107E+03  0.42060862461E+03  0.00000000000E+00 0. -1.
</event>
<event>
 6    1  0.5496865E-006  0.2077834E+03  0.7818608E-02  0.1054927E+00
         21   -1    0    0  503  502  0.00000000000E+00  0.00000000000E+00  0.64972184150E+02  0.64972184150E+02  0.00000000000E+00 0.  1.
         21   -1    0    0  501  503 -0.00000000000E+00 -0.00000000000E+00 -0.14844538311E+04  0.14844538311E+04  0.00000000000E+00 0. -1.
        -13    1    1    2    0    0  0.20307271702E+03  0.52053235511E+02 -0.55424432903E+03  0.59256632975E+03  0.10566000000E+00 0.  1.
         13    1    1    2    0    0 -0.21242930776E+03 -0.23414244549E+02 -0.34139243408E+03  0.40276946614E+03  0.10566000000E+00 0. -1.
          4    1    1    2  501    0 -0.14900457375E+01 -0.74389715822E+02 -0.49131100538E+03  0.49691302465E+03  0.00000000000E+00 0.  1.
         -4    1    1    2    0  502  0.10846636479E+02  0.45750724860E+02 -0.32533878464E+02  0.57177194720E+02  0.00000000000E+00 0. -1.
</event>
<event>
 6    1  0.5496865E-006  0.5074401E+02  0.7818608E-02  0.1312053E+00
         21   -1    0    0  501  502  0.00000000000E+00  0.00000000000E+00  0.75181097741E+02  0.75181097741E+02  0.00000000000E+00 0. -1.
         21   -1    0    0  502  503 -0.00000000000E+00 -0.00000000000E+00 -0.26541967950E+03  0.26541967950E+03  0.00000000000E+00 0.  1.
        -13    1    1    2    0    0  0.43360190095E+02 -0.43357990575E+02 -0.11636671578E+03  0.13153419760E+03  0.10566000000E+00 0.  1.
         13    1    1    2    0    0 -0.24070329520E+02 -0.96223299135E+01  0.40973838213E+02  0.48485426450E+02  0.10566000000E+00 0. -1.
          4    1    1    2  501    0 -0.94289144995E+01  0.36601763637E+01  0.16825029593E+02  0.19631172671E+02  0.00000000000E+00 0.  1.
         -4    1    1    2    0  503 -0.98609460760E+01  0.49320144125E+02 -0.13167073378E+03  0.14094998052E+03  0.00000000000E+00 0. -1.
</event>
<event>
 6    1  0.5496865E-006  0.1662977E+03  0.7818608E-02  0.1086064E+00
         21   -1    0    0  503  502  0.00000000000E+00  0.00000000000E+00  0.13522714275E+03  0.13522714275E+03  0.00000000000E+00 0.  1.
         21   -1    0    0  501  503 -0.00000000000E+00 -0.00000000000E+00 -0.76642250128E+03  0.76642250128E+03  0.00000000000E+00 0. -1.
        -13    1    1    2    0    0  0.64444516174E+02  0.10289430211E+03  0.52539461488E+02  0.13229035962E+03  0.10566000000E+00 0.  1.
         13    1    1    2    0    0 -0.15480147223E+03 -0.10895593783E+03 -0.20094117828E+03  0.27606568147E+03  0.10566000000E+00 0. -1.
          4    1    1    2  501    0  0.76675052493E+02  0.11861165019E+02 -0.45688318772E+03  0.46342420970E+03  0.00000000000E+00 0.  1.
         -4    1    1    2    0  502  0.13681903562E+02 -0.57995292928E+01 -0.25910454016E+02  0.29869393239E+02  0.00000000000E+00 0. -1.
</event>
<event>
 6    1  0.5496865E-006  0.5977435E+02  0.7818608E-02  0.1256426E+00
         21   -1    0    0  503  502  0.00000000000E+00  0.00000000000E+00  0.57888195208E+03  0.57888195208E+03  0.00000000000E+00 0. -1.
         21   -1    0    0  501  503 -0.00000000000E+00 -0.00000000000E+00 -0.46547624760E+02  0.46547624760E+02  0.00000000000E+00 0.  1.
        -13    1    1    2    0    0  0.22204752799E+02 -0.68411947801E+02  0.10049620606E+02  0.72624043451E+02  0.10566000000E+00 0.  1.
         13    1    1    2    0    0 -0.25330876906E+02  0.47383275178E+02  0.37260482706E+02  0.65384882251E+02  0.10566000000E+00 0. -1.
          4    1    1    2  501    0 -0.48158891628E+01  0.87861764909E+01  0.22085589603E+02  0.24252071125E+02  0.00000000000E+00 0.  1.
         -4    1    1    2    0  502  0.79420132703E+01  0.12242496132E+02  0.46293863440E+03  0.46316858001E+03  0.00000000000E+00 0. -1.
</event>
<event>
 6    1  0.5496865E-006  0.5498712E+02  0.7818608E-02  0.1272716E+00
         21   -1    0    0  503  502  0.00000000000E+00  0.00000000000E+00  0.11418108210E+03  0.11418108210E+03  0.00000000000E+00 0.  1.
         21   -1    0    0  501  503 -0.00000000000E+00 -0.00000000000E+00 -0.17949726300E+03  0.17949726300E+03  0.00000000000E+00 0. -1.
        -13    1    1    2    0    0  0.44656342455E+02  0.16506689001E+02  0.45819766388E+02  0.66076636257E+02  0.10566000000E+00 0.  1.
         13    1    1    2    0    0 -0.89631420331E+02 -0.27078991463E+02 -0.13765411171E+03  0.16648041603E+03  0.10566000000E+00 0. -1.
          4    1    1    2  501    0  0.42135170084E+02 -0.10620973066E+01  0.15684629875E+02  0.44972305066E+02  0.00000000000E+00 0.  1.
         -4    1    1    2    0  502  0.28399077925E+01  0.11634399768E+02  0.10833534542E+02  0.16148987736E+02  0.00000000000E+00 0. -1.
</event>
<event>
 6    1  0.5496865E-006  0.2861737E+03  0.7818608E-02  0.1013181E+00
         21   -1    0    0  501  502  0.00000000000E+00  0.00000000000E+00  0.81272350486E+03  0.81272350486E+03  0.00000000000E+00 0. -1.
         21   -1    0    0  502  503 -0.00000000000E+00 -0.00000000000E+00 -0.33583130613E+03  0.33583130613E+03  0.00000000000E+00 0.  1.
        -13    1    1    2    0    0 -0.27331564694E+02  0.24343721974E+03 -0.86680915708E+02  0.25985050836E+03  0.10566000000E+00 0.  1.
         13    1    1    2    0    0  0.10228268476E+03 -0.25263924600E+03  0.51784330509E+03  0.58519230687E+03  0.10566000000E+00 0. -1.
          4    1    1    2  501    0 -0.45792235997E+02 -0.46960788802E+02  0.15998170375E+03  0.17290572604E+03  0.00000000000E+00 0.  1.
         -4    1    1    2    0  503 -0.29158884073E+02  0.56162815061E+02 -0.11425189440E+03  0.13060626972E+03  0.00000000000E+00 0. -1.
</event>
<event>
 6    1  0.5496865E-006  0.2054296E+03  0.7818608E-02  0.1056642E+00
         21   -1    0    0  503  502  0.00000000000E+00  0.00000000000E+00  0.59619931051E+03  0.59619931051E+03  0.00000000000E+00 0.  1.
         21   -1    0    0  501  503 -0.00000000000E+00 -0.00000000000E+00 -0.39630863974E+03  0.39630863974E+03  0.00000000000E+00 0. -1.
        -13    1    1    2    0    0  0.15871145595E+03 -0.15287961596E+02 -0.53798748959E+02  0.16827764134E+03  0.10566000000E+00 0.  1.
         13    1    1    2    0    0 -0.26574607238E+03  0.18456338843E+03 -0.11125387892E+03  0.34214332680E+03  0.10566000000E+00 0. -1.
          4    1    1    2  501    0  0.12161907852E+03 -0.17275532756E+03  0.13297723129E+03  0.24963683123E+03  0.00000000000E+00 0.  1.
         -4    1    1    2    0  502 -0.14584462097E+02  0.34799007269E+01  0.23196606736E+03  0.23245015089E+03  0.00000000000E+00 0. -1.
</event>
<event>
 6    1  0.5496865E-006  0.2759105E+02  0.7818608E-02  0.1439032E+00
         21   -1    0    0  503  502  0.00000000000E+00  0.00000000000E+00  0.16532276182E+02  0.16532276182E+02  0.00000000000E+00 0. -1.
         21   -1    0    0  501  503 -0.00000000000E+00 -0.00000000000E+00 -0.50236714712E+03  0.50236714712E+03  0.00000000000E+00 0.  1.
        -13    1    1    2    0    0  0.20821614147E+02 -0.24473790060E+02 -0.69261071756E+02  0.76351903973E+02  0.10566000000E+00 0.  1.
         13    1    1    2    0    0  0.26618448050E+02  0.97423845896E+01 -0.77446021693E+02  0.82470317535E+02  0.10566000000E+00 0. -1.
          4    1    1    2  501    0 -0.26133537880E+02  0.85856582608E+01 -0.33664104419E+03  0.33776303523E+03  0.00000000000E+00 0.  1.
         -4    1    1    2    0  502 -0.21306524316E+02  0.61457472096E+01 -0.24867332987E+01  0.22314166570E+02  0.00000000000E+00 0. -1.
</event>
<event>
 6    1  0.5496865E-006  0.1293240E+03  0.7818608E-02  0.1123503E+00
         21   -1    0    0  501  502  0.00000000000E+00  0.00000000000E+00  0.47313932848E+03  0.47313932848E+03  0.00000000000E+00 0. -1.
         21   -1    0    0  502  503 -0.00000000000E+00 -0.00000000000E+00 -0.17535327380E+03  0.17535327380E+03  0.00000000000E+00 0. -1.
        -13    1    1    2    0    0  0.14676424370E+03  0.96243202554E+02  0.21345016429E+03  0.27633943089E+03  0.10566000000E+00 0.  1.
         13    1    1    2    0    0 -0.10480935465E+03 -0.16141084429E+02  0.14772875591E+03  0.18184975094E+03  0.10566000000E+00 0. -1.
          4    1    1    2  501    0 -0.23106120896E+01 -0.12113095084E+02  0.50432640882E+02  0.51918371191E+02  0.00000000000E+00 0.  1.
         -4    1    1    2    0  503 -0.39644276963E+02 -0.67989023041E+02 -0.11382550640E+03  0.13838504925E+03  0.00000000000E+00 0. -1.
</event>
<event>
 6    1  0.5496865E-006  0.6056380E+02  0.7818608E-02  0.1253905E+00
         21   -1    0    0  501  502  0.00000000000E+00  0.00000000000E+00  0.17221023807E+03  0.17221023807E+03  0.00000000000E+00 0. -1.
         21   -1    0    0  502  503 -0.00000000000E+00 -0.00000000000E+00 -0.11298654266E+03  0.11298654266E+03  0.00000000000E+00 0.  1.
        -13    1    1    2    0    0 -0.25871934511E+02 -0.49041418736E+02 -0.52465054480E+02  0.76334860009E+02  0.10566000000E+00 0.  1.
         13    1    1    2    0    0  0.49134955006E+02  0.66503698069E+02  0.10564277403E+03  0.13415436083E+03  0.10566000000E+00 0. -1.
          4    1    1    2  501    0 -0.11191577889E+02 -0.21450124622E+02  0.35308664612E+02  0.42802582383E+02  0.00000000000E+00 0.  1.
         -4    1    1    2    0  503 -0.12071442607E+02  0.39878452889E+01 -0.29262688749E+02  0.31904977504E+02  0.00000000000E+00 0. -1.
</event>
<event>
 6    1  0.5496865E-006  0.8480171E+02  0.7818608E-02  0.1220343E+00
         21   -1    0    0  501  502  0.00000000000E+00  0.00000000000E+00  0.58902868175E+03  0.58902868175E+03  0.00000000000E+00 0.  1.
         21   -1    0    0  502  503 -0.00000000000E+00 -0.00000000000E+00 -0.38528886792E+02  0.38528886792E+02  0.00000000000E+00 0.  1.
        -13    1    1    2    0    0  0.71528690784E+02 -0.87771565328E+01  0.72916269764E+02  0.10251919646E+03  0.10566000000E+00 0.  1.
         13    1    1    2    0    0 -0.24307441888E+02 -0.38720206663E+02  0.15126756075E+03  0.15802528986E+03  0.10566000000E+00 0. -1.
          4    1    1    2  501    0 -0.73599151165E+02  0.58807434419E+02  0.32489466440E+03  0.33827753746E+03  0.00000000000E+00 0.  1.
         -4    1    1    2    0  503  0.26377902268E+02 -0.11310071224E+02  0.14213000430E+01  0.28735544766E+02  0.00000000000E+00 0. -1.
</event>
<event>
 6    1  0.5496865E-006  0.6785534E+02  0.7818608E-02  0.1232470E+00
         21   -1    0    0  501  502  0.00000000000E+00  0.00000000000E+00  0.36393778193E+03  0.36393778193E+03  0.00000000000E+00 0. -1.
         21   -1    0    0  502  503 -0.00000000000E+00 -0.00000000000E+00 -0.76125752879E+02  0.76125752879E+02  0.00000000000E+00 0.  1.
        -13    1    1    2    0    0 -0.52617915961E+02 -0.45474212212E+02  0.20288485336E+02  0.72444343172E+02  0.10566000000E+00 0.  1.
         13    1    1    2    0    0 -0.69012192715E+01  0.85194658592E+02  0.32457063218E+02  0.91428818196E+02  0.10566000000E+00 0. -1.
          4    1    1    2  501    0  0.44355685612E+02 -0.36219173382E+02  0.24887914430E+03  0.25538223085E+03  0.00000000000E+00 0.  1.
         -4    1    1    2    0  503  0.15163449620E+02 -0.35012729976E+01 -0.13812663799E+02  0.20808142594E+02  0.00000000000E+00 0. -1.
</event>
<event>
 6    1  0.5496865E-006  0.1460520E+03  0.7818608E-02  0.1191160E+00
         21   -1    0    0  503  502  0.00000000000E+00  0.00000000000E+00  0.85561365980E+02  0.85561365980E+02  0.00000000000E+00 0.  1.
         21   -1    0    0  501  503 -0.00000000000E+00 -0.00000000000E+00 -0.11201583012E+04  0.11201583012E+04  0.00000000000E+00 0. -1.
        -13    1    1    2    0    0 -0.15370758063E+02 -0.38440173148E+01  0.31820276933E+02  0.35546840376E+02  0.10566000000E+00 0.  1.
         13    1    1    2    0    0 -0.50576513416E+02  0.11812656632E+03 -0.73051563773E+03  0.74173106819E+03  0.10566000000E+00 0. -1.
          4    1    1    2  501    0 -0.85244989855E+01  0.14843059787E+02 -0.26110687820E+03  0.26166731808E+03  0.00000000000E+00 0.  1.
         -4    1    1    2    0  502  0.74471770465E+02 -0.12912560879E+03 -0.74794696269E+02  0.16677444059E+03  0.00000000000E+00 0. -1.
</event>
<event>
 6    1  0.5496865E-006  0.1065309E+03  0.7818608E-02  0.1165068E+00
         21   -1    0    0  503  502  0.00000000000E+00  0.00000000000E+00  0.27072909617E+03  0.27072909617E+03  0.00000000000E+00 0.  1.
         21   -1    0    0  501  503 -0.00000000000E+00 -0.00000000000E+00 -0.18920699714E+03  0.18920699714E+03  0.00000000000E+00 0. -1.
        -13    1    1    2    0    0 -0.64475584646E+01 -0.83623126765E+02  0.80711205318E+02  0.11639891824E+03  0.10566000000E+00 0.  1.
         13    1    1    2    0    0 -0.10073551164E+03  0.12266520854E+03 -0.57647646739E+02  0.16887172359E+03  0.10566000000E+00 0. -1.
          4    1    1    2  501    0  0.12197319892E+03 -0.28798622886E+02  0.13270300498E+02  0.12602746847E+03  0.00000000000E+00 0.  1.
         -4    1    1    2    0  502 -0.14790128819E+02 -0.10243458889E+02  0.45188239950E+02  0.48637982999E+02  0.00000000000E+00 0. -1.
</event>
<event>
 6    1  0.5496865E-006  0.9744933E+02  0.7818608E-02  0.1207531E+00
         21   -1    0    0  501  502  0.00000000000E+00  0.00000000000E+00  0.44182088418E+02  0.44182088418E+02  0.00000000000E+00 0. -1.
         21   -1    0    0  502  503 -0.00000000000E+00 -0.00000000000E+00 -0.60026640071E+03  0.60026640071E+03  0.00000000000E+00 0. -1.
        -13    1    1    2    0    0  0.34352238001E+02  0.17851985308E+02 -0.19578655616E+03  0.19957744455E+03  0.10566000000E+00 0.  1.
         13    1    1    2    0    0 -0.13185893704E+03 -0.47623427824E+02 -0.13879228131E+03  0.19727665516E+03  0.10566000000E+00 0. -1.
          4    1    1    2  501    0  0.13151263651E+02  0.18819613793E+02 -0.27943776952E+02  0.36166120462E+02  0.00000000000E+00 0.  1.
         -4    1    1    2    0  503  0.84355435393E+02  0.10951828723E+02 -0.19356169787E+03  0.21142826896E+03  0.00000000000E+00 0. -1.
</event>
<event>
 6    1  0.5496865E-006  0.5121275E+02  0.7818608E-02  0.1286928E+00
         21   -1    0    0  501  502  0.00000000000E+00  0.00000000000E+00  0.95296851494E+02  0.95296851494E+02  0.00000000000E+00 0.  1.
         21   -1    0    0  502  503 -0.00000000000E+00 -0.00000000000E+00 -0.11008424676E+03  0.11008424676E+03  0.00000000000E+00 0.  1.
        -13    1    1    2    0    0  0.44846582374E+01  0.34789229621E+02 -0.78887748849E+02  0.86334759742E+02  0.10566000000E+00 0.  1.
         13    1    1    2    0    0 -0.18168412404E+02 -0.55579919264E+02  0.35726373882E+02  0.68524474383E+02  0.10566000000E+00 0. -1.
          4    1    1    2  501    0  0.96035267615E+01  0.31119073760E+01  0.30618720956E+02  0.32240002586E+02  0.00000000000E+00 0.  1.
         -4    1    1    2    0  503  0.40802274051E+01  0.17678782267E+02 -0.22447412519E+01  0.18281861541E+02  0.00000000000E+00 0. -1.
</event>
<event>
 6    1  0.5496865E-006  0.2079136E+03  0.7818608E-02  0.1054842E+00
         21   -1    0    0  501  502  0.00000000000E+00  0.00000000000E+00  0.28759326609E+03  0.28759326609E+03  0.00000000000E+00 0. -1.
         21   -1    0    0  502  503 -0.00000000000E+00 -0.00000000000E+00 -0.30032973305E+03  0.30032973305E+03  0.00000000000E+00 0.  1.
        -13    1    1    2    0    0 -0.13247549569E+03  0.11291233888E+03  0.79509838481E+01  0.17424747498E+03  0.10566000000E+00 0.  1.
         13    1    1    2    0    0  0.15983533409E+03 -0.19013279664E+03 -0.31108892596E+02  0.25033095842E+03  0.10566000000E+00 0. -1.
          4    1    1    2  501    0  0.43908560288E+01  0.88022552084E+02  0.57728221406E+02  0.10535557336E+03  0.00000000000E+00 0.  1.
         -4    1    1    2    0  503 -0.31750694436E+02 -0.10802094330E+02 -0.47306779613E+02  0.57988992373E+02  0.00000000000E+00 0. -1.
</event>
<event>
 6    1  0.5496865E-006  0.2106425E+03  0.7818608E-02  0.1061693E+00
         21   -1    0    0  503  502  0.00000000000E+00  0.00000000000E+00  0.46264212477E+03  0.46264212477E+03  0.00000000000E+00 0. -1.
         21   -1    0    0  501  503 -0.00000000000E+00 -0.00000000000E+00 -0.70582498938E+03  0.70582498938E+03  0.00000000000E+00 0. -1.
        -13    1    1    2    0    0 -0.14828368992E+02  0.17133145548E+03  0.10973826654E+03  0.20400207468E+03  0.10566000000E+00 0.  1.
         13    1    1    2    0    0  0.11839187839E+02 -0.10110452259E+03 -0.43072192433E+03  0.44258748076E+03  0.10566000000E+00 0. -1.
          4    1    1    2  501    0  0.77829139925E+02 -0.21570504216E+03 -0.12511307411E+03  0.26122657129E+03  0.00000000000E+00 0.  1.
         -4    1    1    2    0  502 -0.74839958772E+02  0.14547810927E+03  0.20291386730E+03  0.26065098742E+03  0.00000000000E+00 0. -1.
</event>
<event>
 6    1  0.5496865E-006  0.2742950E+03  0.7818608E-02  0.1018519E+00
         21   -1    0    0  501  502  0.00000000000E+00  0.00000000000E+00  0.82818920452E+03  0.82818920452E+03  0.00000000000E+00 0.  1.
         21   -1    0    0  502  503 -0.00000000000E+00 -0.00000000000E+00 -0.23869966428E+03  0.23869966428E+03  0.00000000000E+00 0.  1.
        -13    1    1    2    0    0 -0.18457133400E+03 -0.27321154331E+03  0.12052248604E+02  0.32993392156E+03  0.10566000000E+00 0.  1.
         13    1    1    2    0    0  0.45410015216E+02  0.21367061662E+03  0.16050312213E+03  0.27106911529E+03  0.10566000000E+00 0. -1.
          4    1    1    2  501    0  0.12744373408E+03  0.52163546565E+02  0.42707232985E+03  0.44872454342E+03  0.00000000000E+00 0.  1.
         -4    1    1    2    0  503  0.11717584703E+02  0.73773801289E+01 -0.10138160345E+02  0.17161288530E+02  0.00000000000E+00 0. -1.
</event>
<event>
 6    1  0.5496865E-006  0.1118774E+03  0.7818608E-02  0.1146272E+00
         21   -1    0    0  501  502  0.00000000000E+00  0.00000000000E+00  0.49483797019E+03  0.49483797019E+03  0.00000000000E+00 0. -1.
         21   -1    0    0  502  503 -0.00000000000E+00 -0.00000000000E+00 -0.12103290339E+03  0.12103290339E+03  0.00000000000E+00 0. -1.
        -13    1    1    2    0    0 -0.12231620173E+03 -0.26159806871E+02  0.68451485382E+02  0.14258753703E+03  0.10566000000E+00 0.  1.
         13    1    1    2    0    0  0.79790871766E+02  0.55252066423E+01  0.22288025459E+03  0.23679681200E+03  0.10566000000E+00 0. -1.
          4    1    1    2  501    0  0.40236091044E+02  0.52125059712E+02  0.14897025314E+03  0.16287449522E+03  0.00000000000E+00 0.  1.
         -4    1    1    2    0  503  0.22892389237E+01 -0.31490459484E+02 -0.66496926308E+02  0.73612029328E+02  0.00000000000E+00 0. -1.
</event>
<event>
 6    1  0.5496865E-006  0.1845992E+02  0.7818608E-02  0.1539919E+00
         21   -1    0    0  503  502  0.00000000000E+00  0.00000000000E+00  0.26638855636E+03  0.26638855636E+03  0.00000000000E+00 0.  1.
         21   -1    0    0  501  503 -0.00000000000E+00 -0.00000000000E+00 -0.14895133743E+02  0.14895133743E+02  0.00000000000E+00 0.  1.
        -13    1    1    2    0    0  0.32658922648E+02 -0.74025986467E+01  0.14398470742E+03  0.14782763892E+03  0.10566000000E+00 0.  1.
         13    1    1    2    0    0 -0.11808370561E+02 -0.73634741943E+00  0.92022267167E+01  0.14989061459E+02  0.10566000000E+00 0. -1.
          4    1    1    2  501    0 -0.16168361504E+02 -0.78354245639E+01 -0.78787412843E+00  0.17984174640E+02  0.00000000000E+00 0.  1.
         -4    1    1    2    0  502 -0.46821905829E+01  0.15974370630E+02  0.99094362609E+02  0.10048281508E+03  0.00000000000E+00 0. -1.
</event>
<event>
 6    1  0.5496865E-006  0.5832459E+02  0.7818608E-02  0.1274924E+00
         21   -1    0    0  501  502  0.00000000000E+00  0.00000000000E+00  0.13316385814E+03  0.13316385814E+03  0.00000000000E+00 0.  1.
         21   -1    0    0  502  503 -0.00000000000E+00 -0.00000000000E+00 -0.13767156195E+03  0.13767156195E+03  0.00000000000E+00 0. -1.
        -13    1    1    2    0    0 -0.13736134040E+02  0.69341892876E+02 -0.63365291300E+02  0.94932348499E+02  0.10566000000E+00 0.  1.
         13    1    1    2    0    0  0.51611335971E+02 -0.26251317422E+02  0.18502510152E+02  0.60788285986E+02  0.10566000000E+00 0. -1.
          4    1    1    2  501    0 -0.58156475861E+01  0.28648243015E+02  0.10812258119E+02  0.31168068762E+02  0.00000000000E+00 0.  1.
         -4    1    1    2    0  503 -0.32059554345E+02 -0.71738818469E+02  0.29542819224E+02  0.83946716838E+02  0.00000000000E+00 0. -1.
</event>
<event>
 6    1  0.5496865E-006  0.3298258E+03  0.7818608E-02  0.9957028E-01
         21   -1    0    0  501  502  0.00000000000E+00  0.00000000000E+00  0.26138219612E+03  0.26138219612E+03  0.00000000000E+00 0. -1.
         21   -1    0    0  502  503 -0.00000000000E+00 -0.00000000000E+00 -0.94919965105E+03  0.94919965105E+03  0.00000000000E+00 0.  1.
        -13    1    1    2    0    0 -0.32413015403E+03 -0.20005048932E+02  0.16029749403E+02  0.32514231156E+03  0.10566000000E+00 0.  1.
         13    1    1    2    0    0  0.35478181362E+03  0.40491453443E+02 -0.63191283175E+03  0.72582610257E+03  0.10566000000E+00 0. -1.
          4    1    1    2  501    0  0.23311812767E+01 -0.11246651191E+02  0.40489674816E+02  0.42087234833E+02  0.00000000000E+00 0.  1.
         -4    1    1    2    0  503 -0.32982840862E+02 -0.92397533203E+01 -0.11242404740E+03  0.11752619821E+03  0.00000000000E+00 0. -1.
</event>
<event>
 6    1  0.5496865E-006  0.2397758E+02  0.7818608E-02  0.1461032E+00
         21   -1    0    0  501  502  0.00000000000E+00  0.00000000000E+00  0.10874896789E+03  0.10874896789E+03  0.00000000000E+00 0. -1.
         21   -1    0    0  502  503 -0.00000000000E+00 -0.00000000000E+00 -0.73001922756E+02  0.73001922756E+02  0.00000000000E+00 0.  1.
        -13    1    1    2    0    0  0.15295473588E+02 -0.28334315325E+02 -0.37013234873E+02  0.49058899876E+02  0.10566000000E+00 0.  1.
         13    1    1    2    0    0 -0.51367946921E+01  0.25568821895E+02  0.74153359452E+02  0.78605872521E+02  0.10566000000E+00 0. -1.
          4    1    1    2  501    0 -0.14924899484E+02 -0.13033062621E+02  0.19271859634E+02  0.27640874075E+02  0.00000000000E+00 0.  1.
         -4    1    1    2    0  503  0.47662205885E+01  0.15798556051E+02 -0.20664939082E+02  0.26445244171E+02  0.00000000000E+00 0. -1.
</event>
<event>
 6    1  0.5496865E-006  0.2619353E+03  0.7818608E-02  0.1024387E+00
         21   -1    0    0  503  502  0.00000000000E+00  0.00000000000E+00  0.39285488742E+03  0.39285488742E+03  0.00000000000E+00 0. -1.
         21   -1    0    0  501  503 -0.00000000000E+00 -0.00000000000E+00 -0.27140942675E+03  0.27140942675E+03  0.00000000000E+00 0. -1.
        -13    1    1    2    0    0 -0.24460817676E+03  0.88082148131E+02  0.77714219489E+02  0.27135057773E+03  0.10566000000E+00 0.  1.
         13    1    1    2    0    0  0.25802526440E+03 -0.84436496706E+02 -0.27107081964E+02  0.27283944748E+03  0.10566000000E+00 0. -1.
          4    1    1    2  501    0 -0.22609265835E+02  0.35871501194E+01 -0.18832994042E+02  0.29643350218E+02  0.00000000000E+00 0.  1.
         -4    1    1    2    0  502  0.91921781956E+01 -0.72328015443E+01  0.89671317186E+02  0.90430938754E+02  0.00000000000E+00 0. -1.
</event>
<event>
 6    1  0.5496865E-006  0.1824458E+03  0.7818608E-02  0.1073609E+00
         21   -1    0    0  503  502  0.00000000000E+00  0.00000000000E+00  0.20626895603E+03  0.20626895603E+03  0.00000000000E+00 0. -1.
         21   -1    0    0  501  503 -0.00000000000E+00 -0.00000000000E+00 -0.45321243206E+03  0.45321243206E+03  0.00000000000E+00 0. -1.
        -13    1    1    2    0    0 -0.19494802459E+03 -0.11442663699E+03 -0.11540266175E+03  0.25380302017E+03  0.10566000000E+00 0.  1.
         13    1    1    2    0    0  0.16329840215E+03 -0.76467672177E+02 -0.73693648507E+02  0.19479332131E+03  0.10566000000E+00 0. -1.
          4    1    1    2  501    0  0.47830963286E+01  0.14194113285E+02 -0.25025344266E+02  0.29165368471E+02  0.00000000000E+00 0.  1.
         -4    1    1    2    0  502  0.26866526118E+02  0.17670019589E+03 -0.32821821513E+02  0.18171967813E+03  0.00000000000E+00 0. -1.
</event>
<event>
 6    1  0.5496865E-006  0.1092978E+03  0.7818608E-02  0.1150026E+00
         21   -1    0    0  503  502  0.00000000000E+00  0.00000000000E+00  0.13363292805E+03  0.13363292805E+03  0.00000000000E+00 0. -1.
         21   -1    0    0  501  503 -0.00000000000E+00 -0.00000000000E+00 -0.58673981069E+03  0.58673981069E+03  0.00000000000E+00 0. -1.
        -13    1    1    2    0    0  0.38470352874E+02  0.10146059924E+03 -0.16360084884E+03  0.19631472220E+03  0.10566000000E+00 0.  1.
         13    1    1    2    0    0 -0.40823220355E+02 -0.11018583812E+03 -0.35517960135E+03  0.37411230215E+03  0.10566000000E+00 0. -1.
          4    1    1    2  501    0  0.17220556666E+02  0.10516487943E+02 -0.39157422820E+02  0.44050514781E+02  0.00000000000E+00 0.  1.
         -4    1    1    2    0  502 -0.14867689186E+02 -0.17912490619E+01  0.10483099038E+03  0.10589519960E+03  0.00000000000E+00 0. -1.
</event>
<event>
 6    1  0.5496865E-006  0.3506485E+03  0.7818608E-02  0.9883526E-01
         21   -1    0    0  501  502  0.00000000000E+00  0.00000000000E+00  0.17569062900E+04  0.17569062900E+04  0.00000000000E+00 0. -1.
         21   -1    0    0  502  503 -0.00000000000E+00 -0.00000000000E+00 -0.44715736424E+03  0.44715736424E+03  0.00000000000E+00 0. -1.
        -13    1    1    2    0    0 -0.31845073246E+03 -0.79322143893E+02  0.25811060677E+03  0.41752121863E+03  0.10566000000E+00 0.  1.
         13    1    1    2    0    0  0.36029055145E+03  0.73043388998E+02  0.61038365266E+03  0.71253970608E+03  0.10566000000E+00 0. -1.
          4    1    1    2  501    0 -0.87100626912E+01  0.89720022601E+01  0.75670385552E+03  0.75680716630E+03  0.00000000000E+00 0.  1.
         -4    1    1    2    0  503 -0.33129756300E+02 -0.26932473650E+01 -0.31544918922E+03  0.31719556320E+03  0.00000000000E+00 0. -1.
</event>
<event>
 6    1  0.5496865E-006  0.2424357E+03  0.7818608E-02  0.1034389E+00
         21   -1    0    0  503  502  0.00000000000E+00  0.00000000000E+00  0.23318632312E+03  0.23318632312E+03  0.00000000000E+00 0.  1.
         21   -1    0    0  501  503 -0.00000000000E+00 -0.00000000000E+00 -0.47765412933E+03  0.47765412933E+03  0.00000000000E+00 0. -1.
        -13    1    1    2    0    0 -0.38537557615E+02 -0.21091576264E+03 -0.12048306706E+03  0.24594060846E+03  0.10566000000E+00 0.  1.
         13    1    1    2    0    0 -0.76585560628E+02  0.26968053876E+03 -0.54447472415E+02  0.28558270168E+03  0.10566000000E+00 0. -1.
          4    1    1    2  501    0  0.78587662974E+02 -0.68871275011E+02 -0.88495448620E+02  0.13693326009E+03  0.00000000000E+00 0.  1.
         -4    1    1    2    0  502  0.36535455268E+02  0.10106498897E+02  0.18958181875E+02  0.42383882215E+02  0.00000000000E+00 0. -1.
</event>
<event>
 6    1  0.5496865E-006  0.1893415E+03  0.7818608E-02  0.1067699E+00
         21   -1    0    0  501  502  0.00000000000E+00  0.00000000000E+00  0.87196381547E+03  0.87196381547E+03  0.00000000000E+00 0.  1.
         21   -1    0    0  502  503 -0.00000000000E+00 -0.00000000000E+00 -0.20471605084E+03  0.20471605084E+03  0.00000000000E+00 0.  1.
        -13    1    1    2    0    0 -0.24982329395E+03 -0.36603103517E+02 -0.55235836350E+02  0.25846174605E+03  0.10566000000E+00 0.  1.
         13    1    1    2    0    0  0.17075655933E+03  0.20874774080E+02  0.32564085160E+03  0.36828729837E+03  0.10566000000E+00 0. -1.
          4    1    1    2  501    0  0.13486447692E+02 -0.22250042865E+02  0.36788398259E+03  0.36880289224E+03  0.00000000000E+00 0.  1.
         -4    1    1    2    0  503  0.65580286931E+02  0.37978372301E+02  0.28958766792E+02  0.81127929659E+02  0.00000000000E+00 0. -1.
</event>
<event>
 6    1  0.5496865E-006  0.2505263E+03  0.7818608E-02  0.1030120E+00
         21   -1    0    0  501  502  0.00000000000E+00  0.00000000000E+00  0.25727997347E+04  0.25727997347E+04  0.00000000000E+00 0. -1.
         21   -1    0    0  502  503 -0.00000000000E+00 -0.00000000000E+00 -0.65644196002E+02  0.65644196002E+02  0.00000000000E+00 0. -1.
        -13    1    1    2    0    0 -0.24805030540E+03  0.17164279990E+02  0.67039241712E+03  0.71501718204E+03  0.10566000000E+00 0.  1.
         13    1    1    2    0    0  0.26804034777E+03  0.83148065389E+02  0.16924652632E+04  0.17155750951E+04  0.10566000000E+00 0. -1.
          4    1    1    2  501    0 -0.32820446453E+02 -0.71395440476E+02  0.15555315293E+03  0.17427356085E+03  0.00000000000E+00 0.  1.
         -4    1    1    2    0  503  0.12830404077E+02 -0.28916904903E+02 -0.11255294472E+02  0.33578092733E+02  0.00000000000E+00 0. -1.
</event>
<event>
 6    1  0.5496865E-006  0.3668329E+02  0.7818608E-02  0.1359288E+00
         21   -1    0    0  501  502  0.00000000000E+00  0.00000000000E+00  0.22653045627E+02  0.22653045627E+02  0.00000000000E+00 0.  1.
         21   -1    0    0  502  503 -0.00000000000E+00 -0.00000000000E+00 -0.38063972444E+03  0.38063972444E+03  0.00000000000E+00 0. -1.
        -13    1    1    2    0    0 -0.30340027231E+01 -0.33786789030E+02 -0.18391860932E+03  0.18702090338E+03  0.10566000000E+00 0.  1.
         13    1    1    2    0    0  0.35017104328E+02  0.53553495995E+02 -0.71090764886E+02  0.95645609125E+02  0.10566000000E+00 0. -1.
          4    1    1    2  501    0 -0.13358129974E+02 -0.35527164560E+02 -0.55356041777E+02  0.67118629450E+02  0.00000000000E+00 0.  1.
         -4    1    1    2    0  503 -0.18624971630E+02  0.15760457594E+02 -0.47621262831E+02  0.53507628105E+02  0.00000000000E+00 0. -1.
</event>
<event>
 6    1  0.5496865E-006  0.6891883E+02  0.7818608E-02  0.1247000E+00
         21   -1    0    0  503  502  0.00000000000E+00  0.00000000000E+00  0.13691639014E+03  0.13691639014E+03  0.00000000000E+00 0. -1.
         21   -1    0    0  501  503 -0.00000000000E+00 -0.00000000000E+00 -0.10088537594E+04  0.10088537594E+04  0.00000000000E+00 0.  1.
        -13    1    1    2    0    0  0.11442245295E+02 -0.68419339559E+02 -0.19425186212E+02  0.72038045688E+02  0.10566000000E+00 0.  1.
         13    1    1    2    0    0  0.38683268020E+02  0.29440198078E+02 -0.21404610513E+03  0.21949684912E+03  0.10566000000E+00 0. -1.
          4    1    1    2  501    0 -0.44988723170E+02  0.52925065204E+02 -0.74421370445E+03  0.74744838325E+03  0.00000000000E+00 0.  1.
         -4    1    1    2    0  502 -0.51367901457E+01 -0.13945923723E+02  0.10574762654E+03  0.10678687148E+03  0.00000000000E+00 0. -1.
</event>
<event>
 6    1  0.5496865E-006  0.2299160E+02  0.7818608E-02  0.1472050E+00
         21   -1    0    0  501  502  0.00000000000E+00  0.00000000000E+00  0.16710455193E+03  0.16710455193E+03  0.00000000000E+00 0.  1.
         21   -1    0    0  502  503 -0.00000000000E+00 -0.00000000000E+00 -0.20650638341E+02  0.20650638341E+02  0.00000000000E+00 0. -1.
        -13    1    1    2    0    0 -0.17535365553E+02 -0.16080376634E+02  0.74399959835E+02  0.78111668432E+02  0.10566000000E+00 0.  1.
         13    1    1    2    0    0  0.21566235402E+02  0.14440159416E+02  0.16042826404E+02  0.30512360715E+02  0.10566000000E+00 0. -1.
          4    1    1    2  501    0 -0.60634917893E+01  0.15799741272E+02  0.61517846423E+02  0.63803159683E+02  0.00000000000E+00 0.  1.
         -4    1    1    2    0  503  0.20326219412E+01 -0.14159524054E+02 -0.55067190686E+01  0.15328001445E+02  0.00000000000E+00 0. -1.
</event>
<event>
 6    1  0.5496865E-006  0.6299989E+02  0.7818608E-02  0.1250459E+00
         21   -1    0    0  501  502  0.00000000000E+00  0.00000000000E+00  0.39518483080E+02  0.39518483080E+02  0.00000000000E+00 0. -1.
         21   -1    0    0  502  503 -0.00000000000E+00 -0.00000000000E+00 -0.88721384264E+03  0.88721384264E+03  0.00000000000E+00 0. -1.
        -13    1    1    2    0    0  0.66091325669E+02 -0.28834318459E+02 -0.15088900528E+03  0.16723332302E+03  0.10566000000E+00 0.  1.
         13    1    1    2    0    0 -0.56734679077E+01  0.82143724703E+02 -0.32619733582E+02  0.88565444329E+02  0.10566000000E+00 0. -1.
          4    1    1    2  501    0 -0.16902056527E+02 -0.46756071383E+02 -0.29904178351E+03  0.30314649596E+03  0.00000000000E+00 0.  1.
         -4    1    1    2    0  503 -0.43515801234E+02 -0.65533348616E+01 -0.36514483718E+03  0.36778706241E+03  0.00000000000E+00 0. -1.
</event>
<event>
 6    1  0.5496865E-006  0.5626215E+02  0.7818608E-02  0.1268200E+00
         21   -1    0    0  503  502  0.00000000000E+00  0.00000000000E+00  0.89333871025E+02  0.89333871025E+02  0.00000000000E+00 0. -1.
         21   -1    0    0  501  503 -0.00000000000E+00 -0.00000000000E+00 -0.15508618574E+03  0.15508618574E+03  0.00000000000E+00 0.  1.
        -13    1    1    2    0    0 -0.39698160340E+02 -0.61239024967E+02 -0.42019049258E+02  0.84212669937E+02  0.10566000000E+00 0.  1.
         13    1    1    2    0    0  0.60331312916E+02  0.23975558242E+02 -0.13583600089E+01  0.64934975299E+02  0.10566000000E+00 0. -1.
          4    1    1    2  501    0  0.13458188817E+02  0.37157168322E+02 -0.40563837461E+02  0.56632172071E+02  0.00000000000E+00 0.  1.
         -4    1    1    2    0  502 -0.34091341393E+02  0.10629840284E+00  0.18188932015E+02  0.38640239456E+02  0.00000000000E+00 0. -1.
</event>
<event>
 6    1  0.5496865E-006  0.9182199E+02  0.7818608E-02  0.1179298E+00
         21   -1    0    0  501  502  0.00000000000E+00  0.00000000000E+00  0.40184651688E+03  0.40184651688E+03  0.00000000000E+00 0.  1.
         21   -1    0    0  502  503 -0.00000000000E+00 -0.00000000000E+00 -0.13063337199E+03  0.13063337199E+03  0.00000000000E+00 0.  1.
        -13    1    1    2    0    0 -0.11306527209E+03  0.10966585662E+03  0.59145834862E+02  0.16825158783E+03  0.10566000000E+00 0.  1.
         13    1    1    2    0    0  0.62029412393E+02 -0.29747338045E+02  0.41720291706E+02  0.80455863843E+02  0.10566000000E+00 0. -1.
          4    1    1    2  501    0 -0.68171889920E+01 -0.92840005023E+01  0.19002446908E+03  0.19037322705E+03  0.00000000000E+00 0.  1.
         -4    1    1    2    0  503  0.57853048693E+02 -0.70634518075E+02 -0.19677450748E+02  0.93399210140E+02  0.00000000000E+00 0. -1.
</event>
<event>
 6    1  0.5496865E-006  0.1647015E+03  0.7818608E-02  0.1087453E+00
         21   -1    0    0  501  502  0.00000000000E+00  0.00000000000E+00  0.24697308994E+03  0.24697308994E+03  0.00000000000E+00 0. -1.
         21   -1    0    0  502  503 -0.00000000000E+00 -0.00000000000E+00 -0.17251101135E+03  0.17251101135E+03  0.00000000000E+00 0.  1.
        -13    1    1    2    0    0 -0.14552268749E+03 -0.21016532430E+02 -0.28055840421E+02  0.14968529839E+03  0.10566000000E+00 0.  1.
         13    1    1    2    0    0  0.17600970625E+03 -0.93531120868E+01  0.82611143067E+02  0.19465741579E+03  0.10566000000E+00 0. -1.
          4    1    1    2  501    0  0.33871052856E+01 -0.14168646203E+02  0.11493725417E+02  0.18556097149E+02  0.00000000000E+00 0.  1.
         -4    1    1    2    0  503 -0.33874124045E+02  0.44538290720E+02  0.84130505274E+01  0.56585289954E+02  0.00000000000E+00 0. -1.
</event>
<event>
 6    1  0.5496865E-006  0.9415191E+02  0.7818608E-02  0.1174611E+00
         21   -1    0    0  501  502  0.00000000000E+00  0.00000000000E+00  0.27724329014E+03  0.27724329014E+03  0.00000000000E+00 0. -1.
         21   -1    0    0  502  503 -0.00000000000E+00 -0.00000000000E+00 -0.31357004039E+03  0.31357004039E+03  0.00000000000E+00 0. -1.
        -13    1    1    2    0    0 -0.80284475590E+02 -0.11549093584E+02 -0.78675318616E+02  0.11299909516E+03  0.10566000000E+00 0.  1.
         13    1    1    2    0    0  0.85876841576E+02  0.25841521171E+02  0.23804196654E+03  0.25437493024E+03  0.10566000000E+00 0. -1.
          4    1    1    2  501    0  0.35431300878E+01  0.10553984831E+02  0.10648876337E+02  0.15405808446E+02  0.00000000000E+00 0.  1.
         -4    1    1    2    0  503 -0.91354960740E+01 -0.24846412419E+02 -0.20634227451E+03  0.20803349669E+03  0.00000000000E+00 0. -1.
</event>
<event>
 6    1  0.5496865E-006  0.2316570E+03  0.7818608E-02  0.1041131E+00
         21   -1    0    0  501  502  0.00000000000E+00  0.00000000000E+00  0.86578316902E+03  0.86578316902E+03  0.00000000000E+00 0.  1.
         21   -1    0    0  502  503 -0.00000000000E+00 -0.00000000000E+00 -0.33368401249E+03  0.33368401249E+03  0.00000000000E+00 0.  1.
        -13    1    1    2    0    0  0.52812687181E+02  0.23943051660E+03  0.49083683841E+02  0.25005073763E+03  0.10566000000E+00 0.  1.
         13    1    1    2    0    0 -0.19174565706E+03 -0.37775483856E+02  0.32397729990E+03  0.37835788110E+03  0.10566000000E+00 0. -1.
          4    1    1    2  501    0 -0.69324239031E+02 -0.61316133703E+02  0.27812811575E+03  0.29312244394E+03  0.00000000000E+00 0.  1.
         -4    1    1    2    0  503  0.20825720891E+03 -0.14033889904E+03 -0.11908994296E+03  0.27793611884E+03  0.00000000000E+00 0. -1.
</event>
<event>
 6    1  0.5496865E-006  0.2891438E+03  0.7818608E-02  0.1011890E+00
         21   -1    0    0  501  502  0.00000000000E+00  0.00000000000E+00  0.11200676309E+03  0.11200676309E+03  0.00000000000E+00 0. -1.
         21   -1    0    0  502  503 -0.00000000000E+00 -0.00000000000E+00 -0.12148285538E+04  0.12148285538E+04  0.00000000000E+00 0.  1.
        -13    1    1    2    0    0  0.18352693771E+03  0.19289155607E+03 -0.36520736699E+03  0.45195765436E+03  0.10566000000E+00 0.  1.
         13    1    1    2    0    0 -0.20579009935E+03 -0.24261261315E+03 -0.31473541249E+03  0.44751406245E+03  0.10566000000E+00 0. -1.
          4    1    1    2  501    0  0.15379733388E+02  0.33883111067E+02 -0.17648017026E+03  0.18036033907E+03  0.00000000000E+00 0.  1.
         -4    1    1    2    0  503  0.68834282441E+01  0.15837946014E+02 -0.24639884094E+03  0.24700326098E+03  0.00000000000E+00 0. -1.
</event>
<event>
 6    1  0.5496865E-006  0.2859349E+02  0.7818608E-02  0.1416571E+00
         21   -1    0    0  501  502  0.00000000000E+00  0.00000000000E+00  0.98741045860E+02  0.98741045860E+02  0.00000000000E+00 0.  1.
         21   -1    0    0  502  503 -0.00000000000E+00 -0.00000000000E+00 -0.74762190802E+02  0.74762190802E+02  0.00000000000E+00 0.  1.
        -13    1    1    2    0    0  0.22022327898E+02  0.21516295958E+02  0.19482078800E+02  0.36434825047E+02  0.10566000000E+00 0.  1.
         13    1    1    2    0    0 -0.36239518846E+02  0.78229832591E+01 -0.20380840113E+02  0.42307110525E+02  0.10566000000E+00 0. -1.
          4    1    1    2  501    0  0.52317261730E+01 -0.17603222198E+02  0.56739788590E+02  0.59637639120E+02  0.00000000000E+00 0.  1.
         -4    1    1    2    0  503  0.89854647743E+01 -0.11736057019E+02 -0.31862172220E+02  0.35123661970E+02  0.00000000000E+00 0. -1.
</event>
<event>
 6    1  0.5496865E-006  0.2454389E+03  0.7818608E-02  0.1032784E+00
         21   -1    0    0  501  502  0.00000000000E+00  0.00000000000E+00  0.20258025814E+03  0.20258025814E+03  0.00000000000E+00 0. -1.
         21   -1    0    0  502  503 -0.00000000000E+00 -0.00000000000E+00 -0.76339321101E+03  0.76339321101E+03  0.00000000000E+00 0.  1.
        -13    1    1    2    0    0 -0.22929748010E+03 -0.17216071914E+03 -0.33889333488E+03  0.44392043339E+03  0.10566000000E+00 0.  1.
         13    1    1    2    0    0  0.20609740320E+03  0.78647882394E+02 -0.20712946270E+03  0.30259586000E+03  0.10566000000E+00 0. -1.
          4    1    1    2  501    0  0.54192666433E+00  0.13168948503E+02  0.86898910117E+02  0.87892749807E+02  0.00000000000E+00 0.  1.
         -4    1    1    2    0  503  0.22658150239E+02  0.80343888248E+02 -0.10168906541E+03  0.13156442594E+03  0.00000000000E+00 0. -1.
</event>
<event>
 6    1  0.5496865E-006  0.1228170E+03  0.7818608E-02  0.1144541E+00
         21   -1    0    0  501  502  0.00000000000E+00  0.00000000000E+00  0.60835547844E+03  0.60835547844E+03  0.00000000000E+00 0.  1.
         21   -1    0    0  502  503 -0.00000000000E+00 -0.00000000000E+00 -0.81588203351E+02  0.81588203351E+02  0.00000000000E+00 0. -1.
        -13    1    1    2    0    0  0.15611862070E+03  0.67724220661E+02  0.28537331694E+03  0.33226124508E+03  0.10566000000E+00 0.  1.
         13    1    1    2    0    0 -0.89599231027E+02  0.38682075097E+01  0.36395862630E+01  0.89756576261E+02  0.10566000000E+00 0. -1.
          4    1    1    2  501    0 -0.81647247746E+02 -0.49562861344E+02  0.16839827314E+03  0.19359940260E+03  0.00000000000E+00 0.  1.
         -4    1    1    2    0  503  0.15127858069E+02 -0.22029566827E+02  0.69356098738E+02  0.74326457850E+02  0.00000000000E+00 0. -1.
</event>
<event>
 6    1  0.5496865E-006  0.5775068E+03  0.7818608E-02  0.9322574E-01
         21   -1    0    0  501  502  0.00000000000E+00  0.00000000000E+00  0.17059365645E+04  0.17059365645E+04  0.00000000000E+00 0.  1.
         21   -1    0    0  502  503 -0.00000000000E+00 -0.00000000000E+00 -0.57425177638E+03  0.57425177638E+03  0.00000000000E+00 0.  1.
        -13    1    1    2    0    0  0.35740578860E+03  0.46483932481E+03  0.47352357858E+02  0.58826588596E+03  0.10566000000E+00 0.  1.
         13    1    1    2    0    0 -0.41871343582E+03 -0.39134163139E+03  0.32486125911E+03  0.65878984709E+03  0.10566000000E+00 0. -1.
          4    1    1    2  501    0  0.52044632178E+02 -0.54376810645E+02  0.89388577066E+03  0.89704919166E+03  0.00000000000E+00 0.  1.
         -4    1    1    2    0  503  0.92630150431E+01 -0.19120882777E+02 -0.13441459949E+03  0.13608341619E+03  0.00000000000E+00 0. -1.
</event>
<event>
 6    1  0.5496865E-006  0.9164469E+02  0.7818608E-02  0.1203912E+00
         21   -1    0    0  503  502  0.00000000000E+00  0.00000000000E+00  0.53919783220E+03  0.53919783220E+03  0.00000000000E+00 0.  1.
         21   -1    0    0  501  503 -0.00000000000E+00 -0.00000000000E+00 -0.16781474177E+03  0.16781474177E+03  0.00000000000E+00 0.  1.
        -13    1    1    2    0    0  0.13590945078E+03  0.81924726146E+02  0.32595059227E+03  0.36252839797E+03  0.10566000000E+00 0.  1.
         13    1    1    2    0    0 -0.14413251172E+02 -0.33108218397E+02  0.41297847397E+02  0.54858174399E+02  0.10566000000E+00 0. -1.
          4    1    1    2  501    0 -0.70067836901E+02 -0.54706211187E+02 -0.12334331038E+03  0.15203895398E+03  0.00000000000E+00 0.  1.
         -4    1    1    2    0  502 -0.51428362703E+02  0.58897034381E+01  0.12747796115E+03  0.13758704763E+03  0.00000000000E+00 0. -1.
</event>
<event>
 6    1  0.5496865E-006  0.1497875E+03  0.7818608E-02  0.1101321E+00
         21   -1    0    0  501  502  0.00000000000E+00  0.00000000000E+00  0.51835259932E+02  0.51835259932E+02  0.00000000000E+00 0.  1.
         21   -1    0    0  502  503 -0.00000000000E+00 -0.00000000000E+00 -0.61583869335E+03  0.61583869335E+03  0.00000000000E+00 0. -1.
        -13    1    1    2    0    0 -0.60261244683E+02 -0.14064624076E+03 -0.15914285789E+03  0.22076966058E+03  0.10566000000E+00 0.  1.
         13    1    1    2    0    0  0.76950832312E+02  0.12527290547E+03 -0.39245302261E+03  0.41908724337E+03  0.10566000000E+00 0. -1.
          4    1    1    2  501    0 -0.76615213427E+01  0.70246464307E+01 -0.11478349437E+02  0.15485382545E+02  0.00000000000E+00 0.  1.
         -4    1    1    2    0  503 -0.90280662866E+01  0.83486888612E+01 -0.92920347735E+00  0.12331666784E+02  0.00000000000E+00 0. -1.
</event>
<event>
 6    1  0.5496865E-006  0.2109046E+03  0.7818608E-02  0.1052907E+00
         21   -1    0    0  501  502  0.00000000000E+00  0.00000000000E+00  0.30485922570E+03  0.30485922570E+03  0.00000000000E+00 0. -1.
         21   -1    0    0  502  503 -0.00000000000E+00 -0.00000000000E+00 -0.30024348067E+03  0.30024348067E+03  0.00000000000E+00 0.  1.
        -13    1    1    2    0    0  0.10114710664E+03  0.22494365867E+03 -0.10278004447E+03  0.26719681036E+03  0.10566000000E+00 0.  1.
         13    1    1    2    0    0 -0.12260219027E+02 -0.16787529763E+03  0.71464174472E+02  0.18286488980E+03  0.10566000000E+00 0. -1.
          4    1    1    2  501    0 -0.81034965677E+02 -0.48694072085E+02  0.70941717352E+02  0.11819689327E+03  0.00000000000E+00 0.  1.
         -4    1    1    2    0  503 -0.78519219375E+01 -0.83742889641E+01 -0.35010102323E+02  0.36844112941E+02  0.00000000000E+00 0. -1.
</event>
<event>
 6    1  0.5496865E-006  0.1546681E+03  0.7818608E-02  0.1096597E+00
         21   -1    0    0  503  502  0.00000000000E+00  0.00000000000E+00  0.29147805213E+03  0.29147805213E+03  0.00000000000E+00 0.  1.
         21   -1    0    0  501  503 -0.00000000000E+00 -0.00000000000E+00 -0.14729850263E+03  0.14729850263E+03  0.00000000000E+00 0. -1.
        -13    1    1    2    0    0 -0.89199722919E+02 -0.14026071275E+03  0.13836361788E+03  0.21627334562E+03  0.10566000000E+00 0.  1.
         13    1    1    2    0    0  0.52461090516E+02  0.12860142921E+03 -0.10367515671E+02  0.13927666768E+03  0.10566000000E+00 0. -1.
          4    1    1    2  501    0  0.23875583848E+02  0.12971713060E+02 -0.26905824354E+02  0.38239145230E+02  0.00000000000E+00 0.  1.
         -4    1    1    2    0  502  0.12863048556E+02 -0.13124295243E+01  0.43089271647E+02  0.44987396241E+02  0.00000000000E+00 0. -1.
</event>
<event>
 6    1  0.5496865E-006  0.3218622E+02  0.7818608E-02  0.1414549E+00
         21   -1    0    0  501  502  0.00000000000E+00  0.00000000000E+00  0.55463192050E+02  0.55463192050E+02  0.00000000000E+00 0. -1.
         21   -1    0    0  502  503 -0.00000000000E+00 -0.00000000000E+00 -0.18658746513E+03  0.18658746513E+03  0.00000000000E+00 0. -1.
        -13    1    1    2    0    0 -0.94414138612E+01  0.48994765896E+02 -0.56785677000E+02  0.75592669336E+02  0.10566000000E+00 0.  1.
         13    1    1    2    0    0  0.92413413692E+00 -0.18100861892E+02  0.31661024571E+02  0.36481870375E+02  0.10566000000E+00 0. -1.
          4    1    1    2  501    0  0.24108945533E+02 -0.17245378941E+02 -0.92784641836E+01  0.31060171396E+02  0.00000000000E+00 0.  1.
         -4    1    1    2    0  503 -0.15591665808E+02 -0.13648525062E+02 -0.96721156463E+02  0.98915946069E+02  0.00000000000E+00 0. -1.
</event>
<event>
 6    1  0.5496865E-006  0.2760787E+02  0.7818608E-02  0.1425211E+00
         21   -1    0    0  501  502  0.00000000000E+00  0.00000000000E+00  0.23986445820E+02  0.23986445820E+02  0.00000000000E+00 0. -1.
         21   -1    0    0  502  503 -0.00000000000E+00 -0.00000000000E+00 -0.18250485276E+03  0.18250485276E+03  0.00000000000E+00 0. -1.
        -13    1    1    2    0    0  0.25688397364E+02  0.16080059401E+01 -0.54989518646E+02  0.60715218580E+02  0.10566000000E+00 0.  1.
         13    1    1    2    0    0 -0.22868353447E+02 -0.71018111557E+01 -0.70103796554E+01  0.24951029999E+02  0.10566000000E+00 0. -1.
          4    1    1    2  501    0 -0.46820817846E+01 -0.15235570651E+02  0.53803593556E+01  0.16822388941E+02  0.00000000000E+00 0.  1.
         -4    1    1    2    0  503  0.18620378679E+01  0.20729375867E+02 -0.10189886799E+03  0.10400266106E+03  0.00000000000E+00 0. -1.
</event>
<event>
 6    1  0.5496865E-006  0.9674662E+02  0.7818608E-02  0.1170053E+00
         21   -1    0    0  501  502  0.00000000000E+00  0.00000000000E+00  0.25455479302E+03  0.25455479302E+03  0.00000000000E+00 0.  1.
         21   -1    0    0  502  503 -0.00000000000E+00 -0.00000000000E+00 -0.17000781337E+03  0.17000781337E+03  0.00000000000E+00 0. -1.
        -13    1    1    2    0    0 -0.47391370715E+02 -0.91778687509E+02 -0.45650052452E+02  0.11293010206E+03  0.10566000000E+00 0.  1.
         13    1    1    2    0    0 -0.31484356854E+02  0.91844678675E+02  0.48648253094E+02  0.10859729932E+03  0.10566000000E+00 0. -1.
          4    1    1    2  501    0  0.60601785638E+02  0.10398294361E+02  0.13349943153E+03  0.14697890721E+03  0.00000000000E+00 0.  1.
         -4    1    1    2    0  503  0.18273941931E+02 -0.10464285527E+02 -0.51950652510E+02  0.56056297786E+02  0.00000000000E+00 0. -1.
</event>
<event>
 6    1  0.5496865E-006  0.2146852E+03  0.7818608E-02  0.1050510E+00
         21   -1    0    0  503  502  0.00000000000E+00  0.00000000000E+00  0.24570190804E+03  0.24570190804E+03  0.00000000000E+00 0.  1.
         21   -1    0    0  501  503 -0.00000000000E+00 -0.00000000000E+00 -0.37122658427E+03  0.37122658427E+03  0.00000000000E+00 0. -1.
        -13    1    1    2    0    0 -0.43047284012E+02 -0.20218095747E+03 -0.53148094567E+02  0.21343603103E+03  0.10566000000E+00 0.  1.
         13    1    1    2    0    0  0.11446548385E+03  0.19719215348E+03 -0.14380384840E+03  0.26956752469E+03  0.10566000000E+00 0. -1.
          4    1    1    2  501    0 -0.48133704744E+02  0.11018896547E+02 -0.88113138782E+01  0.50158836367E+02  0.00000000000E+00 0.  1.
         -4    1    1    2    0  502 -0.23284495094E+02 -0.60300925627E+01  0.80238580613E+02  0.83766100225E+02  0.00000000000E+00 0. -1.
</event>
<event>
 6    1  0.5496865E-006  0.1255454E+03  0.7818608E-02  0.1128088E+00
         21   -1    0    0  503  502  0.00000000000E+00  0.00000000000E+00  0.29888119131E+03  0.29888119131E+03  0.00000000000E+00 0.  1.
         21   -1    0    0  501  503 -0.00000000000E+00 -0.00000000000E+00 -0.15795562005E+03  0.15795562005E+03  0.00000000000E+00 0.  1.
        -13    1    1    2    0    0  0.99176312335E+02 -0.99211428332E+02  0.12933491861E+03  0.19080456172E+03  0.10566000000E+00 0.  1.
         13    1    1    2    0    0 -0.10364451169E+03  0.62240646093E+02  0.41110937291E+02  0.12769574448E+03  0.10566000000E+00 0. -1.
          4    1    1    2  501    0 -0.54346634376E+01 -0.15292848855E+02 -0.69768998873E+02  0.71631836473E+02  0.00000000000E+00 0.  1.
         -4    1    1    2    0  502  0.99028627976E+01  0.52263631094E+02  0.40248714235E+02  0.66704668684E+02  0.00000000000E+00 0. -1.
</event>
<event>
 6    1  0.5496865E-006  0.2659546E+03  0.7818608E-02  0.1022441E+00
         21   -1    0    0  503  502  0.00000000000E+00  0.00000000000E+00  0.11295828886E+04  0.11295828886E+04  0.00000000000E+00 0.  1.
         21   -1    0    0  501  503 -0.00000000000E+00 -0.00000000000E+00 -0.19279980777E+03  0.19279980777E+03  0.00000000000E+00 0. -1.
        -13    1    1    2    0    0  0.11472516158E+03 -0.22687252914E+03  0.57797296782E+03  0.63141568706E+03  0.10566000000E+00 0.  1.
         13    1    1    2    0    0 -0.11198453025E+03  0.32106075635E+03  0.38256046730E+02  0.34217551134E+03  0.10566000000E+00 0. -1.
          4    1    1    2  501    0  0.18963178012E+02  0.13335276796E+02  0.28014364937E+02  0.36362568259E+02  0.00000000000E+00 0.  1.
         -4    1    1    2    0  502 -0.21703809344E+02 -0.10752350401E+03  0.29253970137E+03  0.31242892973E+03  0.00000000000E+00 0. -1.
</event>
<event>
 6    1  0.5496865E-006  0.2609643E+03  0.7818608E-02  0.1024863E+00
         21   -1    0    0  501  502  0.00000000000E+00  0.00000000000E+00  0.55041574728E+03  0.55041574728E+03  0.00000000000E+00 0. -1.
         21   -1    0    0  502  503 -0.00000000000E+00 -0.00000000000E+00 -0.55382309621E+03  0.55382309621E+03  0.00000000000E+00 0. -1.
        -13    1    1    2    0    0  0.18307339353E+02 -0.22146599415E+03 -0.44975297342E+02  0.22672700275E+03  0.10566000000E+00 0.  1.
         13    1    1    2    0    0 -0.24803462795E+03  0.23034120005E+03  0.17759635880E+03  0.38225478797E+03  0.10566000000E+00 0. -1.
          4    1    1    2  501    0  0.18834352917E+03  0.68736690338E+02  0.11370133274E+03  0.23049080382E+03  0.00000000000E+00 0.  1.
         -4    1    1    2    0  503  0.41383759429E+02 -0.77611896238E+02 -0.24972974313E+03  0.26476624896E+03  0.00000000000E+00 0. -1.
</event>
<event>
 6    1  0.5496865E-006  0.1070524E+03  0.7818608E-02  0.1170144E+00
         21   -1    0    0  501  502  0.00000000000E+00  0.00000000000E+00  0.48063952891E+03  0.48063952891E+03  0.00000000000E+00 0. -1.
         21   -1    0    0  502  503 -0.00000000000E+00 -0.00000000000E+00 -0.10196853139E+03  0.10196853139E+03  0.00000000000E+00 0.  1.
        -13    1    1    2    0    0 -0.25019800975E+02 -0.41517284203E+02  0.33437560245E+02  0.58887663629E+02  0.10566000000E+00 0.  1.
         13    1    1    2    0    0  0.16224600966E+03  0.12582984553E+03  0.26358715005E+03  0.33411841391E+03  0.10566000000E+00 0. -1.
          4    1    1    2  501    0 -0.90888211245E+02 -0.51829942167E+02  0.21112882711E+02  0.10673688990E+03  0.00000000000E+00 0.  1.
         -4    1    1    2    0  503 -0.46337997441E+02 -0.32482619160E+02  0.60533404507E+02  0.82865092866E+02  0.00000000000E+00 0. -1.
</event>
<event>
 6    1  0.5496865E-006  0.1371397E+03  0.7818608E-02  0.1114537E+00
         21   -1    0    0  503  502  0.00000000000E+00  0.00000000000E+00  0.20343316449E+03  0.20343316449E+03  0.00000000000E+00 0.  1.
         21   -1    0    0  501  503 -0.00000000000E+00 -0.00000000000E+00 -0.28535813999E+03  0.28535813999E+03  0.00000000000E+00 0.  1.
        -13    1    1    2    0    0 -0.44935442340E+01 -0.11751221223E+03  0.67411263222E+02  0.13554925870E+03  0.10566000000E+00 0.  1.
         13    1    1    2    0    0  0.27158418146E+02  0.13919419538E+03 -0.81534769172E+02  0.16358647087E+03  0.10566000000E+00 0. -1.
          4    1    1    2  501    0 -0.25225947324E+02  0.99751506609E+01 -0.12300875678E+03  0.12596430564E+03  0.00000000000E+00 0.  1.
         -4    1    1    2    0  502  0.25610734115E+01 -0.31657133812E+02  0.55207287231E+02  0.63691269273E+02  0.00000000000E+00 0. -1.
</event>
<event>
 6    1  0.5496865E-006  0.1842597E+03  0.7818608E-02  0.1088725E+00
         21   -1    0    0  501  502  0.00000000000E+00  0.00000000000E+00  0.81903674252E+03  0.81903674252E+03  0.00000000000E+00 0.  1.
         21   -1    0    0  502  503 -0.00000000000E+00 -0.00000000000E+00 -0.22763777057E+03  0.22763777057E+03  0.00000000000E+00 0.  1.
        -13    1    1    2    0    0  0.20026588943E+03 -0.54205094244E+02 -0.80430554645E+02  0.22251674992E+03  0.10566000000E+00 0.  1.
         13    1    1    2    0    0 -0.67900039439E+02  0.87805555534E+02  0.69107914906E+02  0.13075223136E+03  0.10566000000E+00 0. -1.
          4    1    1    2  501    0 -0.16853742743E+03 -0.79371946629E+02  0.60696712900E+03  0.63491248691E+03  0.00000000000E+00 0.  1.
         -4    1    1    2    0  503  0.36171577431E+02  0.45771485338E+02 -0.42455172980E+01  0.58493044895E+02  0.00000000000E+00 0. -1.
</event>
<event>
 6    1  0.5496865E-006  0.2417486E+02  0.7818608E-02  0.1458901E+00
         21   -1    0    0  501  502  0.00000000000E+00  0.00000000000E+00  0.74721628081E+02  0.74721628081E+02  0.00000000000E+00 0. -1.
         21   -1    0    0  502  503 -0.00000000000E+00 -0.00000000000E+00 -0.99669411498E+02  0.99669411498E+02  0.00000000000E+00 0.  1.
        -13    1    1    2    0    0 -0.11575862734E+02 -0.37677923560E+02 -0.74755152945E+02  0.84510180319E+02  0.10566000000E+00 0.  1.
         13    1    1    2    0    0  0.24670908866E+02  0.10918271003E+02  0.35704690633E+02  0.44751519339E+02  0.10566000000E+00 0. -1.
          4    1    1    2  501    0  0.68999074265E+01  0.14658471094E+02 -0.25922165320E+01  0.16407287523E+02  0.00000000000E+00 0.  1.
         -4    1    1    2    0  503 -0.19994953558E+02  0.12101181463E+02  0.16694895427E+02  0.28722052397E+02  0.00000000000E+00 0. -1.
</event>
<event>
 6    1  0.5496865E-006  0.1170923E+03  0.7818608E-02  0.1139014E+00
         21   -1    0    0  501  502  0.00000000000E+00  0.00000000000E+00  0.16312565883E+04  0.16312565883E+04  0.00000000000E+00 0. -1.
         21   -1    0    0  502  503 -0.00000000000E+00 -0.00000000000E+00 -0.17885099812E+02  0.17885099812E+02  0.00000000000E+00 0.  1.
        -13    1    1    2    0    0  0.56052110446E+02 -0.10974086950E+03  0.64623505823E+03  0.65787890920E+03  0.10566000000E+00 0.  1.
         13    1    1    2    0    0 -0.31125559234E+02  0.97645606434E+02  0.23890668972E+03  0.25996130953E+03  0.10566000000E+00 0. -1.
          4    1    1    2  501    0  0.18650867172E+02 -0.18512669879E+01  0.31247688648E+03  0.31303847466E+03  0.00000000000E+00 0.  1.
         -4    1    1    2    0  503 -0.43577418384E+02  0.13946530057E+02  0.41575285403E+03  0.41826299469E+03  0.00000000000E+00 0. -1.
</event>
<event>
 6    1  0.5496865E-006  0.7097044E+02  0.7818608E-02  0.1224204E+00
         21   -1    0    0  503  502  0.00000000000E+00  0.00000000000E+00  0.13953340816E+03  0.13953340816E+03  0.00000000000E+00 0.  1.
         21   -1    0    0  501  503 -0.00000000000E+00 -0.00000000000E+00 -0.86467301149E+02  0.86467301149E+02  0.00000000000E+00 0.  1.
        -13    1    1    2    0    0 -0.26742379193E+02 -0.58910266968E+02  0.59193487941E+02  0.87689535167E+02  0.10566000000E+00 0.  1.
         13    1    1    2    0    0  0.20465059053E+02  0.71940439239E+02  0.26990339596E+02  0.79515627618E+02  0.10566000000E+00 0. -1.
          4    1    1    2  501    0  0.13910678807E+02  0.10317221848E+01 -0.39254275285E+02  0.41658967386E+02  0.00000000000E+00 0.  1.
         -4    1    1    2    0  502 -0.76333586664E+01 -0.14061894456E+02  0.61365547567E+01  0.17136579136E+02  0.00000000000E+00 0. -1.
</event>
<event>
 6    1  0.5496865E-006  0.1914884E+03  0.7818608E-02  0.1066133E+00
         21   -1    0    0  503  502  0.00000000000E+00  0.00000000000E+00  0.69326788762E+03  0.69326788762E+03  0.00000000000E+00 0. -1.
         21   -1    0    0  501  503 -0.00000000000E+00 -0.00000000000E+00 -0.13478100145E+03  0.13478100145E+03  0.00000000000E+00 0. -1.
        -13    1    1    2    0    0 -0.70422397189E+02  0.17173698592E+03  0.39501757709E+03  0.43645366734E+03  0.10566000000E+00 0.  1.
         13    1    1    2    0    0  0.80859010146E+02 -0.23516017215E+03  0.92620357631E+02  0.26536206944E+03  0.10566000000E+00 0. -1.
          4    1    1    2  501    0 -0.12178611448E+02  0.75287949990E+02  0.27207894364E+02  0.80974462061E+02  0.00000000000E+00 0.  1.
         -4    1    1    2    0  502  0.17419984918E+01 -0.11864763756E+02  0.43641057087E+02  0.45258690230E+02  0.00000000000E+00 0. -1.
</event>
<event>
 6    1  0.5496865E-006  0.5479307E+02  0.7818608E-02  0.1273415E+00
         21   -1    0    0  503  502  0.00000000000E+00  0.00000000000E+00  0.88744990349E+02  0.88744990349E+02  0.00000000000E+00 0.  1.
         21   -1    0    0  501  503 -0.00000000000E+00 -0.00000000000E+00 -0.10787287083E+03  0.10787287083E+03  0.00000000000E+00 0. -1.
        -13    1    1    2    0    0 -0.59100117561E+02 -0.33561546689E+02  0.44333245947E+02  0.81145851232E+02  0.10566000000E+00 0.  1.
         13    1    1    2    0    0  0.38976613938E+02  0.28449140273E+02 -0.65702233500E+02  0.81518860807E+02  0.10566000000E+00 0. -1.
          4    1    1    2  501    0  0.11514279161E+02 -0.98750739297E+01 -0.38104582280E+01  0.15640182276E+02  0.00000000000E+00 0.  1.
         -4    1    1    2    0  502  0.86092244623E+01  0.14987480346E+02  0.60515652974E+01  0.18312966868E+02  0.00000000000E+00 0. -1.
</event>
<event>
 6    1  0.5496865E-006  0.3042828E+03  0.7818608E-02  0.1028133E+00
         21   -1    0    0  501  502  0.00000000000E+00  0.00000000000E+00  0.25366639601E+03  0.25366639601E+03  0.00000000000E+00 0. -1.
         21   -1    0    0  502  503 -0.00000000000E+00 -0.00000000000E+00 -0.10894061335E+04  0.10894061335E+04  0.00000000000E+00 0. -1.
        -13    1    1    2    0    0 -0.44712893754E+02  0.13980438037E+03 -0.86695268897E+02  0.17047166466E+03  0.10566000000E+00 0.  1.
         13    1    1    2    0    0  0.81591532779E+02 -0.41404640487E+03 -0.24146571239E+03  0.48620705984E+03  0.10566000000E+00 0. -1.
          4    1    1    2  501    0 -0.28856585157E+02 -0.39597008009E+00  0.53987102306E+02  0.61216554253E+02  0.00000000000E+00 0.  1.
         -4    1    1    2    0  503 -0.80220538684E+01  0.27463799458E+03 -0.56156585850E+03  0.62517725074E+03  0.00000000000E+00 0. -1.
</event>
<event>
 6    1  0.5496865E-006  0.1329604E+03  0.7818608E-02  0.1119248E+00
         21   -1    0    0  501  502  0.00000000000E+00  0.00000000000E+00  0.56435429380E+03  0.56435429380E+03  0.00000000000E+00 0.  1.
         21   -1    0    0  502  503 -0.00000000000E+00 -0.00000000000E+00 -0.94448973116E+02  0.94448973116E+02  0.00000000000E+00 0. -1.
        -13    1    1    2    0    0  0.68482787753E+02 -0.10132384602E+03  0.16369175956E+02  0.12338709445E+03  0.10566000000E+00 0.  1.
         13    1    1    2    0    0 -0.47904822674E+02  0.12598256226E+03  0.18661283307E+03  0.23019739065E+03  0.10566000000E+00 0. -1.
          4    1    1    2  501    0  0.31296066988E+02  0.21830205365E+02  0.21494519957E+03  0.21830584164E+03  0.00000000000E+00 0.  1.
         -4    1    1    2    0  503 -0.51874032067E+02 -0.46488921609E+02  0.51978112089E+02  0.86912940185E+02  0.00000000000E+00 0. -1.
</event>
<event>
 6    1  0.5496865E-006  0.1081144E+03  0.7818608E-02  0.1184670E+00
         21   -1    0    0  501  502  0.00000000000E+00  0.00000000000E+00  0.67164643162E+02  0.67164643162E+02  0.00000000000E+00 0. -1.
         21   -1    0    0  502  503 -0.00000000000E+00 -0.00000000000E+00 -0.38913014069E+03  0.38913014069E+03  0.00000000000E+00 0. -1.
        -13    1    1    2    0    0  0.48696369585E+02 -0.16795173653E+02 -0.10004137984E+03  0.11252423344E+03  0.10566000000E+00 0.  1.
         13    1    1    2    0    0  0.92535747839E+02  0.37149034889E+02 -0.10965403430E+03  0.14821246177E+03  0.10566000000E+00 0. -1.
          4    1    1    2  501    0 -0.21918149872E+02 -0.26289460754E+01  0.96132832794E+01  0.24077621699E+02  0.00000000000E+00 0.  1.
         -4    1    1    2    0  503 -0.11931396755E+03 -0.17724915161E+02 -0.12188336667E+03  0.17148046694E+03  0.00000000000E+00 0. -1.
</event>
<event>
 6    1  0.5496865E-006  0.5189620E+03  0.7818608E-02  0.9846228E-01
         21   -1    0    0  503  502  0.00000000000E+00  0.00000000000E+00  0.57802601277E+03  0.57802601277E+03  0.00000000000E+00 0.  1.
         21   -1    0    0  501  503 -0.00000000000E+00 -0.00000000000E+00 -0.70318626760E+03  0.70318626760E+03  0.00000000000E+00 0.  1.
        -13    1    1    2    0    0 -0.30629664954E+03 -0.46144488823E+03 -0.34737430934E+02  0.55493758447E+03  0.10566000000E+00 0.  1.
         13    1    1    2    0    0  0.12270251983E+03 -0.92763611925E+01 -0.10242398192E+03  0.16010197527E+03  0.10566000000E+00 0. -1.
          4    1    1    2  501    0  0.18969440104E+03  0.45588454246E+03 -0.55413613007E+02  0.49687558840E+03  0.00000000000E+00 0.  1.
         -4    1    1    2    0  502 -0.61002713323E+01  0.14836706963E+02  0.67414771028E+02  0.69297132239E+02  0.00000000000E+00 0. -1.
</event>
<event>
 6    1  0.5496865E-006  0.8975449E+02  0.7818608E-02  0.1182719E+00
         21   -1    0    0  501  502  0.00000000000E+00  0.00000000000E+00  0.25768022287E+03  0.25768022287E+03  0.00000000000E+00 0. -1.
         21   -1    0    0  502  503 -0.00000000000E+00 -0.00000000000E+00 -0.99634992991E+02  0.99634992991E+02  0.00000000000E+00 0.  1.
        -13    1    1    2    0    0 -0.94580636645E+02  0.10018673557E+03  0.19833900230E+02  0.13919868381E+03  0.10566000000E+00 0.  1.
         13    1    1    2    0    0  0.65982700606E+02 -0.27632896637E+02  0.10264447992E+03  0.12511272588E+03  0.10566000000E+00 0. -1.
          4    1    1    2  501    0  0.34269344439E+01 -0.22772530005E+02  0.28703909888E+02  0.36800087573E+02  0.00000000000E+00 0.  1.
         -4    1    1    2    0  503  0.25171001595E+02 -0.49781308929E+02  0.68629398352E+01  0.56203718588E+02  0.00000000000E+00 0. -1.
</event>
<event>
 6    1  0.5496865E-006  0.1308033E+03  0.7818608E-02  0.1121754E+00
         21   -1    0    0  503  502  0.00000000000E+00  0.00000000000E+00  0.22900230327E+03  0.22900230327E+03  0.00000000000E+00 0.  1.
         21   -1    0    0  501  503 -0.00000000000E+00 -0.00000000000E+00 -0.67464912327E+03  0.67464912327E+03  0.00000000000E+00 0. -1.
        -13    1    1    2    0    0  0.10416925687E+03  0.12272448067E+03  0.30655838593E+02  0.16386678687E+03  0.10566000000E+00 0.  1.
         13    1    1    2    0    0 -0.14790730554E+03 -0.53913782715E+02 -0.52551421258E+03  0.54858770109E+03  0.10566000000E+00 0. -1.
          4    1    1    2  501    0  0.20537948722E+02  0.48580894438E+02 -0.15741646475E+02  0.55042802217E+02  0.00000000000E+00 0.  1.
         -4    1    1    2    0  502  0.23200099946E+02 -0.11739159240E+03  0.64953200459E+02  0.13615413638E+03  0.00000000000E+00 0. -1.
</event>
<event>
 6    1  0.5496865E-006  0.6350058E+02  0.7818608E-02  0.1244888E+00
         21   -1    0    0  503  502  0.00000000000E+00  0.00000000000E+00  0.46131673877E+03  0.46131673877E+03  0.00000000000E+00 0.  1.
         21   -1    0    0  501  503 -0.00000000000E+00 -0.00000000000E+00 -0.94868103151E+02  0.94868103151E+02  0.00000000000E+00 0.  1.
        -13    1    1    2    0    0 -0.83174263641E+02 -0.46275517874E+02  0.27578908218E+03  0.29175162501E+03  0.10566000000E+00 0.  1.
         13    1    1    2    0    0  0.28828993060E+02  0.38755053926E+02  0.80512941244E+02  0.93890414407E+02  0.10566000000E+00 0. -1.
          4    1    1    2  501    0  0.20312718646E+02  0.10503707142E+01 -0.75480797483E+02  0.78173272965E+02  0.00000000000E+00 0.  1.
         -4    1    1    2    0  502  0.34032551935E+02  0.64700932340E+01  0.85627409679E+02  0.92369529532E+02  0.00000000000E+00 0. -1.
</event>
<event>
 6    1  0.5496865E-006  0.7147665E+02  0.7818608E-02  0.1222905E+00
         21   -1    0    0  503  502  0.00000000000E+00  0.00000000000E+00  0.98601188385E+02  0.98601188385E+02  0.00000000000E+00 0.  1.
         21   -1    0    0  501  503 -0.00000000000E+00 -0.00000000000E+00 -0.20115024932E+03  0.20115024932E+03  0.00000000000E+00 0.  1.
        -13    1    1    2    0    0  0.69472021191E+02 -0.74871671284E+02  0.76081995935E+01  0.10242082188E+03  0.10566000000E+00 0.  1.
         13    1    1    2    0    0 -0.44039161826E+02  0.27890530702E+02  0.12228485528E+02  0.53543220854E+02  0.10566000000E+00 0. -1.
          4    1    1    2  501    0 -0.30297457155E+02  0.21844615640E+02 -0.10831174551E+03  0.11457118904E+03  0.00000000000E+00 0.  1.
         -4    1    1    2    0  502  0.48645977892E+01  0.25136524943E+02 -0.14074000554E+02  0.29216205939E+02  0.00000000000E+00 0. -1.
</event>
<event>
 6    1  0.5496865E-006  0.4518396E+02  0.7818608E-02  0.1312745E+00
         21   -1    0    0  503  502  0.00000000000E+00  0.00000000000E+00  0.53788380562E+02  0.53788380562E+02  0.00000000000E+00 0.  1.
         21   -1    0    0  501  503 -0.00000000000E+00 -0.00000000000E+00 -0.30770340205E+03  0.30770340205E+03  0.00000000000E+00 0. -1.
        -13    1    1    2    0    0  0.14066371739E+01 -0.44631345336E+02  0.22756648718E+02  0.50117979204E+02  0.10566000000E+00 0.  1.
         13    1    1    2    0    0 -0.14044657210E+02  0.53076776570E+02 -0.26612320196E+03  0.27172774314E+03  0.10566000000E+00 0. -1.
          4    1    1    2  501    0 -0.47931870049E+01 -0.12339186618E+02 -0.16192454602E+02  0.20914725771E+02  0.00000000000E+00 0.  1.
         -4    1    1    2    0  502  0.17431207041E+02  0.38937553844E+01  0.56439863569E+01  0.18731334493E+02  0.00000000000E+00 0. -1.
</event>
<event>
 6    1  0.5496865E-006  0.1310081E+03  0.7818608E-02  0.1127861E+00
         21   -1    0    0  503  502  0.00000000000E+00  0.00000000000E+00  0.22659220641E+03  0.22659220641E+03  0.00000000000E+00 0. -1.
         21   -1    0    0  501  503 -0.00000000000E+00 -0.00000000000E+00 -0.48487518140E+03  0.48487518140E+03  0.00000000000E+00 0.  1.
        -13    1    1    2    0    0  0.18929032582E+02  0.14386335241E+03 -0.96747711795E+02  0.17439926417E+03  0.10566000000E+00 0.  1.
         13    1    1    2    0    0 -0.70417484626E+02 -0.21325485891E+02  0.14074144628E+03  0.15881298547E+03  0.10566000000E+00 0. -1.
          4    1    1    2  501    0 -0.40423868546E+02  0.26701239446E+01 -0.16838395922E+03  0.17318884615E+03  0.00000000000E+00 0.  1.
         -4    1    1    2    0  502  0.91912320590E+02 -0.12520799047E+03 -0.13389275026E+03  0.20506629202E+03  0.00000000000E+00 0. -1.
</event>
<event>
 6    1  0.5496865E-006  0.7585781E+02  0.7818608E-02  0.1212146E+00
         21   -1    0    0  501  502  0.00000000000E+00  0.00000000000E+00  0.65374035229E+02  0.65374035229E+02  0.00000000000E+00 0. -1.
         21   -1    0    0  502  503 -0.00000000000E+00 -0.00000000000E+00 -0.29555175689E+03  0.29555175689E+03  0.00000000000E+00 0.  1.
        -13    1    1    2    0    0 -0.54966581862E+02 -0.57400993876E+02 -0.11309435213E+03  0.13822641885E+03  0.10566000000E+00 0.  1.
         13    1    1    2    0    0  0.53715376976E+02  0.49701849885E+02 -0.13296277905E+02  0.74380224360E+02  0.10566000000E+00 0. -1.
          4    1    1    2  501    0  0.96316084155E+01 -0.73624207116E+01  0.19973117667E+02  0.23364471934E+02  0.00000000000E+00 0.  1.
         -4    1    1    2    0  503 -0.83804035289E+01  0.15061564702E+02 -0.12376020929E+03  0.12495467697E+03  0.00000000000E+00 0. -1.
</event>
<event>
 6    1  0.5496865E-006  0.1767240E+03  0.7818608E-02  0.1077381E+00
         21   -1    0    0  501  502  0.00000000000E+00  0.00000000000E+00  0.23722351915E+03  0.23722351915E+03  0.00000000000E+00 0. -1.
         21   -1    0    0  502  503 -0.00000000000E+00 -0.00000000000E+00 -0.51730271983E+03  0.51730271983E+03  0.00000000000E+00 0.  1.
        -13    1    1    2    0    0  0.47296977882E+02  0.11751222557E+03 -0.29765274903E+03  0.32348616268E+03  0.10566000000E+00 0.  1.
         13    1    1    2    0    0 -0.12771447647E+03 -0.13439800975E+03  0.15882678349E+03  0.24413064298E+03  0.10566000000E+00 0. -1.
          4    1    1    2  501    0 -0.74028391597E+01  0.73861484935E+01  0.82100037963E+01  0.13295163765E+02  0.00000000000E+00 0.  1.
         -4    1    1    2    0  503  0.87820337747E+02  0.94996356939E+01 -0.14946323893E+03  0.17361426955E+03  0.00000000000E+00 0. -1.
</event>
<event>
 6    1  0.5496865E-006  0.1188353E+03  0.7818608E-02  0.1136680E+00
         21   -1    0    0  503  502  0.00000000000E+00  0.00000000000E+00  0.78818591884E+02  0.78818591884E+02  0.00000000000E+00 0.  1.
         21   -1    0    0  501  503 -0.00000000000E+00 -0.00000000000E+00 -0.56211581557E+03  0.56211581557E+03  0.00000000000E+00 0.  1.
        -13    1    1    2    0    0  0.10711958624E+03  0.25793264565E+02  0.24904083124E+01  0.11020939865E+03  0.10566000000E+00 0.  1.
         13    1    1    2    0    0 -0.11099288809E+03  0.24994951253E+02 -0.25213577505E+03  0.27661639326E+03  0.10566000000E+00 0. -1.
          4    1    1    2  501    0 -0.14320632450E+02 -0.45313134516E+02 -0.22987655259E+03  0.23473727889E+03  0.00000000000E+00 0.  1.
         -4    1    1    2    0  502  0.18193934302E+02 -0.54750813017E+01 -0.37753043586E+01  0.19371336651E+02  0.00000000000E+00 0. -1.
</event>
<event>
 6    1  0.5496865E-006  0.2158486E+03  0.7818608E-02  0.1049782E+00
         21   -1    0    0  501  502  0.00000000000E+00  0.00000000000E+00  0.14570691269E+03  0.14570691269E+03  0.00000000000E+00 0.  1.
         21   -1    0    0  502  503 -0.00000000000E+00 -0.00000000000E+00 -0.91375754443E+03  0.91375754443E+03  0.00000000000E+00 0. -1.
        -13    1    1    2    0    0  0.73745651635E+02  0.20054551885E+03 -0.36813368033E+03  0.42565166982E+03  0.10566000000E+00 0.  1.
         13    1    1    2    0    0 -0.17068275882E+03 -0.11891326806E+03 -0.43311035314E+02  0.21248253204E+03  0.10566000000E+00 0. -1.
          4    1    1    2  501    0 -0.47502668274E+02 -0.10634088281E+02 -0.29888944020E+02  0.57122117445E+02  0.00000000000E+00 0.  1.
         -4    1    1    2    0  503  0.14443977546E+03 -0.70998162508E+02 -0.32671697207E+03  0.36420813782E+03  0.00000000000E+00 0. -1.
</event>
<event>
 6    1  0.5496865E-006  0.3660692E+02  0.7818608E-02  0.1395819E+00
         21   -1    0    0  501  502  0.00000000000E+00  0.00000000000E+00  0.25927348052E+02  0.25927348052E+02  0.00000000000E+00 0.  1.
         21   -1    0    0  502  503 -0.00000000000E+00 -0.00000000000E+00 -0.37284414039E+03  0.37284414039E+03  0.00000000000E+00 0.  1.
        -13    1    1    2    0    0 -0.26132054247E+02  0.44399238961E+02 -0.18295620146E+03  0.19007145892E+03  0.10566000000E+00 0.  1.
         13    1    1    2    0    0  0.11524076587E+02 -0.15131342709E+02  0.32326397878E+01  0.19293081594E+02  0.10566000000E+00 0. -1.
          4    1    1    2  501    0  0.16492546551E+02 -0.16323564905E+02 -0.17338769070E+03  0.17493357067E+03  0.00000000000E+00 0.  1.
         -4    1    1    2    0  503 -0.18845688913E+01 -0.12944331347E+02  0.61944600356E+01  0.14473377252E+02  0.00000000000E+00 0. -1.
</event>
<event>
 6    1  0.5496865E-006  0.1575777E+03  0.7818608E-02  0.1114938E+00
         21   -1    0    0  503  502  0.00000000000E+00  0.00000000000E+00  0.64099112888E+03  0.64099112888E+03  0.00000000000E+00 0.  1.
         21   -1    0    0  501  503 -0.00000000000E+00 -0.00000000000E+00 -0.12189591346E+03  0.12189591346E+03  0.00000000000E+00 0. -1.
        -13    1    1    2    0    0 -0.20313757899E+03 -0.11732534748E+03  0.41830125274E+03  0.47958947275E+03  0.10566000000E+00 0.  1.
         13    1    1    2    0    0  0.63038382381E+02  0.38264376818E+02  0.62818072330E+01  0.74009948335E+02  0.10566000000E+00 0. -1.
          4    1    1    2  501    0  0.97045046816E+01 -0.59211409460E+01 -0.15114347765E+02  0.18912451708E+02  0.00000000000E+00 0.  1.
         -4    1    1    2    0  502  0.13039469193E+03  0.84982111607E+02  0.10962650321E+03  0.19037516956E+03  0.00000000000E+00 0. -1.
</event>
<event>
 6    1  0.5496865E-006  0.4187682E+02  0.7818608E-02  0.1328927E+00
         21   -1    0    0  503  502  0.00000000000E+00  0.00000000000E+00  0.71094887384E+02  0.71094887384E+02  0.00000000000E+00 0.  1.
         21   -1    0    0  501  503 -0.00000000000E+00 -0.00000000000E+00 -0.20822762534E+03  0.20822762534E+03  0.00000000000E+00 0. -1.
        -13    1    1    2    0    0  0.26133387433E+02 -0.16573256879E+02  0.50311475651E+02  0.59066763316E+02  0.10566000000E+00 0.  1.
         13    1    1    2    0    0 -0.49930856647E+02  0.29010636036E+02 -0.16538565524E+03  0.17517743454E+03  0.10566000000E+00 0. -1.
          4    1    1    2  501    0  0.22138168331E+02  0.32656378744E+01 -0.18145867523E+02  0.28810334881E+02  0.00000000000E+00 0.  1.
         -4    1    1    2    0  502  0.16593008833E+01 -0.15703017031E+02 -0.39126908469E+01  0.16267979990E+02  0.00000000000E+00 0. -1.
</event>
<event>
 6    1  0.5496865E-006  0.1718121E+03  0.7818608E-02  0.1108387E+00
         21   -1    0    0  501  502  0.00000000000E+00  0.00000000000E+00  0.31636134084E+02  0.31636134084E+02  0.00000000000E+00 0. -1.
         21   -1    0    0  502  503 -0.00000000000E+00 -0.00000000000E+00 -0.20815667855E+04  0.20815667855E+04  0.00000000000E+00 0. -1.
        -13    1    1    2    0    0  0.59718435737E+02 -0.54744595259E+02 -0.24433673316E+03  0.25741738988E+03  0.10566000000E+00 0.  1.
         13    1    1    2    0    0 -0.20071082063E+03  0.11231477239E+03 -0.71084028161E+03  0.74712338924E+03  0.10566000000E+00 0. -1.
          4    1    1    2  501    0 -0.78799829882E+01 -0.15529955675E+02 -0.62472629452E+02  0.64854476220E+02  0.00000000000E+00 0.  1.
         -4    1    1    2    0  503  0.14887236788E+03 -0.42040221454E+02 -0.10322810072E+04  0.10438076642E+04  0.00000000000E+00 0. -1.
</event>
<event>
 6    1  0.5496865E-006  0.1045062E+03  0.7818608E-02  0.1157308E+00
         21   -1    0    0  503  502  0.00000000000E+00  0.00000000000E+00  0.28794110113E+03  0.28794110113E+03  0.00000000000E+00 0.  1.
         21   -1    0    0  501  503 -0.00000000000E+00 -0.00000000000E+00 -0.23213212546E+03  0.23213212546E+03  0.00000000000E+00 0. -1.
        -13    1    1    2    0    0 -0.56649574995E+02  0.13265914915E+03  0.18606064188E+03  0.23542769128E+03  0.10566000000E+00 0.  1.
         13    1    1    2    0    0  0.77658562494E+02 -0.90428404105E+02 -0.13875717417E+03  0.18292543056E+03  0.10566000000E+00 0. -1.
          4    1    1    2  501    0 -0.17191286994E+02  0.15298666498E+02 -0.25846063328E+02  0.34606481108E+02  0.00000000000E+00 0.  1.
         -4    1    1    2    0  502 -0.38177005041E+01 -0.57529411543E+02  0.34351571286E+02  0.67113623650E+02  0.00000000000E+00 0. -1.
</event>
<event>
 6    1  0.5496865E-006  0.6679717E+02  0.7818608E-02  0.1235390E+00
         21   -1    0    0  501  502  0.00000000000E+00  0.00000000000E+00  0.30553928141E+02  0.30553928141E+02  0.00000000000E+00 0. -1.
         21   -1    0    0  502  503 -0.00000000000E+00 -0.00000000000E+00 -0.43584107126E+03  0.43584107126E+03  0.00000000000E+00 0. -1.
        -13    1    1    2    0    0  0.20754165899E+02  0.50901283244E+02 -0.17633285150E+03  0.18470235981E+03  0.10566000000E+00 0.  1.
         13    1    1    2    0    0 -0.51163118929E+02 -0.45795302429E+02 -0.64132110025E+02  0.93956442905E+02  0.10566000000E+00 0. -1.
          4    1    1    2  501    0  0.29745724752E+01 -0.20682991324E+02 -0.10168675666E+01  0.20920521771E+02  0.00000000000E+00 0.  1.
         -4    1    1    2    0  503  0.27434380555E+02  0.15577010509E+02 -0.16380531402E+03  0.16681567491E+03  0.00000000000E+00 0. -1.
</event>
<event>
 6    1  0.5496865E-006  0.3764088E+02  0.7818608E-02  0.1371056E+00
         21   -1    0    0  503  502  0.00000000000E+00  0.00000000000E+00  0.61389903511E+03  0.61389903511E+03  0.00000000000E+00 0. -1.
         21   -1    0    0  501  503 -0.00000000000E+00 -0.00000000000E+00 -0.24065331056E+02  0.24065331056E+02  0.00000000000E+00 0.  1.
        -13    1    1    2    0    0  0.34818899351E+02 -0.23191162035E+02  0.17203306654E+02  0.45234397005E+02  0.10566000000E+00 0.  1.
         13    1    1    2    0    0  0.11401097422E+02  0.41816374447E+02  0.20296697656E+03  0.20754324593E+03  0.10566000000E+00 0. -1.
          4    1    1    2  501    0 -0.35089063160E+02  0.16964991771E+01  0.34549031235E+02  0.49272264229E+02  0.00000000000E+00 0.  1.
         -4    1    1    2    0  502 -0.11130933613E+02 -0.20321711589E+02  0.33511438961E+03  0.33591445901E+03  0.00000000000E+00 0. -1.
</event>
<event>
 6    1  0.5496865E-006  0.1025799E+03  0.7818608E-02  0.1160356E+00
         21   -1    0    0  501  502  0.00000000000E+00  0.00000000000E+00  0.36219429322E+03  0.36219429322E+03  0.00000000000E+00 0. -1.
         21   -1    0    0  502  503 -0.00000000000E+00 -0.00000000000E+00 -0.17201159526E+03  0.17201159526E+03  0.00000000000E+00 0.  1.
        -13    1    1    2    0    0  0.52091575446E+02  0.81459007157E+02 -0.13146081925E+03  0.16319025780E+03  0.10566000000E+00 0.  1.
         13    1    1    2    0    0  0.90784419727E+01 -0.11372378720E+03  0.20571233090E+03  0.23522987083E+03  0.10566000000E+00 0. -1.
          4    1    1    2  501    0 -0.36591092948E+02  0.18788655100E+02  0.54667283874E+02  0.68413694314E+02  0.00000000000E+00 0.  1.
         -4    1    1    2    0  503 -0.24578924471E+02  0.13476124939E+02  0.61263902441E+02  0.67372065530E+02  0.00000000000E+00 0. -1.
</event>
<event>
 6    1  0.5496865E-006  0.2278929E+03  0.7818608E-02  0.1042531E+00
         21   -1    0    0  501  502  0.00000000000E+00  0.00000000000E+00  0.38874242733E+03  0.38874242733E+03  0.00000000000E+00 0. -1.
         21   -1    0    0  502  503 -0.00000000000E+00 -0.00000000000E+00 -0.31808328221E+03  0.31808328221E+03  0.00000000000E+00 0.  1.
        -13    1    1    2    0    0  0.52890713576E+02 -0.20184439262E+03 -0.12443625550E+03  0.24294645348E+03  0.10566000000E+00 0.  1.
         13    1    1    2    0    0 -0.58498675307E+02  0.24043283112E+03  0.24591658368E+03  0.34886246371E+03  0.10566000000E+00 0. -1.
          4    1    1    2  501    0  0.13272251062E+02 -0.16001160861E+02  0.26740145901E+02  0.33870713012E+02  0.00000000000E+00 0.  1.
         -4    1    1    2    0  503 -0.76642893307E+01 -0.22587277639E+02 -0.77561328956E+02  0.81146079335E+02  0.00000000000E+00 0. -1.
</event>
<event>
 6    1  0.5496865E-006  0.1150796E+03  0.7818608E-02  0.1141765E+00
         21   -1    0    0  503  502  0.00000000000E+00  0.00000000000E+00  0.47085706162E+03  0.47085706162E+03  0.00000000000E+00 0.  1.
         21   -1    0    0  501  503 -0.00000000000E+00 -0.00000000000E+00 -0.80124571130E+02  0.80124571130E+02  0.00000000000E+00 0. -1.
        -13    1    1    2    0    0  0.95293185856E+02  0.12209127625E+02  0.35597642783E+03  0.36871273697E+03  0.10566000000E+00 0.  1.
         13    1    1    2    0    0 -0.11160815648E+03  0.65252102437E+01  0.27727366608E+02  0.11518583673E+03  0.10566000000E+00 0. -1.
          4    1    1    2  501    0 -0.11117162869E+02 -0.35537327728E+00 -0.21004849778E+02  0.23768073431E+02  0.00000000000E+00 0.  1.
         -4    1    1    2    0  502  0.27432133490E+02 -0.18378964591E+02  0.28033545831E+02  0.43314985618E+02  0.00000000000E+00 0. -1.
</event>
<event>
 6    1  0.5496865E-006  0.3835847E+02  0.7818608E-02  0.1348107E+00
         21   -1    0    0  501  502  0.00000000000E+00  0.00000000000E+00  0.43585593568E+02  0.43585593568E+02  0.00000000000E+00 0.  1.
         21   -1    0    0  502  503 -0.00000000000E+00 -0.00000000000E+00 -0.78686573267E+02  0.78686573267E+02  0.00000000000E+00 0. -1.
        -13    1    1    2    0    0 -0.42731100725E+02  0.84281862354E+00 -0.31869976678E+00  0.42740730527E+02  0.10566000000E+00 0.  1.
         13    1    1    2    0    0  0.31904819744E+02 -0.12280748898E+02 -0.15134290502E+02  0.37387059652E+02  0.10566000000E+00 0. -1.
          4    1    1    2  501    0  0.59159779686E+00  0.21973409416E+02 -0.79776405680E+01  0.23384256635E+02  0.00000000000E+00 0.  1.
         -4    1    1    2    0  503  0.10234683185E+02 -0.10535479141E+02 -0.11670348863E+02  0.18760120021E+02  0.00000000000E+00 0. -1.
</event>
<event>
 6    1  0.5496865E-006  0.1478685E+03  0.7818608E-02  0.1125068E+00
         21   -1    0    0  501  502  0.00000000000E+00  0.00000000000E+00  0.40753754814E+03  0.40753754814E+03  0.00000000000E+00 0.  1.
         21   -1    0    0  502  503 -0.00000000000E+00 -0.00000000000E+00 -0.21066803142E+03  0.21066803142E+03  0.00000000000E+00 0. -1.
        -13    1    1    2    0    0  0.62846084986E+01 -0.16170981840E+03  0.27929351142E+02  0.16422430237E+03  0.10566000000E+00 0.  1.
         13    1    1    2    0    0 -0.79585169148E+02  0.33757739507E+02 -0.44267613999E+01  0.86562067359E+02  0.10566000000E+00 0. -1.
          4    1    1    2  501    0  0.64709109974E+02  0.13316717801E+03  0.24977177826E+03  0.29035617340E+03  0.00000000000E+00 0.  1.
         -4    1    1    2    0  503  0.85914506756E+01 -0.52150991213E+01 -0.76404851290E+02  0.77063036433E+02  0.00000000000E+00 0. -1.
</event>
<event>
 6    1  0.5496865E-006  0.1823107E+02  0.7818608E-02  0.1548510E+00
         21   -1    0    0  503  502  0.00000000000E+00  0.00000000000E+00  0.50056767737E+02  0.50056767737E+02  0.00000000000E+00 0.  1.
         21   -1    0    0  501  503 -0.00000000000E+00 -0.00000000000E+00 -0.88544897440E+02  0.88544897440E+02  0.00000000000E+00 0. -1.
        -13    1    1    2    0    0 -0.11455124915E+02 -0.69962747566E+01  0.24336594806E+02  0.27792962384E+02  0.10566000000E+00 0.  1.
         13    1    1    2    0    0  0.16210966072E+02 -0.10934139945E+02 -0.68793187436E+02  0.71518281851E+02  0.10566000000E+00 0. -1.
          4    1    1    2  501    0 -0.13898910214E+02  0.23114072810E+02  0.88609770535E+01  0.28389381490E+02  0.00000000000E+00 0.  1.
         -4    1    1    2    0  502  0.91430690567E+01 -0.51836581086E+01 -0.28925141258E+01  0.10901039452E+02  0.00000000000E+00 0. -1.
</event>
<event>
 6    1  0.5496865E-006  0.7956814E+02  0.7818608E-02  0.1268425E+00
         21   -1    0    0  503  502  0.00000000000E+00  0.00000000000E+00  0.16955802004E+02  0.16955802004E+02  0.00000000000E+00 0.  1.
         21   -1    0    0  501  503 -0.00000000000E+00 -0.00000000000E+00 -0.67885883023E+03  0.67885883023E+03  0.00000000000E+00 0.  1.
        -13    1    1    2    0    0 -0.52855524595E+02  0.67048156828E+02 -0.15587692474E+03  0.17772672462E+03  0.10566000000E+00 0.  1.
         13    1    1    2    0    0 -0.56165865470E+01 -0.20533411935E+02 -0.10936994477E+03  0.11142245300E+03  0.10566000000E+00 0. -1.
          4    1    1    2  501    0  0.48193876195E+02 -0.51626061977E+02 -0.25666557411E+03  0.26620502796E+03  0.00000000000E+00 0.  1.
         -4    1    1    2    0  502  0.10278234947E+02  0.51113170844E+01 -0.13999058460E+03  0.14046042664E+03  0.00000000000E+00 0. -1.
</event>
<event>
 6    1  0.5496865E-006  0.1230939E+03  0.7818608E-02  0.1131157E+00
         21   -1    0    0  503  502  0.00000000000E+00  0.00000000000E+00  0.77903404023E+03  0.77903404023E+03  0.00000000000E+00 0.  1.
         21   -1    0    0  501  503 -0.00000000000E+00 -0.00000000000E+00 -0.11509231092E+03  0.11509231092E+03  0.00000000000E+00 0. -1.
        -13    1    1    2    0    0 -0.11373740584E+03 -0.20741444358E+02  0.44924939588E+03  0.46388730944E+03  0.10566000000E+00 0.  1.
         13    1    1    2    0    0  0.11841020223E+03  0.61417534524E+02  0.17072144016E+02  0.13447884148E+03  0.10566000000E+00 0. -1.
          4    1    1    2  501    0 -0.88533439984E+01 -0.46850817172E+01 -0.47211278926E+02  0.48262164772E+02  0.00000000000E+00 0.  1.
         -4    1    1    2    0  502  0.41805476045E+01 -0.35991008449E+02  0.24483146834E+03  0.24749803546E+03  0.00000000000E+00 0. -1.
</event>
<event>
 6    1  0.5496865E-006  0.1103813E+03  0.7818608E-02  0.1148435E+00
         21   -1    0    0  501  502  0.00000000000E+00  0.00000000000E+00  0.12288329992E+03  0.12288329992E+03  0.00000000000E+00 0.  1.
         21   -1    0    0  502  503 -0.00000000000E+00 -0.00000000000E+00 -0.15822946172E+03  0.15822946172E+03  0.00000000000E+00 0. -1.
        -13    1    1    2    0    0 -0.11552424482E+03 -0.10623660039E+02 -0.52727971028E+02  0.12743219133E+03  0.10566000000E+00 0.  1.
         13    1    1    2    0    0  0.11120868475E+03  0.25447343306E+02  0.31110000384E+02  0.11824881451E+03  0.10566000000E+00 0. -1.
          4    1    1    2  501    0 -0.11417775950E+02 -0.86672101351E+01 -0.11525973346E+02  0.18393863127E+02  0.00000000000E+00 0.  1.
         -4    1    1    2    0  503  0.15733336017E+02 -0.61564731319E+01 -0.22022178077E+01  0.17037892678E+02  0.00000000000E+00 0. -1.
</event>
<event>
 6    1  0.5496865E-006  0.2790424E+03  0.7818608E-02  0.1034202E+00
         21   -1    0    0  503  502  0.00000000000E+00  0.00000000000E+00  0.98101649529E+03  0.98101649529E+03  0.00000000000E+00 0.  1.
         21   -1    0    0  501  503 -0.00000000000E+00 -0.00000000000E+00 -0.17893927821E+03  0.17893927821E+03  0.00000000000E+00 0.  1.
        -13    1    1    2    0    0  0.99928673656E+01  0.32002984952E+03  0.38785651233E+03  0.50294298614E+03  0.10566000000E+00 0.  1.
         13    1    1    2    0    0  0.12496934172E+03 -0.10257295471E+03  0.26780319128E+01  0.16169641439E+03  0.10566000000E+00 0. -1.
          4    1    1    2  501    0 -0.11487379511E+03 -0.22538045323E+03  0.38966392749E+03  0.46457541248E+03  0.00000000000E+00 0.  1.
         -4    1    1    2    0  502 -0.20088413973E+02  0.79235584191E+01  0.21878745341E+02  0.30740960487E+02  0.00000000000E+00 0. -1.
</event>
<event>
 6    1  0.5496865E-006  0.1108352E+03  0.7818608E-02  0.1147775E+00
         21   -1    0    0  503  502  0.00000000000E+00  0.00000000000E+00  0.11639032690E+03  0.11639032690E+03  0.00000000000E+00 0.  1.
         21   -1    0    0  501  503 -0.00000000000E+00 -0.00000000000E+00 -0.38596467540E+03  0.38596467540E+03  0.00000000000E+00 0. -1.
        -13    1    1    2    0    0 -0.24090909898E+02  0.94711557563E+02  0.48647595709E+02  0.10916616146E+03  0.10566000000E+00 0.  1.
         13    1    1    2    0    0  0.50895179958E+02 -0.11520661847E+03 -0.31225390658E+03  0.33669778381E+03  0.10566000000E+00 0. -1.
          4    1    1    2  501    0 -0.26985154161E+01  0.14838241380E+02 -0.22233372049E+02  0.26865930570E+02  0.00000000000E+00 0.  1.
         -4    1    1    2    0  502 -0.24105754643E+02  0.56568195307E+01  0.16265334416E+02  0.29625126460E+02  0.00000000000E+00 0. -1.
</event>
<event>
 6    1  0.5496865E-006  0.9533848E+02  0.7818608E-02  0.1172507E+00
         21   -1    0    0  503  502  0.00000000000E+00  0.00000000000E+00  0.29724712669E+03  0.29724712669E+03  0.00000000000E+00 0. -1.
         21   -1    0    0  501  503 -0.00000000000E+00 -0.00000000000E+00 -0.33462130199E+03  0.33462130199E+03  0.00000000000E+00 0.  1.
        -13    1    1    2    0    0  0.23617968787E+02  0.77863950955E+02  0.14239298714E+02  0.82603705121E+02  0.10566000000E+00 0.  1.
         13    1    1    2    0    0 -0.11291175838E+03 -0.56140017078E+02 -0.33210679501E+02  0.13039834008E+03  0.10566000000E+00 0. -1.
          4    1    1    2  501    0  0.15968431541E+02 -0.29786716259E+02 -0.21044609506E+03  0.21314267099E+03  0.00000000000E+00 0.  1.
         -4    1    1    2    0  502  0.73325358050E+02  0.80627823818E+01  0.19204330055E+03  0.20572371249E+03  0.00000000000E+00 0. -1.
</event>
<event>
 6    1  0.5496865E-006  0.5039700E+02  0.7818608E-02  0.1290181E+00
         21   -1    0    0  501  502  0.00000000000E+00  0.00000000000E+00  0.46643093559E+03  0.46643093559E+03  0.00000000000E+00 0. -1.
         21   -1    0    0  502  503 -0.00000000000E+00 -0.00000000000E+00 -0.72597658108E+02  0.72597658108E+02  0.00000000000E+00 0. -1.
        -13    1    1    2    0    0  0.35740214719E+02  0.16014854106E+02  0.61073669722E+02  0.72552345224E+02  0.10566000000E+00 0.  1.
         13    1    1    2    0    0 -0.62903183936E+02 -0.15042107163E+01  0.17573284703E+03  0.18665775604E+03  0.10566000000E+00 0. -1.
          4    1    1    2  501    0 -0.18599409945E+00 -0.20747813765E+02  0.21469209359E+03  0.21569237683E+03  0.00000000000E+00 0.  1.
         -4    1    1    2    0  503  0.27348963316E+02  0.62371703751E+01 -0.57665332865E+02  0.64126115609E+02  0.00000000000E+00 0. -1.
</event>
<event>
 6    1  0.5496865E-006  0.6958786E+02  0.7818608E-02  0.1227813E+00
         21   -1    0    0  503  502  0.00000000000E+00  0.00000000000E+00  0.12827893758E+03  0.12827893758E+03  0.00000000000E+00 0. -1.
         21   -1    0    0  501  503 -0.00000000000E+00 -0.00000000000E+00 -0.31442933251E+03  0.31442933251E+03  0.00000000000E+00 0. -1.
        -13    1    1    2    0    0 -0.49851941801E+02 -0.31720162114E+02  0.56085039173E+02  0.81467340505E+02  0.10566000000E+00 0.  1.
         13    1    1    2    0    0  0.85671224491E+02  0.17067029111E+02 -0.19529246646E+03  0.21393924560E+03  0.10566000000E+00 0. -1.
          4    1    1    2  501    0 -0.27590684124E+02  0.22751054419E+02 -0.93095139594E+02  0.99727435260E+02  0.00000000000E+00 0.  1.
         -4    1    1    2    0  502 -0.82285985661E+01 -0.80979214160E+01  0.46152171950E+02  0.47574248721E+02  0.00000000000E+00 0. -1.
</event>
<event>
 6    1  0.5496865E-006  0.5047843E+02  0.7818608E-02  0.1309100E+00
         21   -1    0    0  503  502  0.00000000000E+00  0.00000000000E+00  0.26562336829E+03  0.26562336829E+03  0.00000000000E+00 0. -1.
         21   -1    0    0  501  503 -0.00000000000E+00 -0.00000000000E+00 -0.10672295278E+03  0.10672295278E+03  0.00000000000E+00 0. -1.
        -13    1    1    2    0    0 -0.26053704369E+02  0.76937998058E+01 -0.28148436149E+02  0.39119505218E+02  0.10566000000E+00 0.  1.
         13    1    1    2    0    0  0.79859117518E+02  0.41893982036E+02  0.13439570586E+02  0.91176847956E+02  0.10566000000E+00 0. -1.
          4    1    1    2  501    0 -0.89696776452E+01 -0.33560289015E+02 -0.21740979285E+02  0.40980706389E+02  0.00000000000E+00 0.  1.
         -4    1    1    2    0  502 -0.44835735503E+02 -0.16027492827E+02  0.19535026035E+03  0.20106926151E+03  0.00000000000E+00 0. -1.
</event>
<event>
 6    1  0.5496865E-006  0.1314339E+03  0.7818608E-02  0.1121016E+00
         21   -1    0    0  503  502  0.00000000000E+00  0.00000000000E+00  0.57147332113E+03  0.57147332113E+03  0.00000000000E+00 0.  1.
         21   -1    0    0  501  503 -0.00000000000E+00 -0.00000000000E+00 -0.44194489995E+03  0.44194489995E+03  0.00000000000E+00 0. -1.
        -13    1    1    2    0    0  0.17877165655E+03 -0.78077259712E+02  0.15492612357E+03  0.24911338503E+03  0.10566000000E+00 0.  1.
         13    1    1    2    0    0 -0.14439081087E+03  0.78201659994E+02 -0.33710039136E+03  0.37496785317E+03  0.10566000000E+00 0. -1.
          4    1    1    2  501    0  0.65277172041E+02  0.26319051293E+01  0.35146598764E+01  0.65424681492E+02  0.00000000000E+00 0.  1.
         -4    1    1    2    0  502 -0.99658017721E+02 -0.27563054113E+01  0.30818802909E+03  0.32391230139E+03  0.00000000000E+00 0. -1.
</event>
<event>
 6    1  0.5496865E-006  0.3579301E+03  0.7818608E-02  0.9859095E-01
         21   -1    0    0  501  502  0.00000000000E+00  0.00000000000E+00  0.19747001135E+04  0.19747001135E+04  0.00000000000E+00 0. -1.
         21   -1    0    0  502  503 -0.00000000000E+00 -0.00000000000E+00 -0.93361050236E+02  0.93361050236E+02  0.00000000000E+00 0.  1.
        -13    1    1    2    0    0 -0.29447488538E+03 -0.17903197126E+03  0.78179941861E+03  0.85438764443E+03  0.10566000000E+00 0.  1.
         13    1    1    2    0    0  0.31234952819E+03  0.20515942550E+03  0.56280831302E+03  0.67557814204E+03  0.10566000000E+00 0. -1.
          4    1    1    2  501    0 -0.10537704478E+02 -0.14259172749E+02  0.44061154336E+03  0.44096813872E+03  0.00000000000E+00 0.  1.
         -4    1    1    2    0  503 -0.73369383339E+01 -0.11868281495E+02  0.96119788306E+02  0.97127238578E+02  0.00000000000E+00 0. -1.
</event>
<event>
 6    1  0.5496865E-006  0.6035100E+02  0.7818608E-02  0.1254580E+00
         21   -1    0    0  501  502  0.00000000000E+00  0.00000000000E+00  0.68850760306E+03  0.68850760306E+03  0.00000000000E+00 0.  1.
         21   -1    0    0  502  503 -0.00000000000E+00 -0.00000000000E+00 -0.91816261167E+03  0.91816261167E+03  0.00000000000E+00 0. -1.
        -13    1    1    2    0    0 -0.19017197273E+02  0.50650156623E+02 -0.17304298321E+03  0.18130355032E+03  0.10566000000E+00 0.  1.
         13    1    1    2    0    0 -0.12664346295E+02 -0.49637500369E+02  0.27555953701E+03  0.28028081759E+03  0.10566000000E+00 0. -1.
          4    1    1    2  501    0  0.17351969954E+02 -0.10906235950E+02  0.40609605930E+03  0.40661289481E+03  0.00000000000E+00 0.  1.
         -4    1    1    2    0  503  0.14329573614E+02  0.98935796965E+01 -0.73826762170E+03  0.73847295201E+03  0.00000000000E+00 0. -1.
</event>
<event>
 6    1  0.5496865E-006  0.5616369E+02  0.7818608E-02  0.1268544E+00
         21   -1    0    0  503  502  0.00000000000E+00  0.00000000000E+00  0.33818013528E+03  0.33818013528E+03  0.00000000000E+00 0. -1.
         21   -1    0    0  501  503 -0.00000000000E+00 -0.00000000000E+00 -0.12835633059E+03  0.12835633059E+03  0.00000000000E+00 0. -1.
        -13    1    1    2    0    0 -0.38328511998E+02 -0.51069003278E+02  0.10848479157E+03  0.12588121025E+03  0.10566000000E+00 0.  1.
         13    1    1    2    0    0  0.12462113326E+02  0.37226206217E+02 -0.83178986657E+02  0.91977441164E+02  0.10566000000E+00 0. -1.
          4    1    1    2  501    0  0.33820617182E+00  0.19206644716E+02 -0.28334772885E+02  0.34232571319E+02  0.00000000000E+00 0.  1.
         -4    1    1    2    0  502  0.25528192500E+02 -0.53638476546E+01  0.21285277266E+03  0.21444524314E+03  0.00000000000E+00 0. -1.
</event>
<event>
 6    1  0.5496865E-006  0.3639581E+02  0.7818608E-02  0.1382349E+00
         21   -1    0    0  503  502  0.00000000000E+00  0.00000000000E+00  0.31087423413E+02  0.31087423413E+02  0.00000000000E+00 0.  1.
         21   -1    0    0  501  503 -0.00000000000E+00 -0.00000000000E+00 -0.27245781272E+03  0.27245781272E+03  0.00000000000E+00 0.  1.
        -13    1    1    2    0    0 -0.41645144495E+02  0.46035295694E+02 -0.22635290983E+02  0.66075215259E+02  0.10566000000E+00 0.  1.
         13    1    1    2    0    0  0.23382525828E+02 -0.51517836413E+01 -0.12646885943E+03  0.12871544957E+03  0.10566000000E+00 0. -1.
          4    1    1    2  501    0  0.45954782722E+01 -0.33539274075E+02 -0.85251915687E+02  0.91727261238E+02  0.00000000000E+00 0.  1.
         -4    1    1    2    0  502  0.13667140395E+02 -0.73442379775E+01 -0.70143232107E+01  0.17027310068E+02  0.00000000000E+00 0. -1.
</event>
<event>
 6    1  0.5496865E-006  0.2031042E+03  0.7818608E-02  0.1058028E+00
         21   -1    0    0  503  502  0.00000000000E+00  0.00000000000E+00  0.15759384606E+04  0.15759384606E+04  0.00000000000E+00 0.  1.
         21   -1    0    0  501  503 -0.00000000000E+00 -0.00000000000E+00 -0.97339671867E+02  0.97339671867E+02  0.00000000000E+00 0.  1.
        -13    1    1    2    0    0  0.25690476589E+02 -0.19967700609E+03  0.66976022310E+03  0.69936376441E+03  0.10566000000E+00 0.  1.
         13    1    1    2    0    0  0.33706805576E+02  0.19968384849E+03  0.39809617365E+03  0.44664344026E+03  0.10566000000E+00 0. -1.
          4    1    1    2  501    0 -0.11142999635E+02  0.17022700170E+02 -0.55043179089E+02  0.58682964531E+02  0.00000000000E+00 0.  1.
         -4    1    1    2    0  502 -0.48254282530E+02 -0.17029542568E+02  0.46578557103E+03  0.46858796323E+03  0.00000000000E+00 0. -1.
</event>
<event>
 6    1  0.5496865E-006  0.3738880E+03  0.7818608E-02  0.9807643E-01
         21   -1    0    0  501  502  0.00000000000E+00  0.00000000000E+00  0.29883295280E+04  0.29883295280E+04  0.00000000000E+00 0. -1.
         21   -1    0    0  502  503 -0.00000000000E+00 -0.00000000000E+00 -0.56994330563E+02  0.56994330563E+02  0.00000000000E+00 0.  1.
        -13    1    1    2    0    0 -0.72818335853E+02 -0.36102666145E+03  0.14024686177E+04  0.14500210327E+04  0.10566000000E+00 0.  1.
         13    1    1    2    0    0  0.72038523089E+02  0.37376954045E+03  0.13722700551E+04  0.14240850864E+04  0.10566000000E+00 0. -1.
          4    1    1    2  501    0  0.95298176700E+01  0.45337022411E+01  0.15056471809E+03  0.15093411216E+03  0.00000000000E+00 0.  1.
         -4    1    1    2    0  503 -0.87500049057E+01 -0.17276581239E+02  0.60318065131E+01  0.20283627264E+02  0.00000000000E+00 0. -1.
</event>
<event>
 6    1  0.5496865E-006  0.4474611E+02  0.7818608E-02  0.1314796E+00
         21   -1    0    0  501  502  0.00000000000E+00  0.00000000000E+00  0.16850159254E+03  0.16850159254E+03  0.00000000000E+00 0.  1.
         21   -1    0    0  502  503 -0.00000000000E+00 -0.00000000000E+00 -0.65311144406E+02  0.65311144406E+02  0.00000000000E+00 0. -1.
        -13    1    1    2    0    0  0.23929456766E+02 -0.37881692871E+02  0.76432010620E+02  0.88597432059E+02  0.10566000000E+00 0.  1.
         13    1    1    2    0    0  0.30003222659E+01  0.49814283317E+02  0.49242214396E+02  0.70108997987E+02  0.10566000000E+00 0. -1.
          4    1    1    2  501    0 -0.16194795410E+02 -0.46839880907E+01  0.22601934072E+02  0.28196782912E+02  0.00000000000E+00 0.  1.
         -4    1    1    2    0  503 -0.10734983622E+02 -0.72486023548E+01 -0.45085710949E+02  0.46909523993E+02  0.00000000000E+00 0. -1.
</event>
<event>
 6    1  0.5496865E-006  0.1244600E+03  0.7818608E-02  0.1129437E+00
         21   -1    0    0  501  502  0.00000000000E+00  0.00000000000E+00  0.15948607773E+03  0.15948607773E+03  0.00000000000E+00 0. -1.
         21   -1    0    0  502  503 -0.00000000000E+00 -0.00000000000E+00 -0.19551599411E+03  0.19551599411E+03  0.00000000000E+00 0.  1.
        -13    1    1    2    0    0 -0.83421518724E+02 -0.11122845710E+03 -0.70888416479E+02  0.15606440405E+03  0.10566000000E+00 0.  1.
         13    1    1    2    0    0  0.94505299153E+02  0.66327890504E+02  0.10094454400E+02  0.11589887748E+03  0.10566000000E+00 0. -1.
          4    1    1    2  501    0  0.99950589281E+01  0.45542455223E+01  0.34742293431E+02  0.36437196765E+02  0.00000000000E+00 0.  1.
         -4    1    1    2    0  503 -0.21078839357E+02  0.40346321076E+02 -0.99782477325E+01  0.46601593544E+02  0.00000000000E+00 0. -1.
</event>
<event>
 6    1  0.5496865E-006  0.6948870E+02  0.7818608E-02  0.1228075E+00
         21   -1    0    0  501  502  0.00000000000E+00  0.00000000000E+00  0.20707793807E+03  0.20707793807E+03  0.00000000000E+00 0. -1.
         21   -1    0    0  502  503 -0.00000000000E+00 -0.00000000000E+00 -0.89116438584E+02  0.89116438584E+02  0.00000000000E+00 0.  1.
        -13    1    1    2    0    0 -0.61419282168E+02  0.53443909509E+02 -0.48450208914E+02  0.94741825999E+02  0.10566000000E+00 0.  1.
         13    1    1    2    0    0  0.61354412898E+02 -0.17207907743E+02  0.13471812080E+03  0.14902838424E+03  0.10566000000E+00 0. -1.
          4    1    1    2  501    0  0.31622185985E+01 -0.10210333058E+02  0.22037075402E+02  0.24492513548E+02  0.00000000000E+00 0.  1.
         -4    1    1    2    0  503 -0.30973493284E+01 -0.26025668708E+02  0.96565121978E+01  0.27931652876E+02  0.00000000000E+00 0. -1.
</event>
<event>
 6    1  0.5496865E-006  0.3015089E+03  0.7818608E-02  0.1006685E+00
         21   -1    0    0  503  502  0.00000000000E+00  0.00000000000E+00  0.28369652017E+03  0.28369652017E+03  0.00000000000E+00 0. -1.
         21   -1    0    0  501  503 -0.00000000000E+00 -0.00000000000E+00 -0.77435241767E+03  0.77435241767E+03  0.00000000000E+00 0. -1.
        -13    1    1    2    0    0 -0.19369622773E+03  0.10022683783E+03 -0.91732704684E+02  0.23659786121E+03  0.10566000000E+00 0.  1.
         13    1    1    2    0    0  0.35325279161E+03 -0.17107426837E+03 -0.40447921918E+03  0.56361102720E+03  0.10566000000E+00 0. -1.
          4    1    1    2  501    0 -0.18158114017E+02 -0.24791907924E+01 -0.76500679685E+02  0.78665224108E+02  0.00000000000E+00 0.  1.
         -4    1    1    2    0  502 -0.14139844986E+03  0.73326621332E+02  0.82056706042E+02  0.17917482531E+03  0.00000000000E+00 0. -1.
</event>
<event>
 6    1  0.5496865E-006  0.1316413E+03  0.7818608E-02  0.1132283E+00
         21   -1    0    0  501  502  0.00000000000E+00  0.00000000000E+00  0.97103807989E+02  0.97103807989E+02  0.00000000000E+00 0. -1.
         21   -1    0    0  502  503 -0.00000000000E+00 -0.00000000000E+00 -0.12828915598E+04  0.12828915598E+04  0.00000000000E+00 0.  1.
        -13    1    1    2    0    0 -0.42964890426E+02 -0.12748211622E+03 -0.81268434532E+03  0.82374360578E+03  0.10566000000E+00 0.  1.
         13    1    1    2    0    0  0.95800519338E+02  0.28357245667E+02  0.31428867545E+02  0.10473613401E+03  0.10566000000E+00 0. -1.
          4    1    1    2  501    0  0.45747333775E+01  0.13199939936E+03 -0.23568927716E+03  0.27017439736E+03  0.00000000000E+00 0.  1.
         -4    1    1    2    0  503 -0.57410362289E+02 -0.32874528809E+02 -0.16884299691E+03  0.18134123069E+03  0.00000000000E+00 0. -1.
</event>
<event>
 6    1  0.5496865E-006  0.1487029E+03  0.7818608E-02  0.1102398E+00
         21   -1    0    0  503  502  0.00000000000E+00  0.00000000000E+00  0.15770891394E+03  0.15770891394E+03  0.00000000000E+00 0.  1.
         21   -1    0    0  501  503 -0.00000000000E+00 -0.00000000000E+00 -0.68171591778E+03  0.68171591778E+03  0.00000000000E+00 0. -1.
        -13    1    1    2    0    0  0.43609039008E+02 -0.12342620070E+03  0.55937242895E+02  0.14235435227E+03  0.10566000000E+00 0.  1.
         13    1    1    2    0    0  0.38782999885E+02  0.21477995494E+03 -0.38258829146E+03  0.44046380334E+03  0.10566000000E+00 0. -1.
          4    1    1    2  501    0 -0.78422453231E+02 -0.73117575709E+02 -0.20879553346E+03  0.23471650100E+03  0.00000000000E+00 0.  1.
         -4    1    1    2    0  502 -0.39695856621E+01 -0.18236178522E+02  0.11439578191E+02  0.21890175116E+02  0.00000000000E+00 0. -1.
</event>
<event>
 6    1  0.5496865E-006  0.9336187E+02  0.7818608E-02  0.1176032E+00
         21   -1    0    0  501  502  0.00000000000E+00  0.00000000000E+00  0.24931900707E+03  0.24931900707E+03  0.00000000000E+00 0.  1.
         21   -1    0    0  502  503 -0.00000000000E+00 -0.00000000000E+00 -0.15236152383E+03  0.15236152383E+03  0.00000000000E+00 0.  1.
        -13    1    1    2    0    0 -0.71900550888E+02  0.48027642931E+02  0.29434763687E+02  0.91338711294E+02  0.10566000000E+00 0.  1.
         13    1    1    2    0    0  0.50677400363E+02 -0.94007649845E+02  0.52784430226E+02  0.11912952772E+03  0.10566000000E+00 0. -1.
          4    1    1    2  501    0 -0.23308971884E+01  0.10089582109E+02  0.97463227602E+02  0.98011802776E+02  0.00000000000E+00 0.  1.
         -4    1    1    2    0  503  0.23554047714E+02  0.35890424805E+02 -0.82724938279E+02  0.93200489106E+02  0.00000000000E+00 0. -1.
</event>
<event>
 6    1  0.5496865E-006  0.1242009E+03  0.7818608E-02  0.1129762E+00
         21   -1    0    0  501  502  0.00000000000E+00  0.00000000000E+00  0.17831076574E+03  0.17831076574E+03  0.00000000000E+00 0. -1.
         21   -1    0    0  502  503 -0.00000000000E+00 -0.00000000000E+00 -0.41362995903E+03  0.41362995903E+03  0.00000000000E+00 0.  1.
        -13    1    1    2    0    0  0.58630359736E+02 -0.71051861441E+02 -0.31046623756E+03  0.32384437918E+03  0.10566000000E+00 0.  1.
         13    1    1    2    0    0 -0.75821937008E+02  0.11926587996E+03 -0.11580429092E+02  0.14180068320E+03  0.10566000000E+00 0. -1.
          4    1    1    2  501    0  0.16634163394E+02 -0.76378363138E+01  0.83616650806E+02  0.85596590045E+02  0.00000000000E+00 0.  1.
         -4    1    1    2    0  503  0.55741387899E+00 -0.40576182206E+02  0.31108225579E+01  0.40699072343E+02  0.00000000000E+00 0. -1.
</event>
<event>
 6    1  0.5496865E-006  0.1702162E+03  0.7818608E-02  0.1082722E+00
         21   -1    0    0  501  502  0.00000000000E+00  0.00000000000E+00  0.52760038247E+03  0.52760038247E+03  0.00000000000E+00 0.  1.
         21   -1    0    0  502  503 -0.00000000000E+00 -0.00000000000E+00 -0.98751177660E+02  0.98751177660E+02  0.00000000000E+00 0.  1.
        -13    1    1    2    0    0  0.13282756713E+03 -0.14146564746E+03  0.15545213536E+03  0.24863843137E+03  0.10566000000E+00 0.  1.
         13    1    1    2    0    0 -0.71801377263E+02  0.12964799085E+03  0.23488949497E+03  0.27773571128E+03  0.10566000000E+00 0. -1.
          4    1    1    2  501    0 -0.45979280492E+02  0.24595071229E+01  0.57723488147E+02  0.73838638217E+02  0.00000000000E+00 0.  1.
         -4    1    1    2    0  503 -0.15046909378E+02  0.93581494849E+01 -0.19215913664E+02  0.26138779267E+02  0.00000000000E+00 0. -1.
</event>
<event>
 6    1  0.5496865E-006  0.8443272E+02  0.7818608E-02  0.1213520E+00
         21   -1    0    0  503  502  0.00000000000E+00  0.00000000000E+00  0.82636152809E+03  0.82636152809E+03  0.00000000000E+00 0. -1.
         21   -1    0    0  501  503 -0.00000000000E+00 -0.00000000000E+00 -0.81447048935E+02  0.81447048935E+02  0.00000000000E+00 0. -1.
        -13    1    1    2    0    0  0.24765192004E+02  0.43831928788E+02  0.16353688635E+03  0.17111071585E+03  0.10566000000E+00 0.  1.
         13    1    1    2    0    0 -0.10175347963E+03 -0.10843435878E+03  0.17101254386E+03  0.22662100984E+03  0.10566000000E+00 0. -1.
          4    1    1    2  501    0  0.95830414571E+01  0.26405660638E+02 -0.42328446489E+02  0.50801485997E+02  0.00000000000E+00 0.  1.
         -4    1    1    2    0  502  0.67405246168E+02  0.38196769353E+02  0.45269349544E+03  0.45927536534E+03  0.00000000000E+00 0. -1.
</event>
<event>
 6    1  0.5496865E-006  0.9404636E+02  0.7818608E-02  0.1174800E+00
         21   -1    0    0  501  502  0.00000000000E+00  0.00000000000E+00  0.30180512323E+02  0.30180512323E+02  0.00000000000E+00 0. -1.
         21   -1    0    0  502  503 -0.00000000000E+00 -0.00000000000E+00 -0.13997618586E+04  0.13997618586E+04  0.00000000000E+00 0.  1.
        -13    1    1    2    0    0 -0.65703579251E+02  0.57637240741E+02 -0.40289483877E+03  0.41226602348E+03  0.10566000000E+00 0.  1.
         13    1    1    2    0    0  0.12065165631E+03 -0.49418582152E+02 -0.16635051283E+03  0.21135638792E+03  0.10566000000E+00 0. -1.
          4    1    1    2  501    0 -0.68970035486E+02 -0.25457114551E+02 -0.53040325690E+03  0.53547413141E+03  0.00000000000E+00 0.  1.
         -4    1    1    2    0  503  0.14021958430E+02  0.17238455962E+02 -0.26993273777E+03  0.27084582811E+03  0.00000000000E+00 0. -1.
</event>
<event>
 6    1  0.5496865E-006  0.7297620E+02  0.7818608E-02  0.1219128E+00
         21   -1    0    0  501  502  0.00000000000E+00  0.00000000000E+00  0.34751445884E+02  0.34751445884E+02  0.00000000000E+00 0.  1.
         21   -1    0    0  502  503 -0.00000000000E+00 -0.00000000000E+00 -0.42911383322E+03  0.42911383322E+03  0.00000000000E+00 0. -1.
        -13    1    1    2    0    0  0.80577894923E+02 -0.64506923606E+02 -0.96745659858E+02  0.14146969361E+03  0.10566000000E+00 0.  1.
         13    1    1    2    0    0 -0.43228637761E+02  0.29498233951E+02 -0.69099064180E+02  0.86680751978E+02  0.10566000000E+00 0. -1.
          4    1    1    2  501    0 -0.22784815006E+02  0.35930373744E+01 -0.98532618157E+02  0.10119651453E+03  0.00000000000E+00 0.  1.
         -4    1    1    2    0  503 -0.14564442157E+02  0.31415652281E+02 -0.12998504514E+03  0.13451831899E+03  0.00000000000E+00 0. -1.
</event>
<event>
 6    1  0.5496865E-006  0.1513442E+03  0.7818608E-02  0.1099793E+00
         21   -1    0    0  501  502  0.00000000000E+00  0.00000000000E+00  0.42574872614E+03  0.42574872614E+03  0.00000000000E+00 0. -1.
         21   -1    0    0  502  503 -0.00000000000E+00 -0.00000000000E+00 -0.31749609129E+03  0.31749609129E+03  0.00000000000E+00 0.  1.
        -13    1    1    2    0    0  0.12256699705E+03  0.24772369378E+02 -0.18050561934E+03  0.21958740589E+03  0.10566000000E+00 0.  1.
         13    1    1    2    0    0 -0.10695507657E+03 -0.99187846445E+02  0.33607887589E+03  0.36636953922E+03  0.10566000000E+00 0. -1.
          4    1    1    2  501    0 -0.23866876773E+02  0.10042856728E+03 -0.67508970755E+02  0.12334093426E+03  0.00000000000E+00 0.  1.
         -4    1    1    2    0  503  0.82549563012E+01 -0.26013090209E+02  0.20188349049E+02  0.33946938052E+02  0.00000000000E+00 0. -1.
</event>
<event>
 6    1  0.5496865E-006  0.2189173E+03  0.7818608E-02  0.1047888E+00
         21   -1    0    0  503  502  0.00000000000E+00  0.00000000000E+00  0.41603107035E+03  0.41603107035E+03  0.00000000000E+00 0. -1.
         21   -1    0    0  501  503 -0.00000000000E+00 -0.00000000000E+00 -0.33836296637E+03  0.33836296637E+03  0.00000000000E+00 0. -1.
        -13    1    1    2    0    0 -0.23373318686E+01 -0.20813305104E+03  0.10390585507E+03  0.23263978150E+03  0.10566000000E+00 0.  1.
         13    1    1    2    0    0 -0.20270817927E+03  0.16024416067E+03 -0.60795868852E+02  0.26545234187E+03  0.10566000000E+00 0. -1.
          4    1    1    2  501    0  0.13312505097E+02  0.18395149894E+02 -0.42006403365E+02  0.47750835126E+02  0.00000000000E+00 0.  1.
         -4    1    1    2    0  502  0.19173300604E+03  0.29493740472E+02  0.76564521128E+02  0.20855107822E+03  0.00000000000E+00 0. -1.
</event>
<event>
 6    1  0.5496865E-006  0.3874908E+02  0.7818608E-02  0.1345864E+00
         21   -1    0    0  503  502  0.00000000000E+00  0.00000000000E+00  0.36925913025E+03  0.36925913025E+03  0.00000000000E+00 0.  1.
         21   -1    0    0  501  503 -0.00000000000E+00 -0.00000000000E+00 -0.19652070682E+02  0.19652070682E+02  0.00000000000E+00 0. -1.
        -13    1    1    2    0    0  0.19877689200E+02 -0.44846858051E+02  0.28528755744E+03  0.28947429040E+03  0.10566000000E+00 0.  1.
         13    1    1    2    0    0 -0.79023660223E+00  0.42652514510E+02  0.28725618739E+02  0.51429892124E+02  0.10566000000E+00 0. -1.
          4    1    1    2  501    0 -0.13270842595E+02 -0.94591984411E+01  0.95527681678E+01  0.18890396449E+02  0.00000000000E+00 0.  1.
         -4    1    1    2    0  502 -0.58166100028E+01  0.11653541983E+02  0.26041115221E+02  0.29116621965E+02  0.00000000000E+00 0. -1.
</event>
<event>
 6    1  0.5496865E-006  0.6773529E+02  0.7818608E-02  0.1232798E+00
         21   -1    0    0  503  502  0.00000000000E+00  0.00000000000E+00  0.13489175743E+03  0.13489175743E+03  0.00000000000E+00 0.  1.
         21   -1    0    0  501  503 -0.00000000000E+00 -0.00000000000E+00 -0.10081436036E+03  0.10081436036E+03  0.00000000000E+00 0. -1.
        -13    1    1    2    0    0 -0.75343791574E+02 -0.82787616078E+01  0.19680911153E+02  0.78310754373E+02  0.10566000000E+00 0.  1.
         13    1    1    2    0    0  0.70785527941E+02 -0.26175872129E+00 -0.14931231372E+02  0.72343709594E+02  0.10566000000E+00 0. -1.
          4    1    1    2  501    0 -0.15054763288E+02  0.14036789918E+01 -0.23672956160E+02  0.28089589989E+02  0.00000000000E+00 0.  1.
         -4    1    1    2    0  502  0.19613026921E+02  0.71368413372E+01  0.53000673455E+02  0.56962063832E+02  0.00000000000E+00 0. -1.
</event>
<event>
 6    1  0.5496865E-006  0.1134195E+03  0.7818608E-02  0.1168598E+00
         21   -1    0    0  501  502  0.00000000000E+00  0.00000000000E+00  0.73731006471E+03  0.73731006471E+03  0.00000000000E+00 0.  1.
         21   -1    0    0  502  503 -0.00000000000E+00 -0.00000000000E+00 -0.12575744896E+03  0.12575744896E+03  0.00000000000E+00 0.  1.
        -13    1    1    2    0    0 -0.21995631078E+02  0.11160056387E+03 -0.72693212274E+02  0.13499188093E+03  0.10566000000E+00 0.  1.
         13    1    1    2    0    0  0.73475562475E+02 -0.24297691809E+01  0.13734771547E+03  0.15578500624E+03  0.10566000000E+00 0. -1.
          4    1    1    2  501    0 -0.23106127269E+01 -0.11097589451E+03  0.45158733485E+03  0.46502914865E+03  0.00000000000E+00 0.  1.
         -4    1    1    2    0  503 -0.49169318670E+02  0.18050998240E+01  0.95310777707E+02  0.10726147785E+03  0.00000000000E+00 0. -1.
</event>
<event>
 6    1  0.5496865E-006  0.2114339E+03  0.7818608E-02  0.1052568E+00
         21   -1    0    0  503  502  0.00000000000E+00  0.00000000000E+00  0.32259075035E+03  0.32259075035E+03  0.00000000000E+00 0.  1.
         21   -1    0    0  501  503 -0.00000000000E+00 -0.00000000000E+00 -0.27135251091E+03  0.27135251091E+03  0.00000000000E+00 0.  1.
        -13    1    1    2    0    0  0.19682944156E+03 -0.10233363122E+03  0.95581858913E+02  0.24155724800E+03  0.10566000000E+00 0.  1.
         13    1    1    2    0    0 -0.16540977696E+03  0.94078192107E+02 -0.41830386614E+02  0.19483555362E+03  0.10566000000E+00 0. -1.
          4    1    1    2  501    0 -0.33698628845E+02  0.20569584807E+02 -0.74589826648E+02  0.84394002421E+02  0.00000000000E+00 0.  1.
         -4    1    1    2    0  502  0.22789642473E+01 -0.12314145693E+02  0.72076593782E+02  0.73156457223E+02  0.00000000000E+00 0. -1.
</event>
<event>
 6    1  0.5496865E-006  0.4177860E+02  0.7818608E-02  0.1329433E+00
         21   -1    0    0  503  502  0.00000000000E+00  0.00000000000E+00  0.66327640934E+02  0.66327640934E+02  0.00000000000E+00 0. -1.
         21   -1    0    0  501  503 -0.00000000000E+00 -0.00000000000E+00 -0.91564713303E+02  0.91564713303E+02  0.00000000000E+00 0. -1.
        -13    1    1    2    0    0  0.48669030526E+02 -0.31201846666E+02  0.31166316931E+01  0.57896064848E+02  0.10566000000E+00 0.  1.
         13    1    1    2    0    0 -0.20028916707E+02  0.21734782923E+02 -0.21603812376E+02  0.36610028221E+02  0.10566000000E+00 0. -1.
          4    1    1    2  501    0 -0.15366488448E+02  0.57464403935E+01 -0.31238359023E+02  0.35284353741E+02  0.00000000000E+00 0.  1.
         -4    1    1    2    0  502 -0.13273625371E+02  0.37206233497E+01  0.24488467336E+02  0.28101907428E+02  0.00000000000E+00 0. -1.
</event>
<event>
 6    1  0.5496865E-006  0.1014795E+03  0.7818608E-02  0.1162131E+00
         21   -1    0    0  501  502  0.00000000000E+00  0.00000000000E+00  0.19161240815E+03  0.19161240815E+03  0.00000000000E+00 0.  1.
         21   -1    0    0  502  503 -0.00000000000E+00 -0.00000000000E+00 -0.15624952038E+03  0.15624952038E+03  0.00000000000E+00 0.  1.
        -13    1    1    2    0    0  0.55440484173E+02  0.10395498978E+03 -0.56731301410E+02  0.13076214631E+03  0.10566000000E+00 0.  1.
         13    1    1    2    0    0 -0.41805769173E+02 -0.76794095283E+02  0.40456490845E+01  0.87529616970E+02  0.10566000000E+00 0. -1.
          4    1    1    2  501    0  0.43341757003E+01 -0.19827909172E+02  0.10305688261E+03  0.10503643232E+03  0.00000000000E+00 0.  1.
         -4    1    1    2    0  503 -0.17968890700E+02 -0.73329853218E+01 -0.15008342509E+02  0.24533732932E+02  0.00000000000E+00 0. -1.
</event>
<event>
 6    1  0.5496865E-006  0.1647358E+03  0.7818608E-02  0.1087423E+00
         21   -1    0    0  503  502  0.00000000000E+00  0.00000000000E+00  0.16008016450E+04  0.16008016450E+04  0.00000000000E+00 0.  1.
         21   -1    0    0  501  503 -0.00000000000E+00 -0.00000000000E+00 -0.72000989175E+02  0.72000989175E+02  0.00000000000E+00 0. -1.
        -13    1    1    2    0    0  0.37557507936E+02  0.15990483011E+03  0.53305034593E+03  0.55778383228E+03  0.10566000000E+00 0.  1.
         13    1    1    2    0    0 -0.13579804560E+02 -0.16446303468E+03  0.31755829786E+03  0.35787677289E+03  0.10566000000E+00 0. -1.
          4    1    1    2  501    0 -0.11630324400E+02 -0.19466188948E+00 -0.38555744154E+02  0.40272170865E+02  0.00000000000E+00 0.  1.
         -4    1    1    2    0  502 -0.12347378976E+02  0.47528664631E+01  0.71674775616E+03  0.71686985811E+03  0.00000000000E+00 0. -1.
</event>
<event>
 6    1  0.5496865E-006  0.1667378E+03  0.7818608E-02  0.1085684E+00
         21   -1    0    0  503  502  0.00000000000E+00  0.00000000000E+00  0.38361976632E+02  0.38361976632E+02  0.00000000000E+00 0. -1.
         21   -1    0    0  501  503 -0.00000000000E+00 -0.00000000000E+00 -0.18537177478E+04  0.18537177478E+04  0.00000000000E+00 0. -1.
        -13    1    1    2    0    0 -0.39747726233E+02  0.13677853508E+03 -0.24531379290E+03  0.28366726556E+03  0.10566000000E+00 0.  1.
         13    1    1    2    0    0  0.38768127403E+02 -0.16526491013E+03 -0.88312670284E+03  0.89929319060E+03  0.10566000000E+00 0. -1.
          4    1    1    2  501    0  0.18971490135E+02 -0.10255839815E+02 -0.65608500009E+03  0.65643935518E+03  0.00000000000E+00 0.  1.
         -4    1    1    2    0  502 -0.17991891305E+02  0.38742214862E+02 -0.30830275315E+02  0.52679913070E+02  0.00000000000E+00 0. -1.
</event>
<event>
 6    1  0.5496865E-006  0.8359594E+02  0.7818608E-02  0.1198299E+00
         21   -1    0    0  501  502  0.00000000000E+00  0.00000000000E+00  0.38750794287E+03  0.38750794287E+03  0.00000000000E+00 0.  1.
         21   -1    0    0  502  503 -0.00000000000E+00 -0.00000000000E+00 -0.51945027807E+02  0.51945027807E+02  0.00000000000E+00 0. -1.
        -13    1    1    2    0    0 -0.42405014913E+02  0.61242558207E+02  0.11603940393E+03  0.13789122762E+03  0.10566000000E+00 0.  1.
         13    1    1    2    0    0  0.10320107752E+03  0.46651532242E+01  0.12213780292E+03  0.15996837226E+03  0.10566000000E+00 0. -1.
          4    1    1    2  501    0 -0.14009705061E+02  0.57116832609E+01  0.56256404578E+01  0.16141344186E+02  0.00000000000E+00 0.  1.
         -4    1    1    2    0  503 -0.46786357545E+02 -0.71619394692E+02  0.91760067752E+02  0.12545202662E+03  0.00000000000E+00 0. -1.
</event>
<event>
 6    1  0.5496865E-006  0.9045215E+02  0.7818608E-02  0.1193645E+00
         21   -1    0    0  503  502  0.00000000000E+00  0.00000000000E+00  0.36739667568E+03  0.36739667568E+03  0.00000000000E+00 0.  1.
         21   -1    0    0  501  503 -0.00000000000E+00 -0.00000000000E+00 -0.79309777422E+03  0.79309777422E+03  0.00000000000E+00 0. -1.
        -13    1    1    2    0    0 -0.66922818096E+02  0.12813453681E+02  0.29799238282E+03  0.30568336487E+03  0.10566000000E+00 0.  1.
         13    1    1    2    0    0  0.10332620805E+03 -0.39864868616E+02 -0.17315568409E+03  0.20554419262E+03  0.10566000000E+00 0. -1.
          4    1    1    2  501    0 -0.54257373406E+01 -0.60688424424E+02 -0.55284300437E+03  0.55619053477E+03  0.00000000000E+00 0.  1.
         -4    1    1    2    0  502 -0.30977652614E+02  0.87739839359E+02  0.23052071003E+01  0.93076357642E+02  0.00000000000E+00 0. -1.
</event>
<event>
 6    1  0.5496865E-006  0.5095851E+03  0.7818608E-02  0.9457207E-01
         21   -1    0    0  501  502  0.00000000000E+00  0.00000000000E+00  0.31285201334E+04  0.31285201334E+04  0.00000000000E+00 0. -1.
         21   -1    0    0  502  503 -0.00000000000E+00 -0.00000000000E+00 -0.48625916935E+03  0.48625916935E+03  0.00000000000E+00 0. -1.
        -13    1    1    2    0    0 -0.42166987563E+03  0.76871653269E+02  0.32829142072E+03  0.53989814147E+03  0.10566000000E+00 0.  1.
         13    1    1    2    0    0  0.56545870010E+03 -0.31253958001E+03  0.50469625148E+03  0.81984318502E+03  0.10566000000E+00 0. -1.
          4    1    1    2  501    0  0.99940015755E+02  0.23310831184E+03  0.19547814498E+04  0.19711666617E+04  0.00000000000E+00 0.  1.
         -4    1    1    2    0  503 -0.24372884023E+03  0.25596149002E+01 -0.14550815795E+03  0.28387131454E+03  0.00000000000E+00 0. -1.
</event>
<event>
 6    1  0.5496865E-006  0.2097785E+02  0.7818608E-02  0.1496691E+00
         21   -1    0    0  503  502  0.00000000000E+00  0.00000000000E+00  0.12036033145E+03  0.12036033145E+03  0.00000000000E+00 0.  1.
         21   -1    0    0  501  503 -0.00000000000E+00 -0.00000000000E+00 -0.41388427088E+02  0.41388427088E+02  0.00000000000E+00 0. -1.
        -13    1    1    2    0    0  0.19591132806E+01 -0.22786296532E+02  0.12073668286E+02  0.25861903727E+02  0.10566000000E+00 0.  1.
         13    1    1    2    0    0 -0.64772102926E+01  0.28429853307E+02 -0.25298025549E+02  0.38603265056E+02  0.10566000000E+00 0. -1.
          4    1    1    2  501    0  0.17779368893E+01 -0.16265058364E+02  0.30421140844E+02  0.34542133597E+02  0.00000000000E+00 0.  1.
         -4    1    1    2    0  502  0.27401601227E+01  0.10621501588E+02  0.61775120780E+02  0.62741456158E+02  0.00000000000E+00 0. -1.
</event>
<event>
 6    1  0.5496865E-006  0.9147750E+02  0.7818608E-02  0.1179482E+00
         21   -1    0    0  501  502  0.00000000000E+00  0.00000000000E+00  0.15377556197E+04  0.15377556197E+04  0.00000000000E+00 0. -1.
         21   -1    0    0  502  503 -0.00000000000E+00 -0.00000000000E+00 -0.13760976989E+02  0.13760976989E+02  0.00000000000E+00 0. -1.
        -13    1    1    2    0    0 -0.12944412270E+02 -0.94306217799E+02  0.54649020925E+03  0.55471864985E+03  0.10566000000E+00 0.  1.
         13    1    1    2    0    0  0.19603530056E+02  0.85886535048E+02  0.42768984284E+03  0.43666853347E+03  0.10566000000E+00 0. -1.
          4    1    1    2  501    0 -0.34740737973E+01 -0.11792202012E+02  0.53432490836E+03  0.53446630662E+03  0.00000000000E+00 0.  1.
         -4    1    1    2    0  503 -0.31850439881E+01  0.20211884763E+02  0.15489682248E+02  0.25663106730E+02  0.00000000000E+00 0. -1.
</event>
<event>
 6    1  0.5496865E-006  0.2757407E+03  0.7818608E-02  0.1017854E+00
         21   -1    0    0  503  502  0.00000000000E+00  0.00000000000E+00  0.20479873736E+03  0.20479873736E+03  0.00000000000E+00 0.  1.
         21   -1    0    0  501  503 -0.00000000000E+00 -0.00000000000E+00 -0.12702416858E+04  0.12702416858E+04  0.00000000000E+00 0.  1.
        -13    1    1    2    0    0 -0.26823260159E+03 -0.17702879963E+02 -0.33177325439E+03  0.42700775638E+03  0.10566000000E+00 0.  1.
         13    1    1    2    0    0  0.28207375043E+03  0.40440487193E+00 -0.11634357584E+03  0.30512555289E+03  0.10566000000E+00 0. -1.
          4    1    1    2  501    0 -0.85828929115E+01  0.80893620200E+01 -0.67961733790E+03  0.67971967001E+03  0.00000000000E+00 0.  1.
         -4    1    1    2    0  502 -0.52582559280E+01  0.92091130716E+01  0.62291219670E+02  0.63187443902E+02  0.00000000000E+00 0. -1.
</event>
<event>
 6    1  0.5496865E-006  0.4596541E+02  0.7818608E-02  0.1309148E+00
         21   -1    0    0  503  502  0.00000000000E+00  0.00000000000E+00  0.76539161242E+02  0.76539161242E+02  0.00000000000E+00 0.  1.
         21   -1    0    0  501  503 -0.00000000000E+00 -0.00000000000E+00 -0.30249920159E+03  0.30249920159E+03  0.00000000000E+00 0. -1.
        -13    1    1    2    0    0  0.68077327253E+02 -0.24373515365E+02  0.35500960726E+02  0.80553833637E+02  0.10566000000E+00 0.  1.
         13    1    1    2    0    0 -0.60495275945E+02  0.24926552894E+02 -0.16175478091E+03  0.17448676672E+03  0.10566000000E+00 0. -1.
          4    1    1    2  501    0 -0.35150851558E+02  0.12126599301E+02 -0.29333095902E+02  0.47361031356E+02  0.00000000000E+00 0.  1.
         -4    1    1    2    0  502  0.27568800250E+02 -0.12679636830E+02 -0.70373124261E+02  0.76636731113E+02  0.00000000000E+00 0. -1.
</event>
<event>
 6    1  0.5496865E-006  0.2933003E+02  0.7818608E-02  0.1437033E+00
         21   -1    0    0  501  502  0.00000000000E+00  0.00000000000E+00  0.70329578257E+02  0.70329578257E+02  0.00000000000E+00 0.  1.
         21   -1    0    0  502  503 -0.00000000000E+00 -0.00000000000E+00 -0.38847785095E+02  0.38847785095E+02  0.00000000000E+00 0. -1.
        -13    1    1    2    0    0  0.21136406528E+02  0.25540740367E+02  0.11312399146E+02  0.35029396768E+02  0.10566000000E+00 0.  1.
         13    1    1    2    0    0 -0.99687034740E+01  0.11783209193E+02  0.16517002535E+02  0.22606229332E+02  0.10566000000E+00 0. -1.
          4    1    1    2  501    0 -0.18157112134E+02 -0.19597455150E+02  0.13674432401E+02  0.30012182042E+02  0.00000000000E+00 0.  1.
         -4    1    1    2    0  503  0.69894090797E+01 -0.17726494410E+02 -0.10022040920E+02  0.21529555210E+02  0.00000000000E+00 0. -1.
</event>
<event>
 6    1  0.5496865E-006  0.6746796E+02  0.7818608E-02  0.1233532E+00
         21   -1    0    0  501  502  0.00000000000E+00  0.00000000000E+00  0.26971279582E+02  0.26971279582E+02  0.00000000000E+00 0. -1.
         21   -1    0    0  502  503 -0.00000000000E+00 -0.00000000000E+00 -0.60468567947E+03  0.60468567947E+03  0.00000000000E+00 0.  1.
        -13    1    1    2    0    0  0.53643412629E+02  0.48462250414E+02 -0.36682296810E+03  0.37387873238E+03  0.10566000000E+00 0.  1.
         13    1    1    2    0    0 -0.59993802358E+02 -0.32998722810E+02 -0.36570539373E+02  0.77624658083E+02  0.10566000000E+00 0. -1.
          4    1    1    2  501    0  0.16658838749E+02 -0.17366619803E+02 -0.51049710558E+02  0.56437481693E+02  0.00000000000E+00 0.  1.
         -4    1    1    2    0  503 -0.10308449020E+02  0.19030921986E+01 -0.12327118186E+03  0.12371608690E+03  0.00000000000E+00 0. -1.
</event>
<event>
 6    1  0.5496865E-006  0.8560824E+02  0.7818608E-02  0.1190849E+00
         21   -1    0    0  501  502  0.00000000000E+00  0.00000000000E+00  0.78373212381E+02  0.78373212381E+02  0.00000000000E+00 0. -1.
         21   -1    0    0  502  503 -0.00000000000E+00 -0.00000000000E+00 -0.25056343822E+03  0.25056343822E+03  0.00000000000E+00 0.  1.
        -13    1    1    2    0    0 -0.99209771013E+01  0.82808170323E+02 -0.10649669179E+03  0.13526705210E+03  0.10566000000E+00 0.  1.
         13    1    1    2    0    0  0.25109492363E+02 -0.70509817045E+02  0.28486659875E+02  0.80085091380E+02  0.10566000000E+00 0. -1.
          4    1    1    2  501    0 -0.18871782393E+02 -0.22310468304E+02 -0.13477705110E+02  0.32179958074E+02  0.00000000000E+00 0.  1.
         -4    1    1    2    0  503  0.36832671320E+01  0.10012115027E+02 -0.80702488813E+02  0.81404549042E+02  0.00000000000E+00 0. -1.
</event>
<event>
 6    1  0.5496865E-006  0.9449767E+02  0.7818608E-02  0.1173995E+00
         21   -1    0    0  501  502  0.00000000000E+00  0.00000000000E+00  0.11153542868E+03  0.11153542868E+03  0.00000000000E+00 0. -1.
         21   -1    0    0  502  503 -0.00000000000E+00 -0.00000000000E+00 -0.49199868025E+03  0.49199868025E+03  0.00000000000E+00 0.  1.
        -13    1    1    2    0    0  0.49221344468E+02 -0.42907663178E+02 -0.38571846089E+03  0.39120653183E+03  0.10566000000E+00 0.  1.
         13    1    1    2    0    0 -0.70037139072E+02  0.26219433606E+02  0.67100699374E+02  0.10047474592E+03  0.10566000000E+00 0. -1.
          4    1    1    2  501    0 -0.33868806425E+02 -0.51534437531E+01 -0.24625103256E+02  0.42190635709E+02  0.00000000000E+00 0.  1.
         -4    1    1    2    0  503  0.54684601029E+02  0.21841673325E+02 -0.37220386795E+02  0.69662195461E+02  0.00000000000E+00 0. -1.
</event>
<event>
 6    1  0.5496865E-006  0.4668610E+02  0.7818608E-02  0.1305902E+00
         21   -1    0    0  503  502  0.00000000000E+00  0.00000000000E+00  0.62517604858E+02  0.62517604858E+02  0.00000000000E+00 0. -1.
         21   -1    0    0  501  503 -0.00000000000E+00 -0.00000000000E+00 -0.12270688901E+03  0.12270688901E+03  0.00000000000E+00 0.  1.
        -13    1    1    2    0    0  0.57453933110E+01  0.37223511816E+02 -0.30800821151E+02  0.48654918804E+02  0.10566000000E+00 0.  1.
         13    1    1    2    0    0  0.27173154524E+02 -0.70727267732E+02 -0.83360189476E+01  0.76224845710E+02  0.10566000000E+00 0. -1.
          4    1    1    2  501    0 -0.16015834046E+02  0.22942976019E+01 -0.18767116536E+02  0.24778527091E+02  0.00000000000E+00 0.  1.
         -4    1    1    2    0  502 -0.16902713788E+02  0.31209458314E+02 -0.22853275191E+01  0.35566202265E+02  0.00000000000E+00 0. -1.
</event>
<event>
 6    1  0.5496865E-006  0.1008074E+03  0.7818608E-02  0.1163227E+00
         21   -1    0    0  503  502  0.00000000000E+00  0.00000000000E+00  0.75367398515E+02  0.75367398515E+02  0.00000000000E+00 0.  1.
         21   -1    0    0  501  503 -0.00000000000E+00 -0.00000000000E+00 -0.44981105241E+03  0.44981105241E+03  0.00000000000E+00 0.  1.
        -13    1    1    2    0    0  0.81964962814E+02  0.83244564256E+02 -0.32770417497E+02  0.12133352395E+03  0.10566000000E+00 0.  1.
         13    1    1    2    0    0 -0.42536865049E+02 -0.50540013682E+02 -0.18808066859E+03  0.19934399147E+03  0.10566000000E+00 0. -1.
          4    1    1    2  501    0 -0.45506500329E+02 -0.21608487870E+02 -0.17363729168E+03  0.18079733787E+03  0.00000000000E+00 0.  1.
         -4    1    1    2    0  502  0.60784025644E+01 -0.11096062704E+02  0.20044723879E+02  0.23703597631E+02  0.00000000000E+00 0. -1.
</event>
<event>
 6    1  0.5496865E-006  0.2084753E+03  0.7818608E-02  0.1054476E+00
         21   -1    0    0  503  502  0.00000000000E+00  0.00000000000E+00  0.98019533903E+03  0.98019533903E+03  0.00000000000E+00 0.  1.
         21   -1    0    0  501  503 -0.00000000000E+00 -0.00000000000E+00 -0.21512918424E+03  0.21512918424E+03  0.00000000000E+00 0.  1.
        -13    1    1    2    0    0  0.10238330191E+01 -0.19966018693E+03  0.43687845319E+03  0.48034157899E+03  0.10566000000E+00 0.  1.
         13    1    1    2    0    0  0.70797621832E+02  0.23934853810E+03  0.30812912118E+03  0.39653952191E+03  0.10566000000E+00 0. -1.
          4    1    1    2  501    0 -0.46225538465E+02 -0.60129140904E+02 -0.13776168031E+03  0.15725964057E+03  0.00000000000E+00 0.  1.
         -4    1    1    2    0  502 -0.25595916386E+02  0.20440789732E+02  0.15782026072E+03  0.16118378180E+03  0.00000000000E+00 0. -1.
</event>
<event>
 6    1  0.7449413E-006  0.2151902E+03  0.7818608E-02  0.1050193E+00
         21   -1    0    0  501  502  0.00000000000E+00  0.00000000000E+00  0.85337158904E+03  0.85337158904E+03  0.00000000000E+00 0. -1.
         21   -1    0    0  502  503 -0.00000000000E+00 -0.00000000000E+00 -0.60526495840E+03  0.60526495840E+03  0.00000000000E+00 0. -1.
        -13    1    1    2    0    0  0.16791819539E+03  0.12092904022E+03  0.69532422956E+01  0.20704760770E+03  0.10566000000E+00 0.  1.
         13    1    1    2    0    0 -0.20519980277E+03 -0.10867302142E+03  0.56819171635E+03  0.61380666527E+03  0.10566000000E+00 0. -1.
          4    1    1    2  501    0  0.27173998969E+02 -0.95367163937E+01  0.15398005061E+03  0.15665002766E+03  0.00000000000E+00 0.  1.
         -4    1    1    2    0  503  0.10107608410E+02 -0.27193024092E+01 -0.48101837862E+03  0.48113224681E+03  0.00000000000E+00 0. -1.
</event>
<event>
 6    1  0.5496865E-006  0.3537654E+02  0.7818608E-02  0.1395729E+00
         21   -1    0    0  501  502  0.00000000000E+00  0.00000000000E+00  0.31545493360E+03  0.31545493360E+03  0.00000000000E+00 0.  1.
         21   -1    0    0  502  503 -0.00000000000E+00 -0.00000000000E+00 -0.29751818349E+03  0.29751818349E+03  0.00000000000E+00 0. -1.
        -13    1    1    2    0    0  0.42418626801E+02 -0.28895227689E+02 -0.75389985597E+02  0.91202714736E+02  0.10566000000E+00 0.  1.
         13    1    1    2    0    0 -0.15241709095E+02 -0.12830291926E+02  0.77553302150E+02  0.80071542544E+02  0.10566000000E+00 0. -1.
          4    1    1    2  501    0 -0.28555801383E+02  0.20440973896E+02  0.22684759493E+03  0.22954977354E+03  0.00000000000E+00 0.  1.
         -4    1    1    2    0  503  0.13788836782E+01  0.21284545719E+02 -0.21107416138E+03  0.21214908628E+03  0.00000000000E+00 0. -1.
</event>
<event>
 6    1  0.5496865E-006  0.3492830E+02  0.7818608E-02  0.1369670E+00
         21   -1    0    0  503  502  0.00000000000E+00  0.00000000000E+00  0.72627764571E+02  0.72627764571E+02  0.00000000000E+00 0. -1.
         21   -1    0    0  501  503 -0.00000000000E+00 -0.00000000000E+00 -0.10587288868E+03  0.10587288868E+03  0.00000000000E+00 0. -1.
        -13    1    1    2    0    0 -0.23980422607E+02  0.39547603900E+02  0.77074431891E+01  0.46888052713E+02  0.10566000000E+00 0.  1.
         13    1    1    2    0    0 -0.79269062278E+01 -0.43529644258E+02 -0.59924189758E+02  0.74488827711E+02  0.10566000000E+00 0. -1.
          4    1    1    2  501    0 -0.11506734769E+01  0.17812749905E+02  0.40316464623E+01  0.18299515891E+02  0.00000000000E+00 0.  1.
         -4    1    1    2    0  502  0.33058002312E+02 -0.13830709547E+02  0.14939976002E+02  0.38824256933E+02  0.00000000000E+00 0. -1.
</event>
<event>
 6    1  0.5496865E-006  0.4441990E+03  0.7818608E-02  0.9609454E-01
         21   -1    0    0  501  502  0.00000000000E+00  0.00000000000E+00  0.71251024735E+03  0.71251024735E+03  0.00000000000E+00 0.  1.
         21   -1    0    0  502  503 -0.00000000000E+00 -0.00000000000E+00 -0.86064163349E+03  0.86064163349E+03  0.00000000000E+00 0.  1.
        -13    1    1    2    0    0 -0.37349018149E+03  0.24919820963E+03 -0.30406059153E+03  0.54226148474E+03  0.10566000000E+00 0.  1.
         13    1    1    2    0    0  0.37636536306E+03 -0.23819909626E+03 -0.13201100147E+03  0.46456066519E+03  0.10566000000E+00 0. -1.
          4    1    1    2  501    0 -0.12172609471E+02  0.72751446899E+01  0.42626137681E+03  0.42649719989E+03  0.00000000000E+00 0.  1.
         -4    1    1    2    0  503  0.92974278972E+01 -0.18274258060E+02 -0.13832116996E+03  0.13983253102E+03  0.00000000000E+00 0. -1.
</event>
<event>
 6    1  0.5496865E-006  0.5059251E+03  0.7818608E-02  0.9914233E-01
         21   -1    0    0  501  502  0.00000000000E+00  0.00000000000E+00  0.98973347654E+03  0.98973347654E+03  0.00000000000E+00 0. -1.
         21   -1    0    0  502  503 -0.00000000000E+00 -0.00000000000E+00 -0.48127713075E+03  0.48127713075E+03  0.00000000000E+00 0. -1.
        -13    1    1    2    0    0  0.50673539443E+02 -0.91641318236E+02 -0.34789611182E+02  0.11034612371E+03  0.10566000000E+00 0.  1.
         13    1    1    2    0    0 -0.37253219464E+02  0.55942084062E+03  0.87411970416E+02  0.56743311766E+03  0.10566000000E+00 0. -1.
          4    1    1    2  501    0  0.58156960794E+00 -0.12377678433E+02  0.31656058883E+03  0.31680301695E+03  0.00000000000E+00 0.  1.
         -4    1    1    2    0  503 -0.14001889586E+02 -0.45540184395E+03  0.13927339772E+03  0.47642834897E+03  0.00000000000E+00 0. -1.
</event>
<event>
 6    1  0.5496865E-006  0.3111626E+02  0.7818608E-02  0.1419409E+00
         21   -1    0    0  503  502  0.00000000000E+00  0.00000000000E+00  0.23534253524E+02  0.23534253524E+02  0.00000000000E+00 0.  1.
         21   -1    0    0  501  503 -0.00000000000E+00 -0.00000000000E+00 -0.34109266276E+03  0.34109266276E+03  0.00000000000E+00 0. -1.
        -13    1    1    2    0    0 -0.59924259970E+00 -0.17363392954E+02 -0.61179113285E+02  0.63598282783E+02  0.10566000000E+00 0.  1.
         13    1    1    2    0    0 -0.78115579033E+01  0.40204712206E+02 -0.71481032200E+02  0.82383180619E+02  0.10566000000E+00 0. -1.
          4    1    1    2  501    0  0.14468063549E+02 -0.39731939870E+02 -0.19397937721E+03  0.19853450756E+03  0.00000000000E+00 0.  1.
         -4    1    1    2    0  502 -0.60572630462E+01  0.16890620619E+02  0.90811134531E+01  0.20110945330E+02  0.00000000000E+00 0. -1.
</event>
<event>
 6    1  0.5496865E-006  0.4643684E+03  0.7818608E-02  0.9559686E-01
         21   -1    0    0  503  502  0.00000000000E+00  0.00000000000E+00  0.68690142081E+03  0.68690142081E+03  0.00000000000E+00 0.  1.
         21   -1    0    0  501  503 -0.00000000000E+00 -0.00000000000E+00 -0.10812325561E+04  0.10812325561E+04  0.00000000000E+00 0. -1.
        -13    1    1    2    0    0  0.29098204869E+03  0.32208373669E+03 -0.21587379513E+03  0.48477829231E+03  0.10566000000E+00 0.  1.
         13    1    1    2    0    0 -0.37463668721E+03 -0.32943881208E+03 -0.23918626052E+03  0.55325641135E+03  0.10566000000E+00 0. -1.
          4    1    1    2  501    0  0.33489522022E+00  0.30688122730E+02 -0.32922955599E+03  0.33065688193E+03  0.00000000000E+00 0.  1.
         -4    1    1    2    0  502  0.83319743304E+02 -0.23333047346E+02  0.38995847635E+03  0.39944239134E+03  0.00000000000E+00 0. -1.
</event>
<event>
 6    1  0.5496865E-006  0.1712350E+02  0.7818608E-02  0.1574135E+00
         21   -1    0    0  501  502  0.00000000000E+00  0.00000000000E+00  0.73562785502E+02  0.73562785502E+02  0.00000000000E+00 0. -1.
         21   -1    0    0  502  503 -0.00000000000E+00 -0.00000000000E+00 -0.43167914933E+02  0.43167914933E+02  0.00000000000E+00 0. -1.
        -13    1    1    2    0    0 -0.92740356893E+01 -0.88992652312E+01 -0.50228384683E+01  0.13800171373E+02  0.10566000000E+00 0.  1.
         13    1    1    2    0    0  0.32374655892E+02 -0.89592930163E+01  0.29685570144E+02  0.44828913821E+02  0.10566000000E+00 0. -1.
          4    1    1    2  501    0 -0.10489736524E+02  0.78062011730E+01  0.27827698013E+02  0.30746579091E+02  0.00000000000E+00 0.  1.
         -4    1    1    2    0  503 -0.12610883679E+02  0.10052357075E+02 -0.22095559120E+02  0.27355036149E+02  0.00000000000E+00 0. -1.
</event>
<event>
 6    1  0.5496865E-006  0.8467546E+02  0.7818608E-02  0.1192749E+00
         21   -1    0    0  501  502  0.00000000000E+00  0.00000000000E+00  0.28885118105E+03  0.28885118105E+03  0.00000000000E+00 0. -1.
         21   -1    0    0  502  503 -0.00000000000E+00 -0.00000000000E+00 -0.29343943231E+03  0.29343943231E+03  0.00000000000E+00 0.  1.
        -13    1    1    2    0    0  0.55275649421E+02  0.14404710026E+02 -0.24707333644E+03  0.25359049239E+03  0.10566000000E+00 0.  1.
         13    1    1    2    0    0 -0.11893334524E+03  0.24260862957E+02  0.14493168517E+03  0.18904744011E+03  0.10566000000E+00 0. -1.
          4    1    1    2  501    0  0.35924552563E+02 -0.23086863169E+02  0.98993047975E+02  0.10781094692E+03  0.00000000000E+00 0.  1.
         -4    1    1    2    0  503  0.27733143255E+02 -0.15578709813E+02 -0.14396479667E+01  0.31841733943E+02  0.00000000000E+00 0. -1.
</event>
<event>
 6    1  0.5496865E-006  0.3675367E+02  0.7818608E-02  0.1357653E+00
         21   -1    0    0  501  502  0.00000000000E+00  0.00000000000E+00  0.10062764477E+04  0.10062764477E+04  0.00000000000E+00 0.  1.
         21   -1    0    0  502  503 -0.00000000000E+00 -0.00000000000E+00 -0.31658305873E+02  0.31658305873E+02  0.00000000000E+00 0. -1.
        -13    1    1    2    0    0 -0.34786040146E+02 -0.31097907193E+02  0.47938977353E+02  0.66897721444E+02  0.10566000000E+00 0.  1.
         13    1    1    2    0    0  0.14126784489E+02  0.27013919267E+02  0.10600075711E+03  0.11029727805E+03  0.10566000000E+00 0. -1.
          4    1    1    2  501    0 -0.78004624402E+01  0.12781065600E+02  0.82955112934E+03  0.82968625338E+03  0.00000000000E+00 0.  1.
         -4    1    1    2    0  503  0.28459718097E+02 -0.86970776738E+01 -0.88727219277E+01  0.31053500747E+02  0.00000000000E+00 0. -1.
</event>
<event>
 6    1  0.5496865E-006  0.3873615E+02  0.7818608E-02  0.1369282E+00
         21   -1    0    0  503  502  0.00000000000E+00  0.00000000000E+00  0.54875506665E+02  0.54875506665E+02  0.00000000000E+00 0. -1.
         21   -1    0    0  501  503 -0.00000000000E+00 -0.00000000000E+00 -0.34250227468E+03  0.34250227468E+03  0.00000000000E+00 0.  1.
        -13    1    1    2    0    0 -0.14520231057E+02  0.21120381395E+02 -0.33194176789E+01  0.25844483318E+02  0.10566000000E+00 0.  1.
         13    1    1    2    0    0 -0.26626886624E+02 -0.46542191396E+02 -0.61901743929E+02  0.81896298675E+02  0.10566000000E+00 0. -1.
          4    1    1    2  501    0  0.94700702517E+01  0.56305104370E+01 -0.24548387951E+03  0.24573099109E+03  0.00000000000E+00 0.  1.
         -4    1    1    2    0  502  0.31677047429E+02  0.19791299564E+02  0.23078273108E+02  0.43906008266E+02  0.00000000000E+00 0. -1.
</event>
<event>
 6    1  0.5496865E-006  0.4071065E+02  0.7818608E-02  0.1335040E+00
         21   -1    0    0  503  502  0.00000000000E+00  0.00000000000E+00  0.84385416842E+03  0.84385416842E+03  0.00000000000E+00 0. -1.
         21   -1    0    0  501  503 -0.00000000000E+00 -0.00000000000E+00 -0.23874461808E+02  0.23874461808E+02  0.00000000000E+00 0.  1.
        -13    1    1    2    0    0  0.45021143311E+02  0.11082579681E+02  0.12601769138E+03  0.13427656766E+03  0.10566000000E+00 0.  1.
         13    1    1    2    0    0 -0.29478614535E+02 -0.98430454436E+01  0.29150748826E+02  0.42610463265E+02  0.10566000000E+00 0. -1.
          4    1    1    2  501    0 -0.12975246419E+02 -0.12937060550E+02 -0.64864683717E+01  0.19437047801E+02  0.00000000000E+00 0.  1.
         -4    1    1    2    0  502 -0.25672823580E+01  0.11697526312E+02  0.67129773478E+03  0.67140455150E+03  0.00000000000E+00 0. -1.
</event>
<event>
 6    1  0.5496865E-006  0.5981748E+02  0.7818608E-02  0.1267137E+00
         21   -1    0    0  503  502  0.00000000000E+00  0.00000000000E+00  0.58717077071E+03  0.58717077071E+03  0.00000000000E+00 0.  1.
         21   -1    0    0  501  503 -0.00000000000E+00 -0.00000000000E+00 -0.35522912318E+02  0.35522912318E+02  0.00000000000E+00 0. -1.
        -13    1    1    2    0    0  0.35137252352E+02 -0.30218299710E+02  0.26821855758E+03  0.27219290574E+03  0.10566000000E+00 0.  1.
         13    1    1    2    0    0  0.10960234914E+02 -0.13277825557E+01 -0.14795505901E+02  0.18460983581E+02  0.10566000000E+00 0. -1.
          4    1    1    2  501    0  0.10828801763E+02 -0.13841925019E+02 -0.65001766282E+01  0.18738039707E+02  0.00000000000E+00 0.  1.
         -4    1    1    2    0  502 -0.56926289029E+02  0.45388007284E+02  0.30472498334E+03  0.31330175400E+03  0.00000000000E+00 0. -1.
</event>
<event>
 6    1  0.5496865E-006  0.3622968E+03  0.7818608E-02  0.9950130E-01
         21   -1    0    0  501  502  0.00000000000E+00  0.00000000000E+00  0.63372130288E+03  0.63372130288E+03  0.00000000000E+00 0. -1.
         21   -1    0    0  502  503 -0.00000000000E+00 -0.00000000000E+00 -0.68070445117E+03  0.68070445117E+03  0.00000000000E+00 0. -1.
        -13    1    1    2    0    0 -0.10586779300E+03  0.21401176218E+03 -0.16889125655E+03  0.29246075232E+03  0.10566000000E+00 0.  1.
         13    1    1    2    0    0 -0.40424896945E+03 -0.69227558047E+02 -0.92214090593E+02  0.42037261300E+03  0.10566000000E+00 0. -1.
          4    1    1    2  501    0  0.22080870973E+03 -0.12674530698E+03  0.25763703058E+02  0.25589964348E+03  0.00000000000E+00 0.  1.
         -4    1    1    2    0  503  0.28930805271E+03 -0.18038897154E+02  0.18835849580E+03  0.34569274525E+03  0.00000000000E+00 0. -1.
</event>
<event>
 6    1  0.5496865E-006  0.1516603E+03  0.7818608E-02  0.1110767E+00
         21   -1    0    0  503  502  0.00000000000E+00  0.00000000000E+00  0.42033827846E+03  0.42033827846E+03  0.00000000000E+00 0. -1.
         21   -1    0    0  501  503 -0.00000000000E+00 -0.00000000000E+00 -0.28672076040E+03  0.28672076040E+03  0.00000000000E+00 0. -1.
        -13    1    1    2    0    0 -0.10971826555E+03  0.21710810314E+02 -0.14720088358E+02  0.11281023556E+03  0.10566000000E+00 0.  1.
         13    1    1    2    0    0  0.16660251320E+03  0.13180995522E+03 -0.15278116565E+02  0.21298754355E+03  0.10566000000E+00 0. -1.
          4    1    1    2  501    0 -0.37252928134E+01 -0.18314862844E+02 -0.88407931518E+02  0.90361907698E+02  0.00000000000E+00 0.  1.
         -4    1    1    2    0  502 -0.53158954831E+02 -0.13520590269E+03  0.25202365450E+03  0.29089935206E+03  0.00000000000E+00 0. -1.
</event>
<event>
 6    1  0.5496865E-006  0.1129236E+03  0.7818608E-02  0.1144782E+00
         21   -1    0    0  503  502  0.00000000000E+00  0.00000000000E+00  0.70911370139E+03  0.70911370139E+03  0.00000000000E+00 0. -1.
         21   -1    0    0  501  503 -0.00000000000E+00 -0.00000000000E+00 -0.18649407243E+03  0.18649407243E+03  0.00000000000E+00 0. -1.
        -13    1    1    2    0    0  0.27004752670E+02  0.91203175734E+02  0.10021402926E+03  0.13816706827E+03  0.10566000000E+00 0.  1.
         13    1    1    2    0    0  0.68945618636E+01 -0.11059695945E+03 -0.56849879443E+02  0.12454373682E+03  0.10566000000E+00 0. -1.
          4    1    1    2  501    0  0.35312726274E+01 -0.13598601672E+02 -0.75048297299E+02  0.76352071231E+02  0.00000000000E+00 0.  1.
         -4    1    1    2    0  502 -0.37430587161E+02  0.32992385393E+02  0.55430377644E+03  0.55654489750E+03  0.00000000000E+00 0. -1.
</event>
<event>
 6    1  0.5496865E-006  0.2452211E+03  0.7818608E-02  0.1032899E+00
         21   -1    0    0  501  502  0.00000000000E+00  0.00000000000E+00  0.29879456963E+03  0.29879456963E+03  0.00000000000E+00 0.  1.
         21   -1    0    0  502  503 -0.00000000000E+00 -0.00000000000E+00 -0.36893985394E+03  0.36893985394E+03  0.00000000000E+00 0.  1.
        -13    1    1    2    0    0  0.23735167459E+03  0.29088216446E+02 -0.84991087395E+02  0.25378226468E+03  0.10566000000E+00 0.  1.
         13    1    1    2    0    0 -0.25204156418E+03 -0.12675757058E+02  0.12507160307E+02  0.25266987377E+03  0.10566000000E+00 0. -1.
          4    1    1    2  501    0  0.10611564779E+02 -0.28362671361E+02  0.78470169990E+02  0.84110724715E+02  0.00000000000E+00 0.  1.
         -4    1    1    2    0  503  0.40783248056E+01  0.11950211973E+02 -0.76131527216E+02  0.77171560407E+02  0.00000000000E+00 0. -1.
</event>
<event>
 6    1  0.5496865E-006  0.3249136E+03  0.7818608E-02  0.9975215E-01
         21   -1    0    0  503  502  0.00000000000E+00  0.00000000000E+00  0.18667062110E+04  0.18667062110E+04  0.00000000000E+00 0.  1.
         21   -1    0    0  501  503 -0.00000000000E+00 -0.00000000000E+00 -0.18355468135E+03  0.18355468135E+03  0.00000000000E+00 0.  1.
        -13    1    1    2    0    0  0.32588722006E+03 -0.26955055514E+02  0.10279575695E+04  0.10787148980E+04  0.10566000000E+00 0.  1.
         13    1    1    2    0    0 -0.30745853719E+03  0.70584967677E+02  0.22412891859E+03  0.38697128197E+03  0.10566000000E+00 0. -1.
          4    1    1    2  501    0 -0.15107208300E+02 -0.42738606813E+01 -0.75174664776E+02  0.76796639588E+02  0.00000000000E+00 0.  1.
         -4    1    1    2    0  502 -0.33214745730E+01 -0.39356051482E+02  0.50623970636E+03  0.50777807286E+03  0.00000000000E+00 0. -1.
</event>
<event>
 6    1  0.5496865E-006  0.7440606E+02  0.7818608E-02  0.1215620E+00
         21   -1    0    0  501  502  0.00000000000E+00  0.00000000000E+00  0.37366609218E+03  0.37366609218E+03  0.00000000000E+00 0. -1.
         21   -1    0    0  502  503 -0.00000000000E+00 -0.00000000000E+00 -0.84533978546E+02  0.84533978546E+02  0.00000000000E+00 0.  1.
        -13    1    1    2    0    0  0.21311201527E+02 -0.75647587465E+02 -0.42470162822E+02  0.89333368312E+02  0.10566000000E+00 0.  1.
         13    1    1    2    0    0 -0.58223961250E+02  0.60666895763E+02  0.25381313062E+03  0.26737916588E+03  0.10566000000E+00 0. -1.
          4    1    1    2  501    0  0.53289837740E+00 -0.16832314240E+02  0.19234175931E+02  0.25564903816E+02  0.00000000000E+00 0.  1.
         -4    1    1    2    0  503  0.36379861346E+02  0.31813005943E+02  0.58554969898E+02  0.75922632715E+02  0.00000000000E+00 0. -1.
</event>
<event>
 6    1  0.5496865E-006  0.1918040E+03  0.7818608E-02  0.1065905E+00
         21   -1    0    0  503  502  0.00000000000E+00  0.00000000000E+00  0.80294561924E+03  0.80294561924E+03  0.00000000000E+00 0.  1.
         21   -1    0    0  501  503 -0.00000000000E+00 -0.00000000000E+00 -0.16914553114E+03  0.16914553114E+03  0.00000000000E+00 0. -1.
        -13    1    1    2    0    0 -0.15762418384E+03  0.33186661525E+02  0.44926894256E+03  0.47727280642E+03  0.10566000000E+00 0.  1.
         13    1    1    2    0    0  0.19590807356E+03 -0.52785345487E+02 -0.82127993510E+02  0.21888646479E+03  0.10566000000E+00 0. -1.
          4    1    1    2  501    0 -0.44091078459E+01  0.11327706567E+02  0.71747422602E+01  0.14115030803E+02  0.00000000000E+00 0.  1.
         -4    1    1    2    0  502 -0.33874781877E+02  0.82709773942E+01  0.25948439679E+03  0.26181684837E+03  0.00000000000E+00 0. -1.
</event>
<event>
 6    1  0.5496865E-006  0.2498014E+03  0.7818608E-02  0.1030496E+00
         21   -1    0    0  501  502  0.00000000000E+00  0.00000000000E+00  0.66492311143E+03  0.66492311143E+03  0.00000000000E+00 0. -1.
         21   -1    0    0  502  503 -0.00000000000E+00 -0.00000000000E+00 -0.39050992837E+03  0.39050992837E+03  0.00000000000E+00 0. -1.
        -13    1    1    2    0    0  0.16684597932E+03  0.45112640390E+02 -0.50937254509E+02  0.18018697567E+03  0.10566000000E+00 0.  1.
         13    1    1    2    0    0 -0.26577963810E+03 -0.19625889187E+03  0.35697547712E+03  0.48640299248E+03  0.10566000000E+00 0. -1.
          4    1    1    2  501    0 -0.18975039216E+02  0.13366189175E+03  0.13039991296E+03  0.18769573975E+03  0.00000000000E+00 0.  1.
         -4    1    1    2    0  503  0.11790869799E+03  0.17484359724E+02 -0.16202495251E+03  0.20114733190E+03  0.00000000000E+00 0. -1.
</event>
<event>
 6    1  0.5496865E-006  0.4993157E+02  0.7818608E-02  0.1292808E+00
         21   -1    0    0  501  502  0.00000000000E+00  0.00000000000E+00  0.10228870342E+03  0.10228870342E+03  0.00000000000E+00 0. -1.
         21   -1    0    0  502  503 -0.00000000000E+00 -0.00000000000E+00 -0.22102187105E+03  0.22102187105E+03  0.00000000000E+00 0.  1.
        -13    1    1    2    0    0 -0.33935303055E+02  0.38882708933E+02 -0.10508863174E+03  0.11707733142E+03  0.10566000000E+00 0.  1.
         13    1    1    2    0    0  0.51165641558E+02  0.95955570826E+01  0.28917953046E+02  0.59550455616E+02  0.10566000000E+00 0. -1.
          4    1    1    2  501    0  0.93362796324E+01 -0.49604717203E+02  0.37136462416E+02  0.62665069432E+02  0.00000000000E+00 0.  1.
         -4    1    1    2    0  503 -0.26566618135E+02  0.11264511871E+01 -0.79698951353E+02  0.84017718001E+02  0.00000000000E+00 0. -1.
</event>
<event>
 6    1  0.5496865E-006  0.7940806E+02  0.7818608E-02  0.1204003E+00
         21   -1    0    0  501  502  0.00000000000E+00  0.00000000000E+00  0.46385620552E+02  0.46385620552E+02  0.00000000000E+00 0.  1.
         21   -1    0    0  502  503 -0.00000000000E+00 -0.00000000000E+00 -0.31453276921E+03  0.31453276921E+03  0.00000000000E+00 0. -1.
        -13    1    1    2    0    0 -0.95893566387E+02  0.15231704352E+02 -0.18510605049E+03  0.20902593615E+03  0.10566000000E+00 0.  1.
         13    1    1    2    0    0  0.59693995351E+02 -0.36374268290E+02 -0.46375826396E+02  0.83887954514E+02  0.10566000000E+00 0. -1.
          4    1    1    2  501    0  0.21145730600E+02  0.80889846235E+01 -0.41703068322E+02  0.47452286587E+02  0.00000000000E+00 0.  1.
         -4    1    1    2    0  503  0.15053840435E+02  0.13053579315E+02  0.50377965546E+01  0.20552212506E+02  0.00000000000E+00 0. -1.
</event>
<event>
 6    1  0.5496865E-006  0.6286455E+02  0.7818608E-02  0.1277295E+00
         21   -1    0    0  501  502  0.00000000000E+00  0.00000000000E+00  0.35963809071E+02  0.35963809071E+02  0.00000000000E+00 0. -1.
         21   -1    0    0  502  503 -0.00000000000E+00 -0.00000000000E+00 -0.31105598579E+03  0.31105598579E+03  0.00000000000E+00 0. -1.
        -13    1    1    2    0    0  0.22973968948E+02 -0.16573978176E+02 -0.14630980083E+03  0.14902707467E+03  0.10566000000E+00 0.  1.
         13    1    1    2    0    0 -0.73402512519E+02  0.34737374107E+02 -0.50962362473E+02  0.95873810589E+02  0.10566000000E+00 0. -1.
          4    1    1    2  501    0  0.68516843251E+00 -0.14317405695E+02 -0.28826373057E+02  0.32193436369E+02  0.00000000000E+00 0.  1.
         -4    1    1    2    0  503  0.49743375139E+02 -0.38459902367E+01 -0.48993640356E+02  0.69925473230E+02  0.00000000000E+00 0. -1.
</event>
<event>
 6    1  0.5496865E-006  0.1287126E+03  0.7818608E-02  0.1124233E+00
         21   -1    0    0  503  502  0.00000000000E+00  0.00000000000E+00  0.14188597712E+03  0.14188597712E+03  0.00000000000E+00 0.  1.
         21   -1    0    0  501  503 -0.00000000000E+00 -0.00000000000E+00 -0.88097345073E+03  0.88097345073E+03  0.00000000000E+00 0.  1.
        -13    1    1    2    0    0  0.31739333102E+02 -0.11102170131E+03  0.78271441653E+02  0.13949778912E+03  0.10566000000E+00 0.  1.
         13    1    1    2    0    0 -0.19917343425E+02  0.11655587962E+03 -0.37419316581E+03  0.39243153562E+03  0.10566000000E+00 0. -1.
          4    1    1    2  501    0 -0.23285120593E+02  0.76242053922E+01 -0.46349254975E+03  0.46413970852E+03  0.00000000000E+00 0.  1.
         -4    1    1    2    0  502  0.11463130916E+02 -0.13158383706E+02  0.20326800303E+02  0.26790394599E+02  0.00000000000E+00 0. -1.
</event>
<event>
 6    1  0.5496865E-006  0.3107081E+02  0.7818608E-02  0.1416977E+00
         21   -1    0    0  501  502  0.00000000000E+00  0.00000000000E+00  0.16788640144E+02  0.16788640144E+02  0.00000000000E+00 0. -1.
         21   -1    0    0  502  503 -0.00000000000E+00 -0.00000000000E+00 -0.19923827753E+03  0.19923827753E+03  0.00000000000E+00 0. -1.
        -13    1    1    2    0    0 -0.20688966808E+01 -0.13010541115E+02 -0.43793747123E+02  0.45732460733E+02  0.10566000000E+00 0.  1.
         13    1    1    2    0    0  0.45507795716E+02 -0.46566405892E+01 -0.67293704143E+02  0.81370126913E+02  0.10566000000E+00 0. -1.
          4    1    1    2  501    0 -0.22031527162E+02  0.21620987797E+01 -0.15201636190E+02  0.26854284631E+02  0.00000000000E+00 0.  1.
         -4    1    1    2    0  503 -0.21407371874E+02  0.15505082925E+02 -0.56160549926E+02  0.62070045392E+02  0.00000000000E+00 0. -1.
</event>
<event>
 6    1  0.5496865E-006  0.2527976E+03  0.7818608E-02  0.1028953E+00
         21   -1    0    0  501  502  0.00000000000E+00  0.00000000000E+00  0.98141973548E+03  0.98141973548E+03  0.00000000000E+00 0. -1.
         21   -1    0    0  502  503 -0.00000000000E+00 -0.00000000000E+00 -0.18049492838E+03  0.18049492838E+03  0.00000000000E+00 0. -1.
        -13    1    1    2    0    0 -0.70768415030E+02  0.24496722736E+03  0.94577211560E+02  0.27195950279E+03  0.10566000000E+00 0.  1.
         13    1    1    2    0    0  0.47787575841E+02 -0.24483154061E+03  0.53170842075E+03  0.58731592141E+03  0.10566000000E+00 0. -1.
          4    1    1    2  501    0 -0.78981168063E+02 -0.16276155685E+02  0.18208152787E+03  0.19913970208E+03  0.00000000000E+00 0.  1.
         -4    1    1    2    0  503  0.10196200725E+03  0.16140468934E+02 -0.74423530736E+01  0.10349953758E+03  0.00000000000E+00 0. -1.
</event>
<event>
 6    1  0.5496865E-006  0.4109898E+02  0.7818608E-02  0.1332979E+00
         21   -1    0    0  503  502  0.00000000000E+00  0.00000000000E+00  0.47822991375E+02  0.47822991375E+02  0.00000000000E+00 0.  1.
         21   -1    0    0  501  503 -0.00000000000E+00 -0.00000000000E+00 -0.25441093810E+03  0.25441093810E+03  0.00000000000E+00 0. -1.
        -13    1    1    2    0    0 -0.39807161670E+02 -0.24367579197E+02  0.21608229229E+02  0.51432633323E+02  0.10566000000E+00 0.  1.
         13    1    1    2    0    0  0.37717733139E+02  0.14582785563E+02 -0.20709462920E+03  0.21100588057E+03  0.10566000000E+00 0. -1.
          4    1    1    2  501    0 -0.83375119637E+01  0.13718915647E+02 -0.23437851795E+02  0.28408724875E+02  0.00000000000E+00 0.  1.
         -4    1    1    2    0  502  0.10426940495E+02 -0.39341220134E+01  0.23363050370E+01  0.11386690710E+02  0.00000000000E+00 0. -1.
</event>
<event>
 6    1  0.5496865E-006  0.1583115E+03  0.7818608E-02  0.1093192E+00
         21   -1    0    0  501  502  0.00000000000E+00  0.00000000000E+00  0.13574329484E+04  0.13574329484E+04  0.00000000000E+00 0.  1.
         21   -1    0    0  502  503 -0.00000000000E+00 -0.00000000000E+00 -0.15189907359E+03  0.15189907359E+03  0.00000000000E+00 0. -1.
        -13    1    1    2    0    0 -0.20666971156E+02 -0.15014966894E+03  0.17563434522E+03  0.23199026092E+03  0.10566000000E+00 0.  1.
         13    1    1    2    0    0  0.60069903152E+02  0.15685957433E+03  0.76607939388E+02  0.18461339839E+03  0.10566000000E+00 0. -1.
          4    1    1    2  501    0 -0.23181666002E+02 -0.16080581597E+01  0.10218390368E+04  0.10221032201E+04  0.00000000000E+00 0.  1.
         -4    1    1    2    0  503 -0.16221265994E+02 -0.51018472310E+01 -0.68547446632E+02  0.70625142515E+02  0.00000000000E+00 0. -1.
</event>
<event>
 6    1  0.5496865E-006  0.1568929E+03  0.7818608E-02  0.1110510E+00
         21   -1    0    0  503  502  0.00000000000E+00  0.00000000000E+00  0.35609792041E+03  0.35609792041E+03  0.00000000000E+00 0.  1.
         21   -1    0    0  501  503 -0.00000000000E+00 -0.00000000000E+00 -0.33651404201E+03  0.33651404201E+03  0.00000000000E+00 0. -1.
        -13    1    1    2    0    0  0.34626004244E+02  0.13797109885E+03  0.18126882848E+03  0.23042001569E+03  0.10566000000E+00 0.  1.
         13    1    1    2    0    0 -0.30501292676E+02 -0.57767796671E+02 -0.38318648056E+02  0.75734913613E+02  0.10566000000E+00 0. -1.
          4    1    1    2  501    0 -0.92784494990E+02 -0.13041969270E+03 -0.20201780501E+03  0.25773911674E+03  0.00000000000E+00 0.  1.
         -4    1    1    2    0  502  0.88659783422E+02  0.50216390523E+02  0.78651502984E+02  0.12871791637E+03  0.00000000000E+00 0. -1.
</event>
<event>
 6    1  0.5496865E-006  0.8994541E+02  0.7818608E-02  0.1182356E+00
         21   -1    0    0  503  502  0.00000000000E+00  0.00000000000E+00  0.41981198514E+02  0.41981198514E+02  0.00000000000E+00 0.  1.
         21   -1    0    0  501  503 -0.00000000000E+00 -0.00000000000E+00 -0.52605868991E+03  0.52605868991E+03  0.00000000000E+00 0. -1.
        -13    1    1    2    0    0  0.39081088688E+02  0.82401709077E+02 -0.15143682559E+03  0.17677809950E+03  0.10566000000E+00 0.  1.
         13    1    1    2    0    0 -0.10238769213E+03 -0.30518584223E+02 -0.18839551066E+03  0.21658140059E+03  0.10566000000E+00 0. -1.
          4    1    1    2  501    0  0.22566582478E+02 -0.26248857313E+01 -0.83364726872E+02  0.86404967197E+02  0.00000000000E+00 0.  1.
         -4    1    1    2    0  502  0.40740020968E+02 -0.49258239123E+02 -0.60880428274E+02  0.88275421136E+02  0.00000000000E+00 0. -1.
</event>
<event>
 6    1  0.5496865E-006  0.1305064E+03  0.7818608E-02  0.1122103E+00
         21   -1    0    0  503  502  0.00000000000E+00  0.00000000000E+00  0.75577505270E+02  0.75577505270E+02  0.00000000000E+00 0.  1.
         21   -1    0    0  501  503 -0.00000000000E+00 -0.00000000000E+00 -0.55586102268E+03  0.55586102268E+03  0.00000000000E+00 0. -1.
        -13    1    1    2    0    0  0.90443095847E+02 -0.83789337830E+02 -0.67832877344E+02  0.14071928487E+03  0.10566000000E+00 0.  1.
         13    1    1    2    0    0 -0.13467336888E+03  0.55015388323E+02 -0.37544856314E+03  0.40264779145E+03  0.10566000000E+00 0. -1.
          4    1    1    2  501    0  0.25998380214E+02  0.16605912028E+02 -0.52731379684E+02  0.61092311230E+02  0.00000000000E+00 0.  1.
         -4    1    1    2    0  502  0.18231892818E+02  0.12168037479E+02  0.15729302751E+02  0.26979140403E+02  0.00000000000E+00 0. -1.
</event>
<event>
 6    1  0.5496865E-006  0.2000382E+03  0.7818608E-02  0.1060110E+00
         21   -1    0    0  501  502  0.00000000000E+00  0.00000000000E+00  0.19429412809E+04  0.19429412809E+04  0.00000000000E+00 0. -1.
         21   -1    0    0  502  503 -0.00000000000E+00 -0.00000000000E+00 -0.18250455762E+03  0.18250455762E+03  0.00000000000E+00 0. -1.
        -13    1    1    2    0    0  0.11166254634E+03 -0.16797943003E+03  0.30977259459E+03  0.36965481830E+03  0.10566000000E+00 0.  1.
         13    1    1    2    0    0 -0.19230941497E+03  0.14740196151E+03  0.88923248009E+03  0.92165322337E+03  0.10566000000E+00 0. -1.
          4    1    1    2  501    0  0.65101439508E+02 -0.23494739258E+02  0.69200278006E+03  0.69545528096E+03  0.00000000000E+00 0.  1.
         -4    1    1    2    0  503  0.15545429120E+02  0.44072207769E+02 -0.13057113142E+03  0.13868251593E+03  0.00000000000E+00 0. -1.
</event>
<event>
 6    1  0.5496865E-006  0.1085934E+03  0.7818608E-02  0.1151071E+00
         21   -1    0    0  503  502  0.00000000000E+00  0.00000000000E+00  0.31502404195E+03  0.31502404195E+03  0.00000000000E+00 0.  1.
         21   -1    0    0  501  503 -0.00000000000E+00 -0.00000000000E+00 -0.16000798127E+03  0.16000798127E+03  0.00000000000E+00 0.  1.
        -13    1    1    2    0    0  0.91197353484E+02  0.93683012680E+02  0.16417681921E+03  0.20987497058E+03  0.10566000000E+00 0.  1.
         13    1    1    2    0    0 -0.31735985739E+02 -0.99964882481E+02 -0.81231799084E+02  0.13266034399E+03  0.10566000000E+00 0. -1.
          4    1    1    2  501    0 -0.73235636404E+02  0.14113074333E+02  0.84244335367E+02  0.11251553381E+03  0.00000000000E+00 0.  1.
         -4    1    1    2    0  502  0.13774268659E+02 -0.78312045324E+01 -0.12173294816E+02  0.19981174845E+02  0.00000000000E+00 0. -1.
</event>
<event>
 6    1  0.5496865E-006  0.3456960E+03  0.7818608E-02  0.9900506E-01
         21   -1    0    0  503  502  0.00000000000E+00  0.00000000000E+00  0.71230039590E+03  0.71230039590E+03  0.00000000000E+00 0. -1.
         21   -1    0    0  501  503 -0.00000000000E+00 -0.00000000000E+00 -0.46455327633E+03  0.46455327633E+03  0.00000000000E+00 0. -1.
        -13    1    1    2    0    0  0.27300325765E+03 -0.17752958936E+02  0.84966559937E+02  0.28647037143E+03  0.10566000000E+00 0.  1.
         13    1    1    2    0    0 -0.37899673419E+03  0.15738416500E+03 -0.12614987131E+03  0.42932749867E+03  0.10566000000E+00 0. -1.
          4    1    1    2  501    0 -0.31059533161E+02 -0.40137024792E+02 -0.56740485645E+02  0.76125935597E+02  0.00000000000E+00 0.  1.
         -4    1    1    2    0  502  0.13705300970E+03 -0.99494181277E+02  0.34567091658E+03  0.38492986653E+03  0.00000000000E+00 0. -1.
</event>
<event>
 6    1  0.5496865E-006  0.8831892E+02  0.7818608E-02  0.1185478E+00
         21   -1    0    0  503  502  0.00000000000E+00  0.00000000000E+00  0.12810268228E+03  0.12810268228E+03  0.00000000000E+00 0.  1.
         21   -1    0    0  501  503 -0.00000000000E+00 -0.00000000000E+00 -0.41203616832E+03  0.41203616832E+03  0.00000000000E+00 0. -1.
        -13    1    1    2    0    0  0.12435563677E+03 -0.27432989320E+02  0.34690320921E+02  0.13198607059E+03  0.10566000000E+00 0.  1.
         13    1    1    2    0    0 -0.32372350439E+02  0.92825774865E+02 -0.23660493557E+03  0.25621572991E+03  0.10566000000E+00 0. -1.
          4    1    1    2  501    0 -0.41318162816E+02 -0.57905592250E+02 -0.68979301198E+02  0.99087800390E+02  0.00000000000E+00 0.  1.
         -4    1    1    2    0  502 -0.50665123517E+02 -0.74871932948E+01 -0.13039570185E+02  0.52849249711E+02  0.00000000000E+00 0. -1.
</event>
<event>
 6    1  0.5496865E-006  0.2059559E+02  0.7818608E-02  0.1501736E+00
         21   -1    0    0  501  502  0.00000000000E+00  0.00000000000E+00  0.77306317793E+01  0.77306317793E+01  0.00000000000E+00 0.  1.
         21   -1    0    0  502  503 -0.00000000000E+00 -0.00000000000E+00 -0.24158636779E+03  0.24158636779E+03  0.00000000000E+00 0.  1.
        -13    1    1    2    0    0 -0.34286036143E+02  0.23794007626E+01 -0.17001700346E+03  0.17345600725E+03  0.10566000000E+00 0.  1.
         13    1    1    2    0    0  0.13147676512E+02 -0.23761627502E+01 -0.30700217615E+02  0.33481667711E+02  0.10566000000E+00 0. -1.
          4    1    1    2  501    0  0.11049821491E+02 -0.78999130962E+01 -0.17914664630E+02  0.22482045964E+02  0.00000000000E+00 0.  1.
         -4    1    1    2    0  503  0.10088538140E+02  0.78966750838E+01 -0.15223850302E+02  0.19897278638E+02  0.00000000000E+00 0. -1.
</event>
<event>
 6    1  0.5496865E-006  0.5163632E+02  0.7818608E-02  0.1285266E+00
         21   -1    0    0  501  502  0.00000000000E+00  0.00000000000E+00  0.96854364690E+02  0.96854364690E+02  0.00000000000E+00 0. -1.
         21   -1    0    0  502  503 -0.00000000000E+00 -0.00000000000E+00 -0.48055303764E+03  0.48055303764E+03  0.00000000000E+00 0. -1.
        -13    1    1    2    0    0  0.47598765524E+02  0.30267898863E+02 -0.12466045159E+03  0.13682846025E+03  0.10566000000E+00 0.  1.
         13    1    1    2    0    0 -0.37420576094E+02  0.49935777178E+02  0.33670338465E+02  0.70905459691E+02  0.10566000000E+00 0. -1.
          4    1    1    2  501    0 -0.17968937390E+02 -0.42965058706E+02  0.22818544517E+02  0.51861015748E+02  0.00000000000E+00 0.  1.
         -4    1    1    2    0  503  0.77907479598E+01 -0.37238617335E+02 -0.31552710435E+03  0.31781246664E+03  0.00000000000E+00 0. -1.
</event>
<event>
 6    1  0.5496865E-006  0.1052002E+03  0.7818608E-02  0.1156227E+00
         21   -1    0    0  503  502  0.00000000000E+00  0.00000000000E+00  0.52026146090E+03  0.52026146090E+03  0.00000000000E+00 0. -1.
         21   -1    0    0  501  503 -0.00000000000E+00 -0.00000000000E+00 -0.85510652920E+03  0.85510652920E+03  0.00000000000E+00 0.  1.
        -13    1    1    2    0    0 -0.77948657602E+02 -0.67713521246E+02 -0.80590655887E+02  0.13098083509E+03  0.10566000000E+00 0.  1.
         13    1    1    2    0    0  0.76897677983E+02  0.55429411131E+02 -0.31695904298E+03  0.33083034714E+03  0.10566000000E+00 0. -1.
          4    1    1    2  501    0  0.29536637602E+01  0.23583438073E+02 -0.42502678371E+03  0.42569081450E+03  0.00000000000E+00 0.  1.
         -4    1    1    2    0  502 -0.19026841419E+01 -0.11299327958E+02  0.48773141427E+03  0.48786599337E+03  0.00000000000E+00 0. -1.
</event>
<event>
 6    1  0.5496865E-006  0.6885326E+02  0.7818608E-02  0.1229769E+00
         21   -1    0    0  501  502  0.00000000000E+00  0.00000000000E+00  0.54869957063E+02  0.54869957063E+02  0.00000000000E+00 0. -1.
         21   -1    0    0  502  503 -0.00000000000E+00 -0.00000000000E+00 -0.66536379279E+03  0.66536379279E+03  0.00000000000E+00 0. -1.
        -13    1    1    2    0    0 -0.63750948100E+02 -0.30078018135E+02 -0.36289183451E+02  0.79282952507E+02  0.10566000000E+00 0.  1.
         13    1    1    2    0    0  0.74287030568E+02  0.17033650250E+02 -0.44186960659E+02  0.88097711705E+02  0.10566000000E+00 0. -1.
          4    1    1    2  501    0  0.20505499998E+02  0.11792950551E+02 -0.18006324216E+01  0.23723226804E+02  0.00000000000E+00 0.  1.
         -4    1    1    2    0  503 -0.31041582466E+02  0.12514173335E+01 -0.52821705919E+03  0.52912985883E+03  0.00000000000E+00 0. -1.
</event>
<event>
 6    1  0.5496865E-006  0.5961529E+02  0.7818608E-02  0.1266555E+00
         21   -1    0    0  501  502  0.00000000000E+00  0.00000000000E+00  0.27182290916E+02  0.27182290916E+02  0.00000000000E+00 0.  1.
         21   -1    0    0  502  503 -0.00000000000E+00 -0.00000000000E+00 -0.13223456191E+04  0.13223456191E+04  0.00000000000E+00 0. -1.
        -13    1    1    2    0    0 -0.49735213512E+01 -0.83702708095E+02 -0.36624153029E+03  0.37571764522E+03  0.10566000000E+00 0.  1.
         13    1    1    2    0    0 -0.34299386362E+01  0.50605892253E+02 -0.14926023900E+03  0.15764311250E+03  0.10566000000E+00 0. -1.
          4    1    1    2  501    0  0.37891269503E+02  0.44398934454E+02 -0.29608894982E+02  0.65449983555E+02  0.00000000000E+00 0.  1.
         -4    1    1    2    0  503 -0.29487809516E+02 -0.11302118612E+02 -0.75005266387E+03  0.75071716870E+03  0.00000000000E+00 0. -1.
</event>
<event>
 6    1  0.5496865E-006  0.2684885E+03  0.7818608E-02  0.1030435E+00
         21   -1    0    0  501  502  0.00000000000E+00  0.00000000000E+00  0.11063063839E+04  0.11063063839E+04  0.00000000000E+00 0. -1.
         21   -1    0    0  502  503 -0.00000000000E+00 -0.00000000000E+00 -0.22672660766E+03  0.22672660766E+03  0.00000000000E+00 0.  1.
        -13    1    1    2    0    0  0.54822920646E+02  0.20128395905E+03  0.74916877151E+02  0.22166040342E+03  0.10566000000E+00 0.  1.
         13    1    1    2    0    0  0.21178474736E+03 -0.23419226361E+03  0.75299551183E+03  0.81651763456E+03  0.10566000000E+00 0. -1.
          4    1    1    2  501    0 -0.26345841173E+03  0.52988648700E+02  0.40823383091E+02  0.27181736554E+03  0.00000000000E+00 0.  1.
         -4    1    1    2    0  503 -0.31492562699E+01 -0.20080344137E+02  0.10844004159E+02  0.23037588023E+02  0.00000000000E+00 0. -1.
</event>
<event>
 6    1  0.5496865E-006  0.1067342E+03  0.7818608E-02  0.1182318E+00
         21   -1    0    0  503  502  0.00000000000E+00  0.00000000000E+00  0.32006567380E+03  0.32006567380E+03  0.00000000000E+00 0. -1.
         21   -1    0    0  501  503 -0.00000000000E+00 -0.00000000000E+00 -0.23980604742E+03  0.23980604742E+03  0.00000000000E+00 0. -1.
        -13    1    1    2    0    0 -0.27779409267E+02 -0.62152109844E+02  0.10749846374E+03  0.12724193966E+03  0.10566000000E+00 0.  1.
         13    1    1    2    0    0  0.30591304038E+02 -0.43860520359E+02 -0.15312931548E+03  0.16219793942E+03  0.10566000000E+00 0. -1.
          4    1    1    2  501    0  0.87767818690E+00  0.12780066127E+03 -0.14217334372E+02  0.12859203684E+03  0.00000000000E+00 0.  1.
         -4    1    1    2    0  502 -0.36895729580E+01 -0.21788031070E+02  0.14010781249E+03  0.14183980530E+03  0.00000000000E+00 0. -1.
</event>
<event>
 6    1  0.5496865E-006  0.2949957E+03  0.7818608E-02  0.1009393E+00
         21   -1    0    0  503  502  0.00000000000E+00  0.00000000000E+00  0.18138064915E+04  0.18138064915E+04  0.00000000000E+00 0.  1.
         21   -1    0    0  501  503 -0.00000000000E+00 -0.00000000000E+00 -0.18937269645E+03  0.18937269645E+03  0.00000000000E+00 0. -1.
        -13    1    1    2    0    0 -0.24636460779E+03 -0.15595669218E+03  0.65477790776E+03  0.71676504481E+03  0.10566000000E+00 0.  1.
         13    1    1    2    0    0  0.18726202460E+03  0.30925678062E+03  0.30922559942E+03  0.47573869374E+03  0.10566000000E+00 0. -1.
          4    1    1    2  501    0 -0.45356016791E+02 -0.84140260480E+02 -0.36691296135E+02  0.10238653674E+03  0.00000000000E+00 0.  1.
         -4    1    1    2    0  502  0.10445859998E+03 -0.69159827954E+02  0.69712158404E+03  0.70828891269E+03  0.00000000000E+00 0. -1.
</event>
<event>
 6    1  0.5496865E-006  0.1734207E+03  0.7818608E-02  0.1080061E+00
         21   -1    0    0  501  502  0.00000000000E+00  0.00000000000E+00  0.97910043223E+02  0.97910043223E+02  0.00000000000E+00 0. -1.
         21   -1    0    0  502  503 -0.00000000000E+00 -0.00000000000E+00 -0.75914745764E+03  0.75914745764E+03  0.00000000000E+00 0.  1.
        -13    1    1    2    0    0 -0.73626664165E+02  0.14911979631E+03 -0.52526417387E+03  0.55096285070E+03  0.10566000000E+00 0.  1.
         13    1    1    2    0    0  0.81360221704E+02 -0.15206156594E+03 -0.12788833246E+03  0.21470361491E+03  0.10566000000E+00 0. -1.
          4    1    1    2  501    0 -0.21802811501E+02 -0.16233768992E+02  0.33709211646E+02  0.43303681077E+02  0.00000000000E+00 0.  1.
         -4    1    1    2    0  503  0.14069253962E+02  0.19175538623E+02 -0.41794119733E+02  0.48087354188E+02  0.00000000000E+00 0. -1.
</event>
<event>
 6    1  0.5496865E-006  0.5664384E+02  0.7818608E-02  0.1276887E+00
         21   -1    0    0  503  502  0.00000000000E+00  0.00000000000E+00  0.16235293964E+04  0.16235293964E+04  0.00000000000E+00 0.  1.
         21   -1    0    0  501  503 -0.00000000000E+00 -0.00000000000E+00 -0.82953106660E+01  0.82953106660E+01  0.00000000000E+00 0. -1.
        -13    1    1    2    0    0  0.12862154173E+02  0.21014890443E+02  0.70071750359E+02  0.74277331620E+02  0.10566000000E+00 0.  1.
         13    1    1    2    0    0 -0.53370737945E+02 -0.71823727701E+02  0.39361603934E+03  0.40365911500E+03  0.10566000000E+00 0. -1.
          4    1    1    2  501    0  0.13796324156E+02  0.42530511169E+02  0.78832242352E+03  0.78958940366E+03  0.00000000000E+00 0.  1.
         -4    1    1    2    0  502  0.26712259617E+02  0.82783260892E+01  0.36322387256E+03  0.36429885684E+03  0.00000000000E+00 0. -1.
</event>
<event>
 6    1  0.5496865E-006  0.1275022E+03  0.7818608E-02  0.1125692E+00
         21   -1    0    0  503  502  0.00000000000E+00  0.00000000000E+00  0.12564827052E+03  0.12564827052E+03  0.00000000000E+00 0.  1.
         21   -1    0    0  501  503 -0.00000000000E+00 -0.00000000000E+00 -0.76033778873E+03  0.76033778873E+03  0.00000000000E+00 0. -1.
        -13    1    1    2    0    0 -0.10835344346E+03 -0.65958527965E+02  0.73176640699E+02  0.14644394159E+03  0.10566000000E+00 0.  1.
         13    1    1    2    0    0  0.11009210990E+03  0.40606274772E+02 -0.42079168937E+03  0.43684642521E+03  0.10566000000E+00 0. -1.
          4    1    1    2  501    0 -0.10136425090E+02  0.42129378142E+02 -0.27887386260E+03  0.28222023821E+03  0.00000000000E+00 0.  1.
         -4    1    1    2    0  502  0.83977586504E+01 -0.16777124949E+02 -0.82006069389E+01  0.20475454233E+02  0.00000000000E+00 0. -1.
</event>
<event>
 6    1  0.5496865E-006  0.7637247E+02  0.7818608E-02  0.1210936E+00
         21   -1    0    0  501  502  0.00000000000E+00  0.00000000000E+00  0.15328579077E+03  0.15328579077E+03  0.00000000000E+00 0. -1.
         21   -1    0    0  502  503 -0.00000000000E+00 -0.00000000000E+00 -0.10967303965E+03  0.10967303965E+03  0.00000000000E+00 0.  1.
        -13    1    1    2    0    0 -0.12796690633E+02  0.69645064548E+02 -0.59624072765E+02  0.92570143806E+02  0.10566000000E+00 0.  1.
         13    1    1    2    0    0  0.54074283969E+02 -0.58870818991E+02  0.52495367957E+02  0.95632506693E+02  0.10566000000E+00 0. -1.
          4    1    1    2  501    0 -0.13593510765E+02 -0.10275260414E+02  0.42621386266E+02  0.45901493208E+02  0.00000000000E+00 0.  1.
         -4    1    1    2    0  503 -0.27684082571E+02 -0.49898514339E+00  0.81200696569E+01  0.28854686711E+02  0.00000000000E+00 0. -1.
</event>
<event>
 6    1  0.5496865E-006  0.5674274E+02  0.7818608E-02  0.1266532E+00
         21   -1    0    0  501  502  0.00000000000E+00  0.00000000000E+00  0.32878811818E+02  0.32878811818E+02  0.00000000000E+00 0. -1.
         21   -1    0    0  502  503 -0.00000000000E+00 -0.00000000000E+00 -0.60624349097E+03  0.60624349097E+03  0.00000000000E+00 0. -1.
        -13    1    1    2    0    0 -0.44851073591E+02 -0.27731710842E+02 -0.27522568330E+03  0.28023178709E+03  0.10566000000E+00 0.  1.
         13    1    1    2    0    0  0.76159420510E+02  0.16345210674E+02 -0.69185629177E+02  0.10418294339E+03  0.10566000000E+00 0. -1.
          4    1    1    2  501    0 -0.36794404449E+02  0.23537151905E+02 -0.25016450390E+02  0.50335360421E+02  0.00000000000E+00 0.  1.
         -4    1    1    2    0  503  0.54860575304E+01 -0.12150651737E+02 -0.20393691629E+03  0.20437221189E+03  0.00000000000E+00 0. -1.
</event>
<event>
 6    1  0.5496865E-006  0.4871177E+02  0.7818608E-02  0.1297124E+00
         21   -1    0    0  503  502  0.00000000000E+00  0.00000000000E+00  0.12815090274E+03  0.12815090274E+03  0.00000000000E+00 0.  1.
         21   -1    0    0  501  503 -0.00000000000E+00 -0.00000000000E+00 -0.70116052306E+03  0.70116052306E+03  0.00000000000E+00 0. -1.
        -13    1    1    2    0    0  0.37340682834E+02  0.34712485030E+01  0.11781513842E+03  0.12363977582E+03  0.10566000000E+00 0.  1.
         13    1    1    2    0    0 -0.57847461666E+02  0.18937459004E+02 -0.35549264573E+03  0.36066603459E+03  0.10566000000E+00 0. -1.
          4    1    1    2  501    0  0.11246937859E+02 -0.65064783921E+01 -0.32204785766E+03  0.32230986720E+03  0.00000000000E+00 0.  1.
         -4    1    1    2    0  502  0.92598409732E+01 -0.15902229115E+02 -0.13284255345E+02  0.22695748186E+02  0.00000000000E+00 0. -1.
</event>
<event>
 6    1  0.5496865E-006  0.3292467E+03  0.7818608E-02  0.9959154E-01
         21   -1    0    0  503  502  0.00000000000E+00  0.00000000000E+00  0.10167158402E+04  0.10167158402E+04  0.00000000000E+00 0.  1.
         21   -1    0    0  501  503 -0.00000000000E+00 -0.00000000000E+00 -0.22003786740E+03  0.22003786740E+03  0.00000000000E+00 0.  1.
        -13    1    1    2    0    0 -0.25513044703E+03  0.30127053964E+03  0.20901314288E+03  0.44670122915E+03  0.10566000000E+00 0.  1.
         13    1    1    2    0    0  0.19044282143E+03 -0.21712338942E+03  0.27376700927E+03  0.39794399228E+03  0.10566000000E+00 0. -1.
          4    1    1    2  501    0  0.94900042180E+02 -0.40317005007E+02  0.36084583271E+02  0.10924090831E+03  0.00000000000E+00 0.  1.
         -4    1    1    2    0  502 -0.30212416572E+02 -0.43830145218E+02  0.27781323740E+03  0.28286757788E+03  0.00000000000E+00 0. -1.
</event>
<event>
 6    1  0.5496865E-006  0.1594565E+03  0.7818608E-02  0.1092142E+00
         21   -1    0    0  503  502  0.00000000000E+00  0.00000000000E+00  0.15079449967E+03  0.15079449967E+03  0.00000000000E+00 0.  1.
         21   -1    0    0  501  503 -0.00000000000E+00 -0.00000000000E+00 -0.59992843923E+03  0.59992843923E+03  0.00000000000E+00 0.  1.
        -13    1    1    2    0    0  0.40672645207E+02  0.21661052867E+03 -0.26554652021E+03  0.34509324937E+03  0.10566000000E+00 0.  1.
         13    1    1    2    0    0 -0.75153701541E+02 -0.11970975355E+03 -0.42244797875E+01  0.14140849106E+03  0.10566000000E+00 0. -1.
          4    1    1    2  501    0  0.35378674664E+02 -0.86629243689E+02 -0.21106845371E+03  0.23088128688E+03  0.00000000000E+00 0.  1.
         -4    1    1    2    0  502 -0.89761832867E+00 -0.10271531437E+02  0.31705514148E+02  0.33339911579E+02  0.00000000000E+00 0. -1.
</event>
<event>
 6    1  0.5496865E-006  0.5030686E+02  0.7818608E-02  0.1290544E+00
         21   -1    0    0  503  502  0.00000000000E+00  0.00000000000E+00  0.36213540381E+02  0.36213540381E+02  0.00000000000E+00 0. -1.
         21   -1    0    0  501  503 -0.00000000000E+00 -0.00000000000E+00 -0.36266954622E+03  0.36266954622E+03  0.00000000000E+00 0. -1.
        -13    1    1    2    0    0  0.39924493297E+02 -0.13357429184E+02 -0.83524932406E+02  0.93535082065E+02  0.10566000000E+00 0.  1.
         13    1    1    2    0    0 -0.62530629492E+02 -0.20240491358E+02 -0.10075086501E+03  0.12029341245E+03  0.10566000000E+00 0. -1.
          4    1    1    2  501    0  0.20882241854E+02 -0.33409258567E+01 -0.14632379496E+03  0.14784411649E+03  0.00000000000E+00 0.  1.
         -4    1    1    2    0  502  0.17238943413E+01  0.36938846398E+02  0.41435865283E+01  0.37210475598E+02  0.00000000000E+00 0. -1.
</event>
<event>
 6    1  0.5496865E-006  0.9782595E+02  0.7818608E-02  0.1168203E+00
         21   -1    0    0  503  502  0.00000000000E+00  0.00000000000E+00  0.49052728650E+03  0.49052728650E+03  0.00000000000E+00 0.  1.
         21   -1    0    0  501  503 -0.00000000000E+00 -0.00000000000E+00 -0.37405040533E+02  0.37405040533E+02  0.00000000000E+00 0. -1.
        -13    1    1    2    0    0  0.71715338700E+02 -0.88459293321E+02  0.24515896688E+03  0.27031660435E+03  0.10566000000E+00 0.  1.
         13    1    1    2    0    0 -0.71183600783E+02  0.64068321498E+02  0.12285319144E+03  0.15577153993E+03  0.10566000000E+00 0. -1.
          4    1    1    2  501    0  0.93049197230E+01 -0.10998514564E+02  0.81113149361E+01  0.16533066372E+02  0.00000000000E+00 0.  1.
         -4    1    1    2    0  502 -0.98366576408E+01  0.35389486387E+02  0.76998772711E+02  0.85311116388E+02  0.00000000000E+00 0. -1.
</event>
<event>
 6    1  0.5496865E-006  0.1367083E+03  0.7818608E-02  0.1115015E+00
         21   -1    0    0  503  502  0.00000000000E+00  0.00000000000E+00  0.15767578609E+03  0.15767578609E+03  0.00000000000E+00 0.  1.
         21   -1    0    0  501  503 -0.00000000000E+00 -0.00000000000E+00 -0.36899956870E+03  0.36899956870E+03  0.00000000000E+00 0. -1.
        -13    1    1    2    0    0 -0.14049569132E+03 -0.42982676364E+02  0.40243080312E+02  0.15233537483E+03  0.10566000000E+00 0.  1.
         13    1    1    2    0    0  0.11735469658E+03  0.10399463457E+03 -0.19890731202E+03  0.25328075088E+03  0.10566000000E+00 0. -1.
          4    1    1    2  501    0  0.91237585957E+01 -0.78902199994E+02 -0.57202289309E+02  0.97882082308E+02  0.00000000000E+00 0.  1.
         -4    1    1    2    0  502  0.14017236145E+02  0.17890241784E+02  0.45427384103E+01  0.23177146772E+02  0.00000000000E+00 0. -1.
</event>
<event>
 6    1  0.5496865E-006  0.5920181E+02  0.7818608E-02  0.1260342E+00
         21   -1    0    0  503  502  0.00000000000E+00  0.00000000000E+00  0.11683050691E+03  0.11683050691E+03  0.00000000000E+00 0.  1.
         21   -1    0    0  501  503 -0.00000000000E+00 -0.00000000000E+00 -0.24143075170E+03  0.24143075170E+03  0.00000000000E+00 0. -1.
        -13    1    1    2    0    0  0.20281261585E+01 -0.35765849214E+02  0.75996253335E+02  0.84016373111E+02  0.10566000000E+00 0.  1.
         13    1    1    2    0    0 -0.56337936202E+02 -0.20390530473E+01 -0.15731850002E+03  0.16711445900E+03  0.10566000000E+00 0. -1.
          4    1    1    2  501    0  0.62025324291E+02  0.28118868178E+02 -0.56883646358E+02  0.88733087538E+02  0.00000000000E+00 0.  1.
         -4    1    1    2    0  502 -0.77155142467E+01  0.96860340831E+01  0.13605648259E+02  0.18397338963E+02  0.00000000000E+00 0. -1.
</event>
<event>
 6    1  0.5496865E-006  0.1530527E+03  0.7818608E-02  0.1120165E+00
         21   -1    0    0  501  502  0.00000000000E+00  0.00000000000E+00  0.95194132181E+03  0.95194132181E+03  0.00000000000E+00 0. -1.
         21   -1    0    0  502  503 -0.00000000000E+00 -0.00000000000E+00 -0.75920578068E+02  0.75920578068E+02  0.00000000000E+00 0. -1.
        -13    1    1    2    0    0 -0.34592414032E+02 -0.45572994660E+02  0.11188869650E+03  0.12566870939E+03  0.10566000000E+00 0.  1.
         13    1    1    2    0    0 -0.15709386629E+03  0.13116642762E+03  0.28429853796E+03  0.35029813647E+03  0.10566000000E+00 0. -1.
          4    1    1    2  501    0  0.84460336455E+02 -0.10448470169E+02  0.37392791733E+03  0.38349029496E+03  0.00000000000E+00 0.  1.
         -4    1    1    2    0  503  0.10722594387E+03 -0.75144962789E+02  0.10590559195E+03  0.16840475907E+03  0.00000000000E+00 0. -1.
</event>
<event>
 6    1  0.5496865E-006  0.1528531E+03  0.7818608E-02  0.1098331E+00
         21   -1    0    0  501  502  0.00000000000E+00  0.00000000000E+00  0.45390663715E+02  0.45390663715E+02  0.00000000000E+00 0.  1.
         21   -1    0    0  502  503 -0.00000000000E+00 -0.00000000000E+00 -0.16513877495E+04  0.16513877495E+04  0.00000000000E+00 0.  1.
        -13    1    1    2    0    0 -0.19605553055E+03 -0.15000237986E+02 -0.32086772483E+03  0.37632284836E+03  0.10566000000E+00 0.  1.
         13    1    1    2    0    0  0.12739606411E+03 -0.26565326319E+02 -0.31609528398E+03  0.34183579893E+03  0.10566000000E+00 0. -1.
          4    1    1    2  501    0  0.55863005151E+02  0.65593839848E+02 -0.41157584823E+03  0.42049721285E+03  0.00000000000E+00 0.  1.
         -4    1    1    2    0  503  0.12796461289E+02 -0.24028275544E+02 -0.55745822878E+03  0.55812255311E+03  0.00000000000E+00 0. -1.
</event>
<event>
 6    1  0.5496865E-006  0.1069786E+03  0.7818608E-02  0.1161303E+00
         21   -1    0    0  501  502  0.00000000000E+00  0.00000000000E+00  0.17303555713E+04  0.17303555713E+04  0.00000000000E+00 0.  1.
         21   -1    0    0  502  503 -0.00000000000E+00 -0.00000000000E+00 -0.35228883308E+03  0.35228883308E+03  0.00000000000E+00 0. -1.
        -13    1    1    2    0    0 -0.63992819079E+02 -0.77004640925E+02  0.74377368021E+02  0.12472690029E+03  0.10566000000E+00 0.  1.
         13    1    1    2    0    0  0.88846117866E+02 -0.88103191206E+02  0.23558267436E+03  0.26674896922E+03  0.10566000000E+00 0. -1.
          4    1    1    2  501    0 -0.23228225910E+01  0.60477130363E+02  0.13697569826E+04  0.13710933849E+04  0.00000000000E+00 0.  1.
         -4    1    1    2    0  503 -0.22530476196E+02  0.10463070177E+03 -0.30165028676E+03  0.32007514995E+03  0.00000000000E+00 0. -1.
</event>
<event>
 6    1  0.1364762E-005  0.3659071E+03  0.7818608E-02  0.1004894E+00
         21   -1    0    0  503  502  0.00000000000E+00  0.00000000000E+00  0.68518177286E+03  0.68518177286E+03  0.00000000000E+00 0. -1.
         21   -1    0    0  501  503 -0.00000000000E+00 -0.00000000000E+00 -0.14413158950E+04  0.14413158950E+04  0.00000000000E+00 0. -1.
        -13    1    1    2    0    0 -0.90106972458E+02  0.36578748666E+03  0.15822882470E+03  0.40860264807E+03  0.10566000000E+00 0.  1.
         13    1    1    2    0    0  0.17910775865E+03  0.28370684085E+02 -0.83880377277E+03  0.85818195350E+03  0.10566000000E+00 0. -1.
          4    1    1    2  501    0  0.48625937542E+01 -0.36509007984E+03 -0.38764415347E+03  0.53252455430E+03  0.00000000000E+00 0.  1.
         -4    1    1    2    0  502 -0.93863379949E+02 -0.29068090905E+02  0.31208497941E+03  0.32718851199E+03  0.00000000000E+00 0. -1.
</event>
<event>
 6    1  0.5496865E-006  0.5740526E+02  0.7818608E-02  0.1303608E+00
         21   -1    0    0  503  502  0.00000000000E+00  0.00000000000E+00  0.27675482095E+03  0.27675482095E+03  0.00000000000E+00 0. -1.
         21   -1    0    0  501  503 -0.00000000000E+00 -0.00000000000E+00 -0.11448715063E+03  0.11448715063E+03  0.00000000000E+00 0. -1.
        -13    1    1    2    0    0 -0.58552571405E+02  0.49815178257E+01  0.13144581014E+03  0.14398344108E+03  0.10566000000E+00 0.  1.
         13    1    1    2    0    0  0.16391229264E+02 -0.21010634162E+02 -0.65964338846E+02  0.71143687761E+02  0.10566000000E+00 0. -1.
          4    1    1    2  501    0  0.57049149796E+02 -0.40845914577E+01 -0.16953446678E+02  0.59654913747E+02  0.00000000000E+00 0.  1.
         -4    1    1    2    0  502 -0.14887807656E+02  0.20113707794E+02  0.11373964570E+03  0.11645992900E+03  0.00000000000E+00 0. -1.
</event>
<event>
 6    1  0.5496865E-006  0.5664103E+02  0.7818608E-02  0.1266884E+00
         21   -1    0    0  503  502  0.00000000000E+00  0.00000000000E+00  0.39014005645E+03  0.39014005645E+03  0.00000000000E+00 0. -1.
         21   -1    0    0  501  503 -0.00000000000E+00 -0.00000000000E+00 -0.26643795622E+02  0.26643795622E+02  0.00000000000E+00 0.  1.
        -13    1    1    2    0    0  0.70284447601E+02  0.91053473748E+01  0.10576778090E+03  0.12731710633E+03  0.10566000000E+00 0.  1.
         13    1    1    2    0    0 -0.41724339349E+02  0.11559349059E+02  0.23395567245E+02  0.49212831411E+02  0.10566000000E+00 0. -1.
          4    1    1    2  501    0 -0.21463754872E+02 -0.13615744396E+02  0.54422930657E+02  0.60066102337E+02  0.00000000000E+00 0.  1.
         -4    1    1    2    0  502 -0.70963533798E+01 -0.70489520377E+01  0.17990998203E+03  0.18018781199E+03  0.00000000000E+00 0. -1.
</event>
<event>
 6    1  0.5496865E-006  0.5187770E+02  0.7818608E-02  0.1284327E+00
         21   -1    0    0  501  502  0.00000000000E+00  0.00000000000E+00  0.21407821698E+03  0.21407821698E+03  0.00000000000E+00 0. -1.
         21   -1    0    0  502  503 -0.00000000000E+00 -0.00000000000E+00 -0.20004214400E+03  0.20004214400E+03  0.00000000000E+00 0.  1.
        -13    1    1    2    0    0  0.38383114965E+02 -0.48396249711E+02 -0.92009686926E+02  0.11082082003E+03  0.10566000000E+00 0.  1.
         13    1    1    2    0    0 -0.60899129496E+02  0.17495956737E+02  0.13181646917E+03  0.14625459030E+03  0.10566000000E+00 0. -1.
          4    1    1    2  501    0  0.14101214731E+02  0.21033096546E+01  0.62348898246E+02  0.63958215117E+02  0.00000000000E+00 0.  1.
         -4    1    1    2    0  503  0.84147997999E+01  0.28796983319E+02 -0.88119607506E+02  0.93086735527E+02  0.00000000000E+00 0. -1.
</event>
<event>
 6    1  0.5496865E-006  0.1447370E+03  0.7818608E-02  0.1106421E+00
         21   -1    0    0  503  502  0.00000000000E+00  0.00000000000E+00  0.38174499609E+02  0.38174499609E+02  0.00000000000E+00 0. -1.
         21   -1    0    0  501  503 -0.00000000000E+00 -0.00000000000E+00 -0.82650431604E+03  0.82650431604E+03  0.00000000000E+00 0. -1.
        -13    1    1    2    0    0  0.89703208772E+02 -0.88065041790E+02 -0.28064900236E+03  0.30751583852E+03  0.10566000000E+00 0.  1.
         13    1    1    2    0    0 -0.11546548769E+03  0.12139533053E+03 -0.43665216591E+03  0.46769031450E+03  0.10566000000E+00 0. -1.
          4    1    1    2  501    0  0.80668724867E+01 -0.25954307081E+02 -0.63141254911E+02  0.68742407286E+02  0.00000000000E+00 0.  1.
         -4    1    1    2    0  502  0.17695406432E+02 -0.73759816612E+01 -0.78873932498E+01  0.20730255342E+02  0.00000000000E+00 0. -1.
</event>
<event>
 6    1  0.5496865E-006  0.1872551E+02  0.7818608E-02  0.1528393E+00
         21   -1    0    0  501  502  0.00000000000E+00  0.00000000000E+00  0.82520762950E+01  0.82520762950E+01  0.00000000000E+00 0.  1.
         21   -1    0    0  502  503 -0.00000000000E+00 -0.00000000000E+00 -0.61254557809E+03  0.61254557809E+03  0.00000000000E+00 0. -1.
        -13    1    1    2    0    0 -0.18779915032E+02  0.21614263653E+01 -0.68366826425E+02  0.70932299357E+02  0.10566000000E+00 0.  1.
         13    1    1    2    0    0  0.20359988970E+02  0.13300852642E+02 -0.11262007640E+03  0.11521603449E+03  0.10566000000E+00 0. -1.
          4    1    1    2  501    0  0.90342927663E+01 -0.14532744038E+02 -0.74618817817E+01  0.18668121887E+02  0.00000000000E+00 0.  1.
         -4    1    1    2    0  503 -0.10614366704E+02 -0.92953496911E+00 -0.41584471719E+03  0.41598119865E+03  0.00000000000E+00 0. -1.
</event>
<event>
 6    1  0.5496865E-006  0.1221822E+03  0.7818608E-02  0.1143403E+00
         21   -1    0    0  503  502  0.00000000000E+00  0.00000000000E+00  0.40489748857E+03  0.40489748857E+03  0.00000000000E+00 0. -1.
         21   -1    0    0  501  503 -0.00000000000E+00 -0.00000000000E+00 -0.27938443494E+03  0.27938443494E+03  0.00000000000E+00 0. -1.
        -13    1    1    2    0    0  0.36616704905E+01  0.78648901340E+02  0.11025775781E+03  0.13548373273E+03  0.10566000000E+00 0.  1.
         13    1    1    2    0    0 -0.26391862794E+02  0.14755373091E+03 -0.18325951268E+03  0.23675450171E+03  0.10566000000E+00 0. -1.
          4    1    1    2  501    0  0.39751122647E+02 -0.12892839749E+03  0.76580728481E+02  0.15513636390E+03  0.00000000000E+00 0.  1.
         -4    1    1    2    0  502 -0.17020930343E+02 -0.97274234769E+02  0.12193408001E+03  0.15690732516E+03  0.00000000000E+00 0. -1.
</event>
<event>
 6    1  0.5496865E-006  0.3305017E+02  0.7818608E-02  0.1381969E+00
         21   -1    0    0  501  502  0.00000000000E+00  0.00000000000E+00  0.26066555595E+03  0.26066555595E+03  0.00000000000E+00 0. -1.
         21   -1    0    0  502  503 -0.00000000000E+00 -0.00000000000E+00 -0.24153094367E+02  0.24153094367E+02  0.00000000000E+00 0. -1.
        -13    1    1    2    0    0 -0.31292456183E+02 -0.52396523073E+01  0.40178658945E+02  0.51195776866E+02  0.10566000000E+00 0.  1.
         13    1    1    2    0    0  0.28915382254E+02  0.25461293876E+02  0.16367052334E+03  0.16814406975E+03  0.10566000000E+00 0. -1.
          4    1    1    2  501    0 -0.95354262437E+01  0.37543797514E+01  0.36968432168E+02  0.38362542902E+02  0.00000000000E+00 0.  1.
         -4    1    1    2    0  503  0.11912500173E+02 -0.23976021320E+02 -0.43051528690E+01  0.27116260803E+02  0.00000000000E+00 0. -1.
</event>
<event>
 6    1  0.5496865E-006  0.4024813E+02  0.7818608E-02  0.1337529E+00
         21   -1    0    0  503  502  0.00000000000E+00  0.00000000000E+00  0.15490937564E+03  0.15490937564E+03  0.00000000000E+00 0.  1.
         21   -1    0    0  501  503 -0.00000000000E+00 -0.00000000000E+00 -0.36679679534E+02  0.36679679534E+02  0.00000000000E+00 0. -1.
        -13    1    1    2    0    0  0.42125448674E+02  0.30147988796E+02  0.68941140543E+02  0.86234254666E+02  0.10566000000E+00 0.  1.
         13    1    1    2    0    0 -0.55466738880E+01 -0.33191075249E+02  0.55704946270E+01  0.34109450916E+02  0.10566000000E+00 0. -1.
          4    1    1    2  501    0 -0.24982612519E+02  0.25820031368E+01 -0.91084558780E+00  0.25132196644E+02  0.00000000000E+00 0.  1.
         -4    1    1    2    0  502 -0.11596162267E+02  0.46108331644E+00  0.44628906524E+02  0.46113152946E+02  0.00000000000E+00 0. -1.
</event>
<event>
 6    1  0.5496865E-006  0.1318304E+03  0.7818608E-02  0.1120554E+00
         21   -1    0    0  501  502  0.00000000000E+00  0.00000000000E+00  0.28086935724E+03  0.28086935724E+03  0.00000000000E+00 0. -1.
         21   -1    0    0  502  503 -0.00000000000E+00 -0.00000000000E+00 -0.20199706070E+03  0.20199706070E+03  0.00000000000E+00 0.  1.
        -13    1    1    2    0    0  0.14150015115E+03 -0.15834404846E+02 -0.56067685327E-01  0.14238341005E+03  0.10566000000E+00 0.  1.
         13    1    1    2    0    0 -0.14060245919E+03 -0.40607818838E+01  0.15056040266E+03  0.20604365434E+03  0.10566000000E+00 0. -1.
          4    1    1    2  501    0 -0.40508673772E+02 -0.11249137616E+02  0.54039791265E+01  0.42387483273E+02  0.00000000000E+00 0.  1.
         -4    1    1    2    0  503  0.39610981816E+02  0.31144324346E+02 -0.77036017563E+02  0.92051870276E+02  0.00000000000E+00 0. -1.
</event>
<event>
 6    1  0.5496865E-006  0.1197886E+03  0.7818608E-02  0.1135422E+00
         21   -1    0    0  503  502  0.00000000000E+00  0.00000000000E+00  0.12042021553E+04  0.12042021553E+04  0.00000000000E+00 0.  1.
         21   -1    0    0  501  503 -0.00000000000E+00 -0.00000000000E+00 -0.38285471335E+02  0.38285471335E+02  0.00000000000E+00 0. -1.
        -13    1    1    2    0    0 -0.91775543859E+02  0.30657953198E+02  0.55491930322E+03  0.56329220197E+03  0.10566000000E+00 0.  1.
         13    1    1    2    0    0  0.13493075678E+03  0.23083960150E+01  0.37555623195E+03  0.39906657632E+03  0.10566000000E+00 0. -1.
          4    1    1    2  501    0  0.29948381569E+02 -0.23530338604E+02  0.52775350745E+01  0.38450419632E+02  0.00000000000E+00 0.  1.
         -4    1    1    2    0  502 -0.73103594493E+02 -0.94360106091E+01  0.23016361370E+03  0.24167842869E+03  0.00000000000E+00 0. -1.
</event>
<event>
 6    1  0.5496865E-006  0.1609058E+03  0.7818608E-02  0.1090827E+00
         21   -1    0    0  503  502  0.00000000000E+00  0.00000000000E+00  0.11778847839E+04  0.11778847839E+04  0.00000000000E+00 0. -1.
         21   -1    0    0  501  503 -0.00000000000E+00 -0.00000000000E+00 -0.77837383607E+02  0.77837383607E+02  0.00000000000E+00 0.  1.
        -13    1    1    2    0    0  0.18100362777E+03  0.16150654627E+02  0.24176664110E+03  0.30244714715E+03  0.10566000000E+00 0.  1.
         13    1    1    2    0    0 -0.14060274918E+03 -0.24426766928E+02  0.20354242744E+03  0.24858666688E+03  0.10566000000E+00 0. -1.
          4    1    1    2  501    0 -0.20177061509E+02  0.63845060530E+01 -0.20311419453E+02  0.29333078407E+02  0.00000000000E+00 0.  1.
         -4    1    1    2    0  502 -0.20223817079E+02  0.18916062480E+01  0.67504975119E+03  0.67535527505E+03  0.00000000000E+00 0. -1.
</event>
<event>
 6    1  0.5496865E-006  0.5165926E+02  0.7818608E-02  0.1285177E+00
         21   -1    0    0  501  502  0.00000000000E+00  0.00000000000E+00  0.89794671286E+02  0.89794671286E+02  0.00000000000E+00 0. -1.
         21   -1    0    0  502  503 -0.00000000000E+00 -0.00000000000E+00 -0.14879472726E+03  0.14879472726E+03  0.00000000000E+00 0.  1.
        -13    1    1    2    0    0  0.41338243438E+01 -0.52287362137E+02 -0.77370616403E+02  0.93473419695E+02  0.10566000000E+00 0.  1.
         13    1    1    2    0    0 -0.18398347640E+02  0.63839896389E+02  0.19118831720E+02  0.69134452028E+02  0.10566000000E+00 0. -1.
          4    1    1    2  501    0  0.60957068869E+01 -0.17355094366E+02  0.34629739594E+02  0.39211934500E+02  0.00000000000E+00 0.  1.
         -4    1    1    2    0  503  0.81688164096E+01  0.58025601143E+01 -0.35378010886E+02  0.36769592323E+02  0.00000000000E+00 0. -1.
</event>
<event>
 6    1  0.5496865E-006  0.1877172E+03  0.7818608E-02  0.1068899E+00
         21   -1    0    0  501  502  0.00000000000E+00  0.00000000000E+00  0.75567795357E+02  0.75567795357E+02  0.00000000000E+00 0. -1.
         21   -1    0    0  502  503 -0.00000000000E+00 -0.00000000000E+00 -0.88348741762E+03  0.88348741762E+03  0.00000000000E+00 0.  1.
        -13    1    1    2    0    0  0.71371696933E+01  0.15342419630E+03 -0.42201198313E+03  0.44909247185E+03  0.10566000000E+00 0.  1.
         13    1    1    2    0    0 -0.67099192541E+02 -0.20184685262E+03 -0.24180460967E+03  0.32204647797E+03  0.10566000000E+00 0. -1.
          4    1    1    2  501    0  0.50394565951E+02 -0.13749319643E+02 -0.38102824074E+02  0.64656641348E+02  0.00000000000E+00 0.  1.
         -4    1    1    2    0  503  0.95674568966E+01  0.62171975961E+02 -0.10600020539E+03  0.12325962181E+03  0.00000000000E+00 0. -1.
</event>
<event>
 6    1  0.5496865E-006  0.1131336E+03  0.7818608E-02  0.1144485E+00
         21   -1    0    0  501  502  0.00000000000E+00  0.00000000000E+00  0.33542610202E+03  0.33542610202E+03  0.00000000000E+00 0. -1.
         21   -1    0    0  502  503 -0.00000000000E+00 -0.00000000000E+00 -0.86495046775E+02  0.86495046775E+02  0.00000000000E+00 0.  1.
        -13    1    1    2    0    0  0.38261731088E+02  0.12616507124E+03  0.55323711624E+02  0.14297660472E+03  0.10566000000E+00 0.  1.
         13    1    1    2    0    0  0.65522499999E+00 -0.78310889844E+02  0.16593928166E+03  0.18349082034E+03  0.10566000000E+00 0. -1.
          4    1    1    2  501    0 -0.46830218281E+02 -0.57800993373E+02  0.33357889468E+02  0.81527743553E+02  0.00000000000E+00 0.  1.
         -4    1    1    2    0  503  0.79132621930E+01  0.99468119788E+01 -0.56898275007E+01  0.13925980183E+02  0.00000000000E+00 0. -1.
</event>
<event>
 6    1  0.5496865E-006  0.1487543E+03  0.7818608E-02  0.1102347E+00
         21   -1    0    0  501  502  0.00000000000E+00  0.00000000000E+00  0.34202491664E+03  0.34202491664E+03  0.00000000000E+00 0.  1.
         21   -1    0    0  502  503 -0.00000000000E+00 -0.00000000000E+00 -0.61809343114E+03  0.61809343114E+03  0.00000000000E+00 0. -1.
        -13    1    1    2    0    0  0.24904271767E+02  0.18533709038E+03 -0.12668640413E+03  0.22587500078E+03  0.10566000000E+00 0.  1.
         13    1    1    2    0    0 -0.74362493293E+02 -0.14620011256E+03 -0.34663321194E+03  0.38348252647E+03  0.10566000000E+00 0. -1.
          4    1    1    2  501    0  0.37394529412E+02 -0.82003825020E+02  0.25922535923E+03  0.27444628804E+03  0.00000000000E+00 0.  1.
         -4    1    1    2    0  503  0.12063692114E+02  0.42866847192E+02 -0.61974257664E+02  0.76314532487E+02  0.00000000000E+00 0. -1.
</event>
<event>
 6    1  0.5496865E-006  0.2656625E+03  0.7818608E-02  0.1022581E+00
         21   -1    0    0  503  502  0.00000000000E+00  0.00000000000E+00  0.29871966808E+03  0.29871966808E+03  0.00000000000E+00 0.  1.
         21   -1    0    0  501  503 -0.00000000000E+00 -0.00000000000E+00 -0.65731095728E+03  0.65731095728E+03  0.00000000000E+00 0. -1.
        -13    1    1    2    0    0 -0.17575099738E+03 -0.18279725448E+03  0.15792798377E+03  0.29873819398E+03  0.10566000000E+00 0.  1.
         13    1    1    2    0    0  0.14030677594E+03  0.23856898854E+03 -0.46056423105E+03  0.53732725201E+03  0.10566000000E+00 0. -1.
          4    1    1    2  501    0  0.78972528449E+01 -0.17011428419E+02 -0.68307032523E+02  0.70835061879E+02  0.00000000000E+00 0.  1.
         -4    1    1    2    0  502  0.27546968597E+02 -0.38760305648E+02  0.12351990597E+02  0.49130117489E+02  0.00000000000E+00 0. -1.
</event>
<event>
 6    1  0.5496865E-006  0.5853529E+02  0.7818608E-02  0.1260474E+00
         21   -1    0    0  503  502  0.00000000000E+00  0.00000000000E+00  0.31109851082E+02  0.31109851082E+02  0.00000000000E+00 0.  1.
         21   -1    0    0  501  503 -0.00000000000E+00 -0.00000000000E+00 -0.42420649146E+03  0.42420649146E+03  0.00000000000E+00 0. -1.
        -13    1    1    2    0    0 -0.37109609683E+02  0.37230542466E+02 -0.14944869919E+03  0.15842399211E+03  0.10566000000E+00 0.  1.
         13    1    1    2    0    0  0.34883609106E+02 -0.56271721605E+02 -0.22088794295E+03  0.23059676351E+03  0.10566000000E+00 0. -1.
          4    1    1    2  501    0  0.14511425389E+02  0.18633490304E+02 -0.39202006090E+02  0.45766644068E+02  0.00000000000E+00 0.  1.
         -4    1    1    2    0  502 -0.12285424812E+02  0.40768883501E+00  0.16442007844E+02  0.20528942860E+02  0.00000000000E+00 0. -1.
</event>
<event>
 6    1  0.5496865E-006  0.5774796E+02  0.7818608E-02  0.1301638E+00
         21   -1    0    0  501  502  0.00000000000E+00  0.00000000000E+00  0.24551458848E+03  0.24551458848E+03  0.00000000000E+00 0.  1.
         21   -1    0    0  502  503 -0.00000000000E+00 -0.00000000000E+00 -0.13273612662E+03  0.13273612662E+03  0.00000000000E+00 0.  1.
        -13    1    1    2    0    0 -0.16851264756E+02 -0.17068266709E+02 -0.42134218616E+02  0.48482928900E+02  0.10566000000E+00 0.  1.
         13    1    1    2    0    0 -0.16132651907E+02  0.76269818580E+01  0.32775670118E+01  0.18143509015E+02  0.10566000000E+00 0. -1.
          4    1    1    2  501    0  0.57690683045E+02  0.19780221384E+02  0.22521238540E+03  0.23332400349E+03  0.00000000000E+00 0.  1.
         -4    1    1    2    0  503 -0.24706766382E+02 -0.10338936532E+02 -0.73577271939E+02  0.78300273688E+02  0.00000000000E+00 0. -1.
</event>
<event>
 6    1  0.5496865E-006  0.1702234E+03  0.7818608E-02  0.1082716E+00
         21   -1    0    0  501  502  0.00000000000E+00  0.00000000000E+00  0.36745010483E+03  0.36745010483E+03  0.00000000000E+00 0.  1.
         21   -1    0    0  502  503 -0.00000000000E+00 -0.00000000000E+00 -0.70860386253E+03  0.70860386253E+03  0.00000000000E+00 0.  1.
        -13    1    1    2    0    0  0.15666299831E+03 -0.29482692415E+02 -0.59990074798E+03  0.62072010019E+03  0.10566000000E+00 0.  1.
         13    1    1    2    0    0 -0.16111896820E+03 -0.28329661489E+02  0.64785420526E+02  0.17595184998E+03  0.10566000000E+00 0. -1.
          4    1    1    2  501    0 -0.82292791336E+01  0.67161363656E+02  0.23016125683E+03  0.23990117538E+03  0.00000000000E+00 0.  1.
         -4    1    1    2    0  503  0.12685249018E+02 -0.93490097524E+01 -0.36199687076E+02  0.39480841814E+02  0.00000000000E+00 0. -1.
</event>
<event>
 6    1  0.5496865E-006  0.8672943E+02  0.7818608E-02  0.1188601E+00
         21   -1    0    0  503  502  0.00000000000E+00  0.00000000000E+00  0.21222954138E+02  0.21222954138E+02  0.00000000000E+00 0.  1.
         21   -1    0    0  501  503 -0.00000000000E+00 -0.00000000000E+00 -0.70506585548E+03  0.70506585548E+03  0.00000000000E+00 0. -1.
        -13    1    1    2    0    0 -0.85917743938E+02  0.20462196626E+02 -0.34346065913E+03  0.35463473568E+03  0.10566000000E+00 0.  1.
         13    1    1    2    0    0  0.84593005666E+02 -0.18189893414E+02 -0.25703998920E+03  0.27121286113E+03  0.10566000000E+00 0. -1.
          4    1    1    2  501    0 -0.51342512687E+00  0.25519732030E+02 -0.55353678389E+02  0.60955311823E+02  0.00000000000E+00 0.  1.
         -4    1    1    2    0  502  0.18381633987E+01 -0.27792035242E+02 -0.27988574628E+02  0.39485900994E+02  0.00000000000E+00 0. -1.
</event>
<event>
 6    1  0.5496865E-006  0.1014935E+03  0.7818608E-02  0.1172621E+00
         21   -1    0    0  501  502  0.00000000000E+00  0.00000000000E+00  0.75004297945E+02  0.75004297945E+02  0.00000000000E+00 0. -1.
         21   -1    0    0  502  503 -0.00000000000E+00 -0.00000000000E+00 -0.63750445380E+03  0.63750445380E+03  0.00000000000E+00 0.  1.
        -13    1    1    2    0    0 -0.85671600055E+02  0.13920501024E+02 -0.31072072185E+03  0.32261553210E+03  0.10566000000E+00 0.  1.
         13    1    1    2    0    0  0.93451423629E+02 -0.62469281887E+02 -0.65742369203E+02  0.13022154211E+03  0.10566000000E+00 0. -1.
          4    1    1    2  501    0  0.69026053212E+02 -0.10510053055E+02 -0.29982588665E+02  0.75986925588E+02  0.00000000000E+00 0.  1.
         -4    1    1    2    0  503 -0.76805876786E+02  0.59058833918E+02 -0.15605447614E+03  0.18368475194E+03  0.00000000000E+00 0. -1.
</event>
<event>
 6    1  0.5496865E-006  0.3638511E+03  0.7818608E-02  0.1008865E+00
         21   -1    0    0  501  502  0.00000000000E+00  0.00000000000E+00  0.21454936621E+03  0.21454936621E+03  0.00000000000E+00 0. -1.
         21   -1    0    0  502  503 -0.00000000000E+00 -0.00000000000E+00 -0.15553580532E+04  0.15553580532E+04  0.00000000000E+00 0. -1.
        -13    1    1    2    0    0 -0.86678397218E+02 -0.13156304908E+03 -0.46151471993E+03  0.48766569318E+03  0.10566000000E+00 0.  1.
         13    1    1    2    0    0 -0.26440842628E+03  0.32965739944E+02  0.25933020301E+02  0.26771456554E+03  0.10566000000E+00 0. -1.
          4    1    1    2  501    0 -0.27426584477E+02 -0.25638679992E+02 -0.17325630779E+02  0.41348965280E+02  0.00000000000E+00 0.  1.
         -4    1    1    2    0  503  0.37851340798E+03  0.12423598913E+03 -0.88790135658E+03  0.97317819542E+03  0.00000000000E+00 0. -1.
</event>
<event>
 6    1  0.5496865E-006  0.3576805E+03  0.7818608E-02  0.1030418E+00
         21   -1    0    0  501  502  0.00000000000E+00  0.00000000000E+00  0.73282035513E+03  0.73282035513E+03  0.00000000000E+00 0. -1.
         21   -1    0    0  502  503 -0.00000000000E+00 -0.00000000000E+00 -0.26633056512E+03  0.26633056512E+03  0.00000000000E+00 0. -1.
        -13    1    1    2    0    0  0.21268150064E+02 -0.82438523410E+02  0.11666830444E+03  0.14442973646E+03  0.10566000000E+00 0.  1.
         13    1    1    2    0    0  0.20040834953E+03  0.31885660001E+03  0.40884123544E+02  0.37881995810E+03  0.10566000000E+00 0. -1.
          4    1    1    2  501    0  0.10065175352E+02  0.18762021061E+01  0.59359770778E+02  0.60236287038E+02  0.00000000000E+00 0.  1.
         -4    1    1    2    0  503 -0.23174167495E+03 -0.23829427871E+03  0.24957759124E+03  0.41566493865E+03  0.00000000000E+00 0. -1.
</event>
<event>
 6    1  0.5496865E-006  0.3242643E+02  0.7818608E-02  0.1439758E+00
         21   -1    0    0  503  502  0.00000000000E+00  0.00000000000E+00  0.21055705563E+03  0.21055705563E+03  0.00000000000E+00 0.  1.
         21   -1    0    0  501  503 -0.00000000000E+00 -0.00000000000E+00 -0.22210172832E+03  0.22210172832E+03  0.00000000000E+00 0. -1.
        -13    1    1    2    0    0  0.37706744144E+02 -0.36620258806E+01  0.60735838546E+02  0.71582555385E+02  0.10566000000E+00 0.  1.
         13    1    1    2    0    0  0.37536981950E+01  0.13001715087E+02 -0.71504835758E+02  0.72774223088E+02  0.10566000000E+00 0. -1.
          4    1    1    2  501    0 -0.31040135784E+02 -0.91101270193E+01 -0.14253507510E+03  0.14615995374E+03  0.00000000000E+00 0.  1.
         -4    1    1    2    0  502 -0.10420306556E+02 -0.22956218669E+00  0.14175939963E+03  0.14214205173E+03  0.00000000000E+00 0. -1.
</event>
<event>
 6    1  0.5496865E-006  0.1077563E+03  0.7818608E-02  0.1152323E+00
         21   -1    0    0  501  502  0.00000000000E+00  0.00000000000E+00  0.22781915145E+03  0.22781915145E+03  0.00000000000E+00 0. -1.
         21   -1    0    0  502  503 -0.00000000000E+00 -0.00000000000E+00 -0.20532230079E+03  0.20532230079E+03  0.00000000000E+00 0.  1.
        -13    1    1    2    0    0  0.39046533571E+01  0.12099294069E+03 -0.13226869450E+03  0.17930297467E+03  0.10566000000E+00 0.  1.
         13    1    1    2    0    0  0.48945334091E+02 -0.87182754396E+02  0.16000236317E+03  0.18867232383E+03  0.10566000000E+00 0. -1.
          4    1    1    2  501    0 -0.42268802101E+02 -0.18620811129E+02 -0.63402178924E+01  0.46621718126E+02  0.00000000000E+00 0.  1.
         -4    1    1    2    0  503 -0.10581185347E+02 -0.15189375167E+02  0.11033998839E+01  0.18544435624E+02  0.00000000000E+00 0. -1.
</event>
<event>
 6    1  0.5496865E-006  0.1535833E+03  0.7818608E-02  0.1131584E+00
         21   -1    0    0  503  502  0.00000000000E+00  0.00000000000E+00  0.99148891247E+02  0.99148891247E+02  0.00000000000E+00 0.  1.
         21   -1    0    0  501  503 -0.00000000000E+00 -0.00000000000E+00 -0.61467418287E+03  0.61467418287E+03  0.00000000000E+00 0. -1.
        -13    1    1    2    0    0 -0.37717018088E+02  0.49920428278E+02 -0.21439381187E+02  0.66138346235E+02  0.10566000000E+00 0.  1.
         13    1    1    2    0    0  0.17871019639E+03 -0.83858836303E+02 -0.26298924939E+03  0.32883581796E+03  0.10566000000E+00 0. -1.
          4    1    1    2  501    0 -0.86193232451E+01 -0.50857308725E+01 -0.16592798882E+03  0.16622952465E+03  0.00000000000E+00 0.  1.
         -4    1    1    2    0  502 -0.13237385506E+03  0.39024138897E+02 -0.65168672229E+02  0.15261938527E+03  0.00000000000E+00 0. -1.
</event>
<event>
 6    1  0.5496865E-006  0.5818236E+02  0.7818608E-02  0.1261647E+00
         21   -1    0    0  501  502  0.00000000000E+00  0.00000000000E+00  0.20153259912E+03  0.20153259912E+03  0.00000000000E+00 0. -1.
         21   -1    0    0  502  503 -0.00000000000E+00 -0.00000000000E+00 -0.58016369568E+02  0.58016369568E+02  0.00000000000E+00 0.  1.
        -13    1    1    2    0    0  0.55024533556E+02  0.24804931881E+02 -0.84466468137E+01  0.60945393141E+02  0.10566000000E+00 0.  1.
         13    1    1    2    0    0 -0.49421005880E+02 -0.51570040832E+02  0.13537305979E+03  0.15306136487E+03  0.10566000000E+00 0. -1.
          4    1    1    2  501    0  0.40242499462E+01  0.21047614959E+02  0.23953986866E+02  0.32140164435E+02  0.00000000000E+00 0.  1.
         -4    1    1    2    0  503 -0.96277776223E+01  0.57174939927E+01 -0.73641702918E+01  0.13402046246E+02  0.00000000000E+00 0. -1.
</event>
<event>
 6    1  0.5496865E-006  0.1454024E+03  0.7818608E-02  0.1105736E+00
         21   -1    0    0  503  502  0.00000000000E+00  0.00000000000E+00  0.11181470283E+04  0.11181470283E+04  0.00000000000E+00 0. -1.
         21   -1    0    0  501  503 -0.00000000000E+00 -0.00000000000E+00 -0.24006699943E+03  0.24006699943E+03  0.00000000000E+00 0.  1.
        -13    1    1    2    0    0  0.13920059552E+03  0.55198372292E+01  0.30734637509E+03  0.33744492860E+03  0.10566000000E+00 0.  1.
         13    1    1    2    0    0 -0.97682786806E+02 -0.44038645346E+02 -0.11262022507E+03  0.15544984844E+03  0.10566000000E+00 0. -1.
          4    1    1    2  501    0 -0.34751258843E+02 -0.36797647944E+02 -0.81932969866E+02  0.96305391523E+02  0.00000000000E+00 0.  1.
         -4    1    1    2    0  502 -0.67665498684E+01  0.75316456061E+02  0.76528684874E+03  0.76901385918E+03  0.00000000000E+00 0. -1.
</event>
<event>
 6    1  0.5496865E-006  0.6930979E+02  0.7818608E-02  0.1228550E+00
         21   -1    0    0  503  502  0.00000000000E+00  0.00000000000E+00  0.66923966513E+03  0.66923966513E+03  0.00000000000E+00 0.  1.
         21   -1    0    0  501  503 -0.00000000000E+00 -0.00000000000E+00 -0.13873358300E+03  0.13873358300E+03  0.00000000000E+00 0.  1.
        -13    1    1    2    0    0 -0.22998452546E+02  0.80120660285E+02  0.45131854040E+03  0.45895172414E+03  0.10566000000E+00 0.  1.
         13    1    1    2    0    0  0.37582288425E+02 -0.61940970145E+02  0.14490974892E+03  0.16201221769E+03  0.10566000000E+00 0. -1.
          4    1    1    2  501    0 -0.10936049755E+01  0.16319376160E+02 -0.12010257116E+03  0.12121116124E+03  0.00000000000E+00 0.  1.
         -4    1    1    2    0  502 -0.13490230903E+02 -0.34499066301E+02  0.54380363980E+02  0.65798145050E+02  0.00000000000E+00 0. -1.
</event>
<event>
 6    1  0.5496865E-006  0.1090022E+03  0.7818608E-02  0.1165980E+00
         21   -1    0    0  503  502  0.00000000000E+00  0.00000000000E+00  0.31267065792E+03  0.31267065792E+03  0.00000000000E+00 0. -1.
         21   -1    0    0  501  503 -0.00000000000E+00 -0.00000000000E+00 -0.39371785186E+03  0.39371785186E+03  0.00000000000E+00 0. -1.
        -13    1    1    2    0    0  0.44621589203E+02  0.12940869792E+03 -0.29553902397E+02  0.14003978589E+03  0.10566000000E+00 0.  1.
         13    1    1    2    0    0 -0.88426961479E+02 -0.26320215346E+01 -0.23432523327E+03  0.25046872292E+03  0.10566000000E+00 0. -1.
          4    1    1    2  501    0 -0.75188694934E+02  0.27198828795E+00  0.94244816267E+02  0.12056325815E+03  0.00000000000E+00 0.  1.
         -4    1    1    2    0  502  0.11899406721E+03 -0.12704866467E+03  0.88587125463E+02  0.19531674282E+03  0.00000000000E+00 0. -1.
</event>
<event>
 6    1  0.5496865E-006  0.2584296E+03  0.7818608E-02  0.1026115E+00
         21   -1    0    0  501  502  0.00000000000E+00  0.00000000000E+00  0.16129563397E+04  0.16129563397E+04  0.00000000000E+00 0. -1.
         21   -1    0    0  502  503 -0.00000000000E+00 -0.00000000000E+00 -0.20374953727E+03  0.20374953727E+03  0.00000000000E+00 0.  1.
        -13    1    1    2    0    0  0.28077421911E+02 -0.24834715777E+03 -0.77374328710E+02  0.26163228069E+03  0.10566000000E+00 0.  1.
         13    1    1    2    0    0  0.75547442800E+01  0.30880872954E+03  0.13658503548E+04  0.14003453533E+04  0.10566000000E+00 0. -1.
          4    1    1    2  501    0 -0.49122547689E+02 -0.56275809329E+02  0.11899327489E+03  0.14049694258E+03  0.00000000000E+00 0.  1.
         -4    1    1    2    0  503  0.13490381498E+02 -0.41857624442E+01  0.17375014513E+01  0.14231300414E+02  0.00000000000E+00 0. -1.
</event>
<event>
 6    1  0.5496865E-006  0.3529405E+02  0.7818608E-02  0.1366831E+00
         21   -1    0    0  503  502  0.00000000000E+00  0.00000000000E+00  0.11807827397E+03  0.11807827397E+03  0.00000000000E+00 0.  1.
         21   -1    0    0  501  503 -0.00000000000E+00 -0.00000000000E+00 -0.10973315236E+03  0.10973315236E+03  0.00000000000E+00 0.  1.
        -13    1    1    2    0    0 -0.34375186711E+02 -0.27620804706E+02  0.75935430677E+02  0.87810950969E+02  0.10566000000E+00 0.  1.
         13    1    1    2    0    0 -0.38465065371E+01  0.38974714997E+02 -0.28607994155E+02  0.48500025931E+02  0.10566000000E+00 0. -1.
          4    1    1    2  501    0  0.23052923624E+02 -0.96876256319E+01 -0.60302643568E+02  0.65281668171E+02  0.00000000000E+00 0.  1.
         -4    1    1    2    0  502  0.15168769625E+02 -0.16662846598E+01  0.21320328658E+02  0.26218781257E+02  0.00000000000E+00 0. -1.
</event>
<event>
 6    1  0.5496865E-006  0.1242564E+03  0.7818608E-02  0.1129692E+00
         21   -1    0    0  503  502  0.00000000000E+00  0.00000000000E+00  0.10228802144E+03  0.10228802144E+03  0.00000000000E+00 0.  1.
         21   -1    0    0  501  503 -0.00000000000E+00 -0.00000000000E+00 -0.85657151406E+03  0.85657151406E+03  0.00000000000E+00 0. -1.
        -13    1    1    2    0    0  0.83105409167E+02 -0.11003611118E+03 -0.19842562649E+03  0.24163442472E+03  0.10566000000E+00 0.  1.
         13    1    1    2    0    0 -0.57865742058E+02  0.90872499422E+02 -0.41056450927E+03  0.42446375898E+03  0.10566000000E+00 0. -1.
          4    1    1    2  501    0 -0.22452392233E+01  0.23381554927E+02 -0.21652301011E+03  0.21779337023E+03  0.00000000000E+00 0.  1.
         -4    1    1    2    0  502 -0.22994427886E+02 -0.42179431665E+01  0.71229653252E+02  0.74967981570E+02  0.00000000000E+00 0. -1.
</event>
<event>
 6    1  0.5496865E-006  0.1472052E+03  0.7818608E-02  0.1103901E+00
         21   -1    0    0  503  502  0.00000000000E+00  0.00000000000E+00  0.47315077556E+03  0.47315077556E+03  0.00000000000E+00 0. -1.
         21   -1    0    0  501  503 -0.00000000000E+00 -0.00000000000E+00 -0.19408072129E+04  0.19408072129E+04  0.00000000000E+00 0.  1.
        -13    1    1    2    0    0  0.89503469981E+02 -0.10148837957E+03  0.74047679472E+02  0.15425249536E+03  0.10566000000E+00 0.  1.
         13    1    1    2    0    0 -0.17078863267E+03  0.14998583261E+03 -0.93082899554E+03  0.95817907362E+03  0.10566000000E+00 0. -1.
          4    1    1    2  501    0  0.79002386962E+02 -0.38202409741E+02 -0.95410623965E+03  0.95813335074E+03  0.00000000000E+00 0.  1.
         -4    1    1    2    0  502  0.22827757267E+01 -0.10295043297E+02  0.34323111842E+03  0.34339306870E+03  0.00000000000E+00 0. -1.
</event>
<event>
 6    1  0.2381773E-005  0.6222037E+03  0.7818608E-02  0.9244185E-01
         21   -1    0    0  503  502  0.00000000000E+00  0.00000000000E+00  0.97218114562E+03  0.97218114562E+03  0.00000000000E+00 0.  1.
         21   -1    0    0  501  503 -0.00000000000E+00 -0.00000000000E+00 -0.69212605348E+03  0.69212605348E+03  0.00000000000E+00 0. -1.
        -13    1    1    2    0    0 -0.57608746117E+03 -0.17940549874E+03  0.51243428780E+03  0.79161354610E+03  0.10566000000E+00 0.  1.
         13    1    1    2    0    0  0.57862232534E+03  0.23456655968E+03 -0.27764024163E+02  0.62497689438E+03  0.10566000000E+00 0. -1.
          4    1    1    2  501    0  0.70800084441E+01  0.26308908759E+02 -0.14180152589E+03  0.14439514515E+03  0.00000000000E+00 0.  1.
         -4    1    1    2    0  502 -0.96148726151E+01 -0.81469969692E+02 -0.62813645599E+02  0.10332161347E+03  0.00000000000E+00 0. -1.
</event>
<event>
 6    1  0.5496865E-006  0.1648989E+03  0.7818608E-02  0.1087281E+00
         21   -1    0    0  503  502  0.00000000000E+00  0.00000000000E+00  0.21149994997E+03  0.21149994997E+03  0.00000000000E+00 0.  1.
         21   -1    0    0  501  503 -0.00000000000E+00 -0.00000000000E+00 -0.24832363331E+03  0.24832363331E+03  0.00000000000E+00 0. -1.
        -13    1    1    2    0    0  0.15461542528E+03  0.68415325654E+02  0.47880567177E+02  0.17572463230E+03  0.10566000000E+00 0.  1.
         13    1    1    2    0    0 -0.14401979680E+03 -0.66525696740E+02  0.14917344784E+01  0.15864931968E+03  0.10566000000E+00 0. -1.
          4    1    1    2  501    0 -0.10004354210E+02 -0.18886927133E+02 -0.10079469876E+03  0.10303579193E+03  0.00000000000E+00 0.  1.
         -4    1    1    2    0  502 -0.59127426705E+00  0.16997298219E+02  0.14598713760E+02  0.22413839373E+02  0.00000000000E+00 0. -1.
</event>
<event>
 6    1  0.5496865E-006  0.3068487E+02  0.7818608E-02  0.1412724E+00
         21   -1    0    0  503  502  0.00000000000E+00  0.00000000000E+00  0.25101733331E+03  0.25101733331E+03  0.00000000000E+00 0.  1.
         21   -1    0    0  501  503 -0.00000000000E+00 -0.00000000000E+00 -0.61974316342E+02  0.61974316342E+02  0.00000000000E+00 0.  1.
        -13    1    1    2    0    0  0.19126703322E+02 -0.12906618520E+02  0.72663595371E+02  0.76239234243E+02  0.10566000000E+00 0.  1.
         13    1    1    2    0    0 -0.62810221870E+02 -0.90607282577E+01  0.84346178226E+02  0.10555335008E+03  0.10566000000E+00 0. -1.
          4    1    1    2  501    0  0.21269401587E+02  0.11001285223E+02 -0.44591126327E+02  0.50614071833E+02  0.00000000000E+00 0.  1.
         -4    1    1    2    0  502  0.22414116961E+02  0.10966061555E+02  0.76624369701E+02  0.80584993499E+02  0.00000000000E+00 0. -1.
</event>
<event>
 6    1  0.5496865E-006  0.2722982E+02  0.7818608E-02  0.1439601E+00
         21   -1    0    0  501  502  0.00000000000E+00  0.00000000000E+00  0.15742317871E+03  0.15742317871E+03  0.00000000000E+00 0. -1.
         21   -1    0    0  502  503 -0.00000000000E+00 -0.00000000000E+00 -0.47845717137E+02  0.47845717137E+02  0.00000000000E+00 0.  1.
        -13    1    1    2    0    0  0.12546015217E+02 -0.20210833651E+01 -0.30444001385E+02  0.32989932709E+02  0.10566000000E+00 0.  1.
         13    1    1    2    0    0 -0.16346084276E+02  0.15758624956E+02  0.73014539333E+02  0.76463473958E+02  0.10566000000E+00 0. -1.
          4    1    1    2  501    0 -0.67002563248E+01 -0.28915263790E+02  0.70980704229E+02  0.76936638136E+02  0.00000000000E+00 0.  1.
         -4    1    1    2    0  503  0.10500325384E+02  0.15177722199E+02 -0.39737806082E+01  0.18878851041E+02  0.00000000000E+00 0. -1.
</event>
<event>
 6    1  0.5496865E-006  0.1304854E+03  0.7818608E-02  0.1146678E+00
         21   -1    0    0  501  502  0.00000000000E+00  0.00000000000E+00  0.35808358022E+03  0.35808358022E+03  0.00000000000E+00 0. -1.
         21   -1    0    0  502  503 -0.00000000000E+00 -0.00000000000E+00 -0.16637304214E+03  0.16637304214E+03  0.00000000000E+00 0. -1.
        -13    1    1    2    0    0 -0.69762483489E+02  0.25444626816E+01 -0.24595248188E+02  0.74014970042E+02  0.10566000000E+00 0.  1.
         13    1    1    2    0    0  0.20212994003E+02 -0.13980691962E+03  0.18180441547E+03  0.23023335238E+03  0.10566000000E+00 0. -1.
          4    1    1    2  501    0  0.74276853112E+00  0.15118919491E+02  0.79700497215E+02  0.81125228431E+02  0.00000000000E+00 0.  1.
         -4    1    1    2    0  503  0.48806720954E+02  0.12214353745E+03 -0.45199126411E+02  0.13908307151E+03  0.00000000000E+00 0. -1.
</event>
<event>
 6    1  0.5496865E-006  0.4962919E+02  0.7818608E-02  0.1298120E+00
         21   -1    0    0  501  502  0.00000000000E+00  0.00000000000E+00  0.60135867498E+03  0.60135867498E+03  0.00000000000E+00 0.  1.
         21   -1    0    0  502  503 -0.00000000000E+00 -0.00000000000E+00 -0.78022241596E+02  0.78022241596E+02  0.00000000000E+00 0.  1.
        -13    1    1    2    0    0  0.54680403537E+02  0.24577526448E+02 -0.28311612606E+02  0.66299018919E+02  0.10566000000E+00 0.  1.
         13    1    1    2    0    0 -0.70826868567E+02 -0.27711118037E+02  0.24977828588E+03  0.26110065997E+03  0.10566000000E+00 0. -1.
          4    1    1    2  501    0  0.29189065809E+02  0.45234800380E+02  0.30314452647E+03  0.30788762992E+03  0.00000000000E+00 0.  1.
         -4    1    1    2    0  503 -0.13042600779E+02 -0.42101208792E+02 -0.12747663628E+01  0.44093607769E+02  0.00000000000E+00 0. -1.
</event>
<event>
 6    1  0.5496865E-006  0.3115117E+03  0.7818608E-02  0.1002663E+00
         21   -1    0    0  503  502  0.00000000000E+00  0.00000000000E+00  0.29858626013E+03  0.29858626013E+03  0.00000000000E+00 0.  1.
         21   -1    0    0  501  503 -0.00000000000E+00 -0.00000000000E+00 -0.61155823849E+03  0.61155823849E+03  0.00000000000E+00 0.  1.
        -13    1    1    2    0    0  0.33166323713E+03 -0.11512548931E+03 -0.52375295415E+02  0.35496135548E+03  0.10566000000E+00 0.  1.
         13    1    1    2    0    0 -0.27637115274E+03  0.45669983887E+02 -0.15843231710E+02  0.28056689158E+03  0.10566000000E+00 0. -1.
          4    1    1    2  501    0 -0.65238741506E+02  0.84143222445E+02 -0.21632952528E+03  0.24111125811E+03  0.00000000000E+00 0.  1.
         -4    1    1    2    0  502  0.99466571184E+01 -0.14687717025E+02 -0.28423925953E+02  0.33504993446E+02  0.00000000000E+00 0. -1.
</event>
<event>
 6    1  0.5496865E-006  0.3744158E+02  0.7818608E-02  0.1392609E+00
         21   -1    0    0  503  502  0.00000000000E+00  0.00000000000E+00  0.42730293626E+02  0.42730293626E+02  0.00000000000E+00 0.  1.
         21   -1    0    0  501  503 -0.00000000000E+00 -0.00000000000E+00 -0.22236126771E+03  0.22236126771E+03  0.00000000000E+00 0. -1.
        -13    1    1    2    0    0 -0.25437755180E+01  0.54193325947E+02  0.12156019720E+02  0.55598267514E+02  0.10566000000E+00 0.  1.
         13    1    1    2    0    0  0.72977005265E+01  0.10595232803E+02 -0.54761087319E+02  0.56252139866E+02  0.10566000000E+00 0. -1.
          4    1    1    2  501    0  0.59286649497E+01 -0.13160322027E+02 -0.44086691163E+02  0.46389432866E+02  0.00000000000E+00 0.  1.
         -4    1    1    2    0  502 -0.10682589958E+02 -0.51628236723E+02 -0.92939215324E+02  0.10685172109E+03  0.00000000000E+00 0. -1.
</event>
<event>
 6    1  0.5496865E-006  0.8331486E+02  0.7818608E-02  0.1195568E+00
         21   -1    0    0  503  502  0.00000000000E+00  0.00000000000E+00  0.62382284460E+03  0.62382284460E+03  0.00000000000E+00 0.  1.
         21   -1    0    0  501  503 -0.00000000000E+00 -0.00000000000E+00 -0.46442008388E+02  0.46442008388E+02  0.00000000000E+00 0. -1.
        -13    1    1    2    0    0  0.70631404112E+02  0.53058568533E+02  0.41472874975E+03  0.42403296332E+03  0.10566000000E+00 0.  1.
         13    1    1    2    0    0 -0.62692691696E+02  0.60377844690E+01 -0.55331204688E+01  0.63225430165E+02  0.10566000000E+00 0. -1.
          4    1    1    2  501    0 -0.13333880666E+02 -0.50198298726E+02  0.88273462919E+02  0.10242004601E+03  0.00000000000E+00 0.  1.
         -4    1    1    2    0  502  0.53951682501E+01 -0.88980542755E+01  0.79911744012E+02  0.80586413504E+02  0.00000000000E+00 0. -1.
</event>
<event>
 6    1  0.5496865E-006  0.2263834E+03  0.7818608E-02  0.1054490E+00
         21   -1    0    0  501  502  0.00000000000E+00  0.00000000000E+00  0.19605083499E+03  0.19605083499E+03  0.00000000000E+00 0.  1.
         21   -1    0    0  502  503 -0.00000000000E+00 -0.00000000000E+00 -0.19987414013E+04  0.19987414013E+04  0.00000000000E+00 0.  1.
        -13    1    1    2    0    0 -0.28516841377E+03  0.20365309165E+03 -0.38786433781E+03  0.52271824309E+03  0.10566000000E+00 0.  1.
         13    1    1    2    0    0  0.87498507501E+02 -0.17732180082E+03 -0.11542997548E+04  0.11711135491E+04  0.10566000000E+00 0. -1.
          4    1    1    2  501    0  0.17496812044E+03 -0.10163052714E+03  0.25844137863E+02  0.20398658456E+03  0.00000000000E+00 0.  1.
         -4    1    1    2    0  503  0.22701785826E+02  0.75299236315E+02 -0.28637061159E+03  0.29697385954E+03  0.00000000000E+00 0. -1.
</event>
<event>
 6    1  0.5496865E-006  0.9305666E+02  0.7818608E-02  0.1186235E+00
         21   -1    0    0  501  502  0.00000000000E+00  0.00000000000E+00  0.84729062545E+02  0.84729062545E+02  0.00000000000E+00 0. -1.
         21   -1    0    0  502  503 -0.00000000000E+00 -0.00000000000E+00 -0.37452199861E+03  0.37452199861E+03  0.00000000000E+00 0.  1.
        -13    1    1    2    0    0  0.22659315717E+02 -0.69097722283E+02 -0.51478577911E+02  0.89095426152E+02  0.10566000000E+00 0.  1.
         13    1    1    2    0    0 -0.12420150830E+03  0.82889413407E+02 -0.62259389593E+02  0.16178044466E+03  0.10566000000E+00 0. -1.
          4    1    1    2  501    0  0.18930290267E+02  0.33154002696E+00 -0.79467059487E+01  0.20533288676E+02  0.00000000000E+00 0.  1.
         -4    1    1    2    0  503  0.82611902315E+02 -0.14123231151E+02 -0.16810826262E+03  0.18784190167E+03  0.00000000000E+00 0. -1.
</event>
<event>
 6    1  0.5496865E-006  0.2462523E+03  0.7818608E-02  0.1032353E+00
         21   -1    0    0  501  502  0.00000000000E+00  0.00000000000E+00  0.76548381114E+03  0.76548381114E+03  0.00000000000E+00 0.  1.
         21   -1    0    0  502  503 -0.00000000000E+00 -0.00000000000E+00 -0.49285826862E+03  0.49285826862E+03  0.00000000000E+00 0. -1.
        -13    1    1    2    0    0  0.17526971041E+03  0.16321403513E+03 -0.10249268476E+03  0.26050538237E+03  0.10566000000E+00 0.  1.
         13    1    1    2    0    0 -0.25435538607E+03 -0.32185283125E+02  0.46614568986E+02  0.26058680719E+03  0.10566000000E+00 0. -1.
          4    1    1    2  501    0 -0.55207346346E+02 -0.50278081506E+01  0.48951074123E+03  0.49263972203E+03  0.00000000000E+00 0.  1.
         -4    1    1    2    0  503  0.13429302201E+03 -0.12600094386E+03 -0.16100708293E+03  0.24461016816E+03  0.00000000000E+00 0. -1.
</event>
<event>
 6    1  0.5496865E-006  0.4238926E+02  0.7818608E-02  0.1326311E+00
         21   -1    0    0  503  502  0.00000000000E+00  0.00000000000E+00  0.90843344155E+01  0.90843344155E+01  0.00000000000E+00 0.  1.
         21   -1    0    0  501  503 -0.00000000000E+00 -0.00000000000E+00 -0.80203639356E+03  0.80203639356E+03  0.00000000000E+00 0. -1.
        -13    1    1    2    0    0  0.30434252103E+02 -0.30771747767E+02 -0.73502840683E+02  0.85298434418E+02  0.10566000000E+00 0.  1.
         13    1    1    2    0    0 -0.14193506768E+02  0.50701873177E+02 -0.30697708511E+03  0.31145959212E+03  0.10566000000E+00 0. -1.
          4    1    1    2  501    0  0.20172669073E+01 -0.16999344900E+02 -0.28974710989E+03  0.29025236395E+03  0.00000000000E+00 0.  1.
         -4    1    1    2    0  502 -0.18258012242E+02 -0.29307805099E+01 -0.12272502346E+03  0.12411033748E+03  0.00000000000E+00 0. -1.
</event>
<event>
 6    1  0.5496865E-006  0.5582399E+02  0.7818608E-02  0.1289950E+00
         21   -1    0    0  503  502  0.00000000000E+00  0.00000000000E+00  0.31909754499E+03  0.31909754499E+03  0.00000000000E+00 0.  1.
         21   -1    0    0  501  503 -0.00000000000E+00 -0.00000000000E+00 -0.71439845322E+02  0.71439845322E+02  0.00000000000E+00 0.  1.
        -13    1    1    2    0    0  0.61936712923E+02 -0.30485382965E+01  0.12136306908E+03  0.13628813483E+03  0.10566000000E+00 0.  1.
         13    1    1    2    0    0  0.61329223711E+01 -0.51718194934E+02 -0.11457240401E+02  0.53326015656E+02  0.10566000000E+00 0. -1.
          4    1    1    2  501    0 -0.21600745840E+02  0.30347564271E+02 -0.14425857995E+02  0.39945866581E+02  0.00000000000E+00 0.  1.
         -4    1    1    2    0  502 -0.46468889454E+02  0.24419168960E+02  0.15217772898E+03  0.16097737325E+03  0.00000000000E+00 0. -1.
</event>
<event>
 6    1  0.5496865E-006  0.2017645E+03  0.7818608E-02  0.1087897E+00
         21   -1    0    0  501  502  0.00000000000E+00  0.00000000000E+00  0.60070124159E+02  0.60070124159E+02  0.00000000000E+00 0.  1.
         21   -1    0    0  502  503 -0.00000000000E+00 -0.00000000000E+00 -0.19667718508E+04  0.19667718508E+04  0.00000000000E+00 0. -1.
        -13    1    1    2    0    0 -0.15584498812E+03  0.15314708085E+03 -0.45924417184E+03  0.50857340594E+03  0.10566000000E+00 0.  1.
         13    1    1    2    0    0  0.21916127056E+02 -0.63702190379E+02 -0.23479490975E+03  0.24426818559E+03  0.10566000000E+00 0. -1.
          4    1    1    2  501    0  0.20308381883E+03 -0.34227829463E+02 -0.34469861849E+03  0.40153669742E+03  0.00000000000E+00 0.  1.
         -4    1    1    2    0  503 -0.69154957765E+02 -0.55217061007E+02 -0.86796402651E+03  0.87246368597E+03  0.00000000000E+00 0. -1.
</event>
<event>
 6    1  0.5496865E-006  0.2638987E+02  0.7818608E-02  0.1436480E+00
         21   -1    0    0  501  502  0.00000000000E+00  0.00000000000E+00  0.58674949421E+03  0.58674949421E+03  0.00000000000E+00 0.  1.
         21   -1    0    0  502  503 -0.00000000000E+00 -0.00000000000E+00 -0.87174546399E+01  0.87174546399E+01  0.00000000000E+00 0.  1.
        -13    1    1    2    0    0 -0.15186066469E+02 -0.12675690485E+02  0.16381790804E+02  0.25683924506E+02  0.10566000000E+00 0.  1.
         13    1    1    2    0    0  0.19963279549E+02  0.30385578707E+02  0.12558706168E+03  0.13074378436E+03  0.10566000000E+00 0. -1.
          4    1    1    2  501    0 -0.80140951749E+01 -0.73707106448E+01  0.41677046822E+03  0.41691267225E+03  0.00000000000E+00 0.  1.
         -4    1    1    2    0  503  0.32368820948E+01 -0.10339177576E+02  0.19292718866E+02  0.22126567739E+02  0.00000000000E+00 0. -1.
</event>
<event>
 6    1  0.5496865E-006  0.7271164E+02  0.7818608E-02  0.1219787E+00
         21   -1    0    0  501  502  0.00000000000E+00  0.00000000000E+00  0.37682211397E+03  0.37682211397E+03  0.00000000000E+00 0. -1.
         21   -1    0    0  502  503 -0.00000000000E+00 -0.00000000000E+00 -0.27406371424E+03  0.27406371424E+03  0.00000000000E+00 0. -1.
        -13    1    1    2    0    0 -0.19580299496E+02  0.44838998812E+02  0.22950937298E+02  0.54043321786E+02  0.10566000000E+00 0.  1.
         13    1    1    2    0    0  0.70910903349E+02 -0.65906816915E+02  0.27495404256E+03  0.29149923056E+03  0.10566000000E+00 0. -1.
          4    1    1    2  501    0 -0.23811556328E+01  0.18568689531E+02  0.51019238570E+02  0.54345458295E+02  0.00000000000E+00 0.  1.
         -4    1    1    2    0  503 -0.48949448221E+02  0.24991285711E+01 -0.24616581870E+03  0.25099781757E+03  0.00000000000E+00 0. -1.
</event>
<event>
 6    1  0.5496865E-006  0.2233037E+03  0.7818608E-02  0.1059263E+00
         21   -1    0    0  503  502  0.00000000000E+00  0.00000000000E+00  0.24053655577E+03  0.24053655577E+03  0.00000000000E+00 0. -1.
         21   -1    0    0  501  503 -0.00000000000E+00 -0.00000000000E+00 -0.52814308852E+03  0.52814308852E+03  0.00000000000E+00 0. -1.
        -13    1    1    2    0    0  0.10571597954E+03 -0.10557142980E+03  0.12738799914E+02  0.14994493426E+03  0.10566000000E+00 0.  1.
         13    1    1    2    0    0 -0.23906667857E+03 -0.90458382045E+02 -0.13848199988E+03  0.29071097526E+03  0.10566000000E+00 0. -1.
          4    1    1    2  501    0  0.38738814437E+01  0.21775049547E+02 -0.99818629434E+02  0.10223951546E+03  0.00000000000E+00 0.  1.
         -4    1    1    2    0  502  0.12947681758E+03  0.17425476230E+03 -0.62044703350E+02  0.22578421931E+03  0.00000000000E+00 0. -1.
</event>
<event>
 6    1  0.5496865E-006  0.6836994E+02  0.7818608E-02  0.1231071E+00
         21   -1    0    0  503  502  0.00000000000E+00  0.00000000000E+00  0.11020509218E+03  0.11020509218E+03  0.00000000000E+00 0.  1.
         21   -1    0    0  501  503 -0.00000000000E+00 -0.00000000000E+00 -0.31338915088E+03  0.31338915088E+03  0.00000000000E+00 0. -1.
        -13    1    1    2    0    0 -0.49221154239E+02  0.27006280945E+01  0.92918437561E+02  0.10518489730E+03  0.10566000000E+00 0.  1.
         13    1    1    2    0    0  0.49828843250E+02 -0.13912224019E+02 -0.14526648880E+03  0.15420385056E+03  0.10566000000E+00 0. -1.
          4    1    1    2  501    0  0.24164392242E+02 -0.36940628222E+01 -0.11778167979E+03  0.12029167904E+03  0.00000000000E+00 0.  1.
         -4    1    1    2    0  502 -0.24772081253E+02  0.14905658747E+02 -0.33054327670E+02  0.43913816163E+02  0.00000000000E+00 0. -1.
</event>
<event>
 6    1  0.5496865E-006  0.3965644E+02  0.7818608E-02  0.1340769E+00
         21   -1    0    0  501  502  0.00000000000E+00  0.00000000000E+00  0.35539193141E+02  0.35539193141E+02  0.00000000000E+00 0. -1.
         21   -1    0    0  502  503 -0.00000000000E+00 -0.00000000000E+00 -0.14996498011E+03  0.14996498011E+03  0.00000000000E+00 0. -1.
        -13    1    1    2    0    0 -0.10227448862E+02 -0.20554558088E+02 -0.92934816782E+02  0.95728689026E+02  0.10566000000E+00 0.  1.
         13    1    1    2    0    0  0.38074854580E+02  0.34549437432E+02 -0.63825296019E+01  0.51808358653E+02  0.10566000000E+00 0. -1.
          4    1    1    2  501    0 -0.14542823014E+02  0.12507732244E+01 -0.62438532958E+01  0.15875888601E+02  0.00000000000E+00 0.  1.
         -4    1    1    2    0  503 -0.13304582704E+02 -0.15245652568E+02 -0.88645872935E+01  0.22091236974E+02  0.00000000000E+00 0. -1.
</event>
<event>
 6    1  0.5496865E-006  0.1040654E+03  0.7818608E-02  0.1157999E+00
         21   -1    0    0  503  502  0.00000000000E+00  0.00000000000E+00  0.72213671294E+02  0.72213671294E+02  0.00000000000E+00 0.  1.
         21   -1    0    0  501  503 -0.00000000000E+00 -0.00000000000E+00 -0.61952305270E+03  0.61952305270E+03  0.00000000000E+00 0. -1.
        -13    1    1    2    0    0 -0.14156703266E+02 -0.10974202096E+03  0.44056471202E+01  0.11073908209E+03  0.10566000000E+00 0.  1.
         13    1    1    2    0    0 -0.11872872735E+02  0.11059615907E+03 -0.36478757572E+03  0.38136919392E+03  0.10566000000E+00 0. -1.
          4    1    1    2  501    0 -0.72655678657E+01 -0.10791388375E+02 -0.14313933091E+03  0.14372929622E+03  0.00000000000E+00 0.  1.
         -4    1    1    2    0  502  0.33295143867E+02  0.99372502646E+01 -0.43788121897E+02  0.55899151757E+02  0.00000000000E+00 0. -1.
</event>
<event>
 6    1  0.5496865E-006  0.2108249E+03  0.7818608E-02  0.1052958E+00
         21   -1    0    0  503  502  0.00000000000E+00  0.00000000000E+00  0.13780020111E+04  0.13780020111E+04  0.00000000000E+00 0.  1.
         21   -1    0    0  501  503 -0.00000000000E+00 -0.00000000000E+00 -0.73005332758E+02  0.73005332758E+02  0.00000000000E+00 0. -1.
        -13    1    1    2    0    0 -0.21317045064E+03  0.87272624467E+02  0.77159876103E+03  0.80524704979E+03  0.10566000000E+00 0.  1.
         13    1    1    2    0    0  0.17368195917E+03 -0.39907429428E+02  0.20837779297E+03  0.27418851477E+03  0.10566000000E+00 0. -1.
          4    1    1    2  501    0  0.39230808212E+02 -0.35863160321E+02  0.73096731965E+01  0.53653088480E+02  0.00000000000E+00 0.  1.
         -4    1    1    2    0  502  0.25768325086E+00 -0.11502034718E+02  0.31771045113E+03  0.31791869080E+03  0.00000000000E+00 0. -1.
</event>
<event>
 6    1  0.5496865E-006  0.6421180E+02  0.7818608E-02  0.1242785E+00
         21   -1    0    0  503  502  0.00000000000E+00  0.00000000000E+00  0.25656768507E+03  0.25656768507E+03  0.00000000000E+00 0.  1.
         21   -1    0    0  501  503 -0.00000000000E+00 -0.00000000000E+00 -0.91731849665E+02  0.91731849665E+02  0.00000000000E+00 0. -1.
        -13    1    1    2    0    0  0.18545094270E+02  0.63535617075E+02  0.18174554498E+03  0.19342220515E+03  0.10566000000E+00 0.  1.
         13    1    1    2    0    0 -0.23002428933E+02 -0.66860392981E+02 -0.34826114121E+02  0.78818102459E+02  0.10566000000E+00 0. -1.
          4    1    1    2  501    0 -0.55741221726E+01  0.10359221864E+02 -0.27026774677E+02  0.29475937051E+02  0.00000000000E+00 0.  1.
         -4    1    1    2    0  502  0.10031456837E+02 -0.70344459577E+01  0.44943179218E+02  0.46583290078E+02  0.00000000000E+00 0. -1.
</event>
<event>
 6    1  0.5496865E-006  0.1437518E+03  0.7818608E-02  0.1107442E+00
         21   -1    0    0  503  502  0.00000000000E+00  0.00000000000E+00  0.89032362465E+03  0.89032362465E+03  0.00000000000E+00 0.  1.
         21   -1    0    0  501  503 -0.00000000000E+00 -0.00000000000E+00 -0.78577731616E+02  0.78577731616E+02  0.00000000000E+00 0. -1.
        -13    1    1    2    0    0  0.86090473886E+02 -0.12742762668E+03  0.43543736589E+03  0.46179549641E+03  0.10566000000E+00 0.  1.
         13    1    1    2    0    0 -0.16308133187E+03  0.78249829073E+02  0.10760275449E+03  0.21046833608E+03  0.10566000000E+00 0. -1.
          4    1    1    2  501    0  0.57318378183E+02 -0.78217518376E+01  0.81382017181E+02  0.99847929372E+02  0.00000000000E+00 0.  1.
         -4    1    1    2    0  502  0.19672479802E+02  0.56999549441E+02  0.18732375547E+03  0.19678959440E+03  0.00000000000E+00 0. -1.
</event>
<event>
 6    1  0.5496865E-006  0.1360935E+03  0.7818608E-02  0.1115699E+00
         21   -1    0    0  501  502  0.00000000000E+00  0.00000000000E+00  0.21479012104E+03  0.21479012104E+03  0.00000000000E+00 0. -1.
         21   -1    0    0  502  503 -0.00000000000E+00 -0.00000000000E+00 -0.67214007225E+03  0.67214007225E+03  0.00000000000E+00 0. -1.
        -13    1    1    2    0    0  0.77058544736E+02 -0.11656952150E+03 -0.12745883527E+03  0.18913550305E+03  0.10566000000E+00 0.  1.
         13    1    1    2    0    0 -0.87618600096E+02  0.11617282260E+03  0.95921925764E+02  0.17428187169E+03  0.10566000000E+00 0. -1.
          4    1    1    2  501    0 -0.29949635023E+01 -0.19100698557E+02  0.46626899421E+02  0.50476472156E+02  0.00000000000E+00 0.  1.
         -4    1    1    2    0  503  0.13555018862E+02  0.19497397462E+02 -0.47243994112E+03  0.47303634640E+03  0.00000000000E+00 0. -1.
</event>
<event>
 6    1  0.5496865E-006  0.7865269E+02  0.7818608E-02  0.1205696E+00
         21   -1    0    0  501  502  0.00000000000E+00  0.00000000000E+00  0.91037820132E+02  0.91037820132E+02  0.00000000000E+00 0.  1.
         21   -1    0    0  502  503 -0.00000000000E+00 -0.00000000000E+00 -0.34067065898E+03  0.34067065898E+03  0.00000000000E+00 0.  1.
        -13    1    1    2    0    0  0.42772691115E+02 -0.95517085606E+02 -0.50599940166E+02  0.11624707247E+03  0.10566000000E+00 0.  1.
         13    1    1    2    0    0 -0.82283797332E+02  0.16820399998E+01 -0.82361762651E+02  0.11643420319E+03  0.10566000000E+00 0. -1.
          4    1    1    2  501    0  0.19081145694E+02  0.44245049405E+02  0.20029717191E+02  0.52181453493E+02  0.00000000000E+00 0.  1.
         -4    1    1    2    0  503  0.20429960523E+02  0.49589996201E+02 -0.13670085322E+03  0.14684574996E+03  0.00000000000E+00 0. -1.
</event>
<event>
 6    1  0.5496865E-006  0.6391166E+02  0.7818608E-02  0.1243669E+00
         21   -1    0    0  501  502  0.00000000000E+00  0.00000000000E+00  0.25260423366E+03  0.25260423366E+03  0.00000000000E+00 0. -1.
         21   -1    0    0  502  503 -0.00000000000E+00 -0.00000000000E+00 -0.28385202432E+03  0.28385202432E+03  0.00000000000E+00 0. -1.
        -13    1    1    2    0    0 -0.53422875995E+02 -0.57725031117E+01 -0.25789760375E+01  0.53795796799E+02  0.10566000000E+00 0.  1.
         13    1    1    2    0    0  0.79724573752E+02 -0.90277351229E+01  0.91937524750E+02  0.12202469948E+03  0.10566000000E+00 0. -1.
          4    1    1    2  501    0 -0.16620205221E+02  0.21598132217E+02  0.11831935901E+03  0.12141738447E+03  0.00000000000E+00 0.  1.
         -4    1    1    2    0  503 -0.96814925355E+01 -0.67978939822E+01 -0.23892569838E+03  0.23921837723E+03  0.00000000000E+00 0. -1.
</event>
<event>
 6    1  0.5496865E-006  0.1999259E+03  0.7818608E-02  0.1060796E+00
         21   -1    0    0  501  502  0.00000000000E+00  0.00000000000E+00  0.35281486402E+03  0.35281486402E+03  0.00000000000E+00 0. -1.
         21   -1    0    0  502  503 -0.00000000000E+00 -0.00000000000E+00 -0.90195580997E+03  0.90195580997E+03  0.00000000000E+00 0. -1.
        -13    1    1    2    0    0 -0.18662896087E+03  0.97754140618E+02  0.36545867815E+02  0.21382668838E+03  0.10566000000E+00 0.  1.
         13    1    1    2    0    0  0.20770261072E+03  0.10997206179E+03  0.98366873786E+02  0.25477496325E+03  0.10566000000E+00 0. -1.
          4    1    1    2  501    0  0.36186589486E+02 -0.19443603333E+03 -0.14829889631E+03  0.24719911602E+03  0.00000000000E+00 0.  1.
         -4    1    1    2    0  503 -0.57260239332E+02 -0.13290169083E+02 -0.53575479124E+03  0.53896990634E+03  0.00000000000E+00 0. -1.
</event>
<event>
 6    1  0.5496865E-006  0.2113924E+02  0.7818608E-02  0.1497525E+00
         21   -1    0    0  503  502  0.00000000000E+00  0.00000000000E+00  0.11451583582E+03  0.11451583582E+03  0.00000000000E+00 0.  1.
         21   -1    0    0  501  503 -0.00000000000E+00 -0.00000000000E+00 -0.27630161267E+02  0.27630161267E+02  0.00000000000E+00 0. -1.
        -13    1    1    2    0    0  0.15073138374E+02  0.26570368056E+02  0.46277515937E+02  0.55450911665E+02  0.10566000000E+00 0.  1.
         13    1    1    2    0    0 -0.11337898687E+02 -0.21332268511E+02 -0.10462811462E+01  0.24180973817E+02  0.10566000000E+00 0. -1.
          4    1    1    2  501    0  0.49870617910E+01  0.19629007080E+02  0.18729266221E+02  0.27585396815E+02  0.00000000000E+00 0.  1.
         -4    1    1    2    0  502 -0.87223014786E+01 -0.24867106625E+02  0.22925173540E+02  0.34928714789E+02  0.00000000000E+00 0. -1.
</event>
<event>
 6    1  0.5496865E-006  0.9663241E+02  0.7818608E-02  0.1170251E+00
         21   -1    0    0  501  502  0.00000000000E+00  0.00000000000E+00  0.24271559217E+03  0.24271559217E+03  0.00000000000E+00 0. -1.
         21   -1    0    0  502  503 -0.00000000000E+00 -0.00000000000E+00 -0.96621038658E+02  0.96621038658E+02  0.00000000000E+00 0.  1.
        -13    1    1    2    0    0 -0.64904908444E+02 -0.10188534097E+03  0.71419965704E+02  0.14033564233E+03  0.10566000000E+00 0.  1.
         13    1    1    2    0    0  0.78054680555E+02  0.25523764366E+02  0.59649732921E+01  0.82338252195E+02  0.10566000000E+00 0. -1.
          4    1    1    2  501    0 -0.25512854464E+02  0.28669180881E+02  0.52018925683E+02  0.64643609928E+02  0.00000000000E+00 0.  1.
         -4    1    1    2    0  503  0.12363082352E+02  0.47692395721E+02  0.16690688837E+02  0.52019126374E+02  0.00000000000E+00 0. -1.
</event>
<event>
 6    1  0.5496865E-006  0.1700573E+03  0.7818608E-02  0.1082856E+00
         21   -1    0    0  503  502  0.00000000000E+00  0.00000000000E+00  0.21863768420E+03  0.21863768420E+03  0.00000000000E+00 0.  1.
         21   -1    0    0  501  503 -0.00000000000E+00 -0.00000000000E+00 -0.28659588833E+03  0.28659588833E+03  0.00000000000E+00 0. -1.
        -13    1    1    2    0    0  0.10644656215E+03  0.15827081414E+03  0.69149771058E+02  0.20288475351E+03  0.10566000000E+00 0.  1.
         13    1    1    2    0    0 -0.49952581673E+02 -0.13975608727E+03 -0.12539334769E+03  0.19429494886E+03  0.10566000000E+00 0. -1.
          4    1    1    2  501    0  0.52916927516E+01 -0.33284849043E+02 -0.26447788081E+02  0.42841203092E+02  0.00000000000E+00 0.  1.
         -4    1    1    2    0  502 -0.61785673233E+02  0.14770122168E+02  0.14733160573E+02  0.65212667068E+02  0.00000000000E+00 0. -1.
</event>
<event>
 6    1  0.5496865E-006  0.3136779E+03  0.7818608E-02  0.1001814E+00
         21   -1    0    0  503  502  0.00000000000E+00  0.00000000000E+00  0.14243949005E+04  0.14243949005E+04  0.00000000000E+00 0.  1.
         21   -1    0    0  501  503 -0.00000000000E+00 -0.00000000000E+00 -0.27394450311E+03  0.27394450311E+03  0.00000000000E+00 0. -1.
        -13    1    1    2    0    0 -0.21026434417E+03 -0.26104122691E+03  0.39325423908E+03  0.51672286992E+03  0.10566000000E+00 0.  1.
         13    1    1    2    0    0  0.12016164062E+03  0.26444647447E+03  0.12486420980E+03  0.31616742366E+03  0.10566000000E+00 0. -1.
          4    1    1    2  501    0  0.21227154317E+02  0.31661649258E+02 -0.11138492233E+03  0.11772702764E+03  0.00000000000E+00 0.  1.
         -4    1    1    2    0  502  0.68875549236E+02 -0.35066896811E+02  0.74371687084E+03  0.74772208240E+03  0.00000000000E+00 0. -1.
</event>
<event>
 6    1  0.5496865E-006  0.1614214E+03  0.7818608E-02  0.1090363E+00
         21   -1    0    0  501  502  0.00000000000E+00  0.00000000000E+00  0.54749217013E+03  0.54749217013E+03  0.00000000000E+00 0.  1.
         21   -1    0    0  502  503 -0.00000000000E+00 -0.00000000000E+00 -0.12898666412E+03  0.12898666412E+03  0.00000000000E+00 0.  1.
        -13    1    1    2    0    0 -0.68427254535E+02 -0.15537103763E+03 -0.82685102275E+01  0.16997302116E+03  0.10566000000E+00 0.  1.
         13    1    1    2    0    0 -0.79590597989E+01  0.14287240638E+03  0.21022629848E+03  0.25430489353E+03  0.10566000000E+00 0. -1.
          4    1    1    2  501    0  0.95155517401E+02  0.12010343940E+02  0.21228755031E+03  0.23294811626E+03  0.00000000000E+00 0.  1.
         -4    1    1    2    0  503 -0.18769203066E+02  0.48828730627E+00  0.42601674524E+01  0.19252803301E+02  0.00000000000E+00 0. -1.
</event>
<event>
 6    1  0.5496865E-006  0.1146761E+03  0.7818608E-02  0.1142324E+00
         21   -1    0    0  503  502  0.00000000000E+00  0.00000000000E+00  0.42062196594E+03  0.42062196594E+03  0.00000000000E+00 0.  1.
         21   -1    0    0  501  503 -0.00000000000E+00 -0.00000000000E+00 -0.56881373514E+02  0.56881373514E+02  0.00000000000E+00 0. -1.
        -13    1    1    2    0    0  0.35797929497E+02  0.11528046280E+03  0.16506834183E+03  0.20449607698E+03  0.10566000000E+00 0.  1.
         13    1    1    2    0    0 -0.65241606241E+01 -0.10711382692E+03  0.53581189912E+02  0.11994536950E+03  0.10566000000E+00 0. -1.
          4    1    1    2  501    0 -0.15735474411E+01 -0.12603388588E+02  0.13588099842E+02  0.18599943891E+02  0.00000000000E+00 0.  1.
         -4    1    1    2    0  502 -0.27700221432E+02  0.44367527086E+01  0.13150296083E+03  0.13446194908E+03  0.00000000000E+00 0. -1.
</event>
<event>
 6    1  0.5496865E-006  0.3931137E+02  0.7818608E-02  0.1342688E+00
         21   -1    0    0  501  502  0.00000000000E+00  0.00000000000E+00  0.24977501017E+02  0.24977501017E+02  0.00000000000E+00 0. -1.
         21   -1    0    0  502  503 -0.00000000000E+00 -0.00000000000E+00 -0.17739421804E+03  0.17739421804E+03  0.00000000000E+00 0. -1.
        -13    1    1    2    0    0  0.27453436707E+02 -0.22754453364E+02 -0.64272730764E+02  0.73501370183E+02  0.10566000000E+00 0.  1.
         13    1    1    2    0    0 -0.27372560196E+02  0.34807498456E+02 -0.79231769912E+02  0.90766202564E+02  0.10566000000E+00 0. -1.
          4    1    1    2  501    0 -0.10466871269E+02 -0.98162267167E+01  0.92429695217E+01  0.17068866005E+02  0.00000000000E+00 0.  1.
         -4    1    1    2    0  503  0.10385994758E+02 -0.22368183751E+01 -0.18155185868E+02  0.21035280304E+02  0.00000000000E+00 0. -1.
</event>
<event>
 6    1  0.5496865E-006  0.4105349E+02  0.7818608E-02  0.1342770E+00
         21   -1    0    0  501  502  0.00000000000E+00  0.00000000000E+00  0.18999429447E+03  0.18999429447E+03  0.00000000000E+00 0. -1.
         21   -1    0    0  502  503 -0.00000000000E+00 -0.00000000000E+00 -0.16559004886E+03  0.16559004886E+03  0.00000000000E+00 0. -1.
        -13    1    1    2    0    0 -0.10873538977E+02 -0.33938908441E+02 -0.36080919010E+02  0.50714171951E+02  0.10566000000E+00 0.  1.
         13    1    1    2    0    0  0.28857018585E+02  0.43943995991E+02  0.14375058908E+03  0.15306222698E+03  0.10566000000E+00 0. -1.
          4    1    1    2  501    0 -0.27227482082E+01  0.27820317038E+02  0.24130241211E+02  0.36927658182E+02  0.00000000000E+00 0.  1.
         -4    1    1    2    0  503 -0.15260731400E+02 -0.37825404588E+02 -0.10739566567E+03  0.11488028621E+03  0.00000000000E+00 0. -1.
</event>
<event>
 6    1  0.5496865E-006  0.1967247E+03  0.7818608E-02  0.1062405E+00
         21   -1    0    0  501  502  0.00000000000E+00  0.00000000000E+00  0.13504086244E+04  0.13504086244E+04  0.00000000000E+00 0.  1.
         21   -1    0    0  502  503 -0.00000000000E+00 -0.00000000000E+00 -0.94435557861E+02  0.94435557861E+02  0.00000000000E+00 0.  1.
        -13    1    1    2    0    0 -0.81463681040E+02  0.12175166054E+03 -0.37296617630E+01  0.14653914055E+03  0.10566000000E+00 0.  1.
         13    1    1    2    0    0  0.14087908492E+03 -0.15337350729E+03  0.73964228043E+03  0.76840162901E+03  0.10566000000E+00 0. -1.
          4    1    1    2  501    0  0.84609857267E+01  0.11241232502E+02  0.25937372516E+03  0.25975504401E+03  0.00000000000E+00 0.  1.
         -4    1    1    2    0  503 -0.67876389608E+02  0.20380614252E+02  0.26068672272E+03  0.27014836869E+03  0.00000000000E+00 0. -1.
</event>
<event>
 6    1  0.5496865E-006  0.1051933E+03  0.7818608E-02  0.1156238E+00
         21   -1    0    0  503  502  0.00000000000E+00  0.00000000000E+00  0.60291122799E+03  0.60291122799E+03  0.00000000000E+00 0.  1.
         21   -1    0    0  501  503 -0.00000000000E+00 -0.00000000000E+00 -0.39922626332E+03  0.39922626332E+03  0.00000000000E+00 0.  1.
        -13    1    1    2    0    0  0.56495464777E+02 -0.97805632542E+02  0.53887077637E+03  0.55058096960E+03  0.10566000000E+00 0.  1.
         13    1    1    2    0    0 -0.50737674587E+02  0.10658056809E+03 -0.81280876722E+02  0.14331894921E+03  0.10566000000E+00 0. -1.
          4    1    1    2  501    0  0.52524019660E+01 -0.13075643038E+02 -0.27959958655E+03  0.27995444087E+03  0.00000000000E+00 0.  1.
         -4    1    1    2    0  502 -0.11010192157E+02  0.43007074891E+01  0.25694651557E+02  0.28283131631E+02  0.00000000000E+00 0. -1.
</event>
<event>
 6    1  0.5496865E-006  0.6616775E+02  0.7818608E-02  0.1237156E+00
         21   -1    0    0  503  502  0.00000000000E+00  0.00000000000E+00  0.10793470188E+03  0.10793470188E+03  0.00000000000E+00 0.  1.
         21   -1    0    0  501  503 -0.00000000000E+00 -0.00000000000E+00 -0.38235365745E+03  0.38235365745E+03  0.00000000000E+00 0. -1.
        -13    1    1    2    0    0  0.65359333634E+02 -0.35687872472E+02  0.50619074814E+02  0.90043148733E+02  0.10566000000E+00 0.  1.
         13    1    1    2    0    0 -0.89954467302E+02  0.51029027596E+02 -0.14350134786E+03  0.17688531834E+03  0.10566000000E+00 0. -1.
          4    1    1    2  501    0  0.39526222803E+02 -0.21007522083E+02 -0.19646455328E+03  0.20149927784E+03  0.00000000000E+00 0.  1.
         -4    1    1    2    0  502 -0.14931089135E+02  0.56663669595E+01  0.14927870758E+02  0.21860614416E+02  0.00000000000E+00 0. -1.
</event>
<event>
 6    1  0.5496865E-006  0.5874922E+02  0.7818608E-02  0.1259767E+00
         21   -1    0    0  503  502  0.00000000000E+00  0.00000000000E+00  0.14310628536E+03  0.14310628536E+03  0.00000000000E+00 0.  1.
         21   -1    0    0  501  503 -0.00000000000E+00 -0.00000000000E+00 -0.94268944919E+02  0.94268944919E+02  0.00000000000E+00 0. -1.
        -13    1    1    2    0    0 -0.12346374442E+02  0.60352938869E+02  0.12847579602E+02  0.62928385151E+02  0.10566000000E+00 0.  1.
         13    1    1    2    0    0 -0.13139396710E+01 -0.69054724239E+02 -0.37315961829E+02  0.78503334633E+02  0.10566000000E+00 0. -1.
          4    1    1    2  501    0  0.74367300190E+00 -0.13588022872E+02  0.68372410894E+02  0.69713513658E+02  0.00000000000E+00 0.  1.
         -4    1    1    2    0  502  0.12916641111E+02  0.22289808242E+02  0.49333117757E+01  0.26229996838E+02  0.00000000000E+00 0. -1.
</event>
<event>
 6    1  0.5496865E-006  0.1495746E+03  0.7818608E-02  0.1103830E+00
         21   -1    0    0  501  502  0.00000000000E+00  0.00000000000E+00  0.50560735435E+03  0.50560735435E+03  0.00000000000E+00 0. -1.
         21   -1    0    0  502  503 -0.00000000000E+00 -0.00000000000E+00 -0.28082979949E+03  0.28082979949E+03  0.00000000000E+00 0. -1.
        -13    1    1    2    0    0  0.59384936418E+02  0.16563447727E+03 -0.11647962923E+03  0.21101863881E+03  0.10566000000E+00 0.  1.
         13    1    1    2    0    0 -0.13980489926E+03 -0.81149006398E+02  0.11718581483E+03  0.19965745030E+03  0.10566000000E+00 0. -1.
          4    1    1    2  501    0 -0.48427562842E+01  0.69859556919E+02  0.18124856676E+03  0.19430608054E+03  0.00000000000E+00 0.  1.
         -4    1    1    2    0  503  0.85262719128E+02 -0.15434502779E+03  0.42822802492E+02  0.18145498420E+03  0.00000000000E+00 0. -1.
</event>
<event>
 6    1  0.5496865E-006  0.1415607E+03  0.7818608E-02  0.1109746E+00
         21   -1    0    0  503  502  0.00000000000E+00  0.00000000000E+00  0.79217089927E+02  0.79217089927E+02  0.00000000000E+00 0.  1.
         21   -1    0    0  501  503 -0.00000000000E+00 -0.00000000000E+00 -0.55294192688E+03  0.55294192688E+03  0.00000000000E+00 0. -1.
        -13    1    1    2    0    0 -0.11924058247E+03 -0.10577391112E+03 -0.22691083303E+03  0.27729943039E+03  0.10566000000E+00 0.  1.
         13    1    1    2    0    0  0.78933436729E+02  0.73750750848E+02 -0.26334119170E+02  0.11118973730E+03  0.10566000000E+00 0. -1.
          4    1    1    2  501    0 -0.15664862788E+02  0.60263955367E+01 -0.14591986433E+03  0.14688196682E+03  0.00000000000E+00 0.  1.
         -4    1    1    2    0  502  0.55972008531E+02  0.25996764735E+02 -0.74560020422E+02  0.96787882305E+02  0.00000000000E+00 0. -1.
</event>
<event>
 6    1  0.5496865E-006  0.2211778E+02  0.7818608E-02  0.1514474E+00
         21   -1    0    0  503  502  0.00000000000E+00  0.00000000000E+00  0.22491403778E+02  0.22491403778E+02  0.00000000000E+00 0. -1.
         21   -1    0    0  501  503 -0.00000000000E+00 -0.00000000000E+00 -0.12106920805E+03  0.12106920805E+03  0.00000000000E+00 0.  1.
        -13    1    1    2    0    0  0.15817516201E+02 -0.19273747855E+02 -0.32289534307E+02  0.40795788569E+02  0.10566000000E+00 0.  1.
         13    1    1    2    0    0 -0.60057685669E+01 -0.14210772868E+02  0.82269958614E+01  0.17484563092E+02  0.10566000000E+00 0. -1.
          4    1    1    2  501    0 -0.19350664846E+01  0.22104542796E+02 -0.64462600698E+02  0.68174644724E+02  0.00000000000E+00 0.  1.
         -4    1    1    2    0  502 -0.78766811500E+01  0.11379977927E+02 -0.10052665133E+02  0.17105615447E+02  0.00000000000E+00 0. -1.
</event>
<event>
 6    1  0.5496865E-006  0.2095716E+02  0.7818608E-02  0.1496961E+00
         21   -1    0    0  501  502  0.00000000000E+00  0.00000000000E+00  0.18810801667E+03  0.18810801667E+03  0.00000000000E+00 0. -1.
         21   -1    0    0  502  503 -0.00000000000E+00 -0.00000000000E+00 -0.13155200453E+02  0.13155200453E+02  0.00000000000E+00 0.  1.
        -13    1    1    2    0    0  0.14659100397E+02  0.25463772796E+02  0.54186678187E+02  0.61640086035E+02  0.10566000000E+00 0.  1.
         13    1    1    2    0    0  0.17858713444E+01 -0.23606494246E+02  0.72458088923E+02  0.76227565365E+02  0.10566000000E+00 0. -1.
          4    1    1    2  501    0 -0.25071680751E+01  0.13190573173E+02  0.38275974685E+02  0.40562634906E+02  0.00000000000E+00 0.  1.
         -4    1    1    2    0  503 -0.13937803666E+02 -0.15047851723E+02  0.10032074423E+02  0.22832930818E+02  0.00000000000E+00 0. -1.
</event>
<event>
 6    1  0.5496865E-006  0.1162374E+03  0.7818608E-02  0.1164714E+00
         21   -1    0    0  501  502  0.00000000000E+00  0.00000000000E+00  0.29916309258E+03  0.29916309258E+03  0.00000000000E+00 0. -1.
         21   -1    0    0  502  503 -0.00000000000E+00 -0.00000000000E+00 -0.50186906517E+03  0.50186906517E+03  0.00000000000E+00 0. -1.
        -13    1    1    2    0    0 -0.94492880796E+01 -0.62622387983E+02 -0.20735874189E+03  0.21681446336E+03  0.10566000000E+00 0.  1.
         13    1    1    2    0    0  0.12853535916E+03  0.23185888885E+02  0.22971493290E+03  0.26424966520E+03  0.10566000000E+00 0. -1.
          4    1    1    2  501    0 -0.10992005018E+02 -0.39304759522E+01  0.33989614284E+02  0.35938373568E+02  0.00000000000E+00 0.  1.
         -4    1    1    2    0  503 -0.10809406606E+03  0.43366975050E+02 -0.25905177789E+03  0.28402965561E+03  0.00000000000E+00 0. -1.
</event>
<event>
 6    1  0.5496865E-006  0.1445556E+03  0.7818608E-02  0.1115426E+00
         21   -1    0    0  503  502  0.00000000000E+00  0.00000000000E+00  0.16920131731E+04  0.16920131731E+04  0.00000000000E+00 0.  1.
         21   -1    0    0  501  503 -0.00000000000E+00 -0.00000000000E+00 -0.19833225960E+03  0.19833225960E+03  0.00000000000E+00 0.  1.
        -13    1    1    2    0    0  0.25764273742E+03  0.97146247694E+02  0.89601021773E+03  0.93736412083E+03  0.10566000000E+00 0.  1.
         13    1    1    2    0    0 -0.10495216065E+03 -0.62840030829E+02  0.44726870183E+02  0.13024718645E+03  0.10566000000E+00 0. -1.
          4    1    1    2  501    0  0.11923786867E+01  0.21212595125E+02 -0.12425376120E+03  0.12605710266E+03  0.00000000000E+00 0.  1.
         -4    1    1    2    0  502 -0.15388295546E+03 -0.55518811990E+02  0.67719758683E+03  0.69667702278E+03  0.00000000000E+00 0. -1.
</event>
<event>
 6    1  0.5496865E-006  0.2538561E+02  0.7818608E-02  0.1446316E+00
         21   -1    0    0  503  502  0.00000000000E+00  0.00000000000E+00  0.20179861450E+03  0.20179861450E+03  0.00000000000E+00 0.  1.
         21   -1    0    0  501  503 -0.00000000000E+00 -0.00000000000E+00 -0.53269514112E+02  0.53269514112E+02  0.00000000000E+00 0. -1.
        -13    1    1    2    0    0  0.14781605992E+02  0.32289118023E+02  0.76908026608E+02  0.84710912752E+02  0.10566000000E+00 0.  1.
         13    1    1    2    0    0  0.19026210682E+02 -0.16852711049E+02 -0.33537484030E+02  0.42080691079E+02  0.10566000000E+00 0. -1.
          4    1    1    2  501    0 -0.12925900564E+02 -0.75707470743E+01  0.10489659503E+03  0.10596079825E+03  0.00000000000E+00 0.  1.
         -4    1    1    2    0  502 -0.20881916110E+02 -0.78656599006E+01  0.26196277849E+00  0.22315726531E+02  0.00000000000E+00 0. -1.
</event>
<event>
 6    1  0.5496865E-006  0.4942635E+02  0.7818608E-02  0.1294142E+00
         21   -1    0    0  501  502  0.00000000000E+00  0.00000000000E+00  0.84990335022E+02  0.84990335022E+02  0.00000000000E+00 0.  1.
         21   -1    0    0  502  503 -0.00000000000E+00 -0.00000000000E+00 -0.19808314799E+03  0.19808314799E+03  0.00000000000E+00 0.  1.
        -13    1    1    2    0    0  0.34974849771E+02 -0.39653857874E+02 -0.12515653608E+03  0.13586698733E+03  0.10566000000E+00 0.  1.
         13    1    1    2    0    0 -0.37033128658E+02  0.32042471346E+02 -0.47368347048E+02  0.68131813819E+02  0.10566000000E+00 0. -1.
          4    1    1    2  501    0 -0.10438794891E+02  0.69187721643E+01  0.64401597328E+02  0.65607953675E+02  0.00000000000E+00 0.  1.
         -4    1    1    2    0  503  0.12497073778E+02  0.69261436300E+00 -0.49695271727E+01  0.13466728184E+02  0.00000000000E+00 0. -1.
</event>
<event>
 6    1  0.5496865E-006  0.1784345E+03  0.7818608E-02  0.1076018E+00
         21   -1    0    0  501  502  0.00000000000E+00  0.00000000000E+00  0.83677898020E+03  0.83677898020E+03  0.00000000000E+00 0. -1.
         21   -1    0    0  502  503 -0.00000000000E+00 -0.00000000000E+00 -0.44566723322E+03  0.44566723322E+03  0.00000000000E+00 0.  1.
        -13    1    1    2    0    0  0.13249182740E+03 -0.12359222986E+03 -0.30383010275E+03  0.35375396268E+03  0.10566000000E+00 0.  1.
         13    1    1    2    0    0 -0.13357506824E+03  0.92069896446E+02  0.38402431177E+03  0.41688589312E+03  0.10566000000E+00 0. -1.
          4    1    1    2  501    0  0.16687353596E+02  0.44514748654E+02  0.40894452936E+03  0.41169850463E+03  0.00000000000E+00 0.  1.
         -4    1    1    2    0  503 -0.15604112759E+02 -0.12992415243E+02 -0.98026991399E+02  0.10010785300E+03  0.00000000000E+00 0. -1.
</event>
<event>
 6    1  0.5496865E-006  0.1838757E+02  0.7818608E-02  0.1533601E+00
         21   -1    0    0  503  502  0.00000000000E+00  0.00000000000E+00  0.40775079132E+02  0.40775079132E+02  0.00000000000E+00 0.  1.
         21   -1    0    0  501  503 -0.00000000000E+00 -0.00000000000E+00 -0.38410790140E+02  0.38410790140E+02  0.00000000000E+00 0. -1.
        -13    1    1    2    0    0  0.14102944009E+02  0.10636153400E+01  0.21056572924E+02  0.25365621117E+02  0.10566000000E+00 0.  1.
         13    1    1    2    0    0 -0.22041458066E+02  0.24130346064E+01 -0.96116864379E+01  0.24167008294E+02  0.10566000000E+00 0. -1.
          4    1    1    2  501    0  0.64338465744E+01  0.11428830550E+02 -0.28121759747E+01  0.13413459032E+02  0.00000000000E+00 0.  1.
         -4    1    1    2    0  502  0.15046674825E+01 -0.14905480497E+02 -0.62684215190E+01  0.16239780830E+02  0.00000000000E+00 0. -1.
</event>
<event>
 6    1  0.5496865E-006  0.2425848E+02  0.7818608E-02  0.1458005E+00
         21   -1    0    0  501  502  0.00000000000E+00  0.00000000000E+00  0.25408496464E+02  0.25408496464E+02  0.00000000000E+00 0. -1.
         21   -1    0    0  502  503 -0.00000000000E+00 -0.00000000000E+00 -0.20147155681E+03  0.20147155681E+03  0.00000000000E+00 0.  1.
        -13    1    1    2    0    0 -0.73082261823E+01 -0.32247605785E+02 -0.12642780212E+03  0.13068021488E+03  0.10566000000E+00 0.  1.
         13    1    1    2    0    0  0.12743166036E+02  0.21101607980E+02 -0.96497783176E+01  0.26472542862E+02  0.10566000000E+00 0. -1.
          4    1    1    2  501    0  0.13847086687E+02 -0.15968373395E+02 -0.26326851019E+02  0.33761425372E+02  0.00000000000E+00 0.  1.
         -4    1    1    2    0  503 -0.19282026541E+02  0.27114371200E+02 -0.13658628892E+02  0.35965870159E+02  0.00000000000E+00 0. -1.
</event>
<event>
 6    1  0.5496865E-006  0.1375222E+03  0.7818608E-02  0.1114115E+00
         21   -1    0    0  503  502  0.00000000000E+00  0.00000000000E+00  0.69078539199E+02  0.69078539199E+02  0.00000000000E+00 0.  1.
         21   -1    0    0  501  503 -0.00000000000E+00 -0.00000000000E+00 -0.96548490861E+03  0.96548490861E+03  0.00000000000E+00 0.  1.
        -13    1    1    2    0    0 -0.14318725336E+03 -0.78422201606E+02 -0.12241324908E+03  0.20405304689E+03  0.10566000000E+00 0.  1.
         13    1    1    2    0    0  0.10657544147E+03  0.74417829130E+02 -0.17442861409E+03  0.21753549272E+03  0.10566000000E+00 0. -1.
          4    1    1    2  501    0 -0.12457312545E+02 -0.70448147361E+01 -0.51041237809E+03  0.51061297453E+03  0.00000000000E+00 0.  1.
         -4    1    1    2    0  502  0.49069124437E+02  0.11049187212E+02 -0.89152128151E+02  0.10236193367E+03  0.00000000000E+00 0. -1.
</event>
<event>
 6    1  0.5496865E-006  0.3511082E+02  0.7818608E-02  0.1391030E+00
         21   -1    0    0  503  502  0.00000000000E+00  0.00000000000E+00  0.31673344198E+03  0.31673344198E+03  0.00000000000E+00 0.  1.
         21   -1    0    0  501  503 -0.00000000000E+00 -0.00000000000E+00 -0.39154952619E+02  0.39154952619E+02  0.00000000000E+00 0. -1.
        -13    1    1    2    0    0  0.22355333937E+02  0.10823075421E+02  0.46828844016E+02  0.53008034418E+02  0.10566000000E+00 0.  1.
         13    1    1    2    0    0 -0.57616390947E+02 -0.23895904193E+02  0.22954309400E+02  0.66464834514E+02  0.10566000000E+00 0. -1.
          4    1    1    2  501    0  0.31921118894E+02  0.33256376970E+02  0.24924592063E+02  0.52404004906E+02  0.00000000000E+00 0.  1.
         -4    1    1    2    0  502  0.33399381152E+01 -0.20183548198E+02  0.18287074388E+03  0.18401152076E+03  0.00000000000E+00 0. -1.
</event>
<event>
 6    1  0.5496865E-006  0.5874953E+02  0.7818608E-02  0.1259766E+00
         21   -1    0    0  501  502  0.00000000000E+00  0.00000000000E+00  0.29622076253E+03  0.29622076253E+03  0.00000000000E+00 0.  1.
         21   -1    0    0  502  503 -0.00000000000E+00 -0.00000000000E+00 -0.91251931253E+02  0.91251931253E+02  0.00000000000E+00 0.  1.
        -13    1    1    2    0    0  0.58702687891E+02  0.56554075293E+02  0.87748749079E+02  0.11976737088E+03  0.10566000000E+00 0.  1.
         13    1    1    2    0    0 -0.64820882898E+01 -0.39674900327E+02 -0.44592571359E+02  0.60038519044E+02  0.10566000000E+00 0. -1.
          4    1    1    2  501    0 -0.22122631875E+02 -0.89066251573E+01  0.17295931148E+03  0.17459571083E+03  0.00000000000E+00 0.  1.
         -4    1    1    2    0  503 -0.30097967726E+02 -0.79725498082E+01 -0.11146657920E+02  0.33071093034E+02  0.00000000000E+00 0. -1.
</event>
<event>
 6    1  0.5496865E-006  0.1613730E+03  0.7818608E-02  0.1090407E+00
         21   -1    0    0  501  502  0.00000000000E+00  0.00000000000E+00  0.18664078004E+03  0.18664078004E+03  0.00000000000E+00 0. -1.
         21   -1    0    0  502  503 -0.00000000000E+00 -0.00000000000E+00 -0.84727672962E+03  0.84727672962E+03  0.00000000000E+00 0.  1.
        -13    1    1    2    0    0  0.22221829500E+03 -0.26243903227E+02 -0.10809750891E+03  0.24850512205E+03  0.10566000000E+00 0.  1.
         13    1    1    2    0    0 -0.12912213862E+03 -0.13338081881E+02 -0.60441852810E+02  0.14319099080E+03  0.10566000000E+00 0. -1.
          4    1    1    2  501    0  0.95580668233E+01  0.37793502107E+02  0.64972424128E+02  0.75770187673E+02  0.00000000000E+00 0.  1.
         -4    1    1    2    0  503 -0.10265422320E+03  0.17884830001E+01 -0.55706901198E+03  0.56645120913E+03  0.00000000000E+00 0. -1.
</event>
<event>
 6    1  0.5496865E-006  0.1651130E+03  0.7818608E-02  0.1087094E+00
         21   -1    0    0  501  502  0.00000000000E+00  0.00000000000E+00  0.43230024684E+03  0.43230024684E+03  0.00000000000E+00 0.  1.
         21   -1    0    0  502  503 -0.00000000000E+00 -0.00000000000E+00 -0.10143516670E+04  0.10143516670E+04  0.00000000000E+00 0. -1.
        -13    1    1    2    0    0 -0.14512510378E+03 -0.61609296663E+02  0.94732375891E+01  0.15794541645E+03  0.10566000000E+00 0.  1.
         13    1    1    2    0    0  0.15340786278E+03  0.71494576125E+02  0.75732783616E+02  0.18542090620E+03  0.10566000000E+00 0. -1.
          4    1    1    2  501    0  0.23271310626E+02 -0.37623198940E+02  0.21526501137E+03  0.21976370064E+03  0.00000000000E+00 0.  1.
         -4    1    1    2    0  503 -0.31554069629E+02  0.27737919478E+02 -0.88252245277E+03  0.88352189058E+03  0.00000000000E+00 0. -1.
</event>
<event>
 6    1  0.5496865E-006  0.1767052E+03  0.7818608E-02  0.1077396E+00
         21   -1    0    0  501  502  0.00000000000E+00  0.00000000000E+00  0.64494913740E+03  0.64494913740E+03  0.00000000000E+00 0. -1.
         21   -1    0    0  502  503 -0.00000000000E+00 -0.00000000000E+00 -0.20516048925E+03  0.20516048925E+03  0.00000000000E+00 0.  1.
        -13    1    1    2    0    0  0.78591178552E+02  0.17476223247E+03 -0.11359245429E+03  0.22275921548E+03  0.10566000000E+00 0.  1.
         13    1    1    2    0    0 -0.10326150869E+03 -0.13980911913E+03  0.37967383466E+03  0.41756647478E+03  0.10566000000E+00 0. -1.
          4    1    1    2  501    0  0.73359984945E+01 -0.72335263079E+01  0.17665758479E+03  0.17695774366E+03  0.00000000000E+00 0.  1.
         -4    1    1    2    0  503  0.17334331648E+02 -0.27719587033E+02 -0.29503170054E+01  0.32826192734E+02  0.00000000000E+00 0. -1.
</event>
<event>
 6    1  0.5496865E-006  0.9638357E+02  0.7818608E-02  0.1170682E+00
         21   -1    0    0  503  502  0.00000000000E+00  0.00000000000E+00  0.49444840037E+02  0.49444840037E+02  0.00000000000E+00 0.  1.
         21   -1    0    0  501  503 -0.00000000000E+00 -0.00000000000E+00 -0.78089320089E+03  0.78089320089E+03  0.00000000000E+00 0. -1.
        -13    1    1    2    0    0 -0.84149893228E+02  0.70213454251E+02 -0.43940534959E+03  0.45286665378E+03  0.10566000000E+00 0.  1.
         13    1    1    2    0    0  0.18881781229E+02 -0.89765174016E+02 -0.96239491734E+02  0.13295246918E+03  0.10566000000E+00 0. -1.
          4    1    1    2  501    0  0.20226200886E+02  0.47098819818E+01 -0.19599717674E+03  0.19709433142E+03  0.00000000000E+00 0.  1.
         -4    1    1    2    0  502  0.45041911113E+02  0.14841837783E+02  0.19365721261E+00  0.47424586541E+02  0.00000000000E+00 0. -1.
</event>
<event>
 6    1  0.5496865E-006  0.1021160E+03  0.7818608E-02  0.1172473E+00
         21   -1    0    0  503  502  0.00000000000E+00  0.00000000000E+00  0.18419773586E+03  0.18419773586E+03  0.00000000000E+00 0. -1.
         21   -1    0    0  501  503 -0.00000000000E+00 -0.00000000000E+00 -0.27238575803E+03  0.27238575803E+03  0.00000000000E+00 0. -1.
        -13    1    1    2    0    0  0.13136274250E+03 -0.39707776387E+02  0.16275367052E+02  0.13819470453E+03  0.10566000000E+00 0.  1.
         13    1    1    2    0    0  0.57837853668E+01  0.87351281812E+02 -0.13088494291E+03  0.15746294184E+03  0.10566000000E+00 0. -1.
          4    1    1    2  501    0 -0.38893417948E+02  0.61790160213E+01 -0.14047006973E+02  0.41811441061E+02  0.00000000000E+00 0.  1.
         -4    1    1    2    0  502 -0.98253109923E+02 -0.53822521446E+02  0.40468560661E+02  0.11911440646E+03  0.00000000000E+00 0. -1.
</event>
<event>
 6    1  0.5496865E-006  0.7394610E+02  0.7818608E-02  0.1216739E+00
         21   -1    0    0  501  502  0.00000000000E+00  0.00000000000E+00  0.34752499222E+03  0.34752499222E+03  0.00000000000E+00 0. -1.
         21   -1    0    0  502  503 -0.00000000000E+00 -0.00000000000E+00 -0.45770596299E+02  0.45770596299E+02  0.00000000000E+00 0.  1.
        -13    1    1    2    0    0 -0.71074344060E+02  0.70273513543E+01  0.16592321034E+02  0.73323000020E+02  0.10566000000E+00 0.  1.
         13    1    1    2    0    0  0.67482466678E+02 -0.48216939847E+02  0.15117950030E+03  0.17243552149E+03  0.10566000000E+00 0. -1.
          4    1    1    2  501    0 -0.68496928560E+01  0.82710241412E+01  0.94390938110E+02  0.94999880683E+02  0.00000000000E+00 0.  1.
         -4    1    1    2    0  503  0.10441570239E+02  0.32918564352E+02  0.39591636479E+02  0.52537186327E+02  0.00000000000E+00 0. -1.
</event>
<event>
 6    1  0.5496865E-006  0.4413668E+03  0.7818608E-02  0.9616667E-01
         21   -1    0    0  503  502  0.00000000000E+00  0.00000000000E+00  0.53154184362E+03  0.53154184362E+03  0.00000000000E+00 0.  1.
         21   -1    0    0  501  503 -0.00000000000E+00 -0.00000000000E+00 -0.98463395668E+03  0.98463395668E+03  0.00000000000E+00 0. -1.
        -13    1    1    2    0    0  0.46527859251E+03  0.94291485896E+02  0.21285491191E+03  0.52027135002E+03  0.10566000000E+00 0.  1.
         13    1    1    2    0    0 -0.45653655415E+03 -0.52111081563E+02 -0.30520077646E+03  0.55162370798E+03  0.10566000000E+00 0. -1.
          4    1    1    2  501    0  0.48137797437E+02 -0.30792430642E+02 -0.37914276168E+03  0.38342490147E+03  0.00000000000E+00 0.  1.
         -4    1    1    2    0  502 -0.56879835804E+02 -0.11387973691E+02  0.18396513181E+02  0.60855840830E+02  0.00000000000E+00 0. -1.
</event>
<event>
 6    1  0.5496865E-006  0.7582690E+02  0.7818608E-02  0.1212219E+00
         21   -1    0    0  501  502  0.00000000000E+00  0.00000000000E+00  0.26081303842E+03  0.26081303842E+03  0.00000000000E+00 0. -1.
         21   -1    0    0  502  503 -0.00000000000E+00 -0.00000000000E+00 -0.93170360925E+02  0.93170360925E+02  0.00000000000E+00 0.  1.
        -13    1    1    2    0    0  0.76329345112E+02  0.76329135586E+01  0.23032792763E+02  0.80093389248E+02  0.10566000000E+00 0.  1.
         13    1    1    2    0    0 -0.68175400193E+02 -0.37264958883E+02  0.12858717816E+02  0.78752270697E+02  0.10566000000E+00 0. -1.
          4    1    1    2  501    0  0.14867793683E+02 -0.24168291103E+02  0.13360934336E+03  0.13658921706E+03  0.00000000000E+00 0.  1.
         -4    1    1    2    0  503 -0.23021738602E+02  0.53800336428E+02 -0.18581764490E+01  0.58548522336E+02  0.00000000000E+00 0. -1.
</event>
<event>
 6    1  0.5496865E-006  0.1699430E+03  0.7818608E-02  0.1082952E+00
         21   -1    0    0  501  502  0.00000000000E+00  0.00000000000E+00  0.25693689993E+03  0.25693689993E+03  0.00000000000E+00 0.  1.
         21   -1    0    0  502  503 -0.00000000000E+00 -0.00000000000E+00 -0.65539852679E+03  0.65539852679E+03  0.00000000000E+00 0.  1.
        -13    1    1    2    0    0  0.93111037981E+02  0.17456453073E+03 -0.23285278563E+03  0.30555338605E+03  0.10566000000E+00 0.  1.
         13    1    1    2    0    0 -0.25558654553E+01 -0.14894716812E+03 -0.98940543777E+02  0.17883241794E+03  0.10566000000E+00 0. -1.
          4    1    1    2  501    0 -0.20037657938E+02 -0.52536887808E+02  0.17025154758E+03  0.17929646335E+03  0.00000000000E+00 0.  1.
         -4    1    1    2    0  503 -0.70517514588E+02  0.26919525194E+02 -0.23691984503E+03  0.24865315938E+03  0.00000000000E+00 0. -1.
</event>
<event>
 6    1  0.5496865E-006  0.2693723E+02  0.7818608E-02  0.1475836E+00
         21   -1    0    0  503  502  0.00000000000E+00  0.00000000000E+00  0.52504323240E+02  0.52504323240E+02  0.00000000000E+00 0. -1.
         21   -1    0    0  501  503 -0.00000000000E+00 -0.00000000000E+00 -0.58269670349E+02  0.58269670349E+02  0.00000000000E+00 0. -1.
        -13    1    1    2    0    0 -0.29542212048E+02  0.54038164190E+00  0.89509960431E+01  0.30873383345E+02  0.10566000000E+00 0.  1.
         13    1    1    2    0    0 -0.21402201586E+01 -0.17633404086E+02 -0.16297084384E+02  0.24106505459E+02  0.10566000000E+00 0. -1.
          4    1    1    2  501    0  0.83673425758E+01  0.73734666894E+01 -0.19783801020E+02  0.22710773118E+02  0.00000000000E+00 0.  1.
         -4    1    1    2    0  502  0.23315089630E+02  0.97195557548E+01  0.21364542252E+02  0.33083331667E+02  0.00000000000E+00 0. -1.
</event>
<event>
 6    1  0.5496865E-006  0.1224179E+03  0.7818608E-02  0.1132017E+00
         21   -1    0    0  503  502  0.00000000000E+00  0.00000000000E+00  0.12600962619E+03  0.12600962619E+03  0.00000000000E+00 0.  1.
         21   -1    0    0  501  503 -0.00000000000E+00 -0.00000000000E+00 -0.19289926088E+03  0.19289926088E+03  0.00000000000E+00 0. -1.
        -13    1    1    2    0    0  0.16821962462E+02 -0.11210493362E+03 -0.56083912232E+01  0.11349872148E+03  0.10566000000E+00 0.  1.
         13    1    1    2    0    0 -0.70341244296E+01  0.13359355453E+03  0.12816265872E+01  0.13378479155E+03  0.10566000000E+00 0. -1.
          4    1    1    2  501    0  0.47549865490E+01 -0.18756491786E+02 -0.42484147734E+02  0.46683173519E+02  0.00000000000E+00 0.  1.
         -4    1    1    2    0  502 -0.14542824582E+02 -0.27321291270E+01 -0.20078722326E+02  0.24942200517E+02  0.00000000000E+00 0. -1.
</event>
<event>
 6    1  0.5496865E-006  0.1116614E+03  0.7818608E-02  0.1146582E+00
         21   -1    0    0  501  502  0.00000000000E+00  0.00000000000E+00  0.23786381033E+02  0.23786381033E+02  0.00000000000E+00 0.  1.
         21   -1    0    0  502  503 -0.00000000000E+00 -0.00000000000E+00 -0.23321374522E+04  0.23321374522E+04  0.00000000000E+00 0.  1.
        -13    1    1    2    0    0  0.63691153373E+02 -0.95698473713E+02 -0.66240179976E+03  0.67230269699E+03  0.10566000000E+00 0.  1.
         13    1    1    2    0    0 -0.31532992074E+02  0.12116711148E+03 -0.40739877141E+03  0.42620367034E+03  0.10566000000E+00 0. -1.
          4    1    1    2  501    0  0.12162209186E+02 -0.23638015603E+02 -0.10525016958E+02  0.28591101691E+02  0.00000000000E+00 0.  1.
         -4    1    1    2    0  503 -0.44320370484E+02 -0.18306221638E+01 -0.12280254830E+04  0.12288263642E+04  0.00000000000E+00 0. -1.
</event>
<event>
 6    1  0.5496865E-006  0.7839841E+02  0.7818608E-02  0.1206270E+00
         21   -1    0    0  501  502  0.00000000000E+00  0.00000000000E+00  0.94858117516E+02  0.94858117516E+02  0.00000000000E+00 0. -1.
         21   -1    0    0  502  503 -0.00000000000E+00 -0.00000000000E+00 -0.20875868658E+03  0.20875868658E+03  0.00000000000E+00 0.  1.
        -13    1    1    2    0    0  0.40091814305E+02  0.68845021967E+02 -0.74547502963E+02  0.10910697496E+03  0.10566000000E+00 0.  1.
         13    1    1    2    0    0 -0.88743083350E+02 -0.37389701754E+02  0.24116081119E+02  0.99271955619E+02  0.10566000000E+00 0. -1.
          4    1    1    2  501    0  0.38947232111E+02 -0.17178375230E+02 -0.17302838907E+02  0.45949664840E+02  0.00000000000E+00 0.  1.
         -4    1    1    2    0  503  0.97040369345E+01 -0.14276944982E+02 -0.46166308308E+02  0.49288208668E+02  0.00000000000E+00 0. -1.
</event>
<event>
 6    1  0.5496865E-006  0.7007844E+02  0.7818608E-02  0.1239927E+00
         21   -1    0    0  503  502  0.00000000000E+00  0.00000000000E+00  0.24583929691E+03  0.24583929691E+03  0.00000000000E+00 0.  1.
         21   -1    0    0  501  503 -0.00000000000E+00 -0.00000000000E+00 -0.22590540073E+03  0.22590540073E+03  0.00000000000E+00 0. -1.
        -13    1    1    2    0    0 -0.48994710638E+02 -0.10996755902E+03  0.24347995740E+02  0.12282581882E+03  0.10566000000E+00 0.  1.
         13    1    1    2    0    0  0.43282214824E+02  0.55330709763E+02 -0.13789952989E+03  0.15476152323E+03  0.10566000000E+00 0. -1.
          4    1    1    2  501    0 -0.25166322192E+02 -0.21987715452E+02 -0.41059813143E+01  0.33669904752E+02  0.00000000000E+00 0.  1.
         -4    1    1    2    0  502  0.30878818007E+02  0.76624564710E+02  0.13759141165E+03  0.16048745084E+03  0.00000000000E+00 0. -1.
</event>
<event>
 6    1  0.5496865E-006  0.1001089E+03  0.7818608E-02  0.1164376E+00
         21   -1    0    0  503  502  0.00000000000E+00  0.00000000000E+00  0.36008681102E+03  0.36008681102E+03  0.00000000000E+00 0.  1.
         21   -1    0    0  501  503 -0.00000000000E+00 -0.00000000000E+00 -0.72996804369E+02  0.72996804369E+02  0.00000000000E+00 0.  1.
        -13    1    1    2    0    0  0.59084777353E+01  0.78874268639E+02  0.72273448715E+02  0.10714253551E+03  0.10566000000E+00 0.  1.
         13    1    1    2    0    0  0.17394522936E+02 -0.12698705934E+03  0.12420219469E+03  0.17847823116E+03  0.10566000000E+00 0. -1.
          4    1    1    2  501    0 -0.49311292612E+02  0.20049820871E+02  0.47302090832E+01  0.53441311492E+02  0.00000000000E+00 0.  1.
         -4    1    1    2    0  502  0.26008291940E+02  0.28062969833E+02  0.85884154162E+02  0.94021537222E+02  0.00000000000E+00 0. -1.
</event>
<event>
 6    1  0.5496865E-006  0.8704821E+02  0.7818608E-02  0.1187969E+00
         21   -1    0    0  503  502  0.00000000000E+00  0.00000000000E+00  0.28917346172E+03  0.28917346172E+03  0.00000000000E+00 0.  1.
         21   -1    0    0  501  503 -0.00000000000E+00 -0.00000000000E+00 -0.20454977444E+03  0.20454977444E+03  0.00000000000E+00 0.  1.
        -13    1    1    2    0    0 -0.56583099776E+02 -0.23139550584E+02  0.12549105252E+03  0.13958904473E+03  0.10566000000E+00 0.  1.
         13    1    1    2    0    0  0.11884042876E+03  0.47648785712E+02  0.17816410469E+02  0.12927060739E+03  0.10566000000E+00 0. -1.
          4    1    1    2  501    0 -0.28725858809E+02 -0.52596584238E+02 -0.12889264980E+03  0.14214390880E+03  0.00000000000E+00 0.  1.
         -4    1    1    2    0  502 -0.33531470176E+02  0.28087349109E+02  0.70208874088E+02  0.82719675247E+02  0.00000000000E+00 0. -1.
</event>
<event>
 6    1  0.5496865E-006  0.5789932E+02  0.7818608E-02  0.1262595E+00
         21   -1    0    0  501  502  0.00000000000E+00  0.00000000000E+00  0.66665595247E+02  0.66665595247E+02  0.00000000000E+00 0. -1.
         21   -1    0    0  502  503 -0.00000000000E+00 -0.00000000000E+00 -0.22108820864E+03  0.22108820864E+03  0.00000000000E+00 0.  1.
        -13    1    1    2    0    0  0.63958091765E+02  0.40474233081E+01 -0.18933109998E+03  0.19988320520E+03  0.10566000000E+00 0.  1.
         13    1    1    2    0    0 -0.46413018265E+02  0.42780743059E+01  0.22597610992E+02  0.51798970751E+02  0.10566000000E+00 0. -1.
          4    1    1    2  501    0 -0.14433283205E+02  0.82799786149E+01  0.87726954567E+01  0.18810579351E+02  0.00000000000E+00 0.  1.
         -4    1    1    2    0  503 -0.31117902953E+01 -0.16605476229E+02  0.35381801360E+01  0.17261048587E+02  0.00000000000E+00 0. -1.
</event>
<event>
 6    1  0.5496865E-006  0.1712233E+03  0.7818608E-02  0.1081879E+00
         21   -1    0    0  501  502  0.00000000000E+00  0.00000000000E+00  0.87370068747E+03  0.87370068747E+03  0.00000000000E+00 0.  1.
         21   -1    0    0  502  503 -0.00000000000E+00 -0.00000000000E+00 -0.17518087393E+03  0.17518087393E+03  0.00000000000E+00 0. -1.
        -13    1    1    2    0    0 -0.38948053574E+02  0.18125106601E+03  0.30896912292E+03  0.36032045444E+03  0.10566000000E+00 0.  1.
         13    1    1    2    0    0  0.32188551047E+02 -0.15680771725E+03  0.23478180823E+03  0.28416064409E+03  0.10566000000E+00 0. -1.
          4    1    1    2  501    0 -0.38579962438E+01 -0.25941044229E+02  0.27873769466E+03  0.27996879171E+03  0.00000000000E+00 0.  1.
         -4    1    1    2    0  503  0.10617498771E+02  0.14976954777E+01 -0.12396881227E+03  0.12443167116E+03  0.00000000000E+00 0. -1.
</event>
<event>
 6    1  0.5496865E-006  0.1109107E+03  0.7818608E-02  0.1147666E+00
         21   -1    0    0  503  502  0.00000000000E+00  0.00000000000E+00  0.64602775011E+03  0.64602775011E+03  0.00000000000E+00 0.  1.
         21   -1    0    0  501  503 -0.00000000000E+00 -0.00000000000E+00 -0.10912458226E+03  0.10912458226E+03  0.00000000000E+00 0.  1.
        -13    1    1    2    0    0  0.78887108113E+02 -0.60214011439E+02  0.34156345035E+03  0.35568877516E+03  0.10566000000E+00 0.  1.
         13    1    1    2    0    0 -0.95886768539E+02  0.65080269955E+02  0.35575751449E+02  0.12122441657E+03  0.10566000000E+00 0. -1.
          4    1    1    2  501    0  0.13431419752E+02  0.12603171683E+02 -0.57431683139E+02  0.60312860993E+02  0.00000000000E+00 0.  1.
         -4    1    1    2    0  502  0.35682406745E+01 -0.17469430199E+02  0.21719564919E+03  0.21792627964E+03  0.00000000000E+00 0. -1.
</event>
<event>
 6    1  0.5496865E-006  0.4014784E+02  0.7818608E-02  0.1345800E+00
         21   -1    0    0  501  502  0.00000000000E+00  0.00000000000E+00  0.40650638739E+03  0.40650638739E+03  0.00000000000E+00 0. -1.
         21   -1    0    0  502  503 -0.00000000000E+00 -0.00000000000E+00 -0.42709910802E+02  0.42709910802E+02  0.00000000000E+00 0.  1.
        -13    1    1    2    0    0  0.36804145151E+02 -0.24478594505E+02 -0.12102687060E+02  0.45828297888E+02  0.10566000000E+00 0.  1.
         13    1    1    2    0    0  0.19024661022E+01 -0.20399316761E+02  0.96319635017E+02  0.98474538615E+02  0.10566000000E+00 0. -1.
          4    1    1    2  501    0 -0.45597016903E+01  0.12439692787E+02  0.24766858133E+03  0.24802270665E+03  0.00000000000E+00 0.  1.
         -4    1    1    2    0  503 -0.34146909563E+02  0.32438218479E+02  0.31910947295E+02  0.56890755031E+02  0.00000000000E+00 0. -1.
</event>
<event>
 6    1  0.5496865E-006  0.1012483E+03  0.7818608E-02  0.1162507E+00
         21   -1    0    0  501  502  0.00000000000E+00  0.00000000000E+00  0.13981222312E+04  0.13981222312E+04  0.00000000000E+00 0. -1.
         21   -1    0    0  502  503 -0.00000000000E+00 -0.00000000000E+00 -0.61506556233E+02  0.61506556233E+02  0.00000000000E+00 0.  1.
        -13    1    1    2    0    0  0.10893008184E+03  0.37591641961E+02  0.49698371103E+02  0.12549435656E+03  0.10566000000E+00 0.  1.
         13    1    1    2    0    0 -0.98734784528E+02 -0.57372689366E+02  0.65950897685E+03  0.66932225786E+03  0.10566000000E+00 0. -1.
          4    1    1    2  501    0  0.59140101895E+01  0.26486221843E+02  0.64169002879E+03  0.64226364408E+03  0.00000000000E+00 0.  1.
         -4    1    1    2    0  503 -0.16109307502E+02 -0.67051744376E+01 -0.14281701756E+02  0.22548528942E+02  0.00000000000E+00 0. -1.
</event>
<event>
 6    1  0.5496865E-006  0.1419241E+03  0.7818608E-02  0.1109361E+00
         21   -1    0    0  501  502  0.00000000000E+00  0.00000000000E+00  0.49502456583E+03  0.49502456583E+03  0.00000000000E+00 0. -1.
         21   -1    0    0  502  503 -0.00000000000E+00 -0.00000000000E+00 -0.12712364500E+03  0.12712364500E+03  0.00000000000E+00 0. -1.
        -13    1    1    2    0    0  0.32080627701E+02  0.14286694612E+03  0.76550278876E+02  0.16522738068E+03  0.10566000000E+00 0.  1.
         13    1    1    2    0    0 -0.48166104623E+02 -0.12354763828E+03  0.34768284777E+03  0.37211203468E+03  0.10566000000E+00 0. -1.
          4    1    1    2  501    0 -0.10652948081E+02 -0.35816454858E+00  0.75129380369E+01  0.13040622018E+02  0.00000000000E+00 0.  1.
         -4    1    1    2    0  503  0.26738425003E+02 -0.18961143288E+02 -0.63845143850E+02  0.71768173445E+02  0.00000000000E+00 0. -1.
</event>
<event>
 6    1  0.5496865E-006  0.2047548E+02  0.7818608E-02  0.1503348E+00
         21   -1    0    0  503  502  0.00000000000E+00  0.00000000000E+00  0.12916378917E+03  0.12916378917E+03  0.00000000000E+00 0.  1.
         21   -1    0    0  501  503 -0.00000000000E+00 -0.00000000000E+00 -0.69628288332E+03  0.69628288332E+03  0.00000000000E+00 0.  1.
        -13    1    1    2    0    0  0.28997087606E+02 -0.17557261352E+02  0.12208480897E+03  0.12670359214E+03  0.10566000000E+00 0.  1.
         13    1    1    2    0    0 -0.45596694489E+01  0.17580539641E+02 -0.42086275592E+02  0.45838103329E+02  0.10566000000E+00 0. -1.
          4    1    1    2  501    0 -0.15109205726E+02 -0.70087617708E+01 -0.63771087894E+03  0.63792834705E+03  0.00000000000E+00 0.  1.
         -4    1    1    2    0  502 -0.93282124306E+01  0.69854834817E+01 -0.94067485842E+01  0.14976629980E+02  0.00000000000E+00 0. -1.
</event>
<event>
 6    1  0.5496865E-006  0.1018721E+03  0.7818608E-02  0.1161495E+00
         21   -1    0    0  501  502  0.00000000000E+00  0.00000000000E+00  0.63624170199E+03  0.63624170199E+03  0.00000000000E+00 0. -1.
         21   -1    0    0  502  503 -0.00000000000E+00 -0.00000000000E+00 -0.32269076127E+02  0.32269076127E+02  0.00000000000E+00 0.  1.
        -13    1    1    2    0    0  0.83717627366E+02  0.21665861820E+02  0.10942627480E+03  0.13947104173E+03  0.10566000000E+00 0.  1.
         13    1    1    2    0    0 -0.10538174917E+03 -0.19088173785E+02  0.32368495886E+03  0.34094227546E+03  0.10566000000E+00 0. -1.
          4    1    1    2  501    0 -0.12165683861E+02 -0.12241211508E+01  0.14494567229E+03  0.14546047659E+03  0.00000000000E+00 0.  1.
         -4    1    1    2    0  503  0.33829805664E+02 -0.13535668841E+01  0.25915719912E+02  0.42636984334E+02  0.00000000000E+00 0. -1.
</event>
<event>
 6    1  0.5496865E-006  0.5422021E+02  0.7818608E-02  0.1275499E+00
         21   -1    0    0  503  502  0.00000000000E+00  0.00000000000E+00  0.10254496700E+03  0.10254496700E+03  0.00000000000E+00 0.  1.
         21   -1    0    0  501  503 -0.00000000000E+00 -0.00000000000E+00 -0.26692899859E+03  0.26692899859E+03  0.00000000000E+00 0. -1.
        -13    1    1    2    0    0 -0.58310462237E+02 -0.64241005734E+01  0.26992637460E+01  0.58725431146E+02  0.10566000000E+00 0.  1.
         13    1    1    2    0    0  0.65710036259E+02 -0.10314025240E+02 -0.21115983820E+03  0.22138806747E+03  0.10566000000E+00 0. -1.
          4    1    1    2  501    0 -0.14974793871E+02  0.93502302026E-02 -0.18697769883E+02  0.23955190200E+02  0.00000000000E+00 0.  1.
         -4    1    1    2    0  502  0.75752198487E+01  0.16728775584E+02  0.62774312759E+02  0.65405276780E+02  0.00000000000E+00 0. -1.
</event>
<event>
 6    1  0.5496865E-006  0.7094727E+02  0.7818608E-02  0.1224264E+00
         21   -1    0    0  501  502  0.00000000000E+00  0.00000000000E+00  0.21330499203E+03  0.21330499203E+03  0.00000000000E+00 0. -1.
         21   -1    0    0  502  503 -0.00000000000E+00 -0.00000000000E+00 -0.10197032185E+03  0.10197032185E+03  0.00000000000E+00 0.  1.
        -13    1    1    2    0    0 -0.71987749135E+02  0.23824454796E+02 -0.47472652658E+02  0.89462308188E+02  0.10566000000E+00 0.  1.
         13    1    1    2    0    0  0.39625018501E+02 -0.29542087349E+02  0.16751253612E+03  0.17465204819E+03  0.10566000000E+00 0. -1.
          4    1    1    2  501    0  0.91591787844E+01  0.17467523735E+02  0.68220158992E+01  0.20869711124E+02  0.00000000000E+00 0.  1.
         -4    1    1    2    0  503  0.23203551849E+02 -0.11749891183E+02 -0.15527229181E+02  0.30291246380E+02  0.00000000000E+00 0. -1.
</event>
<event>
 6    1  0.5496865E-006  0.6741154E+02  0.7818608E-02  0.1260032E+00
         21   -1    0    0  503  502  0.00000000000E+00  0.00000000000E+00  0.10945792240E+04  0.10945792240E+04  0.00000000000E+00 0.  1.
         21   -1    0    0  501  503 -0.00000000000E+00 -0.00000000000E+00 -0.12211205103E+02  0.12211205103E+02  0.00000000000E+00 0. -1.
        -13    1    1    2    0    0  0.34016996679E+02 -0.16678005473E+02  0.11601109810E+03  0.12204055874E+03  0.10566000000E+00 0.  1.
         13    1    1    2    0    0 -0.52361768438E+02  0.56719689249E+02  0.17088124569E+03  0.18750810445E+03  0.10566000000E+00 0. -1.
          4    1    1    2  501    0 -0.12032614088E+01 -0.16228273250E+02  0.12447791930E+03  0.12553707454E+03  0.00000000000E+00 0.  1.
         -4    1    1    2    0  502  0.19548033167E+02 -0.23813410526E+02  0.67099775581E+03  0.67170469138E+03  0.00000000000E+00 0. -1.
</event>
<event>
 6    1  0.5496865E-006  0.1138182E+03  0.7818608E-02  0.1143521E+00
         21   -1    0    0  503  502  0.00000000000E+00  0.00000000000E+00  0.12539248334E+03  0.12539248334E+03  0.00000000000E+00 0.  1.
         21   -1    0    0  501  503 -0.00000000000E+00 -0.00000000000E+00 -0.27281204830E+03  0.27281204830E+03  0.00000000000E+00 0.  1.
        -13    1    1    2    0    0 -0.14504034469E+02 -0.11620080566E+03 -0.39430475044E+02  0.12356280904E+03  0.10566000000E+00 0.  1.
         13    1    1    2    0    0  0.34834497175E+02  0.10733546915E+03 -0.82381738946E-01  0.11284663523E+03  0.10566000000E+00 0. -1.
          4    1    1    2  501    0 -0.36330534347E+02  0.14580824093E+02 -0.12894292169E+03  0.13475453689E+03  0.00000000000E+00 0.  1.
         -4    1    1    2    0  502  0.16000071641E+02 -0.57154875809E+01  0.21036213524E+02  0.27040550479E+02  0.00000000000E+00 0. -1.
</event>
<event>
 6    1  0.5496865E-006  0.4678878E+02  0.7818608E-02  0.1305446E+00
         21   -1    0    0  501  502  0.00000000000E+00  0.00000000000E+00  0.42174098720E+02  0.42174098720E+02  0.00000000000E+00 0. -1.
         21   -1    0    0  502  503 -0.00000000000E+00 -0.00000000000E+00 -0.37878988744E+03  0.37878988744E+03  0.00000000000E+00 0. -1.
        -13    1    1    2    0    0  0.15696089681E+02 -0.25623634228E+02 -0.58186557305E+02  0.65487590255E+02  0.10566000000E+00 0.  1.
         13    1    1    2    0    0 -0.21498459731E+02  0.51373474689E+02 -0.15558406482E+01  0.55712202224E+02  0.10566000000E+00 0. -1.
          4    1    1    2  501    0  0.10264607731E+02  0.28123607911E+01  0.80709962781E+01  0.13357115183E+02  0.00000000000E+00 0.  1.
         -4    1    1    2    0  503 -0.44622376808E+01 -0.28562201252E+02 -0.28494438704E+03  0.28640707850E+03  0.00000000000E+00 0. -1.
</event>
<event>
 6    1  0.5496865E-006  0.8361059E+02  0.7818608E-02  0.1225038E+00
         21   -1    0    0  503  502  0.00000000000E+00  0.00000000000E+00  0.11209416386E+03  0.11209416386E+03  0.00000000000E+00 0.  1.
         21   -1    0    0  501  503 -0.00000000000E+00 -0.00000000000E+00 -0.52204133499E+03  0.52204133499E+03  0.00000000000E+00 0.  1.
        -13    1    1    2    0    0 -0.22068042424E+02 -0.80503137541E+02  0.73660656172E+02  0.11132680307E+03  0.10566000000E+00 0.  1.
         13    1    1    2    0    0 -0.54153731579E+02  0.25345003617E+02 -0.28365146033E+03  0.28988473221E+03  0.10566000000E+00 0. -1.
          4    1    1    2  501    0  0.52884077202E+02  0.72840470000E+02 -0.15604929260E+03  0.18014949739E+03  0.00000000000E+00 0.  1.
         -4    1    1    2    0  502  0.23337696801E+02 -0.17682336076E+02 -0.43907074367E+02  0.52774466180E+02  0.00000000000E+00 0. -1.
</event>
<event>
 6    1  0.5496865E-006  0.9201547E+02  0.7818608E-02  0.1178488E+00
         21   -1    0    0  501  502  0.00000000000E+00  0.00000000000E+00  0.17669515465E+03  0.17669515465E+03  0.00000000000E+00 0. -1.
         21   -1    0    0  502  503 -0.00000000000E+00 -0.00000000000E+00 -0.10916609990E+03  0.10916609990E+03  0.00000000000E+00 0. -1.
        -13    1    1    2    0    0  0.22201690742E+02  0.10006599373E+03  0.46875770709E+02  0.11270965893E+03  0.10566000000E+00 0.  1.
         13    1    1    2    0    0 -0.33665915844E+02 -0.76097373156E+02  0.56947212999E+02  0.10083253603E+03  0.10566000000E+00 0. -1.
          4    1    1    2  501    0  0.15705789426E+01 -0.11675900413E+02  0.14758265088E+02  0.18883849107E+02  0.00000000000E+00 0.  1.
         -4    1    1    2    0  503  0.98936461592E+01 -0.12292720156E+02 -0.51052194045E+02  0.53435210488E+02  0.00000000000E+00 0. -1.
</event>
<event>
 6    1  0.5496865E-006  0.8412463E+02  0.7818608E-02  0.1193883E+00
         21   -1    0    0  501  502  0.00000000000E+00  0.00000000000E+00  0.95844487049E+03  0.95844487049E+03  0.00000000000E+00 0. -1.
         21   -1    0    0  502  503 -0.00000000000E+00 -0.00000000000E+00 -0.26412096359E+02  0.26412096359E+02  0.00000000000E+00 0.  1.
        -13    1    1    2    0    0 -0.44799174089E+02  0.64313793597E+02  0.17231655518E+03  0.18930461273E+03  0.10566000000E+00 0.  1.
         13    1    1    2    0    0  0.58541709227E+02 -0.72055063954E+02  0.21076581790E+03  0.23030698018E+03  0.10566000000E+00 0. -1.
          4    1    1    2  501    0  0.33843022780E+02  0.11239465285E+02  0.48041414404E+03  0.48173584625E+03  0.00000000000E+00 0.  1.
         -4    1    1    2    0  503 -0.47585557918E+02 -0.34981949282E+01  0.68536257006E+02  0.83509527687E+02  0.00000000000E+00 0. -1.
</event>
<event>
 6    1  0.5496865E-006  0.1544692E+03  0.7818608E-02  0.1096786E+00
         21   -1    0    0  501  502  0.00000000000E+00  0.00000000000E+00  0.15514165363E+03  0.15514165363E+03  0.00000000000E+00 0. -1.
         21   -1    0    0  502  503 -0.00000000000E+00 -0.00000000000E+00 -0.40439473269E+03  0.40439473269E+03  0.00000000000E+00 0.  1.
        -13    1    1    2    0    0 -0.12563025494E+03  0.10730233559E+03 -0.30988866345E+03  0.35118050499E+03  0.10566000000E+00 0.  1.
         13    1    1    2    0    0  0.11279213764E+03 -0.71725829474E+02  0.27326645265E+02  0.13643099953E+03  0.10566000000E+00 0. -1.
          4    1    1    2  501    0  0.13582742920E+02 -0.24219487175E+02  0.46711453789E+02  0.54341829002E+02  0.00000000000E+00 0.  1.
         -4    1    1    2    0  503 -0.74462561611E+00 -0.11357018943E+02 -0.13402514657E+02  0.17583052799E+02  0.00000000000E+00 0. -1.
</event>
<event>
 6    1  0.5496865E-006  0.1462610E+03  0.7818608E-02  0.1104859E+00
         21   -1    0    0  503  502  0.00000000000E+00  0.00000000000E+00  0.75879905878E+03  0.75879905878E+03  0.00000000000E+00 0.  1.
         21   -1    0    0  501  503 -0.00000000000E+00 -0.00000000000E+00 -0.19762810441E+03  0.19762810441E+03  0.00000000000E+00 0. -1.
        -13    1    1    2    0    0  0.11455157749E+03  0.80068110372E+02  0.20986510026E+03  0.25214348628E+03  0.10566000000E+00 0.  1.
         13    1    1    2    0    0 -0.97745364195E+02 -0.12389295152E+03 -0.25138657079E+02  0.15979856978E+03  0.10566000000E+00 0. -1.
          4    1    1    2  501    0  0.55500567490E+01  0.10306024278E+02 -0.82726146638E+02  0.83550180155E+02  0.00000000000E+00 0.  1.
         -4    1    1    2    0  502 -0.22356270043E+02  0.33518816873E+02  0.45917065782E+03  0.46093492697E+03  0.00000000000E+00 0. -1.
</event>
<event>
 6    1  0.5496865E-006  0.4206189E+02  0.7818608E-02  0.1360290E+00
         21   -1    0    0  501  502  0.00000000000E+00  0.00000000000E+00  0.73632507911E+03  0.73632507911E+03  0.00000000000E+00 0.  1.
         21   -1    0    0  502  503 -0.00000000000E+00 -0.00000000000E+00 -0.63860837847E+02  0.63860837847E+02  0.00000000000E+00 0. -1.
        -13    1    1    2    0    0  0.11705073733E+02 -0.15749043544E+02  0.27509126764E+01  0.19814636212E+02  0.10566000000E+00 0.  1.
         13    1    1    2    0    0  0.24257785901E+02  0.28562372977E+02 -0.14668612797E+02  0.40242125842E+02  0.10566000000E+00 0. -1.
          4    1    1    2  501    0  0.23246649630E+02  0.26754240338E+01  0.67821368525E+03  0.67861724666E+03  0.00000000000E+00 0.  1.
         -4    1    1    2    0  503 -0.59209509264E+02 -0.15488753467E+02  0.61682561335E+01  0.61511908237E+02  0.00000000000E+00 0. -1.
</event>
<event>
 6    1  0.5496865E-006  0.1335910E+03  0.7818608E-02  0.1118525E+00
         21   -1    0    0  503  502  0.00000000000E+00  0.00000000000E+00  0.12300023521E+04  0.12300023521E+04  0.00000000000E+00 0.  1.
         21   -1    0    0  501  503 -0.00000000000E+00 -0.00000000000E+00 -0.78517587804E+02  0.78517587804E+02  0.00000000000E+00 0. -1.
        -13    1    1    2    0    0 -0.77222965446E+02 -0.99537753456E+02  0.70920498296E+03  0.72030748280E+03  0.10566000000E+00 0.  1.
         13    1    1    2    0    0 -0.41837550268E+02  0.15375222459E+03  0.40868373740E+02  0.16450034138E+03  0.10566000000E+00 0. -1.
          4    1    1    2  501    0  0.30883333847E+02 -0.16615165360E+02  0.64358726341E+02  0.73293176256E+02  0.00000000000E+00 0.  1.
         -4    1    1    2    0  502  0.88177181867E+02 -0.37599305775E+02  0.33705268128E+03  0.35041893950E+03  0.00000000000E+00 0. -1.
</event>
<event>
 6    1  0.5496865E-006  0.9641802E+02  0.7818608E-02  0.1170622E+00
         21   -1    0    0  503  502  0.00000000000E+00  0.00000000000E+00  0.29044599738E+03  0.29044599738E+03  0.00000000000E+00 0. -1.
         21   -1    0    0  501  503 -0.00000000000E+00 -0.00000000000E+00 -0.39556776257E+03  0.39556776257E+03  0.00000000000E+00 0. -1.
        -13    1    1    2    0    0  0.24665053298E+02  0.10370684999E+03  0.19189356585E+03  0.21951452655E+03  0.10566000000E+00 0.  1.
         13    1    1    2    0    0 -0.11033546157E+03 -0.57220188461E+02 -0.33706799007E+03  0.35925326044E+03  0.10566000000E+00 0. -1.
          4    1    1    2  501    0  0.51198182163E+02 -0.16770699899E+02  0.19327159042E+02  0.57236782828E+02  0.00000000000E+00 0.  1.
         -4    1    1    2    0  502  0.34472226104E+02 -0.29715961626E+02  0.20725499975E+02  0.50009190127E+02  0.00000000000E+00 0. -1.
</event>
<event>
 6    1  0.5496865E-006  0.6700481E+02  0.7818608E-02  0.1234813E+00
         21   -1    0    0  503  502  0.00000000000E+00  0.00000000000E+00  0.28540532712E+02  0.28540532712E+02  0.00000000000E+00 0.  1.
         21   -1    0    0  501  503 -0.00000000000E+00 -0.00000000000E+00 -0.28351507107E+03  0.28351507107E+03  0.00000000000E+00 0. -1.
        -13    1    1    2    0    0 -0.41023403204E+00 -0.76074301687E+02 -0.71410655122E+02  0.10434059851E+03  0.10566000000E+00 0.  1.
         13    1    1    2    0    0 -0.62409431374E+01  0.57248370502E+02 -0.10771151110E+03  0.12213969905E+03  0.10566000000E+00 0. -1.
          4    1    1    2  501    0 -0.77166905700E+01  0.13197721409E+02 -0.64839745862E+02  0.66617713915E+02  0.00000000000E+00 0.  1.
         -4    1    1    2    0  502  0.14367867739E+02  0.56282097766E+01 -0.11012626280E+02  0.18957592312E+02  0.00000000000E+00 0. -1.
</event>
<event>
 6    1  0.5496865E-006  0.3154091E+02  0.7818608E-02  0.1415483E+00
         21   -1    0    0  503  502  0.00000000000E+00  0.00000000000E+00  0.26557156213E+02  0.26557156213E+02  0.00000000000E+00 0.  1.
         21   -1    0    0  501  503 -0.00000000000E+00 -0.00000000000E+00 -0.11958505001E+03  0.11958505001E+03  0.00000000000E+00 0. -1.
        -13    1    1    2    0    0  0.32539274881E+02 -0.40986895796E+02 -0.38752774002E+02  0.65119265150E+02  0.10566000000E+00 0.  1.
         13    1    1    2    0    0 -0.16352062063E+02  0.12483956896E+02 -0.39043531250E+02  0.44132160723E+02  0.10566000000E+00 0. -1.
          4    1    1    2  501    0 -0.12016083478E+02  0.18361060435E+02 -0.13567607372E+02  0.25799123479E+02  0.00000000000E+00 0.  1.
         -4    1    1    2    0  502 -0.41711293396E+01  0.10141878465E+02 -0.16639811708E+01  0.11091656869E+02  0.00000000000E+00 0. -1.
</event>
<event>
 6    1  0.5496865E-006  0.2009848E+03  0.7818608E-02  0.1059463E+00
         21   -1    0    0  501  502  0.00000000000E+00  0.00000000000E+00  0.10825406652E+04  0.10825406652E+04  0.00000000000E+00 0.  1.
         21   -1    0    0  502  503 -0.00000000000E+00 -0.00000000000E+00 -0.13205893387E+03  0.13205893387E+03  0.00000000000E+00 0.  1.
        -13    1    1    2    0    0  0.21177487915E+02  0.18109723172E+03  0.14590161736E+03  0.23352084799E+03  0.10566000000E+00 0.  1.
         13    1    1    2    0    0 -0.21337257001E+03 -0.18679418678E+03  0.58033200971E+03  0.64591421606E+03  0.10566000000E+00 0. -1.
          4    1    1    2  501    0  0.14606708705E+03  0.55209415853E+01  0.24443999244E+03  0.28481043629E+03  0.00000000000E+00 0.  1.
         -4    1    1    2    0  503  0.46127995039E+02  0.17601347288E+00 -0.20191888201E+02  0.50354098703E+02  0.00000000000E+00 0. -1.
</event>
<event>
 6    1  0.5496865E-006  0.3310208E+02  0.7818608E-02  0.1402477E+00
         21   -1    0    0  501  502  0.00000000000E+00  0.00000000000E+00  0.31691682027E+03  0.31691682027E+03  0.00000000000E+00 0. -1.
         21   -1    0    0  502  503 -0.00000000000E+00 -0.00000000000E+00 -0.35096990236E+03  0.35096990236E+03  0.00000000000E+00 0. -1.
        -13    1    1    2    0    0  0.23072269612E+02  0.50086543912E+01 -0.26427183284E+02  0.35437599019E+02  0.10566000000E+00 0.  1.
         13    1    1    2    0    0 -0.14320253325E+02 -0.24259627551E+02  0.97235932770E+02  0.10123456411E+03  0.10566000000E+00 0. -1.
          4    1    1    2  501    0 -0.56205426188E+01 -0.13792544585E+02  0.21204845107E+03  0.21257085969E+03  0.00000000000E+00 0.  1.
         -4    1    1    2    0  503 -0.31314736684E+01  0.33043517744E+02 -0.31691028264E+03  0.31864369982E+03  0.00000000000E+00 0. -1.
</event>
<event>
 6    1  0.5496865E-006  0.5199650E+02  0.7818608E-02  0.1283867E+00
         21   -1    0    0  503  502  0.00000000000E+00  0.00000000000E+00  0.40778340921E+03  0.40778340921E+03  0.00000000000E+00 0.  1.
         21   -1    0    0  501  503 -0.00000000000E+00 -0.00000000000E+00 -0.29057452999E+02  0.29057452999E+02  0.00000000000E+00 0. -1.
        -13    1    1    2    0    0 -0.51314339727E+02  0.14141473811E+02  0.26180081522E+03  0.26715692160E+03  0.10566000000E+00 0.  1.
         13    1    1    2    0    0  0.54551880906E+02  0.11497403161E+02  0.19732170759E+02  0.59139392259E+02  0.10566000000E+00 0. -1.
          4    1    1    2  501    0 -0.29739807263E+01 -0.14459506587E+02  0.22350017328E+01  0.14930409399E+02  0.00000000000E+00 0.  1.
         -4    1    1    2    0  502 -0.26356045327E+00 -0.11179370385E+02  0.94957968495E+02  0.95614138949E+02  0.00000000000E+00 0. -1.
</event>
<event>
 6    1  0.5496865E-006  0.3698398E+02  0.7818608E-02  0.1369370E+00
         21   -1    0    0  503  502  0.00000000000E+00  0.00000000000E+00  0.22203314210E+03  0.22203314210E+03  0.00000000000E+00 0.  1.
         21   -1    0    0  501  503 -0.00000000000E+00 -0.00000000000E+00 -0.19837182002E+02  0.19837182002E+02  0.00000000000E+00 0.  1.
        -13    1    1    2    0    0  0.32152772030E+02  0.10313833813E+02  0.39415809543E+02  0.51901764161E+02  0.10566000000E+00 0.  1.
         13    1    1    2    0    0  0.91009906509E+01  0.31612349503E+02  0.33753558192E+02  0.47132605769E+02  0.10566000000E+00 0. -1.
          4    1    1    2  501    0 -0.36030607393E+02 -0.27034341125E+02  0.87547898561E+02  0.98456563070E+02  0.00000000000E+00 0.  1.
         -4    1    1    2    0  502 -0.52231552881E+01 -0.14891842190E+02  0.41478693808E+02  0.44379391106E+02  0.00000000000E+00 0. -1.
</event>
<event>
 6    1  0.5496865E-006  0.3756539E+02  0.7818608E-02  0.1352757E+00
         21   -1    0    0  501  502  0.00000000000E+00  0.00000000000E+00  0.41096137035E+02  0.41096137035E+02  0.00000000000E+00 0. -1.
         21   -1    0    0  502  503 -0.00000000000E+00 -0.00000000000E+00 -0.23029599955E+03  0.23029599955E+03  0.00000000000E+00 0. -1.
        -13    1    1    2    0    0 -0.71893310143E+01  0.25981625577E+02 -0.16653713047E+02  0.31687358210E+02  0.10566000000E+00 0.  1.
         13    1    1    2    0    0  0.39909898217E+01 -0.54547511540E+02 -0.29241813169E+02  0.62019785685E+02  0.10566000000E+00 0. -1.
          4    1    1    2  501    0  0.87553652896E+01  0.60880807967E+01  0.14606778868E+02  0.18085329360E+02  0.00000000000E+00 0.  1.
         -4    1    1    2    0  503 -0.55570240970E+01  0.22477805166E+02 -0.15791111517E+03  0.15959966333E+03  0.00000000000E+00 0. -1.
</event>
<event>
 6    1  0.5496865E-006  0.6309895E+02  0.7818608E-02  0.1246088E+00
         21   -1    0    0  501  502  0.00000000000E+00  0.00000000000E+00  0.11877100613E+03  0.11877100613E+03  0.00000000000E+00 0. -1.
         21   -1    0    0  502  503 -0.00000000000E+00 -0.00000000000E+00 -0.37008029895E+03  0.37008029895E+03  0.00000000000E+00 0.  1.
        -13    1    1    2    0    0 -0.43814302155E+02  0.42718171140E+02 -0.28896298619E+03  0.29537121351E+03  0.10566000000E+00 0.  1.
         13    1    1    2    0    0 -0.22046694986E+02 -0.58880046540E+02 -0.10720593393E+01  0.62881452875E+02  0.10566000000E+00 0. -1.
          4    1    1    2  501    0  0.24558841499E+02 -0.11291672769E+02  0.67884303841E+02  0.73067894985E+02  0.00000000000E+00 0.  1.
         -4    1    1    2    0  503  0.41302155642E+02  0.27453548169E+02 -0.29158551119E+02  0.57530743704E+02  0.00000000000E+00 0. -1.
</event>
<event>
 6    1  0.5496865E-006  0.3391764E+03  0.7818608E-02  0.9923326E-01
         21   -1    0    0  501  502  0.00000000000E+00  0.00000000000E+00  0.29664752060E+03  0.29664752060E+03  0.00000000000E+00 0.  1.
         21   -1    0    0  502  503 -0.00000000000E+00 -0.00000000000E+00 -0.83834531897E+03  0.83834531897E+03  0.00000000000E+00 0.  1.
        -13    1    1    2    0    0  0.14524551913E+03  0.30510756687E+03 -0.36516087480E+03  0.49752322945E+03  0.10566000000E+00 0.  1.
         13    1    1    2    0    0 -0.12354462892E+03 -0.30731100977E+03 -0.74164361148E+02  0.33941669919E+03  0.10566000000E+00 0. -1.
          4    1    1    2  501    0  0.56724853754E+02 -0.43239974867E+02  0.72113549755E+02  0.10142863756E+03  0.00000000000E+00 0.  1.
         -4    1    1    2    0  503 -0.78425743962E+02  0.45443417767E+02 -0.17448611218E+03  0.19662427337E+03  0.00000000000E+00 0. -1.
</event>
<event>
 6    1  0.5496865E-006  0.1865258E+02  0.7818608E-02  0.1529506E+00
         21   -1    0    0  503  502  0.00000000000E+00  0.00000000000E+00  0.17829448405E+03  0.17829448405E+03  0.00000000000E+00 0.  1.
         21   -1    0    0  501  503 -0.00000000000E+00 -0.00000000000E+00 -0.19144883431E+02  0.19144883431E+02  0.00000000000E+00 0. -1.
        -13    1    1    2    0    0 -0.48469850596E+01 -0.26784001111E+02  0.10884707942E+03  0.11219881390E+03  0.10566000000E+00 0.  1.
         13    1    1    2    0    0  0.80723924132E+01  0.13815611387E+02  0.12580544496E+01  0.16050810020E+02  0.10566000000E+00 0. -1.
          4    1    1    2  501    0 -0.14581820766E+02  0.46723076396E+01 -0.27173528614E+01  0.15551333129E+02  0.00000000000E+00 0.  1.
         -4    1    1    2    0  502  0.11356413412E+02  0.82960820846E+01  0.51761819616E+02  0.53638410430E+02  0.00000000000E+00 0. -1.
</event>
<event>
 6    1  0.5496865E-006  0.7223093E+02  0.7818608E-02  0.1220993E+00
         21   -1    0    0  501  502  0.00000000000E+00  0.00000000000E+00  0.23202230830E+03  0.23202230830E+03  0.00000000000E+00 0. -1.
         21   -1    0    0  502  503 -0.00000000000E+00 -0.00000000000E+00 -0.82167031064E+02  0.82167031064E+02  0.00000000000E+00 0.  1.
        -13    1    1    2    0    0  0.64084029928E+02  0.24053133443E+02  0.63862433563E+01  0.68746719110E+02  0.10566000000E+00 0.  1.
         13    1    1    2    0    0 -0.93979620699E+02 -0.42639553352E+02  0.72257516746E+02  0.12598198485E+03  0.10566000000E+00 0. -1.
          4    1    1    2  501    0  0.47149721050E+02  0.44303600015E+02  0.52111507001E+02  0.83075353332E+02  0.00000000000E+00 0.  1.
         -4    1    1    2    0  503 -0.17254130278E+02 -0.25717180106E+02  0.19100010134E+02  0.36385282071E+02  0.00000000000E+00 0. -1.
</event>
<event>
 6    1  0.5496865E-006  0.1846984E+03  0.7818608E-02  0.1089656E+00
         21   -1    0    0  503  502  0.00000000000E+00  0.00000000000E+00  0.82994300130E+03  0.82994300130E+03  0.00000000000E+00 0. -1.
         21   -1    0    0  501  503 -0.00000000000E+00 -0.00000000000E+00 -0.31292899267E+03  0.31292899267E+03  0.00000000000E+00 0. -1.
        -13    1    1    2    0    0 -0.17669659465E+02 -0.10940305031E+03  0.21393181453E+03  0.24093168474E+03  0.10566000000E+00 0.  1.
         13    1    1    2    0    0  0.17665964485E+03  0.17409575210E+03 -0.75186665819E+02  0.25917370024E+03  0.10566000000E+00 0. -1.
          4    1    1    2  501    0  0.30238279646E+01  0.13316203644E+02 -0.11600211015E+03  0.11680305807E+03  0.00000000000E+00 0.  1.
         -4    1    1    2    0  502 -0.16201381334E+03 -0.78008905442E+02  0.49427097007E+03  0.52596355092E+03  0.00000000000E+00 0. -1.
</event>
<event>
 6    1  0.5496865E-006  0.1608176E+03  0.7818608E-02  0.1139285E+00
         21   -1    0    0  501  502  0.00000000000E+00  0.00000000000E+00  0.11153800051E+04  0.11153800051E+04  0.00000000000E+00 0. -1.
         21   -1    0    0  502  503 -0.00000000000E+00 -0.00000000000E+00 -0.54939172355E+02  0.54939172355E+02  0.00000000000E+00 0. -1.
        -13    1    1    2    0    0 -0.42792771161E+02  0.41768031022E+01  0.17689993142E+02  0.46493160456E+02  0.10566000000E+00 0.  1.
         13    1    1    2    0    0  0.61834304881E+02 -0.15825677996E+03  0.56730807858E+03  0.59220533335E+03  0.10566000000E+00 0. -1.
          4    1    1    2  501    0  0.42290601104E+02  0.15051693088E+02  0.15925776961E+02  0.47630649569E+02  0.00000000000E+00 0.  1.
         -4    1    1    2    0  503 -0.61332134824E+02  0.13902828377E+03  0.45951698410E+03  0.48399003412E+03  0.00000000000E+00 0. -1.
</event>
<event>
 6    1  0.5496865E-006  0.3033284E+03  0.7818608E-02  0.1005941E+00
         21   -1    0    0  503  502  0.00000000000E+00  0.00000000000E+00  0.31602013874E+03  0.31602013874E+03  0.00000000000E+00 0.  1.
         21   -1    0    0  501  503 -0.00000000000E+00 -0.00000000000E+00 -0.65088086121E+03  0.65088086121E+03  0.00000000000E+00 0. -1.
        -13    1    1    2    0    0  0.11420122921E+03  0.28555833708E+03 -0.18691651775E+03  0.35989342923E+03  0.10566000000E+00 0.  1.
         13    1    1    2    0    0 -0.14014351650E+03 -0.27183228962E+03 -0.16535944301E+03  0.34767334591E+03  0.10566000000E+00 0. -1.
          4    1    1    2  501    0 -0.14294227563E+02 -0.34030507795E+02 -0.11430506835E+03  0.12011681420E+03  0.00000000000E+00 0.  1.
         -4    1    1    2    0  502  0.40236514854E+02  0.20304460335E+02  0.13172030664E+03  0.13921741062E+03  0.00000000000E+00 0. -1.
</event>
<event>
 6    1  0.5496865E-006  0.2070316E+03  0.7818608E-02  0.1055419E+00
         21   -1    0    0  503  502  0.00000000000E+00  0.00000000000E+00  0.29846878753E+03  0.29846878753E+03  0.00000000000E+00 0.  1.
         21   -1    0    0  501  503 -0.00000000000E+00 -0.00000000000E+00 -0.77102669354E+03  0.77102669354E+03  0.00000000000E+00 0.  1.
        -13    1    1    2    0    0 -0.20201465396E+03 -0.30053134673E+01  0.11217373628E+03  0.23108853411E+03  0.10566000000E+00 0.  1.
         13    1    1    2    0    0  0.21832472098E+03 -0.41867041029E+02 -0.88506339172E+02  0.23927372642E+03  0.10566000000E+00 0. -1.
          4    1    1    2  501    0 -0.17185270855E+02  0.20965934614E+02 -0.54454317615E+03  0.54521754799E+03  0.00000000000E+00 0.  1.
         -4    1    1    2    0  502  0.87520383184E+00  0.23906419882E+02  0.48317873033E+02  0.53915672562E+02  0.00000000000E+00 0. -1.
</event>
<event>
 6    1  0.5496865E-006  0.1359170E+03  0.7818608E-02  0.1115896E+00
         21   -1    0    0  503  502  0.00000000000E+00  0.00000000000E+00  0.83308019575E+03  0.83308019575E+03  0.00000000000E+00 0.  1.
         21   -1    0    0  501  503 -0.00000000000E+00 -0.00000000000E+00 -0.42448858203E+02  0.42448858203E+02  0.00000000000E+00 0. -1.
        -13    1    1    2    0    0  0.14900439691E+03  0.67512589021E+02  0.28416736553E+03  0.32788925382E+03  0.10566000000E+00 0.  1.
         13    1    1    2    0    0 -0.89031790642E+02 -0.58590854600E+02  0.33173088924E+03  0.34843211968E+03  0.10566000000E+00 0. -1.
          4    1    1    2  501    0  0.96577452176E+00 -0.11867389779E+02 -0.21495306880E+01  0.12099096775E+02  0.00000000000E+00 0.  1.
         -4    1    1    2    0  502 -0.60938380786E+02  0.29456553579E+01  0.17688261347E+03  0.18710858368E+03  0.00000000000E+00 0. -1.
</event>
<event>
 6    1  0.5496865E-006  0.5679472E+02  0.7818608E-02  0.1266353E+00
         21   -1    0    0  501  502  0.00000000000E+00  0.00000000000E+00  0.95104735181E+02  0.95104735181E+02  0.00000000000E+00 0.  1.
         21   -1    0    0  502  503 -0.00000000000E+00 -0.00000000000E+00 -0.72952277961E+02  0.72952277961E+02  0.00000000000E+00 0.  1.
        -13    1    1    2    0    0 -0.34762246149E+02  0.36326637243E+02 -0.18043412958E+02  0.53419231049E+02  0.10566000000E+00 0.  1.
         13    1    1    2    0    0  0.38467529952E+02 -0.35027935901E+02  0.41192437545E+02  0.66359138248E+02  0.10566000000E+00 0. -1.
          4    1    1    2  501    0  0.68013905573E+01 -0.17418458538E+02  0.14427566956E+02  0.23618134973E+02  0.00000000000E+00 0.  1.
         -4    1    1    2    0  503 -0.10506674361E+02  0.16119757197E+02 -0.15424134322E+02  0.24660508871E+02  0.00000000000E+00 0. -1.
</event>
<event>
 6    1  0.5496865E-006  0.2601135E+02  0.7818608E-02  0.1440127E+00
         21   -1    0    0  503  502  0.00000000000E+00  0.00000000000E+00  0.69044403706E+02  0.69044403706E+02  0.00000000000E+00 0. -1.
         21   -1    0    0  501  503 -0.00000000000E+00 -0.00000000000E+00 -0.62663641040E+02  0.62663641040E+02  0.00000000000E+00 0. -1.
        -13    1    1    2    0    0 -0.11806173201E+01  0.22019046375E+02  0.15716046477E+02  0.27078359282E+02  0.10566000000E+00 0.  1.
         13    1    1    2    0    0  0.16191664496E+02 -0.32721265006E+02 -0.40354599782E+01  0.36730740314E+02  0.10566000000E+00 0. -1.
          4    1    1    2  501    0 -0.49358095828E+01  0.11362016566E+02 -0.34683261811E+02  0.36829149957E+02  0.00000000000E+00 0.  1.
         -4    1    1    2    0  502 -0.10075237593E+02 -0.65979793430E+00  0.29383437978E+02  0.31069795192E+02  0.00000000000E+00 0. -1.
</event>
<event>
 6    1  0.5496865E-006  0.7254855E+02  0.7818608E-02  0.1220195E+00
         21   -1    0    0  503  502  0.00000000000E+00  0.00000000000E+00  0.25397498910E+02  0.25397498910E+02  0.00000000000E+00 0. -1.
         21   -1    0    0  501  503 -0.00000000000E+00 -0.00000000000E+00 -0.64866386922E+03  0.64866386922E+03  0.00000000000E+00 0.  1.
        -13    1    1    2    0    0 -0.15717955715E+02 -0.83357291025E+02 -0.23667571754E+03  0.25141777689E+03  0.10566000000E+00 0.  1.
         13    1    1    2    0    0  0.31714702793E+02  0.57181775797E+02 -0.21288543089E+03  0.22270113539E+03  0.10566000000E+00 0. -1.
          4    1    1    2  501    0 -0.10027367595E+02  0.35977423121E+02 -0.18199326769E+03  0.18578609356E+03  0.00000000000E+00 0.  1.
         -4    1    1    2    0  502 -0.59693794840E+01 -0.98019078938E+01  0.82880458126E+01  0.14156362286E+02  0.00000000000E+00 0. -1.
</event>
<event>
 6    1  0.5496865E-006  0.8328785E+02  0.7818608E-02  0.1195625E+00
         21   -1    0    0  503  502  0.00000000000E+00  0.00000000000E+00  0.15156199218E+04  0.15156199218E+04  0.00000000000E+00 0. -1.
         21   -1    0    0  501  503 -0.00000000000E+00 -0.00000000000E+00 -0.22459221997E+02  0.22459221997E+02  0.00000000000E+00 0.  1.
        -13    1    1    2    0    0  0.66219553159E+02 -0.31251173105E+02  0.17169420832E+03  0.18665630816E+03  0.10566000000E+00 0.  1.
         13    1    1    2    0    0 -0.66853333297E+02  0.71755354935E+02  0.20976339388E+03  0.23155753435E+03  0.10566000000E+00 0. -1.
          4    1    1    2  501    0 -0.57150992668E+02 -0.47890128075E+02  0.72060855919E+03  0.72445593096E+03  0.00000000000E+00 0.  1.
         -4    1    1    2    0  502  0.57784772805E+02  0.73859462450E+01  0.39109453846E+03  0.39540937038E+03  0.00000000000E+00 0. -1.
</event>
<event>
 6    1  0.5496865E-006  0.1894315E+03  0.7818608E-02  0.1102566E+00
         21   -1    0    0  503  502  0.00000000000E+00  0.00000000000E+00  0.58173176568E+03  0.58173176568E+03  0.00000000000E+00 0. -1.
         21   -1    0    0  501  503 -0.00000000000E+00 -0.00000000000E+00 -0.36015528455E+03  0.36015528455E+03  0.00000000000E+00 0. -1.
        -13    1    1    2    0    0  0.13499005471E+02  0.69989199616E+02  0.17234628901E+03  0.18650459970E+03  0.10566000000E+00 0.  1.
         13    1    1    2    0    0  0.67548686711E+02 -0.23792395518E+03 -0.26221659621E+03  0.36045552848E+03  0.10566000000E+00 0. -1.
          4    1    1    2  501    0  0.19960964644E+02  0.12244365403E+02 -0.86149298540E+01  0.24951585321E+02  0.00000000000E+00 0.  1.
         -4    1    1    2    0  502 -0.10100865683E+03  0.15569039016E+03  0.32006171817E+03  0.36997533672E+03  0.00000000000E+00 0. -1.
</event>
<event>
 6    1  0.5496865E-006  0.2254235E+03  0.7818608E-02  0.1043978E+00
         21   -1    0    0  501  502  0.00000000000E+00  0.00000000000E+00  0.44664413823E+03  0.44664413823E+03  0.00000000000E+00 0.  1.
         21   -1    0    0  502  503 -0.00000000000E+00 -0.00000000000E+00 -0.57048363711E+03  0.57048363711E+03  0.00000000000E+00 0.  1.
        -13    1    1    2    0    0  0.27473532964E+03 -0.81132157036E+02 -0.16059162696E+03  0.32840768881E+03  0.10566000000E+00 0.  1.
         13    1    1    2    0    0 -0.18323381556E+03  0.81834468042E+02 -0.41465396112E+02  0.20491681621E+03  0.10566000000E+00 0. -1.
          4    1    1    2  501    0  0.74193096956E+01 -0.12323485152E+02  0.26857661810E+03  0.26896154787E+03  0.00000000000E+00 0.  1.
         -4    1    1    2    0  503 -0.98920823773E+02  0.11621174147E+02 -0.19035909392E+03  0.21484172244E+03  0.00000000000E+00 0. -1.
</event>
<event>
 6    1  0.5496865E-006  0.2875520E+03  0.7818608E-02  0.1012580E+00
         21   -1    0    0  501  502  0.00000000000E+00  0.00000000000E+00  0.44712297003E+03  0.44712297003E+03  0.00000000000E+00 0. -1.
         21   -1    0    0  502  503 -0.00000000000E+00 -0.00000000000E+00 -0.11928352566E+04  0.11928352566E+04  0.00000000000E+00 0. -1.
        -13    1    1    2    0    0 -0.19117804746E+03  0.22199286763E+03 -0.36224039832E+03  0.46588410195E+03  0.10566000000E+00 0.  1.
         13    1    1    2    0    0  0.17441766810E+03 -0.23327109797E+03  0.62479732254E+01  0.29133481843E+03  0.10566000000E+00 0. -1.
          4    1    1    2  501    0  0.12670729168E+02  0.20616388457E+02  0.24587487490E+03  0.24706281986E+03  0.00000000000E+00 0.  1.
         -4    1    1    2    0  503  0.40896501902E+01 -0.93381581114E+01 -0.63559473643E+03  0.63567648644E+03  0.00000000000E+00 0. -1.
</event>
<event>
 6    1  0.5496865E-006  0.1317960E+03  0.7818608E-02  0.1148033E+00
         21   -1    0    0  501  502  0.00000000000E+00  0.00000000000E+00  0.42515887087E+03  0.42515887087E+03  0.00000000000E+00 0. -1.
         21   -1    0    0  502  503 -0.00000000000E+00 -0.00000000000E+00 -0.20545225060E+03  0.20545225060E+03  0.00000000000E+00 0. -1.
        -13    1    1    2    0    0  0.30639012732E+02 -0.57705378979E+02 -0.11187792361E+03  0.12955825261E+03  0.10566000000E+00 0.  1.
         13    1    1    2    0    0 -0.86375595465E+02  0.16861648654E+03  0.24243172766E+03  0.30767745573E+03  0.10566000000E+00 0. -1.
          4    1    1    2  501    0 -0.43196075939E+01 -0.95660902137E+01  0.73838878097E+02  0.74581157207E+02  0.00000000000E+00 0.  1.
         -4    1    1    2    0  503  0.60056190327E+02 -0.10134501735E+03  0.15313938120E+02  0.11879425592E+03  0.00000000000E+00 0. -1.
</event>
<event>
 6    1  0.5496865E-006  0.4641915E+03  0.7818608E-02  0.9560111E-01
         21   -1    0    0  503  502  0.00000000000E+00  0.00000000000E+00  0.25096856483E+03  0.25096856483E+03  0.00000000000E+00 0.  1.
         21   -1    0    0  501  503 -0.00000000000E+00 -0.00000000000E+00 -0.10488151031E+04  0.10488151031E+04  0.00000000000E+00 0. -1.
        -13    1    1    2    0    0 -0.44571213368E+03 -0.92666121848E+02 -0.28738679006E+03  0.53836557701E+03  0.10566000000E+00 0.  1.
         13    1    1    2    0    0  0.47219077356E+03  0.73156604272E+02 -0.46363460236E+03  0.66578755700E+03  0.10566000000E+00 0. -1.
          4    1    1    2  501    0 -0.32436431352E+02  0.35028837674E+02 -0.58358375371E+02  0.75397888058E+02  0.00000000000E+00 0.  1.
         -4    1    1    2    0  502  0.59577914733E+01 -0.15519320098E+02  0.11533229516E+02  0.20232645863E+02  0.00000000000E+00 0. -1.
</event>
<event>
 6    1  0.5496865E-006  0.9090818E+02  0.7818608E-02  0.1180543E+00
         21   -1    0    0  503  502  0.00000000000E+00  0.00000000000E+00  0.11734869049E+04  0.11734869049E+04  0.00000000000E+00 0. -1.
         21   -1    0    0  501  503 -0.00000000000E+00 -0.00000000000E+00 -0.27739697850E+02  0.27739697850E+02  0.00000000000E+00 0. -1.
        -13    1    1    2    0    0  0.87599969530E+02  0.87618322260E+01  0.14064572307E+03  0.16592695666E+03  0.10566000000E+00 0.  1.
         13    1    1    2    0    0 -0.91885526412E+02  0.32804803456E+02  0.20134163137E+03  0.22373548842E+03  0.10566000000E+00 0. -1.
          4    1    1    2  501    0  0.82040091232E+01 -0.23257740129E+02  0.36354204801E+02  0.43930131440E+02  0.00000000000E+00 0.  1.
         -4    1    1    2    0  502 -0.39184522408E+01 -0.18308895553E+02  0.76740564785E+03  0.76763402626E+03  0.00000000000E+00 0. -1.
</event>
<event>
 6    1  0.5496865E-006  0.3384144E+03  0.7818608E-02  0.1021718E+00
         21   -1    0    0  503  502  0.00000000000E+00  0.00000000000E+00  0.36036510356E+04  0.36036510356E+04  0.00000000000E+00 0. -1.
         21   -1    0    0  501  503 -0.00000000000E+00 -0.00000000000E+00 -0.59224900207E+02  0.59224900207E+02  0.00000000000E+00 0. -1.
        -13    1    1    2    0    0  0.11854086500E+03 -0.44776972283E+02  0.43204958858E+03  0.45024856699E+03  0.10566000000E+00 0.  1.
         13    1    1    2    0    0 -0.24692322174E+03  0.34647027999E+03  0.15515726556E+04  0.16088475531E+04  0.10566000000E+00 0. -1.
          4    1    1    2  501    0  0.24497171979E+02 -0.21498360438E+02  0.30724468857E+02  0.44791560847E+02  0.00000000000E+00 0.  1.
         -4    1    1    2    0  502  0.10388518477E+03 -0.28019494727E+03  0.15300794224E+04  0.15589882549E+04  0.00000000000E+00 0. -1.
</event>
<event>
 6    1  0.5496865E-006  0.1808467E+03  0.7818608E-02  0.1074124E+00
         21   -1    0    0  503  502  0.00000000000E+00  0.00000000000E+00  0.16675409826E+04  0.16675409826E+04  0.00000000000E+00 0.  1.
         21   -1    0    0  501  503 -0.00000000000E+00 -0.00000000000E+00 -0.59735757158E+02  0.59735757158E+02  0.00000000000E+00 0. -1.
        -13    1    1    2    0    0  0.26384606616E+02  0.14322948380E+03  0.56996915946E+03  0.58828197864E+03  0.10566000000E+00 0.  1.
         13    1    1    2    0    0 -0.11823050690E+02 -0.20355196991E+03  0.23568345913E+03  0.31164064731E+03  0.10566000000E+00 0. -1.
          4    1    1    2  501    0 -0.14323490703E+02  0.12139492937E+02 -0.44644155878E+01  0.19299240431E+02  0.00000000000E+00 0.  1.
         -4    1    1    2    0  502 -0.23806522360E+00  0.48182993172E+02  0.80661702245E+03  0.80805487339E+03  0.00000000000E+00 0. -1.
</event>
<event>
 6    1  0.5496865E-006  0.1062577E+03  0.7818608E-02  0.1154598E+00
         21   -1    0    0  501  502  0.00000000000E+00  0.00000000000E+00  0.51164933109E+03  0.51164933109E+03  0.00000000000E+00 0. -1.
         21   -1    0    0  502  503 -0.00000000000E+00 -0.00000000000E+00 -0.87304940700E+02  0.87304940700E+02  0.00000000000E+00 0.  1.
        -13    1    1    2    0    0 -0.94949358787E+02 -0.61125666099E+02  0.27311116735E+02  0.11617932713E+03  0.10566000000E+00 0.  1.
         13    1    1    2    0    0  0.48209174652E+02  0.91759469369E+02  0.35965666914E+03  0.37429514499E+03  0.10566000000E+00 0. -1.
          4    1    1    2  501    0  0.34706638047E+02 -0.24445193879E+02  0.65049330862E+02  0.77675824257E+02  0.00000000000E+00 0.  1.
         -4    1    1    2    0  503  0.12033546088E+02 -0.61886093912E+01 -0.27672726353E+02  0.30803975416E+02  0.00000000000E+00 0. -1.
</event>
<event>
 6    1  0.5496865E-006  0.3764039E+03  0.7818608E-02  0.9799779E-01
         21   -1    0    0  501  502  0.00000000000E+00  0.00000000000E+00  0.25692718817E+03  0.25692718817E+03  0.00000000000E+00 0. -1.
         21   -1    0    0  502  503 -0.00000000000E+00 -0.00000000000E+00 -0.13426747082E+04  0.13426747082E+04  0.00000000000E+00 0. -1.
        -13    1    1    2    0    0 -0.33730661291E+03  0.80444583657E+01 -0.22464705265E+03  0.40534771968E+03  0.10566000000E+00 0.  1.
         13    1    1    2    0    0  0.41726448196E+03 -0.43396631371E+02 -0.22000036718E+03  0.47370147587E+03  0.10566000000E+00 0. -1.
          4    1    1    2  501    0 -0.67197553251E+01 -0.30012835786E+02  0.29612438345E+02  0.42694518714E+02  0.00000000000E+00 0.  1.
         -4    1    1    2    0  503 -0.73238113720E+02  0.65365008792E+02 -0.67071253851E+03  0.67785818207E+03  0.00000000000E+00 0. -1.
</event>
<event>
 6    1  0.5496865E-006  0.3814556E+02  0.7818608E-02  0.1349343E+00
         21   -1    0    0  503  502  0.00000000000E+00  0.00000000000E+00  0.52174266069E+02  0.52174266069E+02  0.00000000000E+00 0.  1.
         21   -1    0    0  501  503 -0.00000000000E+00 -0.00000000000E+00 -0.10445131583E+03  0.10445131583E+03  0.00000000000E+00 0. -1.
        -13    1    1    2    0    0  0.57790351643E+01  0.20297053230E+02  0.20473572880E+02  0.29403162547E+02  0.10566000000E+00 0.  1.
         13    1    1    2    0    0 -0.16513178691E+02 -0.58527837700E+02 -0.55033629038E+02  0.82017707512E+02  0.10566000000E+00 0. -1.
          4    1    1    2  501    0  0.23175015426E+01  0.19793618449E+02 -0.29904033878E+01  0.20151939289E+02  0.00000000000E+00 0.  1.
         -4    1    1    2    0  502  0.84166419837E+01  0.18437166022E+02 -0.14726590216E+02  0.25052772553E+02  0.00000000000E+00 0. -1.
</event>
<event>
 6    1  0.5496865E-006  0.4317797E+02  0.7818608E-02  0.1322366E+00
         21   -1    0    0  501  502  0.00000000000E+00  0.00000000000E+00  0.19186136926E+03  0.19186136926E+03  0.00000000000E+00 0.  1.
         21   -1    0    0  502  503 -0.00000000000E+00 -0.00000000000E+00 -0.37327250785E+02  0.37327250785E+02  0.00000000000E+00 0. -1.
        -13    1    1    2    0    0  0.32610706346E+02 -0.15169603072E+02  0.19420575987E+02  0.40874747234E+02  0.10566000000E+00 0.  1.
         13    1    1    2    0    0 -0.42054648222E+02  0.27296114039E+02  0.54835705001E+02  0.74300989130E+02  0.10566000000E+00 0. -1.
          4    1    1    2  501    0  0.11134814278E+02  0.16163319099E+02  0.83235794297E+02  0.85518620344E+02  0.00000000000E+00 0.  1.
         -4    1    1    2    0  503 -0.16908724024E+01 -0.28289830066E+02 -0.29579568102E+01  0.28494263337E+02  0.00000000000E+00 0. -1.
</event>
<event>
 6    1  0.5496865E-006  0.9299110E+02  0.7818608E-02  0.1176703E+00
         21   -1    0    0  503  502  0.00000000000E+00  0.00000000000E+00  0.12772982507E+03  0.12772982507E+03  0.00000000000E+00 0. -1.
         21   -1    0    0  501  503 -0.00000000000E+00 -0.00000000000E+00 -0.66182651438E+03  0.66182651438E+03  0.00000000000E+00 0. -1.
        -13    1    1    2    0    0  0.20396157500E+02  0.75449186944E+02  0.16370659293E+02  0.79853570371E+02  0.10566000000E+00 0.  1.
         13    1    1    2    0    0 -0.62105098517E+02 -0.97210905432E+02 -0.63787044197E+01  0.11553225710E+03  0.10566000000E+00 0. -1.
          4    1    1    2  501    0 -0.23708368670E+02 -0.12780517320E+02 -0.51335880831E+03  0.51406487377E+03  0.00000000000E+00 0.  1.
         -4    1    1    2    0  502  0.65417309687E+02  0.34542235809E+02 -0.30729835870E+02  0.80105638216E+02  0.00000000000E+00 0. -1.
</event>
<event>
 6    1  0.5496865E-006  0.4247636E+02  0.7818608E-02  0.1325871E+00
         21   -1    0    0  503  502  0.00000000000E+00  0.00000000000E+00  0.16078051311E+03  0.16078051311E+03  0.00000000000E+00 0. -1.
         21   -1    0    0  501  503 -0.00000000000E+00 -0.00000000000E+00 -0.24383193715E+03  0.24383193715E+03  0.00000000000E+00 0. -1.
        -13    1    1    2    0    0 -0.36370226238E+02 -0.93371269535E+01 -0.25800216105E+02  0.45559166053E+02  0.10566000000E+00 0.  1.
         13    1    1    2    0    0  0.53913957974E+02  0.39824428846E+02 -0.19098696006E+03  0.20240733700E+03  0.10566000000E+00 0. -1.
          4    1    1    2  501    0 -0.19426813390E+02  0.17557163355E+02  0.19329160792E+02  0.32546451734E+02  0.00000000000E+00 0.  1.
         -4    1    1    2    0  502  0.18830816534E+01 -0.48044465247E+02  0.11440659133E+03  0.12409949547E+03  0.00000000000E+00 0. -1.
</event>
<event>
 6    1  0.5496865E-006  0.3202773E+03  0.7818608E-02  0.9992698E-01
         21   -1    0    0  501  502  0.00000000000E+00  0.00000000000E+00  0.75444960383E+03  0.75444960383E+03  0.00000000000E+00 0.  1.
         21   -1    0    0  502  503 -0.00000000000E+00 -0.00000000000E+00 -0.56538688603E+03  0.56538688603E+03  0.00000000000E+00 0. -1.
        -13    1    1    2    0    0 -0.29546450058E+03 -0.90066825448E+02  0.53244074765E+02  0.31344257339E+03  0.10566000000E+00 0.  1.
         13    1    1    2    0    0  0.38458019421E+03 -0.31919375610E+01 -0.28876013197E+03  0.48093090900E+03  0.10566000000E+00 0. -1.
          4    1    1    2  501    0  0.12881117528E+02 -0.15122669448E+00  0.37990050888E+03  0.38011885340E+03  0.00000000000E+00 0.  1.
         -4    1    1    2    0  503 -0.10199681116E+03  0.93409989703E+02  0.44678266120E+02  0.14534415409E+03  0.00000000000E+00 0. -1.
</event>
<event>
 6    1  0.5496865E-006  0.1389592E+03  0.7818608E-02  0.1112542E+00
         21   -1    0    0  503  502  0.00000000000E+00  0.00000000000E+00  0.12332177793E+04  0.12332177793E+04  0.00000000000E+00 0. -1.
         21   -1    0    0  501  503 -0.00000000000E+00 -0.00000000000E+00 -0.20967974038E+03  0.20967974038E+03  0.00000000000E+00 0. -1.
        -13    1    1    2    0    0 -0.76433640554E+02 -0.91383733805E+02  0.26898082599E+03  0.29418324923E+03  0.10566000000E+00 0.  1.
         13    1    1    2    0    0  0.87114693503E+02  0.13243993110E+03 -0.14965298963E+03  0.21800305879E+03  0.10566000000E+00 0. -1.
          4    1    1    2  501    0 -0.17934157567E+02 -0.10415210883E+02 -0.46924131597E+01  0.21263333856E+02  0.00000000000E+00 0.  1.
         -4    1    1    2    0  502  0.72531046182E+01 -0.30640986413E+02  0.90890261577E+03  0.90944787785E+03  0.00000000000E+00 0. -1.
</event>
<event>
 6    1  0.5496865E-006  0.1027981E+03  0.7818608E-02  0.1160007E+00
         21   -1    0    0  501  502  0.00000000000E+00  0.00000000000E+00  0.11643683391E+03  0.11643683391E+03  0.00000000000E+00 0.  1.
         21   -1    0    0  502  503 -0.00000000000E+00 -0.00000000000E+00 -0.20140197568E+03  0.20140197568E+03  0.00000000000E+00 0. -1.
        -13    1    1    2    0    0 -0.93415802319E+02  0.76065251457E+02 -0.64111181456E+02  0.13646497482E+03  0.10566000000E+00 0.  1.
         13    1    1    2    0    0  0.58578251361E+02 -0.80503825429E+02  0.16067036614E+02  0.10084859082E+03  0.10566000000E+00 0. -1.
          4    1    1    2  501    0 -0.14494574227E+02  0.23617807004E+01 -0.26145013313E+02  0.29987204125E+02  0.00000000000E+00 0.  1.
         -4    1    1    2    0  503  0.49332125186E+02  0.20767932715E+01 -0.10775983609E+02  0.50538039815E+02  0.00000000000E+00 0. -1.
</event>
<event>
 6    1  0.5496865E-006  0.1458542E+03  0.7818608E-02  0.1105274E+00
         21   -1    0    0  503  502  0.00000000000E+00  0.00000000000E+00  0.15779708704E+03  0.15779708704E+03  0.00000000000E+00 0.  1.
         21   -1    0    0  501  503 -0.00000000000E+00 -0.00000000000E+00 -0.88021859524E+03  0.88021859524E+03  0.00000000000E+00 0. -1.
        -13    1    1    2    0    0 -0.32575218671E+01  0.16421616085E+03 -0.52016393539E+02  0.17228834927E+03  0.10566000000E+00 0.  1.
         13    1    1    2    0    0  0.79156031909E+02 -0.14218555859E+03 -0.59053167153E+03  0.61254393858E+03  0.10566000000E+00 0. -1.
          4    1    1    2  501    0 -0.68600214703E+02  0.34738596113E+01 -0.15713635570E+03  0.17149312360E+03  0.00000000000E+00 0.  1.
         -4    1    1    2    0  502 -0.72982953392E+01 -0.25504461878E+02  0.77262912563E+02  0.81690270830E+02  0.00000000000E+00 0. -1.
</event>
<event>
 6    1  0.5496865E-006  0.1211979E+03  0.7818608E-02  0.1133585E+00
         21   -1    0    0  501  502  0.00000000000E+00  0.00000000000E+00  0.15006029037E+03  0.15006029037E+03  0.00000000000E+00 0. -1.
         21   -1    0    0  502  503 -0.00000000000E+00 -0.00000000000E+00 -0.47869539807E+03  0.47869539807E+03  0.00000000000E+00 0.  1.
        -13    1    1    2    0    0 -0.13648069050E+03  0.60528226454E+01 -0.33332396954E+03  0.36023394534E+03  0.10566000000E+00 0.  1.
         13    1    1    2    0    0  0.96571372102E+02  0.21913441584E+02 -0.11776630846E+02  0.99724265000E+02  0.10566000000E+00 0. -1.
          4    1    1    2  501    0  0.29196285349E+02 -0.31120720645E+02  0.87255978472E+02  0.97131499066E+02  0.00000000000E+00 0.  1.
         -4    1    1    2    0  503  0.10713033050E+02  0.31544564148E+01 -0.70790485787E+02  0.71665979030E+02  0.00000000000E+00 0. -1.
</event>
<event>
 6    1  0.5496865E-006  0.1971453E+03  0.7818608E-02  0.1062111E+00
         21   -1    0    0  501  502  0.00000000000E+00  0.00000000000E+00  0.54213986813E+03  0.54213986813E+03  0.00000000000E+00 0. -1.
         21   -1    0    0  502  503 -0.00000000000E+00 -0.00000000000E+00 -0.26950399488E+03  0.26950399488E+03  0.00000000000E+00 0. -1.
        -13    1    1    2    0    0  0.12569082563E+03  0.14941049926E+03  0.16372719955E+03  0.25481029801E+03  0.10566000000E+00 0.  1.
         13    1    1    2    0    0 -0.14965498612E+03 -0.13762731173E+03  0.14193467677E+03  0.24795837440E+03  0.10566000000E+00 0. -1.
          4    1    1    2  501    0 -0.23039682820E+02  0.29133269663E+01  0.13335328209E+03  0.13536030549E+03  0.00000000000E+00 0.  1.
         -4    1    1    2    0  503  0.47003843304E+02 -0.14696514503E+02 -0.16637928516E+03  0.17351488511E+03  0.00000000000E+00 0. -1.
</event>
<event>
 6    1  0.5496865E-006  0.5629119E+03  0.7818608E-02  0.9349807E-01
         21   -1    0    0  503  502  0.00000000000E+00  0.00000000000E+00  0.96378439949E+03  0.96378439949E+03  0.00000000000E+00 0.  1.
         21   -1    0    0  501  503 -0.00000000000E+00 -0.00000000000E+00 -0.57568605064E+03  0.57568605064E+03  0.00000000000E+00 0. -1.
        -13    1    1    2    0    0  0.53156203545E+03 -0.15507561806E+03  0.57503093728E+02  0.55669853764E+03  0.10566000000E+00 0.  1.
         13    1    1    2    0    0 -0.57704504587E+03  0.37565809952E+02  0.11432493516E+03  0.58945939386E+03  0.10566000000E+00 0. -1.
          4    1    1    2  501    0  0.79189443560E+02  0.12795018347E+03 -0.22326414801E+02  0.15212063048E+03  0.00000000000E+00 0.  1.
         -4    1    1    2    0  502 -0.33706433143E+02 -0.10440375356E+02  0.23859673477E+03  0.24119188816E+03  0.00000000000E+00 0. -1.
</event>
<event>
 6    1  0.5496865E-006  0.4864210E+02  0.7818608E-02  0.1316861E+00
         21   -1    0    0  501  502  0.00000000000E+00  0.00000000000E+00  0.36875708130E+03  0.36875708130E+03  0.00000000000E+00 0. -1.
         21   -1    0    0  502  503 -0.00000000000E+00 -0.00000000000E+00 -0.79315765402E+02  0.79315765402E+02  0.00000000000E+00 0. -1.
        -13    1    1    2    0    0  0.31538024177E+02  0.22839855718E+02 -0.27710046426E+02  0.47792926414E+02  0.10566000000E+00 0.  1.
         13    1    1    2    0    0  0.22280648766E+00 -0.76399130249E+02  0.16483425776E+03  0.18167889377E+03  0.10566000000E+00 0. -1.
          4    1    1    2  501    0 -0.79010853547E+01  0.47313283914E+02  0.17719290369E+03  0.18357096475E+03  0.00000000000E+00 0.  1.
         -4    1    1    2    0  503 -0.23859745310E+02  0.62459906172E+01 -0.24875799124E+02  0.35030061763E+02  0.00000000000E+00 0. -1.
</event>
<event>
 6    1  0.5496865E-006  0.2467343E+03  0.7818608E-02  0.1032099E+00
         21   -1    0    0  503  502  0.00000000000E+00  0.00000000000E+00  0.22071003273E+03  0.22071003273E+03  0.00000000000E+00 0.  1.
         21   -1    0    0  501  503 -0.00000000000E+00 -0.00000000000E+00 -0.10291906472E+04  0.10291906472E+04  0.00000000000E+00 0. -1.
        -13    1    1    2    0    0  0.37809948442E+02  0.23859744860E+03 -0.28892912661E+01  0.24159199872E+03  0.10566000000E+00 0.  1.
         13    1    1    2    0    0 -0.95272647652E+02 -0.30301028987E+03 -0.63284410578E+03  0.70808458996E+03  0.10566000000E+00 0. -1.
          4    1    1    2  501    0  0.53769098187E+02  0.74798504538E+02 -0.22693883111E+03  0.24492277408E+03  0.00000000000E+00 0.  1.
         -4    1    1    2    0  502  0.36936010234E+01 -0.10385663261E+02  0.54191613662E+02  0.55301317175E+02  0.00000000000E+00 0. -1.
</event>
<event>
 6    1  0.5496865E-006  0.7928630E+02  0.7818608E-02  0.1204274E+00
         21   -1    0    0  503  502  0.00000000000E+00  0.00000000000E+00  0.48124044463E+02  0.48124044463E+02  0.00000000000E+00 0. -1.
         21   -1    0    0  501  503 -0.00000000000E+00 -0.00000000000E+00 -0.23780512873E+03  0.23780512873E+03  0.00000000000E+00 0.  1.
        -13    1    1    2    0    0 -0.60844420543E+02 -0.71670545610E+02 -0.99337806993E+02  0.13677251800E+03  0.10566000000E+00 0.  1.
         13    1    1    2    0    0  0.54774234995E+02  0.42927962401E+02 -0.57717079537E+02  0.90411831137E+02  0.10566000000E+00 0. -1.
          4    1    1    2  501    0  0.16336991157E+02  0.14432619653E+02 -0.34733211791E+02  0.41007240720E+02  0.00000000000E+00 0.  1.
         -4    1    1    2    0  502 -0.10266805609E+02  0.14309963555E+02  0.21070140510E+01  0.17737583335E+02  0.00000000000E+00 0. -1.
</event>
<event>
 6    1  0.5496865E-006  0.9143351E+02  0.7818608E-02  0.1179564E+00
         21   -1    0    0  503  502  0.00000000000E+00  0.00000000000E+00  0.21443647552E+03  0.21443647552E+03  0.00000000000E+00 0.  1.
         21   -1    0    0  501  503 -0.00000000000E+00 -0.00000000000E+00 -0.13141578169E+03  0.13141578169E+03  0.00000000000E+00 0.  1.
        -13    1    1    2    0    0  0.24634203116E+02  0.88462405281E+02  0.11992841833E+03  0.15104727008E+03  0.10566000000E+00 0.  1.
         13    1    1    2    0    0 -0.78075377361E+01 -0.84892985540E+02  0.10315452682E+02  0.85873141130E+02  0.10566000000E+00 0. -1.
          4    1    1    2  501    0  0.36746433273E+01 -0.12776271903E+02 -0.73306420150E+02  0.74502129919E+02  0.00000000000E+00 0.  1.
         -4    1    1    2    0  502 -0.20501308707E+02  0.92068521618E+01  0.26083242979E+02  0.34429716086E+02  0.00000000000E+00 0. -1.
</event>
<event>
 6    1  0.5496865E-006  0.4553438E+02  0.7818608E-02  0.1354838E+00
         21   -1    0    0  503  502  0.00000000000E+00  0.00000000000E+00  0.44174196044E+03  0.44174196044E+03  0.00000000000E+00 0.  1.
         21   -1    0    0  501  503 -0.00000000000E+00 -0.00000000000E+00 -0.56974493690E+02  0.56974493690E+02  0.00000000000E+00 0. -1.
        -13    1    1    2    0    0 -0.27647150530E+02  0.21695708114E+01  0.17562782276E+02  0.32825819948E+02  0.10566000000E+00 0.  1.
         13    1    1    2    0    0  0.27495044309E+01  0.68089050408E+02 -0.13090868577E+02  0.69390637439E+02  0.10566000000E+00 0. -1.
          4    1    1    2  501    0  0.49938645980E+02 -0.71066008536E+02  0.28289351128E+03  0.29592733003E+03  0.00000000000E+00 0.  1.
         -4    1    1    2    0  502 -0.25040999881E+02  0.80738731663E+00  0.97402041769E+02  0.10057266671E+03  0.00000000000E+00 0. -1.
</event>
<event>
 6    1  0.5496865E-006  0.9782527E+02  0.7818608E-02  0.1168205E+00
         21   -1    0    0  501  502  0.00000000000E+00  0.00000000000E+00  0.96411171650E+02  0.96411171650E+02  0.00000000000E+00 0.  1.
         21   -1    0    0  502  503 -0.00000000000E+00 -0.00000000000E+00 -0.19716052153E+03  0.19716052153E+03  0.00000000000E+00 0.  1.
        -13    1    1    2    0    0 -0.77154171357E+02 -0.60693994241E+02 -0.14154991949E+02  0.99181157766E+02  0.10566000000E+00 0.  1.
         13    1    1    2    0    0  0.55273100839E+02  0.87222726535E+02 -0.69617455963E+02  0.12453722752E+03  0.10566000000E+00 0. -1.
          4    1    1    2  501    0  0.21233845690E+02 -0.14626191096E+02  0.18951324953E+02  0.31999287277E+02  0.00000000000E+00 0.  1.
         -4    1    1    2    0  503  0.64722482815E+00 -0.11902541198E+02 -0.35928226919E+02  0.37854020612E+02  0.00000000000E+00 0. -1.
</event>
<event>
 6    1  0.5496865E-006  0.1278853E+03  0.7818608E-02  0.1177539E+00
         21   -1    0    0  501  502  0.00000000000E+00  0.00000000000E+00  0.41667298321E+03  0.41667298321E+03  0.00000000000E+00 0. -1.
         21   -1    0    0  502  503 -0.00000000000E+00 -0.00000000000E+00 -0.29926136527E+03  0.29926136527E+03  0.00000000000E+00 0.  1.
        -13    1    1    2    0    0  0.34796529476E+02  0.38675889828E+01 -0.11342666353E+03  0.11870710119E+03  0.10566000000E+00 0.  1.
         13    1    1    2    0    0  0.76287981765E+02  0.48018221064E+02  0.32059739518E+03  0.33302898774E+03  0.10566000000E+00 0. -1.
          4    1    1    2  501    0  0.46019764159E+01  0.89291716501E+01  0.62634899558E+02  0.63435313004E+02  0.00000000000E+00 0.  1.
         -4    1    1    2    0  503 -0.11568648766E+03 -0.60814981697E+02 -0.15239401327E+03  0.20076294654E+03  0.00000000000E+00 0. -1.
</event>
<event>
 6    1  0.5496865E-006  0.4904677E+02  0.7818608E-02  0.1295719E+00
         21   -1    0    0  503  502  0.00000000000E+00  0.00000000000E+00  0.22463341940E+02  0.22463341940E+02  0.00000000000E+00 0. -1.
         21   -1    0    0  501  503 -0.00000000000E+00 -0.00000000000E+00 -0.57470151092E+03  0.57470151092E+03  0.00000000000E+00 0. -1.
        -13    1    1    2    0    0  0.21389165653E+02  0.30712347364E+02 -0.14654714638E+03  0.15125085773E+03  0.10566000000E+00 0.  1.
         13    1    1    2    0    0 -0.35145132062E+02 -0.54136385367E+02 -0.20022943319E+03  0.21037529704E+03  0.10566000000E+00 0. -1.
          4    1    1    2  501    0  0.27440211905E+01  0.12929017674E+02 -0.21639932192E+03  0.21680257304E+03  0.00000000000E+00 0.  1.
         -4    1    1    2    0  502  0.11011945218E+02  0.10495020329E+02  0.10937732507E+02  0.18736125042E+02  0.00000000000E+00 0. -1.
</event>
<event>
 6    1  0.5496865E-006  0.1293459E+03  0.7818608E-02  0.1140842E+00
         21   -1    0    0  503  502  0.00000000000E+00  0.00000000000E+00  0.45976858615E+03  0.45976858615E+03  0.00000000000E+00 0.  1.
         21   -1    0    0  501  503 -0.00000000000E+00 -0.00000000000E+00 -0.28273211804E+03  0.28273211804E+03  0.00000000000E+00 0.  1.
        -13    1    1    2    0    0 -0.12302516895E+03 -0.45955699590E+02  0.24120538771E+03  0.27464007127E+03  0.10566000000E+00 0.  1.
         13    1    1    2    0    0 -0.37481429831E+02  0.74573426537E+02 -0.53694529759E+02  0.99242970622E+02  0.10566000000E+00 0. -1.
          4    1    1    2  501    0  0.12582504388E+03 -0.37780145703E+02 -0.16447041204E+03  0.21049892521E+03  0.00000000000E+00 0.  1.
         -4    1    1    2    0  502  0.34681554899E+02  0.91624187552E+01  0.15399602220E+03  0.15811873710E+03  0.00000000000E+00 0. -1.
</event>
<event>
 6    1  0.5496865E-006  0.5341395E+03  0.7818608E-02  0.9406128E-01
         21   -1    0    0  503  502  0.00000000000E+00  0.00000000000E+00  0.10047837827E+04  0.10047837827E+04  0.00000000000E+00 0.  1.
         21   -1    0    0  501  503 -0.00000000000E+00 -0.00000000000E+00 -0.39185551518E+03  0.39185551518E+03  0.00000000000E+00 0. -1.
        -13    1    1    2    0    0 -0.50128747313E+03  0.11156749110E+03  0.54371542425E+03  0.74790568223E+03  0.10566000000E+00 0.  1.
         13    1    1    2    0    0  0.50434661070E+03 -0.20206706737E+03  0.82113974949E+02  0.54949005404E+03  0.10566000000E+00 0. -1.
          4    1    1    2  501    0 -0.19840945318E+02  0.63698207374E+02 -0.70932761430E+01  0.67092766378E+02  0.00000000000E+00 0.  1.
         -4    1    1    2    0  502  0.16781807744E+02  0.26801368894E+02 -0.58078555601E+01  0.32150795200E+02  0.00000000000E+00 0. -1.
</event>
<event>
 6    1  0.5496865E-006  0.6263377E+02  0.7818608E-02  0.1247492E+00
         21   -1    0    0  501  502  0.00000000000E+00  0.00000000000E+00  0.16491067741E+03  0.16491067741E+03  0.00000000000E+00 0. -1.
         21   -1    0    0  502  503 -0.00000000000E+00 -0.00000000000E+00 -0.11048344662E+03  0.11048344662E+03  0.00000000000E+00 0.  1.
        -13    1    1    2    0    0 -0.21248629101E+02 -0.55581094269E+02 -0.43687433184E+02  0.73819816182E+02  0.10566000000E+00 0.  1.
         13    1    1    2    0    0  0.50425166802E+02  0.36973033790E+02  0.13174550701E+03  0.14583069792E+03  0.10566000000E+00 0. -1.
          4    1    1    2  501    0 -0.99237477027E+01 -0.40721552097E+01  0.15313177981E+00  0.10727845350E+02  0.00000000000E+00 0.  1.
         -4    1    1    2    0  503 -0.19252789998E+02  0.22680215688E+02 -0.33783974819E+02  0.45015764583E+02  0.00000000000E+00 0. -1.
</event>
<event>
 6    1  0.5496865E-006  0.1297237E+03  0.7818608E-02  0.1123028E+00
         21   -1    0    0  503  502  0.00000000000E+00  0.00000000000E+00  0.50157121553E+02  0.50157121553E+02  0.00000000000E+00 0.  1.
         21   -1    0    0  501  503 -0.00000000000E+00 -0.00000000000E+00 -0.98921414385E+03  0.98921414385E+03  0.00000000000E+00 0. -1.
        -13    1    1    2    0    0  0.89618571872E+02  0.10245782981E+03 -0.11254000511E+03  0.17661924931E+03  0.10566000000E+00 0.  1.
         13    1    1    2    0    0 -0.86168869622E+02 -0.95954286176E+02 -0.58958579295E+03  0.60352607031E+03  0.10566000000E+00 0. -1.
          4    1    1    2  501    0  0.10043852186E+02 -0.73374480326E+01 -0.24376187756E+03  0.24407902422E+03  0.00000000000E+00 0.  1.
         -4    1    1    2    0  502 -0.13493554436E+02  0.83390440287E+00  0.68306533325E+01  0.15146921563E+02  0.00000000000E+00 0. -1.
</event>
<event>
 6    1  0.5496865E-006  0.4227246E+02  0.7818608E-02  0.1351192E+00
         21   -1    0    0  501  502  0.00000000000E+00  0.00000000000E+00  0.23477852102E+02  0.23477852102E+02  0.00000000000E+00 0. -1.
         21   -1    0    0  502  503 -0.00000000000E+00 -0.00000000000E+00 -0.64013957969E+03  0.64013957969E+03  0.00000000000E+00 0.  1.
        -13    1    1    2    0    0 -0.21370181136E+02  0.71590817517E+02 -0.44502666434E+03  0.45125455447E+03  0.10566000000E+00 0.  1.
         13    1    1    2    0    0  0.11964322426E+02 -0.13866635480E+02  0.14349388152E+01  0.18371140522E+02  0.10566000000E+00 0. -1.
          4    1    1    2  501    0 -0.27781545920E+02 -0.19346536611E+02 -0.58952531733E+02  0.67981642892E+02  0.00000000000E+00 0.  1.
         -4    1    1    2    0  503  0.37187404630E+02 -0.38377645427E+02 -0.11411747033E+03  0.12601009390E+03  0.00000000000E+00 0. -1.
</event>
<event>
 6    1  0.5496865E-006  0.7081779E+02  0.7818608E-02  0.1224598E+00
         21   -1    0    0  501  502  0.00000000000E+00  0.00000000000E+00  0.11579607904E+02  0.11579607904E+02  0.00000000000E+00 0.  1.
         21   -1    0    0  502  503 -0.00000000000E+00 -0.00000000000E+00 -0.12012618910E+04  0.12012618910E+04  0.00000000000E+00 0. -1.
        -13    1    1    2    0    0  0.27856630291E+00  0.54915109564E+02 -0.12486374508E+03  0.13640642528E+03  0.10566000000E+00 0.  1.
         13    1    1    2    0    0 -0.22850932064E+01 -0.82150662373E+02 -0.40453505420E+03  0.41279846683E+03  0.10566000000E+00 0. -1.
          4    1    1    2  501    0 -0.23801943642E+02  0.30060561876E+02 -0.47467885834E+03  0.47622493473E+03  0.00000000000E+00 0.  1.
         -4    1    1    2    0  503  0.25808470545E+02 -0.28250090665E+01 -0.18560462552E+03  0.18741167211E+03  0.00000000000E+00 0. -1.
</event>
<event>
 6    1  0.5496865E-006  0.6500311E+02  0.7818608E-02  0.1240482E+00
         21   -1    0    0  503  502  0.00000000000E+00  0.00000000000E+00  0.18141043778E+03  0.18141043778E+03  0.00000000000E+00 0. -1.
         21   -1    0    0  501  503 -0.00000000000E+00 -0.00000000000E+00 -0.27865444222E+03  0.27865444222E+03  0.00000000000E+00 0.  1.
        -13    1    1    2    0    0  0.49794247634E+02 -0.20427119373E+02  0.48480191366E+02  0.72436692513E+02  0.10566000000E+00 0.  1.
         13    1    1    2    0    0 -0.77604943080E+02  0.25712452984E+02 -0.83498102539E+01  0.82178999289E+02  0.10566000000E+00 0. -1.
          4    1    1    2  501    0  0.10698964132E+02 -0.31428934528E+02 -0.21720180685E+03  0.21972453358E+03  0.00000000000E+00 0.  1.
         -4    1    1    2    0  502  0.17111731314E+02  0.26143600917E+02  0.79827421298E+02  0.85724654613E+02  0.00000000000E+00 0. -1.
</event>
<event>
 6    1  0.5496865E-006  0.3288884E+03  0.7818608E-02  0.9960472E-01
         21   -1    0    0  503  502  0.00000000000E+00  0.00000000000E+00  0.13327586473E+04  0.13327586473E+04  0.00000000000E+00 0.  1.
         21   -1    0    0  501  503 -0.00000000000E+00 -0.00000000000E+00 -0.53177489015E+03  0.53177489015E+03  0.00000000000E+00 0. -1.
        -13    1    1    2    0    0  0.13879006525E+01  0.27531248843E+03  0.58961916467E+03  0.65073010001E+03  0.10566000000E+00 0.  1.
         13    1    1    2    0    0 -0.16222777926E+02 -0.37816513552E+03  0.13899988038E+03  0.40322825566E+03  0.10566000000E+00 0. -1.
          4    1    1    2  501    0  0.48545935286E+02  0.41970718485E+02 -0.36353473465E+03  0.36915545823E+03  0.00000000000E+00 0.  1.
         -4    1    1    2    0  502 -0.33711058013E+02  0.60881928606E+02  0.43589944671E+03  0.44141972351E+03  0.00000000000E+00 0. -1.
</event>
<event>
 6    1  0.5496865E-006  0.1908825E+02  0.7818608E-02  0.1542615E+00
         21   -1    0    0  501  502  0.00000000000E+00  0.00000000000E+00  0.48275561922E+02  0.48275561922E+02  0.00000000000E+00 0.  1.
         21   -1    0    0  502  503 -0.00000000000E+00 -0.00000000000E+00 -0.19414343014E+03  0.19414343014E+03  0.00000000000E+00 0. -1.
        -13    1    1    2    0    0  0.22095280781E+02  0.18468120132E+02 -0.39319799067E+02  0.48737364072E+02  0.10566000000E+00 0.  1.
         13    1    1    2    0    0 -0.12568124746E+02 -0.23678035180E+01  0.23445217127E+02  0.26706808557E+02  0.10566000000E+00 0. -1.
          4    1    1    2  501    0 -0.17850103572E+02 -0.42190795881E+01  0.13484668368E+02  0.22765392838E+02  0.00000000000E+00 0.  1.
         -4    1    1    2    0  503  0.83229475367E+01 -0.11881237026E+02 -0.14347795465E+03  0.14420942660E+03  0.00000000000E+00 0. -1.
</event>
<event>
 6    1  0.5496865E-006  0.3870816E+02  0.7818608E-02  0.1381214E+00
         21   -1    0    0  503  502  0.00000000000E+00  0.00000000000E+00  0.18981988018E+03  0.18981988018E+03  0.00000000000E+00 0.  1.
         21   -1    0    0  501  503 -0.00000000000E+00 -0.00000000000E+00 -0.11307967083E+03  0.11307967083E+03  0.00000000000E+00 0. -1.
        -13    1    1    2    0    0  0.32305024769E-01 -0.21043213790E+02  0.10734005239E+03  0.10938334380E+03  0.10566000000E+00 0.  1.
         13    1    1    2    0    0 -0.29815403151E+01  0.48253287502E+02 -0.24986985423E+02  0.54420859438E+02  0.10566000000E+00 0. -1.
          4    1    1    2  501    0 -0.63138418014E+01  0.91448419047E+01 -0.66584823179E+02  0.67505787971E+02  0.00000000000E+00 0.  1.
         -4    1    1    2    0  502  0.92630770917E+01 -0.36354915617E+02  0.60971965565E+02  0.71589559794E+02  0.00000000000E+00 0. -1.
</event>
<event>
 6    1  0.5496865E-006  0.3369382E+03  0.7818608E-02  0.9931287E-01
         21   -1    0    0  501  502  0.00000000000E+00  0.00000000000E+00  0.71617482397E+03  0.71617482397E+03  0.00000000000E+00 0. -1.
         21   -1    0    0  502  503 -0.00000000000E+00 -0.00000000000E+00 -0.63173194131E+03  0.63173194131E+03  0.00000000000E+00 0.  1.
        -13    1    1    2    0    0 -0.27949703967E+03 -0.22589665614E+03  0.83823543077E+01  0.35946928863E+03  0.10566000000E+00 0.  1.
         13    1    1    2    0    0  0.28933755729E+03  0.14420978794E+03  0.10895548151E+03  0.34115098287E+03  0.10566000000E+00 0. -1.
          4    1    1    2  501    0 -0.31406375696E+02  0.59605359822E+02  0.30278518770E+03  0.31019031133E+03  0.00000000000E+00 0.  1.
         -4    1    1    2    0  503  0.21565858074E+02  0.22081508374E+02 -0.33568014087E+03  0.33709618245E+03  0.00000000000E+00 0. -1.
</event>
<event>
 6    1  0.5496865E-006  0.3417860E+02  0.7818608E-02  0.1384313E+00
         21   -1    0    0  501  502  0.00000000000E+00  0.00000000000E+00  0.21395637520E+03  0.21395637520E+03  0.00000000000E+00 0.  1.
         21   -1    0    0  502  503 -0.00000000000E+00 -0.00000000000E+00 -0.38383271530E+02  0.38383271530E+02  0.00000000000E+00 0. -1.
        -13    1    1    2    0    0  0.95410828509E+01 -0.18120331653E+02 -0.96271365783E+00  0.20501625857E+02  0.10566000000E+00 0.  1.
         13    1    1    2    0    0 -0.17493589951E+02 -0.41191714312E+01  0.39181057562E+02  0.43106376539E+02  0.10566000000E+00 0. -1.
          4    1    1    2  501    0 -0.28559087753E+02  0.29058001319E+01  0.14404619098E+03  0.14687876056E+03  0.00000000000E+00 0.  1.
         -4    1    1    2    0  503  0.36511594854E+02  0.19333702952E+02 -0.66914312129E+01  0.41852883775E+02  0.00000000000E+00 0. -1.
</event>
<event>
 6    1  0.5496865E-006  0.1015774E+03  0.7818608E-02  0.1169771E+00
         21   -1    0    0  501  502  0.00000000000E+00  0.00000000000E+00  0.65001022212E+03  0.65001022212E+03  0.00000000000E+00 0.  1.
         21   -1    0    0  502  503 -0.00000000000E+00 -0.00000000000E+00 -0.68289920444E+02  0.68289920444E+02  0.00000000000E+00 0.  1.
        -13    1    1    2    0    0  0.61050196004E+01  0.39101885580E+02 -0.84715261060E+01  0.40472294707E+02  0.10566000000E+00 0.  1.
         13    1    1    2    0    0 -0.36950941554E+02  0.73828461495E+02  0.21597011950E+03  0.23121227798E+03  0.10566000000E+00 0. -1.
          4    1    1    2  501    0  0.25888986067E+02 -0.12515488691E+03  0.39876867914E+03  0.41874866540E+03  0.00000000000E+00 0.  1.
         -4    1    1    2    0  503  0.49569358869E+01  0.12224539832E+02 -0.24546970847E+02  0.27866904480E+02  0.00000000000E+00 0. -1.
</event>
<event>
 6    1  0.5496865E-006  0.1724597E+02  0.7818608E-02  0.1564440E+00
         21   -1    0    0  503  502  0.00000000000E+00  0.00000000000E+00  0.21402857678E+03  0.21402857678E+03  0.00000000000E+00 0. -1.
         21   -1    0    0  501  503 -0.00000000000E+00 -0.00000000000E+00 -0.13303994996E+02  0.13303994996E+02  0.00000000000E+00 0. -1.
        -13    1    1    2    0    0 -0.72644919568E+01 -0.82034902168E+01  0.31642278792E+02  0.33486042858E+02  0.10566000000E+00 0.  1.
         13    1    1    2    0    0  0.29149868232E+02  0.27605130458E+02  0.63592986592E+02  0.75205300034E+02  0.10566000000E+00 0. -1.
          4    1    1    2  501    0 -0.89401226602E+01 -0.11572593132E+02  0.28572739239E+01  0.14900158363E+02  0.00000000000E+00 0.  1.
         -4    1    1    2    0  502 -0.12945253614E+02 -0.78290471088E+01  0.10263204248E+03  0.10374107052E+03  0.00000000000E+00 0. -1.
</event>
<event>
 6    1  0.5496865E-006  0.3920706E+03  0.7818608E-02  0.9752229E-01
         21   -1    0    0  501  502  0.00000000000E+00  0.00000000000E+00  0.40535821985E+03  0.40535821985E+03  0.00000000000E+00 0.  1.
         21   -1    0    0  502  503 -0.00000000000E+00 -0.00000000000E+00 -0.75829442338E+03  0.75829442338E+03  0.00000000000E+00 0.  1.
        -13    1    1    2    0    0 -0.67390683150E+02  0.37835724990E+03  0.16532695843E+02  0.38466745889E+03  0.10566000000E+00 0.  1.
         13    1    1    2    0    0  0.30863943707E+02 -0.40205440616E+03 -0.36767732145E+03  0.54569859117E+03  0.10566000000E+00 0. -1.
          4    1    1    2  501    0  0.35696189103E+02  0.11071049382E+02  0.11237194622E+03  0.11842398553E+03  0.00000000000E+00 0.  1.
         -4    1    1    2    0  503  0.83055033994E+00  0.12626106871E+02 -0.11416352415E+03  0.11486260764E+03  0.00000000000E+00 0. -1.
</event>
<event>
 6    1  0.5496865E-006  0.1404463E+03  0.7818608E-02  0.1110936E+00
         21   -1    0    0  501  502  0.00000000000E+00  0.00000000000E+00  0.45225514740E+02  0.45225514740E+02  0.00000000000E+00 0. -1.
         21   -1    0    0  502  503 -0.00000000000E+00 -0.00000000000E+00 -0.10311811688E+04  0.10311811688E+04  0.00000000000E+00 0.  1.
        -13    1    1    2    0    0  0.24095148125E+02  0.12874290041E+03 -0.40483642215E+03  0.42549718029E+03  0.10566000000E+00 0.  1.
         13    1    1    2    0    0 -0.10363254271E+03 -0.11876124865E+03 -0.30599917944E+03  0.34420843550E+03  0.10566000000E+00 0. -1.
          4    1    1    2  501    0  0.17428950999E+02 -0.42447111219E+01  0.58678574552E+01  0.18873729270E+02  0.00000000000E+00 0.  1.
         -4    1    1    2    0  503  0.62108443586E+02 -0.57369406333E+01 -0.28098790994E+03  0.28782733849E+03  0.00000000000E+00 0. -1.
</event>
<event>
 6    1  0.5496865E-006  0.8245783E+02  0.7818608E-02  0.1197374E+00
         21   -1    0    0  501  502  0.00000000000E+00  0.00000000000E+00  0.71647561782E+03  0.71647561782E+03  0.00000000000E+00 0. -1.
         21   -1    0    0  502  503 -0.00000000000E+00 -0.00000000000E+00 -0.19315701252E+03  0.19315701252E+03  0.00000000000E+00 0. -1.
        -13    1    1    2    0    0 -0.10802420119E+03  0.43347797278E+02 -0.66832323780E+02  0.13421933630E+03  0.10566000000E+00 0.  1.
         13    1    1    2    0    0  0.10889727556E+03  0.99374879589E+01  0.48180832091E+03  0.49406137225E+03  0.10566000000E+00 0. -1.
          4    1    1    2  501    0 -0.35433021155E+02 -0.36916765134E+02  0.18700915297E+03  0.19388339235E+03  0.00000000000E+00 0.  1.
         -4    1    1    2    0  503  0.34559946789E+02 -0.16368520103E+02 -0.78666544792E+02  0.87468529437E+02  0.00000000000E+00 0. -1.
</event>
<event>
 6    1  0.5496865E-006  0.1194354E+03  0.7818608E-02  0.1135887E+00
         21   -1    0    0  503  502  0.00000000000E+00  0.00000000000E+00  0.12913956611E+03  0.12913956611E+03  0.00000000000E+00 0.  1.
         21   -1    0    0  501  503 -0.00000000000E+00 -0.00000000000E+00 -0.40037489886E+03  0.40037489886E+03  0.00000000000E+00 0.  1.
        -13    1    1    2    0    0  0.97080273492E+02  0.59725240407E+02 -0.12654193621E+02  0.11468140051E+03  0.10566000000E+00 0.  1.
         13    1    1    2    0    0 -0.92288989525E+02 -0.84106172343E+02 -0.40749477824E+02  0.13134548687E+03  0.10566000000E+00 0. -1.
          4    1    1    2  501    0 -0.19995989240E+02  0.14738566163E+02 -0.24752167118E+03  0.24876503496E+03  0.00000000000E+00 0.  1.
         -4    1    1    2    0  502  0.15204705273E+02  0.96423657729E+01  0.29690009868E+02  0.34722542621E+02  0.00000000000E+00 0. -1.
</event>
<event>
 6    1  0.5496865E-006  0.8328760E+02  0.7818608E-02  0.1195625E+00
         21   -1    0    0  501  502  0.00000000000E+00  0.00000000000E+00  0.13322819331E+03  0.13322819331E+03  0.00000000000E+00 0. -1.
         21   -1    0    0  502  503 -0.00000000000E+00 -0.00000000000E+00 -0.56556565982E+03  0.56556565982E+03  0.00000000000E+00 0. -1.
        -13    1    1    2    0    0 -0.50453094508E+02  0.67438404513E+02 -0.91196315691E+02  0.12413795676E+03  0.10566000000E+00 0.  1.
         13    1    1    2    0    0  0.25509146376E+01 -0.72553149037E+02  0.68310693076E+02  0.99683642355E+02  0.10566000000E+00 0. -1.
          4    1    1    2  501    0  0.65232751738E+02  0.99401195086E+01 -0.86687318672E+00  0.65991433870E+02  0.00000000000E+00 0.  1.
         -4    1    1    2    0  503 -0.17330571868E+02 -0.48253749844E+01 -0.40858497071E+03  0.40898082015E+03  0.00000000000E+00 0. -1.
</event>
<event>
 6    1  0.5496865E-006  0.7693190E+03  0.7818608E-02  0.9028062E-01
         21   -1    0    0  503  502  0.00000000000E+00  0.00000000000E+00  0.19758728858E+04  0.19758728858E+04  0.00000000000E+00 0.  1.
         21   -1    0    0  501  503 -0.00000000000E+00 -0.00000000000E+00 -0.89063441214E+03  0.89063441214E+03  0.00000000000E+00 0.  1.
        -13    1    1    2    0    0 -0.63273461826E+03 -0.55462238944E+03  0.53961577863E+03  0.99957205429E+03  0.10566000000E+00 0.  1.
         13    1    1    2    0    0  0.42220278142E+03  0.53275932190E+03  0.85702592922E+03  0.10938835122E+04  0.10566000000E+00 0. -1.
          4    1    1    2  501    0 -0.67200341228E+01 -0.28226443161E+02 -0.48785894252E+03  0.48872102344E+03  0.00000000000E+00 0.  1.
         -4    1    1    2    0  502  0.21725187096E+03  0.50089510699E+02  0.17645570831E+03  0.28433070801E+03  0.00000000000E+00 0. -1.
</event>
<event>
 6    1  0.5496865E-006  0.6384633E+02  0.7818608E-02  0.1252444E+00
         21   -1    0    0  501  502  0.00000000000E+00  0.00000000000E+00  0.15039515956E+03  0.15039515956E+03  0.00000000000E+00 0.  1.
         21   -1    0    0  502  503 -0.00000000000E+00 -0.00000000000E+00 -0.75435940498E+03  0.75435940498E+03  0.00000000000E+00 0.  1.
        -13    1    1    2    0    0 -0.50573182389E+02 -0.50120949946E+02 -0.12433527364E+03  0.14327954437E+03  0.10566000000E+00 0.  1.
         13    1    1    2    0    0  0.56109494190E+02 -0.25751458597E+02 -0.22549732987E+03  0.23379578675E+03  0.10566000000E+00 0. -1.
          4    1    1    2  501    0 -0.13200907827E+02  0.75647843308E+01  0.13331612778E+03  0.13418151831E+03  0.00000000000E+00 0.  1.
         -4    1    1    2    0  503  0.76645960265E+01  0.68307624212E+02 -0.38744776969E+03  0.39349771510E+03  0.00000000000E+00 0. -1.
</event>
<event>
 6    1  0.5496865E-006  0.2985003E+03  0.7818608E-02  0.1007927E+00
         21   -1    0    0  501  502  0.00000000000E+00  0.00000000000E+00  0.14839817615E+04  0.14839817615E+04  0.00000000000E+00 0.  1.
         21   -1    0    0  502  503 -0.00000000000E+00 -0.00000000000E+00 -0.23624712287E+03  0.23624712287E+03  0.00000000000E+00 0.  1.
        -13    1    1    2    0    0 -0.18792194108E+03 -0.38799595216E+03  0.45916115495E+03  0.62982893885E+03  0.10566000000E+00 0.  1.
         13    1    1    2    0    0  0.19195985663E+03  0.18256983133E+03  0.15410968245E+03  0.30648023632E+03  0.10566000000E+00 0. -1.
          4    1    1    2  501    0  0.23575353263E+02  0.22437269206E+03  0.68617482685E+03  0.72231211760E+03  0.00000000000E+00 0.  1.
         -4    1    1    2    0  503 -0.27613268805E+02 -0.18946571222E+02 -0.51711025605E+02  0.61607591613E+02  0.00000000000E+00 0. -1.
</event>
<event>
 6    1  0.5496865E-006  0.4955807E+02  0.7818608E-02  0.1303360E+00
         21   -1    0    0  501  502  0.00000000000E+00  0.00000000000E+00  0.41858380459E+02  0.41858380459E+02  0.00000000000E+00 0. -1.
         21   -1    0    0  502  503 -0.00000000000E+00 -0.00000000000E+00 -0.34044531066E+03  0.34044531066E+03  0.00000000000E+00 0.  1.
        -13    1    1    2    0    0  0.32096050577E+02 -0.43144909102E+02 -0.22386760985E+03  0.23023543938E+03  0.10566000000E+00 0.  1.
         13    1    1    2    0    0 -0.35781075397E+02 -0.72633400455E+01  0.22621741456E+00  0.36511694066E+02  0.10566000000E+00 0. -1.
          4    1    1    2  501    0 -0.24419286217E+01 -0.10667232889E+02  0.71343138217E+01  0.13063357402E+02  0.00000000000E+00 0.  1.
         -4    1    1    2    0  503  0.61269534422E+01  0.61075482037E+02 -0.82079851585E+02  0.10249320027E+03  0.00000000000E+00 0. -1.
</event>
<event>
 6    1  0.5496865E-006  0.2248166E+03  0.7818608E-02  0.1044337E+00
         21   -1    0    0  503  502  0.00000000000E+00  0.00000000000E+00  0.26802614872E+03  0.26802614872E+03  0.00000000000E+00 0.  1.
         21   -1    0    0  501  503 -0.00000000000E+00 -0.00000000000E+00 -0.41011329636E+03  0.41011329636E+03  0.00000000000E+00 0. -1.
        -13    1    1    2    0    0 -0.20139085023E+03 -0.11077699566E+03  0.19361779207E+02  0.23066145534E+03  0.10566000000E+00 0.  1.
         13    1    1    2    0    0  0.18912535689E+03  0.14950502320E+03 -0.18587658918E+03  0.30441792022E+03  0.10566000000E+00 0. -1.
          4    1    1    2  501    0 -0.21029559831E+02 -0.22465095830E+02 -0.50690582920E+02  0.59299731147E+02  0.00000000000E+00 0.  1.
         -4    1    1    2    0  502  0.33295053176E+02 -0.16262931716E+02  0.75118245259E+02  0.83760338375E+02  0.00000000000E+00 0. -1.
</event>
<event>
 6    1  0.5496865E-006  0.1284279E+02  0.7818608E-02  0.1644013E+00
         21   -1    0    0  501  502  0.00000000000E+00  0.00000000000E+00  0.79659703939E+03  0.79659703939E+03  0.00000000000E+00 0.  1.
         21   -1    0    0  502  503 -0.00000000000E+00 -0.00000000000E+00 -0.21292080780E+02  0.21292080780E+02  0.00000000000E+00 0.  1.
        -13    1    1    2    0    0  0.11745814326E+02  0.15467660153E+02 -0.51109593730E+01  0.20083469185E+02  0.10566000000E+00 0.  1.
         13    1    1    2    0    0 -0.11467610394E+02 -0.15468789790E+02  0.33523210529E+02  0.38660139083E+02  0.10566000000E+00 0. -1.
          4    1    1    2  501    0  0.32714863938E+01  0.99623623900E+01  0.74839156001E+03  0.74846501480E+03  0.00000000000E+00 0.  1.
         -4    1    1    2    0  503 -0.35496903254E+01 -0.99612327525E+01 -0.14988525543E+01  0.10680497102E+02  0.00000000000E+00 0. -1.
</event>
<event>
 6    1  0.5496865E-006  0.3168721E+02  0.7818608E-02  0.1391852E+00
         21   -1    0    0  501  502  0.00000000000E+00  0.00000000000E+00  0.14369120449E+03  0.14369120449E+03  0.00000000000E+00 0. -1.
         21   -1    0    0  502  503 -0.00000000000E+00 -0.00000000000E+00 -0.34895858553E+02  0.34895858553E+02  0.00000000000E+00 0.  1.
        -13    1    1    2    0    0 -0.30048994006E+02  0.44176922874E+01 -0.17498189494E+02  0.35052187457E+02  0.10566000000E+00 0.  1.
         13    1    1    2    0    0  0.26740833814E+02 -0.82537322660E+01  0.86527410283E+02  0.90940640990E+02  0.10566000000E+00 0. -1.
          4    1    1    2  501    0  0.60747210352E+01  0.14167541585E+02  0.38924445008E+02  0.41865664803E+02  0.00000000000E+00 0.  1.
         -4    1    1    2    0  503 -0.27665608431E+01 -0.10331501607E+02  0.84168013967E+00  0.10728569793E+02  0.00000000000E+00 0. -1.
</event>
<event>
 6    1  0.5496865E-006  0.1427240E+03  0.7818608E-02  0.1108518E+00
         21   -1    0    0  501  502  0.00000000000E+00  0.00000000000E+00  0.29048786431E+03  0.29048786431E+03  0.00000000000E+00 0. -1.
         21   -1    0    0  502  503 -0.00000000000E+00 -0.00000000000E+00 -0.13848447970E+03  0.13848447970E+03  0.00000000000E+00 0.  1.
        -13    1    1    2    0    0  0.12974107916E+03  0.11367030861E+02  0.77042626619E+02  0.15131931302E+03  0.10566000000E+00 0.  1.
         13    1    1    2    0    0 -0.15701640506E+03 -0.25313566466E+02  0.99849115966E+02  0.18778920424E+03  0.10566000000E+00 0. -1.
          4    1    1    2  501    0 -0.99083986072E+01  0.16784292838E+02  0.22366052119E+02  0.29666970462E+02  0.00000000000E+00 0.  1.
         -4    1    1    2    0  503  0.37183724508E+02 -0.28377572324E+01 -0.47254410092E+02  0.60196856293E+02  0.00000000000E+00 0. -1.
</event>
<event>
 6    1  0.5496865E-006  0.8352200E+02  0.7818608E-02  0.1207357E+00
         21   -1    0    0  501  502  0.00000000000E+00  0.00000000000E+00  0.71684811602E+02  0.71684811602E+02  0.00000000000E+00 0. -1.
         21   -1    0    0  502  503 -0.00000000000E+00 -0.00000000000E+00 -0.28364901378E+03  0.28364901378E+03  0.00000000000E+00 0.  1.
        -13    1    1    2    0    0 -0.56675128689E+02 -0.31436962456E+02 -0.44562193646E+02  0.78652101605E+02  0.10566000000E+00 0.  1.
         13    1    1    2    0    0  0.77453342143E+01  0.10724022238E+03 -0.65175527757E+02  0.12573112614E+03  0.10566000000E+00 0. -1.
          4    1    1    2  501    0  0.10636344385E+02 -0.74039726145E+01  0.83430466825E+01  0.15412886177E+02  0.00000000000E+00 0.  1.
         -4    1    1    2    0  503  0.38293450089E+02 -0.68399287313E+02 -0.11056952746E+03  0.13553771146E+03  0.00000000000E+00 0. -1.
</event>
<event>
 6    1  0.5496865E-006  0.5034520E+02  0.7818608E-02  0.1290390E+00
         21   -1    0    0  503  502  0.00000000000E+00  0.00000000000E+00  0.11907174904E+03  0.11907174904E+03  0.00000000000E+00 0.  1.
         21   -1    0    0  501  503 -0.00000000000E+00 -0.00000000000E+00 -0.36644658093E+03  0.36644658093E+03  0.00000000000E+00 0. -1.
        -13    1    1    2    0    0 -0.36665706438E+02 -0.19833716378E+02  0.10077053579E+03  0.10905256705E+03  0.10566000000E+00 0.  1.
         13    1    1    2    0    0  0.35342097366E+02 -0.25445860752E+02 -0.24014513036E+03  0.24406198081E+03  0.10566000000E+00 0. -1.
          4    1    1    2  501    0  0.15508784498E+02  0.12245322173E+02 -0.90102702944E+02  0.92244064251E+02  0.00000000000E+00 0.  1.
         -4    1    1    2    0  502 -0.14185175426E+02  0.33034254957E+02 -0.17897534369E+02  0.40159717864E+02  0.00000000000E+00 0. -1.
</event>
<event>
 6    1  0.5496865E-006  0.3749941E+02  0.7818608E-02  0.1360956E+00
         21   -1    0    0  503  502  0.00000000000E+00  0.00000000000E+00  0.33461513863E+03  0.33461513863E+03  0.00000000000E+00 0. -1.
         21   -1    0    0  501  503 -0.00000000000E+00 -0.00000000000E+00 -0.27936951623E+02  0.27936951623E+02  0.00000000000E+00 0. -1.
        -13    1    1    2    0    0 -0.12535918616E+02  0.22166257486E+02  0.46393163804E+02  0.52922859316E+02  0.10566000000E+00 0.  1.
         13    1    1    2    0    0  0.35080237135E+02 -0.10563566487E+01  0.15855171452E+02  0.38511511950E+02  0.10566000000E+00 0. -1.
          4    1    1    2  501    0 -0.34820585856E+02  0.20082254502E+02  0.24603439921E+02  0.47128541259E+02  0.00000000000E+00 0.  1.
         -4    1    1    2    0  502  0.12276267336E+02 -0.41192155340E+02  0.21982641183E+03  0.22398917773E+03  0.00000000000E+00 0. -1.
</event>
<event>
 6    1  0.5496865E-006  0.7938511E+02  0.7818608E-02  0.1204054E+00
         21   -1    0    0  501  502  0.00000000000E+00  0.00000000000E+00  0.76811551665E+02  0.76811551665E+02  0.00000000000E+00 0. -1.
         21   -1    0    0  502  503 -0.00000000000E+00 -0.00000000000E+00 -0.62370283076E+03  0.62370283076E+03  0.00000000000E+00 0.  1.
        -13    1    1    2    0    0  0.56898208987E+02 -0.70011579519E+02 -0.20627228116E+03  0.22513838542E+03  0.10566000000E+00 0.  1.
         13    1    1    2    0    0 -0.64489047381E+02  0.41933851524E+02  0.27506522464E+02  0.81693972102E+02  0.10566000000E+00 0. -1.
          4    1    1    2  501    0  0.11849715079E+02  0.15917295562E+02  0.48953445511E+01  0.20438699659E+02  0.00000000000E+00 0.  1.
         -4    1    1    2    0  503 -0.42588766852E+01  0.12160432433E+02 -0.37302086495E+03  0.37324332524E+03  0.00000000000E+00 0. -1.
</event>
<event>
 6    1  0.5496865E-006  0.1495091E+03  0.7818608E-02  0.1101597E+00
         21   -1    0    0  501  502  0.00000000000E+00  0.00000000000E+00  0.14091061342E+03  0.14091061342E+03  0.00000000000E+00 0. -1.
         21   -1    0    0  502  503 -0.00000000000E+00 -0.00000000000E+00 -0.35680067254E+03  0.35680067254E+03  0.00000000000E+00 0.  1.
        -13    1    1    2    0    0  0.39600227320E+02  0.13990607497E+03 -0.10074750486E+03  0.17689533266E+03  0.10566000000E+00 0.  1.
         13    1    1    2    0    0 -0.61137328513E+02 -0.16476783910E+03 -0.16122065724E+02  0.17648270710E+03  0.10566000000E+00 0. -1.
          4    1    1    2  501    0 -0.68402019916E+00  0.58772398448E+02 -0.80719496060E+02  0.99851388308E+02  0.00000000000E+00 0.  1.
         -4    1    1    2    0  503  0.22221121391E+02 -0.33910634323E+02 -0.18300992475E+02  0.44481857893E+02  0.00000000000E+00 0. -1.
</event>
<event>
 6    1  0.5496865E-006  0.6783345E+02  0.7818608E-02  0.1232530E+00
         21   -1    0    0  503  502  0.00000000000E+00  0.00000000000E+00  0.13655929588E+03  0.13655929588E+03  0.00000000000E+00 0.  1.
         21   -1    0    0  501  503 -0.00000000000E+00 -0.00000000000E+00 -0.97785164187E+03  0.97785164187E+03  0.00000000000E+00 0.  1.
        -13    1    1    2    0    0 -0.63831327977E+02  0.23402174437E+02  0.86002404941E+02  0.10962903365E+03  0.10566000000E+00 0.  1.
         13    1    1    2    0    0  0.70448303430E+02 -0.42281377564E+02 -0.11232585960E+03  0.13916820127E+03  0.10566000000E+00 0. -1.
          4    1    1    2  501    0 -0.21912138068E+02 -0.27625242861E+01 -0.83317101500E+03  0.83346368462E+03  0.00000000000E+00 0.  1.
         -4    1    1    2    0  502  0.15295162616E+02  0.21641727414E+02  0.18202123672E+02  0.32150018212E+02  0.00000000000E+00 0. -1.
</event>
<event>
 6    1  0.5496865E-006  0.2674696E+03  0.7818608E-02  0.1021717E+00
         21   -1    0    0  503  502  0.00000000000E+00  0.00000000000E+00  0.12160317475E+04  0.12160317475E+04  0.00000000000E+00 0.  1.
         21   -1    0    0  501  503 -0.00000000000E+00 -0.00000000000E+00 -0.23348665406E+03  0.23348665406E+03  0.00000000000E+00 0.  1.
        -13    1    1    2    0    0 -0.10076031613E+03  0.29098542231E+03  0.53335074888E+03  0.61586377536E+03  0.10566000000E+00 0.  1.
         13    1    1    2    0    0  0.86646129949E+02 -0.20933875282E+03  0.25944754900E+03  0.34444637770E+03  0.10566000000E+00 0. -1.
          4    1    1    2  501    0  0.14235304773E+02 -0.10072356886E+03 -0.13213817468E+03  0.16675844336E+03  0.00000000000E+00 0.  1.
         -4    1    1    2    0  502 -0.12111858763E+00  0.19076899365E+02  0.32188497026E+03  0.32244980514E+03  0.00000000000E+00 0. -1.
</event>
<event>
 6    1  0.5496865E-006  0.5050972E+02  0.7818608E-02  0.1289727E+00
         21   -1    0    0  503  502  0.00000000000E+00  0.00000000000E+00  0.49622283701E+02  0.49622283701E+02  0.00000000000E+00 0.  1.
         21   -1    0    0  501  503 -0.00000000000E+00 -0.00000000000E+00 -0.17286712607E+03  0.17286712607E+03  0.00000000000E+00 0.  1.
        -13    1    1    2    0    0  0.59455760905E+02 -0.95674539455E+01  0.24337140129E+01  0.60269874795E+02  0.10566000000E+00 0.  1.
         13    1    1    2    0    0 -0.43892400808E+02  0.72876426064E+01 -0.52839642934E+02  0.69077432008E+02  0.10566000000E+00 0. -1.
          4    1    1    2  501    0 -0.31994791713E+01  0.10369392099E+02 -0.77024732419E+02  0.77785412280E+02  0.00000000000E+00 0.  1.
         -4    1    1    2    0  502 -0.12363880926E+02 -0.80895807595E+01  0.41858189704E+01  0.15356690688E+02  0.00000000000E+00 0. -1.
</event>
<event>
 6    1  0.5496865E-006  0.4359440E+02  0.7818608E-02  0.1320321E+00
         21   -1    0    0  503  502  0.00000000000E+00  0.00000000000E+00  0.17086166216E+03  0.17086166216E+03  0.00000000000E+00 0. -1.
         21   -1    0    0  501  503 -0.00000000000E+00 -0.00000000000E+00 -0.11977301108E+03  0.11977301108E+03  0.00000000000E+00 0.  1.
        -13    1    1    2    0    0  0.40975235186E+01  0.45316649899E+02  0.63658876412E+02  0.78248656008E+02  0.10566000000E+00 0.  1.
         13    1    1    2    0    0 -0.27757883521E+02 -0.26404526711E+02  0.23033572245E+01  0.38379887271E+02  0.10566000000E+00 0. -1.
          4    1    1    2  501    0  0.13574783999E+02 -0.23337115167E+02 -0.92111678829E+02  0.95986754720E+02  0.00000000000E+00 0.  1.
         -4    1    1    2    0  502  0.10085576004E+02  0.44249919799E+01  0.77238096271E+02  0.78019375240E+02  0.00000000000E+00 0. -1.
</event>
<event>
 6    1  0.5496865E-006  0.2715187E+03  0.7818608E-02  0.1019808E+00
         21   -1    0    0  501  502  0.00000000000E+00  0.00000000000E+00  0.35147800863E+03  0.35147800863E+03  0.00000000000E+00 0.  1.
         21   -1    0    0  502  503 -0.00000000000E+00 -0.00000000000E+00 -0.14769946806E+04  0.14769946806E+04  0.00000000000E+00 0.  1.
        -13    1    1    2    0    0  0.78480824710E+02 -0.26080383523E+03 -0.90873749973E+03  0.94867367144E+03  0.10566000000E+00 0.  1.
         13    1    1    2    0    0 -0.11287909732E+03  0.25238698601E+03 -0.69461500096E+02  0.28507155677E+03  0.10566000000E+00 0. -1.
          4    1    1    2  501    0  0.22368987946E+02  0.24828741776E+01  0.22301709559E+03  0.22414986329E+03  0.00000000000E+00 0.  1.
         -4    1    1    2    0  503  0.12029284665E+02  0.59339750417E+01 -0.37033476777E+03  0.37057759777E+03  0.00000000000E+00 0. -1.
</event>
<event>
 6    1  0.5496865E-006  0.2644599E+02  0.7818608E-02  0.1435946E+00
         21   -1    0    0  503  502  0.00000000000E+00  0.00000000000E+00  0.19157148238E+03  0.19157148238E+03  0.00000000000E+00 0.  1.
         21   -1    0    0  501  503 -0.00000000000E+00 -0.00000000000E+00 -0.21491639593E+02  0.21491639593E+02  0.00000000000E+00 0.  1.
        -13    1    1    2    0    0 -0.18877624247E+02  0.19570424196E+02  0.10782766285E+03  0.11120333736E+03  0.10566000000E+00 0.  1.
         13    1    1    2    0    0  0.93727364387E+01 -0.21590620532E+02  0.44353027575E+02  0.50211605256E+02  0.10566000000E+00 0. -1.
          4    1    1    2  501    0  0.84661489467E+01 -0.10092743115E+02 -0.12960516364E+02  0.18480100811E+02  0.00000000000E+00 0.  1.
         -4    1    1    2    0  502  0.10387388620E+01  0.12112939450E+02  0.30859668726E+02  0.33168078546E+02  0.00000000000E+00 0. -1.
</event>
<event>
 6    1  0.5496865E-006  0.2301961E+03  0.7818608E-02  0.1056173E+00
         21   -1    0    0  501  502  0.00000000000E+00  0.00000000000E+00  0.18934119416E+03  0.18934119416E+03  0.00000000000E+00 0. -1.
         21   -1    0    0  502  503 -0.00000000000E+00 -0.00000000000E+00 -0.17400431082E+04  0.17400431082E+04  0.00000000000E+00 0.  1.
        -13    1    1    2    0    0 -0.72237435446E+02  0.12769136941E+03 -0.70164813939E+03  0.71682177392E+03  0.10566000000E+00 0.  1.
         13    1    1    2    0    0  0.80904074999E+02 -0.34669067763E+03 -0.88238972906E+02  0.36677789302E+03  0.10566000000E+00 0. -1.
          4    1    1    2  501    0 -0.23465380093E+02  0.13444384655E+01  0.22572933364E+02  0.32587864280E+02  0.00000000000E+00 0.  1.
         -4    1    1    2    0  503  0.14798740539E+02  0.21765486976E+03 -0.78338773516E+03  0.81319677117E+03  0.00000000000E+00 0. -1.
</event>
<event>
 6    1  0.5496865E-006  0.1233205E+03  0.7818608E-02  0.1130870E+00
         21   -1    0    0  501  502  0.00000000000E+00  0.00000000000E+00  0.20532939972E+04  0.20532939972E+04  0.00000000000E+00 0.  1.
         21   -1    0    0  502  503 -0.00000000000E+00 -0.00000000000E+00 -0.22028541714E+02  0.22028541714E+02  0.00000000000E+00 0.  1.
        -13    1    1    2    0    0  0.83951140768E+02  0.11298332360E+03  0.53939062659E+03  0.55745428931E+03  0.10566000000E+00 0.  1.
         13    1    1    2    0    0 -0.12143457827E+03 -0.24959774619E+02  0.42721775810E+03  0.44484196199E+03  0.10566000000E+00 0. -1.
          4    1    1    2  501    0  0.29058196721E+02 -0.63006570742E+02  0.10094599034E+04  0.10118416395E+04  0.00000000000E+00 0.  1.
         -4    1    1    2    0  503  0.84252407813E+01 -0.25016978237E+02  0.55197167368E+02  0.61184648138E+02  0.00000000000E+00 0. -1.
</event>
<event>
 6    1  0.5496865E-006  0.1168373E+03  0.7818608E-02  0.1139359E+00
         21   -1    0    0  503  502  0.00000000000E+00  0.00000000000E+00  0.11789726433E+03  0.11789726433E+03  0.00000000000E+00 0.  1.
         21   -1    0    0  501  503 -0.00000000000E+00 -0.00000000000E+00 -0.27512045342E+03  0.27512045342E+03  0.00000000000E+00 0.  1.
        -13    1    1    2    0    0 -0.10991422497E+03 -0.35407861824E+02  0.22510397358E+00  0.11547690404E+03  0.10566000000E+00 0.  1.
         13    1    1    2    0    0  0.90172926573E+02  0.87694415512E+02 -0.41150449226E+02  0.13234363541E+03  0.10566000000E+00 0. -1.
          4    1    1    2  501    0  0.96983699386E+01 -0.32603840498E+02 -0.11822047715E+03  0.12301686881E+03  0.00000000000E+00 0.  1.
         -4    1    1    2    0  502  0.10042928459E+02 -0.19682713190E+02  0.19226333122E+01  0.22180309498E+02  0.00000000000E+00 0. -1.
</event>
<event>
 6    1  0.5496865E-006  0.7730107E+02  0.7818608E-02  0.1208777E+00
         21   -1    0    0  501  502  0.00000000000E+00  0.00000000000E+00  0.34109472841E+03  0.34109472841E+03  0.00000000000E+00 0. -1.
         21   -1    0    0  502  503 -0.00000000000E+00 -0.00000000000E+00 -0.19339730648E+03  0.19339730648E+03  0.00000000000E+00 0. -1.
        -13    1    1    2    0    0 -0.33048124509E+01  0.55929261087E+02  0.13759471574E+03  0.14856419822E+03  0.10566000000E+00 0.  1.
         13    1    1    2    0    0 -0.21945493996E+02 -0.10486159975E+03  0.74855167929E+02  0.13069379151E+03  0.10566000000E+00 0. -1.
          4    1    1    2  501    0 -0.95380520618E+01  0.24048316262E+02  0.90537563147E+02  0.94161278097E+02  0.00000000000E+00 0.  1.
         -4    1    1    2    0  503  0.34788358509E+02  0.24884022402E+02 -0.15529002488E+03  0.16107276706E+03  0.00000000000E+00 0. -1.
</event>
<event>
 6    1  0.5496865E-006  0.8034111E+02  0.7818608E-02  0.1201941E+00
         21   -1    0    0  501  502  0.00000000000E+00  0.00000000000E+00  0.65161071311E+02  0.65161071311E+02  0.00000000000E+00 0. -1.
         21   -1    0    0  502  503 -0.00000000000E+00 -0.00000000000E+00 -0.64866338292E+03  0.64866338292E+03  0.00000000000E+00 0.  1.
        -13    1    1    2    0    0  0.87139820231E+02  0.36855723389E+00 -0.21348831278E+03  0.23058784652E+03  0.10566000000E+00 0.  1.
         13    1    1    2    0    0 -0.12546657886E+03  0.34847699338E+02 -0.49647529297E+02  0.13935965302E+03  0.10566000000E+00 0. -1.
          4    1    1    2  501    0  0.67507079297E+02 -0.39604773020E+02 -0.13395262316E+03  0.15514202865E+03  0.00000000000E+00 0.  1.
         -4    1    1    2    0  503 -0.29180320666E+02  0.43885164486E+01 -0.18641384637E+03  0.18873492605E+03  0.00000000000E+00 0. -1.
</event>
<event>
 6    1  0.5496865E-006  0.1432197E+03  0.7818608E-02  0.1107998E+00
         21   -1    0    0  503  502  0.00000000000E+00  0.00000000000E+00  0.11493800018E+04  0.11493800018E+04  0.00000000000E+00 0.  1.
         21   -1    0    0  501  503 -0.00000000000E+00 -0.00000000000E+00 -0.58221579437E+02  0.58221579437E+02  0.00000000000E+00 0. -1.
        -13    1    1    2    0    0  0.15631547237E+03  0.47780223042E+02  0.54944679052E+03  0.57324450577E+03  0.10566000000E+00 0.  1.
         13    1    1    2    0    0 -0.13472040917E+03 -0.76544192204E+02  0.19693955965E+03  0.25058691771E+03  0.10566000000E+00 0. -1.
          4    1    1    2  501    0  0.63105965944E+02 -0.21381466590E+02  0.17871722661E+03  0.19073378604E+03  0.00000000000E+00 0.  1.
         -4    1    1    2    0  502 -0.84701029138E+02  0.50145435751E+02  0.16605484558E+03  0.19303637171E+03  0.00000000000E+00 0. -1.
</event>
<event>
 6    1  0.5496865E-006  0.1398785E+03  0.7818608E-02  0.1111546E+00
         21   -1    0    0  503  502  0.00000000000E+00  0.00000000000E+00  0.51712651765E+03  0.51712651765E+03  0.00000000000E+00 0.  1.
         21   -1    0    0  501  503 -0.00000000000E+00 -0.00000000000E+00 -0.13476754201E+03  0.13476754201E+03  0.00000000000E+00 0. -1.
        -13    1    1    2    0    0 -0.15790511884E+03  0.21065249983E+01  0.31740102631E+03  0.35451641241E+03  0.10566000000E+00 0.  1.
         13    1    1    2    0    0  0.16403097655E+03  0.17325170677E+02  0.10866003333E+02  0.16530094978E+03  0.10566000000E+00 0. -1.
          4    1    1    2  501    0 -0.42046380789E+02 -0.47208153027E+02  0.23858836798E+01  0.63262945636E+02  0.00000000000E+00 0.  1.
         -4    1    1    2    0  502  0.35920523076E+02  0.27776457352E+02  0.51706062320E+02  0.68813751836E+02  0.00000000000E+00 0. -1.
</event>
<event>
 6    1  0.5496865E-006  0.2824353E+03  0.7818608E-02  0.1014831E+00
         21   -1    0    0  503  502  0.00000000000E+00  0.00000000000E+00  0.47850325552E+03  0.47850325552E+03  0.00000000000E+00 0.  1.
         21   -1    0    0  501  503 -0.00000000000E+00 -0.00000000000E+00 -0.39324722128E+03  0.39324722128E+03  0.00000000000E+00 0. -1.
        -13    1    1    2    0    0  0.27128689259E+03 -0.75530140169E+01  0.31825777201E+03  0.41826026194E+03  0.10566000000E+00 0.  1.
         13    1    1    2    0    0 -0.27926234274E+03  0.12955450581E+01 -0.25204697247E+03  0.37618721670E+03  0.10566000000E+00 0. -1.
          4    1    1    2  501    0 -0.61514935370E+01 -0.10312775462E+02 -0.25241720892E+02  0.27952436102E+02  0.00000000000E+00 0.  1.
         -4    1    1    2    0  502  0.14126943685E+02  0.16570244421E+02  0.44286955603E+02  0.49350562049E+02  0.00000000000E+00 0. -1.
</event>
<event>
 6    1  0.5496865E-006  0.1128832E+03  0.7818608E-02  0.1144839E+00
         21   -1    0    0  501  502  0.00000000000E+00  0.00000000000E+00  0.13281924542E+03  0.13281924542E+03  0.00000000000E+00 0. -1.
         21   -1    0    0  502  503 -0.00000000000E+00 -0.00000000000E+00 -0.36162578587E+03  0.36162578587E+03  0.00000000000E+00 0.  1.
        -13    1    1    2    0    0 -0.91021159411E+01  0.12396860257E+03 -0.24068256810E+03  0.27088590345E+03  0.10566000000E+00 0.  1.
         13    1    1    2    0    0 -0.93673182134E+01 -0.12475560945E+03  0.38890365899E+02  0.13101213861E+03  0.10566000000E+00 0. -1.
          4    1    1    2  501    0 -0.19243565460E+02  0.20641831110E+02  0.15626639463E+02  0.32258206151E+02  0.00000000000E+00 0.  1.
         -4    1    1    2    0  503  0.37712999614E+02 -0.19854824229E+02 -0.42640977706E+02  0.60288783076E+02  0.00000000000E+00 0. -1.
</event>
<event>
 6    1  0.5496865E-006  0.6194974E+02  0.7818608E-02  0.1249580E+00
         21   -1    0    0  503  502  0.00000000000E+00  0.00000000000E+00  0.94985714023E+02  0.94985714023E+02  0.00000000000E+00 0.  1.
         21   -1    0    0  501  503 -0.00000000000E+00 -0.00000000000E+00 -0.10815349931E+03  0.10815349931E+03  0.00000000000E+00 0. -1.
        -13    1    1    2    0    0  0.68315626920E+02  0.13849584927E+02 -0.26371163580E+01  0.69755296794E+02  0.10566000000E+00 0.  1.
         13    1    1    2    0    0 -0.62408444234E+02 -0.18026491595E+02 -0.16285557321E+02  0.66970134032E+02  0.10566000000E+00 0. -1.
          4    1    1    2  501    0  0.21360689613E+02  0.89880585571E+01 -0.18461349718E+02  0.29629135842E+02  0.00000000000E+00 0.  1.
         -4    1    1    2    0  502 -0.27267872299E+02 -0.48111518889E+01  0.24216238109E+02  0.36784646666E+02  0.00000000000E+00 0. -1.
</event>
<event>
 6    1  0.5496865E-006  0.2387386E+02  0.7818608E-02  0.1474410E+00
         21   -1    0    0  501  502  0.00000000000E+00  0.00000000000E+00  0.16307718711E+03  0.16307718711E+03  0.00000000000E+00 0. -1.
         21   -1    0    0  502  503 -0.00000000000E+00 -0.00000000000E+00 -0.25585837401E+02  0.25585837401E+02  0.00000000000E+00 0. -1.
        -13    1    1    2    0    0  0.17453318528E+02  0.16586346552E+00  0.13433558721E+02  0.22025383136E+02  0.10566000000E+00 0.  1.
         13    1    1    2    0    0 -0.26077032878E+02  0.13052701198E+02  0.23232912643E+02  0.37284903731E+02  0.10566000000E+00 0. -1.
          4    1    1    2  501    0  0.21643571781E+01 -0.28066215858E+02  0.10802483180E+03  0.11163225878E+03  0.00000000000E+00 0.  1.
         -4    1    1    2    0  503  0.64593571725E+01  0.14847651194E+02 -0.71999534633E+01  0.17720478857E+02  0.00000000000E+00 0. -1.
</event>
<event>
 6    1  0.5496865E-006  0.7793713E+02  0.7818608E-02  0.1231629E+00
         21   -1    0    0  503  502  0.00000000000E+00  0.00000000000E+00  0.38891515286E+03  0.38891515286E+03  0.00000000000E+00 0.  1.
         21   -1    0    0  501  503 -0.00000000000E+00 -0.00000000000E+00 -0.10482932014E+03  0.10482932014E+03  0.00000000000E+00 0. -1.
        -13    1    1    2    0    0  0.58881114190E+02 -0.35180580298E+02  0.10983931871E+03  0.12949650936E+03  0.10566000000E+00 0.  1.
         13    1    1    2    0    0 -0.68561483850E+02 -0.77472872863E+02 -0.36338735021E+02  0.10965052633E+03  0.10566000000E+00 0. -1.
          4    1    1    2  501    0  0.15618670739E+02  0.93190617067E+02  0.84131615298E+02  0.12651704501E+03  0.00000000000E+00 0.  1.
         -4    1    1    2    0  502 -0.59383010787E+01  0.19462836094E+02  0.12645363373E+03  0.12808039231E+03  0.00000000000E+00 0. -1.
</event>
<event>
 6    1  0.5496865E-006  0.2381036E+02  0.7818608E-02  0.1488442E+00
         21   -1    0    0  503  502  0.00000000000E+00  0.00000000000E+00  0.21665759160E+03  0.21665759160E+03  0.00000000000E+00 0. -1.
         21   -1    0    0  501  503 -0.00000000000E+00 -0.00000000000E+00 -0.24238862606E+02  0.24238862606E+02  0.00000000000E+00 0.  1.
        -13    1    1    2    0    0  0.13920418480E+02  0.18286648712E+02  0.54608163504E+02  0.59247297467E+02  0.10566000000E+00 0.  1.
         13    1    1    2    0    0 -0.17132725109E+02  0.10392160162E+02  0.17540510557E+02  0.26630958246E+02  0.10566000000E+00 0. -1.
          4    1    1    2  501    0 -0.10337958117E+02 -0.21656007508E+02 -0.84162041278E+01  0.25430071394E+02  0.00000000000E+00 0.  1.
         -4    1    1    2    0  502  0.13550264746E+02 -0.70228013662E+01  0.12868625906E+03  0.12958812710E+03  0.00000000000E+00 0. -1.
</event>
<event>
 6    1  0.5496865E-006  0.3539790E+03  0.7818608E-02  0.9872274E-01
         21   -1    0    0  501  502  0.00000000000E+00  0.00000000000E+00  0.14431155891E+04  0.14431155891E+04  0.00000000000E+00 0.  1.
         21   -1    0    0  502  503 -0.00000000000E+00 -0.00000000000E+00 -0.29548064217E+03  0.29548064217E+03  0.00000000000E+00 0.  1.
        -13    1    1    2    0    0 -0.14509826633E+03 -0.35568421351E+03  0.22017803074E+03  0.44276759481E+03  0.10566000000E+00 0.  1.
         13    1    1    2    0    0  0.10784695864E+03  0.34376531302E+03  0.66070511415E+02  0.36629343505E+03  0.10566000000E+00 0. -1.
          4    1    1    2  501    0  0.69885455517E+00  0.96480069249E+02  0.82478223701E+03  0.83040630456E+03  0.00000000000E+00 0.  1.
         -4    1    1    2    0  503  0.36552453134E+02 -0.84561168753E+02  0.36604167765E+02  0.99128896840E+02  0.00000000000E+00 0. -1.
</event>
<event>
 6    1  0.5496865E-006  0.2495746E+03  0.7818608E-02  0.1030613E+00
         21   -1    0    0  503  502  0.00000000000E+00  0.00000000000E+00  0.11538705976E+03  0.11538705976E+03  0.00000000000E+00 0.  1.
         21   -1    0    0  501  503 -0.00000000000E+00 -0.00000000000E+00 -0.13679289224E+04  0.13679289224E+04  0.00000000000E+00 0.  1.
        -13    1    1    2    0    0  0.14930607510E+03 -0.19159972594E+03 -0.11469736589E+03  0.26862288798E+03  0.10566000000E+00 0.  1.
         13    1    1    2    0    0 -0.16075897133E+03  0.18429090775E+03 -0.45885189901E+03  0.51995351901E+03  0.10566000000E+00 0. -1.
          4    1    1    2  501    0 -0.54511622977E+01  0.13504499273E+02 -0.67639228863E+03  0.67654904833E+03  0.00000000000E+00 0.  1.
         -4    1    1    2    0  502  0.16904058527E+02 -0.61956810763E+01 -0.26003090850E+01  0.18190526821E+02  0.00000000000E+00 0. -1.
</event>
<event>
 6    1  0.5496865E-006  0.1181148E+03  0.7818608E-02  0.1137639E+00
         21   -1    0    0  501  502  0.00000000000E+00  0.00000000000E+00  0.76801804665E+02  0.76801804665E+02  0.00000000000E+00 0. -1.
         21   -1    0    0  502  503 -0.00000000000E+00 -0.00000000000E+00 -0.58245660493E+03  0.58245660493E+03  0.00000000000E+00 0.  1.
        -13    1    1    2    0    0  0.39877971282E+02  0.10361156780E+03 -0.16352192988E+03  0.19764878520E+03  0.10566000000E+00 0.  1.
         13    1    1    2    0    0 -0.23997649100E+02 -0.12322436722E+03 -0.15954616784E+02  0.12654917147E+03  0.10566000000E+00 0. -1.
          4    1    1    2  501    0 -0.11331170508E+02  0.93803278606E+01 -0.81146973028E+01  0.16799830004E+02  0.00000000000E+00 0.  1.
         -4    1    1    2    0  503 -0.45491516745E+01  0.10232471565E+02 -0.31806355630E+03  0.31826062292E+03  0.00000000000E+00 0. -1.
</event>
<event>
 6    1  0.5496865E-006  0.5484895E+02  0.7818608E-02  0.1274378E+00
         21   -1    0    0  503  502  0.00000000000E+00  0.00000000000E+00  0.70789755859E+03  0.70789755859E+03  0.00000000000E+00 0. -1.
         21   -1    0    0  501  503 -0.00000000000E+00 -0.00000000000E+00 -0.34417092295E+02  0.34417092295E+02  0.00000000000E+00 0.  1.
        -13    1    1    2    0    0  0.40576967537E+02  0.18820866058E+02  0.75936549189E+02  0.88131072616E+02  0.10566000000E+00 0.  1.
         13    1    1    2    0    0 -0.14381846033E+02 -0.25736235489E+02  0.14652498396E+03  0.14946161180E+03  0.10566000000E+00 0. -1.
          4    1    1    2  501    0 -0.40822388728E+02 -0.44623326377E+02  0.11021651139E+02  0.61475080091E+02  0.00000000000E+00 0.  1.
         -4    1    1    2    0  502  0.14627267223E+02  0.51538695808E+02  0.43999728200E+03  0.44324688637E+03  0.00000000000E+00 0. -1.
</event>
<event>
 6    1  0.5496865E-006  0.2281906E+03  0.7818608E-02  0.1042358E+00
         21   -1    0    0  503  502  0.00000000000E+00  0.00000000000E+00  0.95091632302E+03  0.95091632302E+03  0.00000000000E+00 0.  1.
         21   -1    0    0  501  503 -0.00000000000E+00 -0.00000000000E+00 -0.11102419846E+03  0.11102419846E+03  0.00000000000E+00 0. -1.
        -13    1    1    2    0    0 -0.20849467507E+03  0.62310947372E+02  0.74395477541E+03  0.77512670108E+03  0.10566000000E+00 0.  1.
         13    1    1    2    0    0  0.23046530597E+03 -0.70207316402E+02  0.83117010551E+02  0.25485637748E+03  0.10566000000E+00 0. -1.
          4    1    1    2  501    0 -0.12614968381E+02  0.37410667001E+01 -0.26350576044E+01  0.13419259886E+02  0.00000000000E+00 0.  1.
         -4    1    1    2    0  502 -0.93556625185E+01  0.41553023300E+01  0.15455396203E+02  0.18538183039E+02  0.00000000000E+00 0. -1.
</event>
<event>
 6    1  0.5496865E-006  0.1398727E+03  0.7818608E-02  0.1111553E+00
         21   -1    0    0  501  502  0.00000000000E+00  0.00000000000E+00  0.48543461639E+03  0.48543461639E+03  0.00000000000E+00 0. -1.
         21   -1    0    0  502  503 -0.00000000000E+00 -0.00000000000E+00 -0.13997984182E+04  0.13997984182E+04  0.00000000000E+00 0. -1.
        -13    1    1    2    0    0 -0.98381629285E+02  0.97005915272E+02 -0.66545143755E+02  0.15335370846E+03  0.10566000000E+00 0.  1.
         13    1    1    2    0    0  0.10214837043E+03 -0.60865235493E+02  0.11602841084E+03  0.16613690066E+03  0.10566000000E+00 0. -1.
          4    1    1    2  501    0  0.21149105694E+02 -0.28452620637E+02  0.29976864441E+03  0.30185770897E+03  0.00000000000E+00 0.  1.
         -4    1    1    2    0  503 -0.24915846837E+02 -0.76880591413E+01 -0.12636157133E+04  0.12638847165E+04  0.00000000000E+00 0. -1.
</event>
<event>
 6    1  0.5496865E-006  0.1046734E+03  0.7818608E-02  0.1157047E+00
         21   -1    0    0  501  502  0.00000000000E+00  0.00000000000E+00  0.27190294708E+03  0.27190294708E+03  0.00000000000E+00 0. -1.
         21   -1    0    0  502  503 -0.00000000000E+00 -0.00000000000E+00 -0.24480772334E+03  0.24480772334E+03  0.00000000000E+00 0. -1.
        -13    1    1    2    0    0 -0.94331552595E+02 -0.27703452669E+02  0.45480566132E+02  0.10832551022E+03  0.10566000000E+00 0.  1.
         13    1    1    2    0    0  0.11001097991E+03  0.17861775639E+02  0.67478501807E+02  0.13028744414E+03  0.10566000000E+00 0. -1.
          4    1    1    2  501    0  0.91422419627E+00 -0.10216511191E+02  0.94908203126E+02  0.95460881661E+02  0.00000000000E+00 0.  1.
         -4    1    1    2    0  503 -0.16593651511E+02  0.20058188221E+02 -0.18077204733E+03  0.18263683440E+03  0.00000000000E+00 0. -1.
</event>
<event>
 6    1  0.5496865E-006  0.6537704E+02  0.7818608E-02  0.1239406E+00
         21   -1    0    0  501  502  0.00000000000E+00  0.00000000000E+00  0.11691284762E+03  0.11691284762E+03  0.00000000000E+00 0.  1.
         21   -1    0    0  502  503 -0.00000000000E+00 -0.00000000000E+00 -0.21218758288E+03  0.21218758288E+03  0.00000000000E+00 0.  1.
        -13    1    1    2    0    0 -0.40504590574E+02  0.68201804567E+02 -0.15281457631E+03  0.17217553223E+03  0.10566000000E+00 0.  1.
         13    1    1    2    0    0  0.62748717493E+02 -0.27162218734E+02  0.83729088691E+01  0.68886170169E+02  0.10566000000E+00 0. -1.
          4    1    1    2  501    0 -0.19364194511E+02 -0.55175321722E+02  0.41475084402E+02  0.71690102402E+02  0.00000000000E+00 0.  1.
         -4    1    1    2    0  503 -0.28799324081E+01  0.14135735889E+02  0.76918477811E+01  0.16348625694E+02  0.00000000000E+00 0. -1.
</event>
<event>
 6    1  0.5496865E-006  0.1207689E+03  0.7818608E-02  0.1134141E+00
         21   -1    0    0  501  502  0.00000000000E+00  0.00000000000E+00  0.40769211551E+03  0.40769211551E+03  0.00000000000E+00 0.  1.
         21   -1    0    0  502  503 -0.00000000000E+00 -0.00000000000E+00 -0.18062830556E+03  0.18062830556E+03  0.00000000000E+00 0.  1.
        -13    1    1    2    0    0  0.16807148463E+02 -0.11453348697E+03 -0.65584498933E+02  0.13304787687E+03  0.10566000000E+00 0.  1.
         13    1    1    2    0    0 -0.47079022534E+02  0.13297622091E+03 -0.10757588293E+02  0.14147383702E+03  0.10566000000E+00 0. -1.
          4    1    1    2  501    0  0.30925881493E+02 -0.32345214319E+02  0.29305915825E+03  0.29645622488E+03  0.00000000000E+00 0.  1.
         -4    1    1    2    0  503 -0.65400742130E+00  0.13902480375E+02  0.10346738930E+02  0.17342482313E+02  0.00000000000E+00 0. -1.
</event>
<event>
 6    1  0.5496865E-006  0.3137600E+02  0.7818608E-02  0.1394188E+00
         21   -1    0    0  501  502  0.00000000000E+00  0.00000000000E+00  0.99861788729E+01  0.99861788729E+01  0.00000000000E+00 0. -1.
         21   -1    0    0  502  503 -0.00000000000E+00 -0.00000000000E+00 -0.44656239612E+03  0.44656239612E+03  0.00000000000E+00 0.  1.
        -13    1    1    2    0    0  0.40465262211E+02 -0.96491343135E+01 -0.21224618066E+03  0.21628452466E+03  0.10566000000E+00 0.  1.
         13    1    1    2    0    0 -0.27699763961E+02  0.20173834095E+02 -0.38677311587E+02  0.51674037012E+02  0.10566000000E+00 0. -1.
          4    1    1    2  501    0  0.23648639931E+01 -0.12313534626E+02 -0.35175067379E+02  0.37343019184E+02  0.00000000000E+00 0.  1.
         -4    1    1    2    0  503 -0.15130362244E+02  0.17888348453E+01 -0.15047765762E+03  0.15124699414E+03  0.00000000000E+00 0. -1.
</event>
<event>
 6    1  0.5496865E-006  0.1357402E+03  0.7818608E-02  0.1116094E+00
         21   -1    0    0  503  502  0.00000000000E+00  0.00000000000E+00  0.65411088087E+03  0.65411088087E+03  0.00000000000E+00 0. -1.
         21   -1    0    0  501  503 -0.00000000000E+00 -0.00000000000E+00 -0.43621574486E+02  0.43621574486E+02  0.00000000000E+00 0.  1.
        -13    1    1    2    0    0  0.14743557462E+03 -0.18599514522E+02  0.27111624126E+03  0.30917182608E+03  0.10566000000E+00 0.  1.
         13    1    1    2    0    0 -0.12505630775E+03  0.14742853151E+02  0.20147919608E+03  0.23759273862E+03  0.10566000000E+00 0. -1.
          4    1    1    2  501    0 -0.21286088265E+02  0.28604549152E+02  0.94474395023E+02  0.10097885472E+03  0.00000000000E+00 0.  1.
         -4    1    1    2    0  502 -0.10931786025E+01 -0.24747887781E+02  0.43419474019E+02  0.49989035930E+02  0.00000000000E+00 0. -1.
</event>
<event>
 6    1  0.5496865E-006  0.1866094E+03  0.7818608E-02  0.1069725E+00
         21   -1    0    0  501  502  0.00000000000E+00  0.00000000000E+00  0.67944855936E+02  0.67944855936E+02  0.00000000000E+00 0. -1.
         21   -1    0    0  502  503 -0.00000000000E+00 -0.00000000000E+00 -0.14786020054E+04  0.14786020054E+04  0.00000000000E+00 0.  1.
        -13    1    1    2    0    0  0.96323612271E+02  0.16819749913E+03 -0.10663779483E+04  0.10838498866E+04  0.10566000000E+00 0.  1.
         13    1    1    2    0    0 -0.75114677263E+02 -0.15003932182E+03 -0.66442777181E+02  0.18046791026E+03  0.10566000000E+00 0. -1.
          4    1    1    2  501    0 -0.51160654674E+01 -0.20759423252E+02 -0.58447885043E+02  0.62235705552E+02  0.00000000000E+00 0.  1.
         -4    1    1    2    0  503 -0.16092869540E+02  0.26012459421E+01 -0.21938853900E+03  0.21999335894E+03  0.00000000000E+00 0. -1.
</event>
<event>
 6    1  0.5496865E-006  0.1079728E+03  0.7818608E-02  0.1151998E+00
         21   -1    0    0  501  502  0.00000000000E+00  0.00000000000E+00  0.39926912853E+03  0.39926912853E+03  0.00000000000E+00 0. -1.
         21   -1    0    0  502  503 -0.00000000000E+00 -0.00000000000E+00 -0.13203124079E+03  0.13203124079E+03  0.00000000000E+00 0.  1.
        -13    1    1    2    0    0 -0.11168681210E+03 -0.89640871940E+02 -0.16486401237E+02  0.14415700645E+03  0.10566000000E+00 0.  1.
         13    1    1    2    0    0  0.98714669776E+02  0.69029137746E+01  0.54775121417E+02  0.11310420566E+03  0.10566000000E+00 0. -1.
          4    1    1    2  501    0  0.89212972050E+01 -0.58971064748E+01  0.16333835639E+03  0.16368806944E+03  0.00000000000E+00 0.  1.
         -4    1    1    2    0  503  0.40508451208E+01  0.88635064640E+02  0.65610811163E+02  0.11035108777E+03  0.00000000000E+00 0. -1.
</event>
<event>
 6    1  0.5496865E-006  0.3561450E+03  0.7818608E-02  0.9865026E-01
         21   -1    0    0  501  502  0.00000000000E+00  0.00000000000E+00  0.49869760043E+03  0.49869760043E+03  0.00000000000E+00 0. -1.
         21   -1    0    0  502  503 -0.00000000000E+00 -0.00000000000E+00 -0.85208064856E+03  0.85208064856E+03  0.00000000000E+00 0.  1.
        -13    1    1    2    0    0 -0.24859075965E+03 -0.24045792602E+03 -0.40683371374E+03  0.53397664908E+03  0.10566000000E+00 0.  1.
         13    1    1    2    0    0  0.22221669255E+03  0.24475574800E+03  0.16179947005E+03  0.36805531419E+03  0.10566000000E+00 0. -1.
          4    1    1    2  501    0  0.43645764217E+01  0.47514004698E+02  0.16391784388E+03  0.17072108749E+03  0.00000000000E+00 0.  1.
         -4    1    1    2    0  503  0.22009490674E+02 -0.51811826676E+02 -0.27226664833E+03  0.27802519824E+03  0.00000000000E+00 0. -1.
</event>
<event>
 6    1  0.5496865E-006  0.2775719E+03  0.7818608E-02  0.1017018E+00
         21   -1    0    0  503  502  0.00000000000E+00  0.00000000000E+00  0.42712491282E+03  0.42712491282E+03  0.00000000000E+00 0.  1.
         21   -1    0    0  501  503 -0.00000000000E+00 -0.00000000000E+00 -0.69874333652E+03  0.69874333652E+03  0.00000000000E+00 0. -1.
        -13    1    1    2    0    0 -0.21901846462E+03 -0.12154105537E+03  0.25658025068E+03  0.35857321734E+03  0.10566000000E+00 0.  1.
         13    1    1    2    0    0  0.27147258176E+03 -0.89083923740E+02 -0.36342608195E+03  0.46228977527E+03  0.10566000000E+00 0. -1.
          4    1    1    2  501    0  0.19985970282E+02  0.30204363864E+02 -0.89450282225E+02  0.96504381220E+02  0.00000000000E+00 0.  1.
         -4    1    1    2    0  502 -0.72440087416E+02  0.18042061525E+03 -0.75322310207E+02  0.20850087551E+03  0.00000000000E+00 0. -1.
</event>
<event>
 6    1  0.5496865E-006  0.2252495E+03  0.7818608E-02  0.1044081E+00
         21   -1    0    0  503  502  0.00000000000E+00  0.00000000000E+00  0.21653246237E+03  0.21653246237E+03  0.00000000000E+00 0.  1.
         21   -1    0    0  501  503 -0.00000000000E+00 -0.00000000000E+00 -0.34408795559E+03  0.34408795559E+03  0.00000000000E+00 0. -1.
        -13    1    1    2    0    0 -0.22286678093E+03  0.11342648789E+02 -0.24707805536E+02  0.22451891801E+03  0.10566000000E+00 0.  1.
         13    1    1    2    0    0  0.22945014062E+03  0.60784698051E+01 -0.84316559646E+02  0.24452731590E+03  0.10566000000E+00 0. -1.
          4    1    1    2  501    0 -0.10030404590E+02  0.15173103206E+02 -0.45581974011E+02  0.49076964371E+02  0.00000000000E+00 0.  1.
         -4    1    1    2    0  502  0.34470449066E+01 -0.32594221801E+02  0.27050845965E+02  0.42497219683E+02  0.00000000000E+00 0. -1.
</event>
<event>
 6    1  0.5496865E-006  0.9683730E+02  0.7818608E-02  0.1207066E+00
         21   -1    0    0  501  502  0.00000000000E+00  0.00000000000E+00  0.55990643939E+03  0.55990643939E+03  0.00000000000E+00 0. -1.
         21   -1    0    0  502  503 -0.00000000000E+00 -0.00000000000E+00 -0.10081241109E+03  0.10081241109E+03  0.00000000000E+00 0.  1.
        -13    1    1    2    0    0 -0.40593718890E+02 -0.31625194950E+01 -0.52545406860E+02  0.66474675546E+02  0.10566000000E+00 0.  1.
         13    1    1    2    0    0 -0.54062188622E+02  0.44065035277E+02  0.34411967539E+03  0.35111651873E+03  0.10566000000E+00 0. -1.
          4    1    1    2  501    0 -0.72925435221E+01 -0.20186944993E+02  0.13119081298E+03  0.13293503432E+03  0.00000000000E+00 0.  1.
         -4    1    1    2    0  503  0.10194845103E+03 -0.20715570789E+02  0.36328946791E+02  0.11019262188E+03  0.00000000000E+00 0. -1.
</event>
<event>
 6    1  0.5496865E-006  0.8900401E+02  0.7818608E-02  0.1184154E+00
         21   -1    0    0  501  502  0.00000000000E+00  0.00000000000E+00  0.11836429764E+03  0.11836429764E+03  0.00000000000E+00 0.  1.
         21   -1    0    0  502  503 -0.00000000000E+00 -0.00000000000E+00 -0.51245745903E+03  0.51245745903E+03  0.00000000000E+00 0.  1.
        -13    1    1    2    0    0  0.73608117800E+02  0.68083318269E+02 -0.41879295586E+03  0.43062866170E+03  0.10566000000E+00 0.  1.
         13    1    1    2    0    0 -0.44265085201E+02 -0.82107300682E+02 -0.70041096824E+01  0.93541837215E+02  0.10566000000E+00 0. -1.
          4    1    1    2  501    0 -0.63403927801E+01  0.11417275504E+02  0.64888544331E+02  0.66189711783E+02  0.00000000000E+00 0.  1.
         -4    1    1    2    0  503 -0.23002639818E+02  0.26067069080E+01 -0.33184640171E+02  0.40461545976E+02  0.00000000000E+00 0. -1.
</event>
<event>
 6    1  0.5496865E-006  0.2710453E+03  0.7818608E-02  0.1020029E+00
         21   -1    0    0  501  502  0.00000000000E+00  0.00000000000E+00  0.55652905614E+03  0.55652905614E+03  0.00000000000E+00 0. -1.
         21   -1    0    0  502  503 -0.00000000000E+00 -0.00000000000E+00 -0.61704369252E+03  0.61704369252E+03  0.00000000000E+00 0.  1.
        -13    1    1    2    0    0  0.27079344559E+03  0.69594740796E+01 -0.45918336564E+03  0.53312934537E+03  0.10566000000E+00 0.  1.
         13    1    1    2    0    0 -0.20820968896E+03  0.16795481954E+03  0.15920209816E+03  0.31129634628E+03  0.10566000000E+00 0. -1.
          4    1    1    2  501    0 -0.46916618999E+02 -0.33464197047E+02  0.15088496018E+03  0.16151561173E+03  0.00000000000E+00 0.  1.
         -4    1    1    2    0  503 -0.15667137624E+02 -0.14145009658E+03  0.88581670918E+02  0.16763144528E+03  0.00000000000E+00 0. -1.
</event>
<event>
 6    1  0.5496865E-006  0.8132674E+02  0.7818608E-02  0.1207097E+00
         21   -1    0    0  501  502  0.00000000000E+00  0.00000000000E+00  0.14835496747E+02  0.14835496747E+02  0.00000000000E+00 0.  1.
         21   -1    0    0  502  503 -0.00000000000E+00 -0.00000000000E+00 -0.12853599819E+04  0.12853599819E+04  0.00000000000E+00 0.  1.
        -13    1    1    2    0    0  0.96556068723E+02 -0.51673602043E+02 -0.62823723735E+03  0.63771096362E+03  0.10566000000E+00 0.  1.
         13    1    1    2    0    0 -0.31116851513E+02  0.61380804087E+02 -0.32961421402E+03  0.33672155085E+03  0.10566000000E+00 0. -1.
          4    1    1    2  501    0 -0.75432738238E+02 -0.14965793488E+02 -0.23474132448E+03  0.24701733217E+03  0.00000000000E+00 0.  1.
         -4    1    1    2    0  503  0.99935210290E+01  0.52585914437E+01 -0.77931709286E+02  0.78745631998E+02  0.00000000000E+00 0. -1.
</event>
<event>
 6    1  0.5496865E-006  0.1981736E+03  0.7818608E-02  0.1061395E+00
         21   -1    0    0  503  502  0.00000000000E+00  0.00000000000E+00  0.31989899563E+03  0.31989899563E+03  0.00000000000E+00 0. -1.
         21   -1    0    0  501  503 -0.00000000000E+00 -0.00000000000E+00 -0.58814705661E+03  0.58814705661E+03  0.00000000000E+00 0. -1.
        -13    1    1    2    0    0 -0.21209011284E+03  0.29856476808E+02 -0.21443816084E+02  0.21525211633E+03  0.10566000000E+00 0.  1.
         13    1    1    2    0    0  0.20082462582E+03 -0.39096843418E+02 -0.37025231492E+03  0.42301995386E+03  0.10566000000E+00 0. -1.
          4    1    1    2  501    0 -0.13106485934E+02  0.86131507167E+01 -0.71554601603E+02  0.73253172964E+02  0.00000000000E+00 0.  1.
         -4    1    1    2    0  502  0.24371972950E+02  0.62721589230E+00  0.19500267162E+03  0.19652080908E+03  0.00000000000E+00 0. -1.
</event>
<event>
 6    1  0.5496865E-006  0.3308837E+03  0.7818608E-02  0.9953156E-01
         21   -1    0    0  503  502  0.00000000000E+00  0.00000000000E+00  0.66262435948E+03  0.66262435948E+03  0.00000000000E+00 0.  1.
         21   -1    0    0  501  503 -0.00000000000E+00 -0.00000000000E+00 -0.41237933043E+03  0.41237933043E+03  0.00000000000E+00 0. -1.
        -13    1    1    2    0    0  0.23438537153E+03  0.23689799764E+03  0.18593030646E+03  0.38161139094E+03  0.10566000000E+00 0.  1.
         13    1    1    2    0    0 -0.23405466423E+03 -0.22774373031E+03 -0.39384769015E+02  0.32893762895E+03  0.10566000000E+00 0. -1.
          4    1    1    2  501    0 -0.99860787371E+01  0.81570599996E+00 -0.12997889220E+03  0.13036448735E+03  0.00000000000E+00 0.  1.
         -4    1    1    2    0  502  0.96553714345E+01 -0.99699733300E+01  0.23367838380E+03  0.23409018267E+03  0.00000000000E+00 0. -1.
</event>
<event>
 6    1  0.5496865E-006  0.1186958E+03  0.7818608E-02  0.1164712E+00
         21   -1    0    0  503  502  0.00000000000E+00  0.00000000000E+00  0.24324801013E+03  0.24324801013E+03  0.00000000000E+00 0.  1.
         21   -1    0    0  501  503 -0.00000000000E+00 -0.00000000000E+00 -0.15105159650E+03  0.15105159650E+03  0.00000000000E+00 0.  1.
        -13    1    1    2    0    0  0.14696946290E+03  0.31639581875E+02  0.23487697494E+02  0.15216034065E+03  0.10566000000E+00 0.  1.
         13    1    1    2    0    0 -0.50699730323E+02  0.30328449913E+02 -0.42210981712E+02  0.72608922800E+02  0.10566000000E+00 0. -1.
          4    1    1    2  501    0 -0.80448103064E+02 -0.46443155086E+02  0.51725819987E+02  0.10632226669E+03  0.00000000000E+00 0.  1.
         -4    1    1    2    0  502 -0.15821629517E+02 -0.15524876702E+02  0.59193877868E+02  0.63208076496E+02  0.00000000000E+00 0. -1.
</event>
<event>
 6    1  0.5496865E-006  0.1705164E+03  0.7818608E-02  0.1082470E+00
         21   -1    0    0  501  502  0.00000000000E+00  0.00000000000E+00  0.86406458990E+03  0.86406458990E+03  0.00000000000E+00 0.  1.
         21   -1    0    0  502  503 -0.00000000000E+00 -0.00000000000E+00 -0.69907766414E+02  0.69907766414E+02  0.00000000000E+00 0. -1.
        -13    1    1    2    0    0  0.66367776446E+02 -0.17308152124E+03  0.35864304182E+03  0.40371615939E+03  0.10566000000E+00 0.  1.
         13    1    1    2    0    0 -0.14774988442E+03  0.96612908933E+02  0.24173047221E+03  0.29932877389E+03  0.10566000000E+00 0. -1.
          4    1    1    2  501    0  0.82639931903E+02  0.53470748134E+02  0.12963014707E+03  0.16276502782E+03  0.00000000000E+00 0.  1.
         -4    1    1    2    0  503 -0.12578239291E+01  0.22997864173E+02  0.64153162392E+02  0.68162395222E+02  0.00000000000E+00 0. -1.
</event>
<event>
 6    1  0.5496865E-006  0.9660240E+02  0.7818608E-02  0.1174630E+00
         21   -1    0    0  501  502  0.00000000000E+00  0.00000000000E+00  0.50661044287E+02  0.50661044287E+02  0.00000000000E+00 0. -1.
         21   -1    0    0  502  503 -0.00000000000E+00 -0.00000000000E+00 -0.14653000430E+04  0.14653000430E+04  0.00000000000E+00 0.  1.
        -13    1    1    2    0    0 -0.59274306687E+02  0.36685284468E+02 -0.25972553259E+03  0.26891749101E+03  0.10566000000E+00 0.  1.
         13    1    1    2    0    0  0.11956459528E+03 -0.11855807023E+03 -0.17848097274E+03  0.24537150864E+03  0.10566000000E+00 0. -1.
          4    1    1    2  501    0 -0.43772254066E+02  0.84333369762E+02 -0.16754478013E+03  0.19261199555E+03  0.00000000000E+00 0.  1.
         -4    1    1    2    0  503 -0.16518034530E+02 -0.24605840041E+01 -0.80888771325E+03  0.80906009208E+03  0.00000000000E+00 0. -1.
</event>
<event>
 6    1  0.5496865E-006  0.1202596E+03  0.7818608E-02  0.1134805E+00
         21   -1    0    0  501  502  0.00000000000E+00  0.00000000000E+00  0.12112966520E+03  0.12112966520E+03  0.00000000000E+00 0.  1.
         21   -1    0    0  502  503 -0.00000000000E+00 -0.00000000000E+00 -0.64372592644E+03  0.64372592644E+03  0.00000000000E+00 0.  1.
        -13    1    1    2    0    0  0.65798824623E+02 -0.10815051908E+03 -0.23931191655E+03  0.27073275506E+03  0.10566000000E+00 0.  1.
         13    1    1    2    0    0 -0.32904878548E+02  0.87557845591E+02 -0.25930215511E+02  0.97064383773E+02  0.10566000000E+00 0. -1.
          4    1    1    2  501    0 -0.51884598983E+02  0.25388135944E+02  0.57554107301E+02  0.81541672325E+02  0.00000000000E+00 0.  1.
         -4    1    1    2    0  503  0.18990652909E+02 -0.47954624550E+01 -0.31490823649E+03  0.31551678048E+03  0.00000000000E+00 0. -1.
</event>
<event>
 6    1  0.5496865E-006  0.2545823E+02  0.7818608E-02  0.1445587E+00
         21   -1    0    0  501  502  0.00000000000E+00  0.00000000000E+00  0.32482495758E+03  0.32482495758E+03  0.00000000000E+00 0. -1.
         21   -1    0    0  502  503 -0.00000000000E+00 -0.00000000000E+00 -0.77854459962E+02  0.77854459962E+02  0.00000000000E+00 0.  1.
        -13    1    1    2    0    0  0.29667313703E+02  0.15227060142E+02 -0.67310793435E+02  0.75118352883E+02  0.10566000000E+00 0.  1.
         13    1    1    2    0    0 -0.28801180042E+01 -0.31972100740E+02  0.15655374197E+03  0.15981112475E+03  0.10566000000E+00 0. -1.
          4    1    1    2  501    0 -0.72166183796E+01  0.95525630787E+01  0.13962577759E+03  0.14013810620E+03  0.00000000000E+00 0.  1.
         -4    1    1    2    0  503 -0.19570577319E+02  0.71924775190E+01  0.18101771497E+02  0.27611833709E+02  0.00000000000E+00 0. -1.
</event>
<event>
 6    1  0.5496865E-006  0.9951727E+02  0.7818608E-02  0.1165357E+00
         21   -1    0    0  501  502  0.00000000000E+00  0.00000000000E+00  0.23454613421E+03  0.23454613421E+03  0.00000000000E+00 0. -1.
         21   -1    0    0  502  503 -0.00000000000E+00 -0.00000000000E+00 -0.17101918501E+03  0.17101918501E+03  0.00000000000E+00 0.  1.
        -13    1    1    2    0    0 -0.93138562162E+02 -0.53336866297E+02  0.81817769280E+02  0.13495840693E+03  0.10566000000E+00 0.  1.
         13    1    1    2    0    0  0.57473370928E+02  0.68834822848E+02 -0.71466460223E+02  0.11466859772E+03  0.10566000000E+00 0. -1.
          4    1    1    2  501    0  0.25394083480E+02 -0.23609287542E+02  0.10077457975E+03  0.10657285704E+03  0.00000000000E+00 0.  1.
         -4    1    1    2    0  503  0.10271107754E+02  0.81113309906E+01 -0.47598939608E+02  0.49365457526E+02  0.00000000000E+00 0. -1.
</event>
<event>
 6    1  0.5496865E-006  0.1220951E+03  0.7818608E-02  0.1194205E+00
         21   -1    0    0  501  502  0.00000000000E+00  0.00000000000E+00  0.26856856876E+03  0.26856856876E+03  0.00000000000E+00 0. -1.
         21   -1    0    0  502  503 -0.00000000000E+00 -0.00000000000E+00 -0.11562728022E+03  0.11562728022E+03  0.00000000000E+00 0. -1.
        -13    1    1    2    0    0 -0.26277694012E+02  0.27044053273E+01 -0.13361684677E+02  0.29603661804E+02  0.10566000000E+00 0.  1.
         13    1    1    2    0    0 -0.45757184771E+02 -0.10848890723E+03  0.84168913546E+02  0.14473417054E+03  0.10566000000E+00 0. -1.
          4    1    1    2  501    0 -0.19171045504E+02  0.15916331693E+02  0.77854164055E+02  0.81744293140E+02  0.00000000000E+00 0.  1.
         -4    1    1    2    0  503  0.91205924287E+02  0.89868170211E+02  0.42798956189E+01  0.12811372350E+03  0.00000000000E+00 0. -1.
</event>
<event>
 6    1  0.5496865E-006  0.1495487E+03  0.7818608E-02  0.1101557E+00
         21   -1    0    0  503  502  0.00000000000E+00  0.00000000000E+00  0.70866028309E+03  0.70866028309E+03  0.00000000000E+00 0. -1.
         21   -1    0    0  501  503 -0.00000000000E+00 -0.00000000000E+00 -0.24083423140E+03  0.24083423140E+03  0.00000000000E+00 0. -1.
        -13    1    1    2    0    0 -0.53441736899E+02 -0.12382742961E+03  0.33350926184E+03  0.35974670320E+03  0.10566000000E+00 0.  1.
         13    1    1    2    0    0  0.28419866346E+02  0.18418117170E+03 -0.10384212564E+03  0.21333914557E+03  0.10566000000E+00 0. -1.
          4    1    1    2  501    0  0.35394962594E+02 -0.49522395564E+02 -0.55495674401E+02  0.82371359809E+02  0.00000000000E+00 0.  1.
         -4    1    1    2    0  502 -0.10373092041E+02 -0.10831346523E+02  0.29365458989E+03  0.29403730592E+03  0.00000000000E+00 0. -1.
</event>
<event>
 6    1  0.5496865E-006  0.4108657E+02  0.7818608E-02  0.1339022E+00
         21   -1    0    0  501  502  0.00000000000E+00  0.00000000000E+00  0.21184365626E+03  0.21184365626E+03  0.00000000000E+00 0. -1.
         21   -1    0    0  502  503 -0.00000000000E+00 -0.00000000000E+00 -0.15555866811E+03  0.15555866811E+03  0.00000000000E+00 0.  1.
        -13    1    1    2    0    0  0.29055072765E+02 -0.40986042118E+01 -0.72948817565E+02  0.78629110118E+02  0.10566000000E+00 0.  1.
         13    1    1    2    0    0  0.20842646119E+02  0.30502327487E+02  0.19353373984E+03  0.19702824037E+03  0.10566000000E+00 0. -1.
          4    1    1    2  501    0 -0.47415721487E+02 -0.16709101573E+02 -0.36296371068E+02  0.62007025991E+02  0.00000000000E+00 0.  1.
         -4    1    1    2    0  503 -0.24819973962E+01 -0.96946217021E+01 -0.28003563060E+02  0.29737947896E+02  0.00000000000E+00 0. -1.
</event>
<event>
 6    1  0.5496865E-006  0.3638369E+02  0.7818608E-02  0.1377068E+00
         21   -1    0    0  503  502  0.00000000000E+00  0.00000000000E+00  0.36990715135E+02  0.36990715135E+02  0.00000000000E+00 0. -1.
         21   -1    0    0  501  503 -0.00000000000E+00 -0.00000000000E+00 -0.25910276712E+03  0.25910276712E+03  0.00000000000E+00 0. -1.
        -13    1    1    2    0    0  0.33970235672E+02 -0.87338295295E+01 -0.25390215657E+02  0.43300472341E+02  0.10566000000E+00 0.  1.
         13    1    1    2    0    0  0.65999891592E+01  0.41561758843E+02 -0.18483669235E+03  0.18956675251E+03  0.10566000000E+00 0. -1.
          4    1    1    2  501    0 -0.23794714103E+02 -0.37655523635E+02 -0.69226821630E+01  0.45078269796E+02  0.00000000000E+00 0.  1.
         -4    1    1    2    0  502 -0.16775510727E+02  0.48275943218E+01 -0.49624618245E+01  0.18147987615E+02  0.00000000000E+00 0. -1.
</event>
<event>
 6    1  0.5496865E-006  0.1305304E+03  0.7818608E-02  0.1122075E+00
         21   -1    0    0  503  502  0.00000000000E+00  0.00000000000E+00  0.92860621894E+02  0.92860621894E+02  0.00000000000E+00 0. -1.
         21   -1    0    0  501  503 -0.00000000000E+00 -0.00000000000E+00 -0.64033929541E+03  0.64033929541E+03  0.00000000000E+00 0. -1.
        -13    1    1    2    0    0  0.36863579618E+02 -0.75744789617E+02 -0.70786328106E+02  0.11003141400E+03  0.10566000000E+00 0.  1.
         13    1    1    2    0    0 -0.37856819229E+02  0.20270990052E+03 -0.17187632072E+03  0.26845097004E+03  0.10566000000E+00 0. -1.
          4    1    1    2  501    0 -0.39191179430E+01 -0.73760671728E+02 -0.29001646654E+03  0.29927503579E+03  0.00000000000E+00 0.  1.
         -4    1    1    2    0  502  0.49123575539E+01 -0.53204439172E+02 -0.14799558150E+02  0.55442497471E+02  0.00000000000E+00 0. -1.
</event>
<event>
 6    1  0.5496865E-006  0.1038520E+03  0.7818608E-02  0.1158335E+00
         21   -1    0    0  501  502  0.00000000000E+00  0.00000000000E+00  0.10773695411E+03  0.10773695411E+03  0.00000000000E+00 0.  1.
         21   -1    0    0  502  503 -0.00000000000E+00 -0.00000000000E+00 -0.24264279686E+03  0.24264279686E+03  0.00000000000E+00 0. -1.
        -13    1    1    2    0    0  0.24518276579E+02  0.10954064088E+03 -0.12595316741E+03  0.16871428344E+03  0.10566000000E+00 0.  1.
         13    1    1    2    0    0  0.24221674267E+01 -0.98865843339E+02 -0.44734370754E+02  0.10854260438E+03  0.10566000000E+00 0. -1.
          4    1    1    2  501    0 -0.39814882843E+02 -0.45472336782E+01  0.65585450613E+01  0.40606855865E+02  0.00000000000E+00 0.  1.
         -4    1    1    2    0  503  0.12874438837E+02 -0.61275638678E+01  0.29223150348E+02  0.32516007297E+02  0.00000000000E+00 0. -1.
</event>
<event>
 6    1  0.5496865E-006  0.1279806E+03  0.7818608E-02  0.1125113E+00
         21   -1    0    0  503  502  0.00000000000E+00  0.00000000000E+00  0.21467479753E+03  0.21467479753E+03  0.00000000000E+00 0.  1.
         21   -1    0    0  501  503 -0.00000000000E+00 -0.00000000000E+00 -0.12787558834E+03  0.12787558834E+03  0.00000000000E+00 0. -1.
        -13    1    1    2    0    0  0.56517640657E+02 -0.10165432545E+03  0.12390146917E+02  0.11696739927E+03  0.10566000000E+00 0.  1.
         13    1    1    2    0    0 -0.55298938136E+02  0.12740371154E+03  0.55937286015E+02  0.14972865258E+03  0.10566000000E+00 0. -1.
          4    1    1    2  501    0  0.71992221727E+01 -0.42225911846E+02 -0.79815787027E+01  0.43572491663E+02  0.00000000000E+00 0.  1.
         -4    1    1    2    0  502 -0.84179246945E+01  0.16476525755E+02  0.26453354969E+02  0.32281842361E+02  0.00000000000E+00 0. -1.
</event>
<event>
 6    1  0.5496865E-006  0.2094858E+03  0.7818608E-02  0.1053821E+00
         21   -1    0    0  501  502  0.00000000000E+00  0.00000000000E+00  0.17401749868E+04  0.17401749868E+04  0.00000000000E+00 0.  1.
         21   -1    0    0  502  503 -0.00000000000E+00 -0.00000000000E+00 -0.61201681453E+03  0.61201681453E+03  0.00000000000E+00 0. -1.
        -13    1    1    2    0    0 -0.82856285644E+02 -0.22761182364E+03  0.24210167560E+03  0.34246976337E+03  0.10566000000E+00 0.  1.
         13    1    1    2    0    0  0.42904976378E+02  0.15810019903E+03  0.57590674287E+03  0.59875295204E+03  0.10566000000E+00 0. -1.
          4    1    1    2  501    0  0.31582949572E+02  0.53063800085E+02  0.85929644116E+03  0.86151240465E+03  0.00000000000E+00 0.  1.
         -4    1    1    2    0  503  0.83683596942E+01  0.16447824529E+02 -0.54914668735E+03  0.54945668128E+03  0.00000000000E+00 0. -1.
</event>
<event>
 6    1  0.5496865E-006  0.7424572E+02  0.7818608E-02  0.1216009E+00
         21   -1    0    0  501  502  0.00000000000E+00  0.00000000000E+00  0.99900327083E+03  0.99900327083E+03  0.00000000000E+00 0.  1.
         21   -1    0    0  502  503 -0.00000000000E+00 -0.00000000000E+00 -0.20282528580E+02  0.20282528580E+02  0.00000000000E+00 0. -1.
        -13    1    1    2    0    0  0.25265017051E+02  0.60936739021E+02  0.10650265352E+03  0.12527742661E+03  0.10566000000E+00 0.  1.
         13    1    1    2    0    0  0.60304627253E+02 -0.70356113363E+02  0.45454263215E+03  0.46389184770E+03  0.10566000000E+00 0. -1.
          4    1    1    2  501    0 -0.44027374116E+02  0.31225086021E+02  0.18286677675E+03  0.19066639376E+03  0.00000000000E+00 0.  1.
         -4    1    1    2    0  503 -0.41542270188E+02 -0.21805711679E+02  0.23480867983E+03  0.23945013134E+03  0.00000000000E+00 0. -1.
</event>
<event>
 6    1  0.5496865E-006  0.7353037E+02  0.7818608E-02  0.1217758E+00
         21   -1    0    0  503  502  0.00000000000E+00  0.00000000000E+00  0.13834752125E+03  0.13834752125E+03  0.00000000000E+00 0.  1.
         21   -1    0    0  501  503 -0.00000000000E+00 -0.00000000000E+00 -0.98627973047E+02  0.98627973047E+02  0.00000000000E+00 0. -1.
        -13    1    1    2    0    0  0.36236688541E+02  0.52644313887E+02  0.42922691755E+02  0.76986297564E+02  0.10566000000E+00 0.  1.
         13    1    1    2    0    0 -0.28685929275E+02 -0.83016512788E+02  0.35765665820E+02  0.94835741941E+02  0.10566000000E+00 0. -1.
          4    1    1    2  501    0 -0.20319328076E+01  0.20822674548E+02 -0.47042262306E+02  0.51484822707E+02  0.00000000000E+00 0.  1.
         -4    1    1    2    0  502 -0.55188264584E+01  0.95495243531E+01  0.80734529330E+01  0.13668632086E+02  0.00000000000E+00 0. -1.
</event>
<event>
 6    1  0.5496865E-006  0.1355022E+03  0.7818608E-02  0.1116361E+00
         21   -1    0    0  501  502  0.00000000000E+00  0.00000000000E+00  0.47463226226E+03  0.47463226226E+03  0.00000000000E+00 0. -1.
         21   -1    0    0  502  503 -0.00000000000E+00 -0.00000000000E+00 -0.38261343789E+03  0.38261343789E+03  0.00000000000E+00 0.  1.
        -13    1    1    2    0    0 -0.13265947875E+03 -0.64715180815E+02 -0.33830984592E+03  0.36910724044E+03  0.10566000000E+00 0.  1.
         13    1    1    2    0    0  0.12490585924E+03 -0.81657261385E+01  0.28527530042E+03  0.31152874819E+03  0.10566000000E+00 0. -1.
          4    1    1    2  501    0 -0.70099369351E+01  0.41032193722E+02  0.13320849562E+03  0.13956103841E+03  0.00000000000E+00 0.  1.
         -4    1    1    2    0  503  0.14763556446E+02  0.31848713232E+02  0.11844874250E+02  0.37048673113E+02  0.00000000000E+00 0. -1.
</event>
<event>
 6    1  0.5496865E-006  0.7308832E+02  0.7818608E-02  0.1218850E+00
         21   -1    0    0  503  502  0.00000000000E+00  0.00000000000E+00  0.18879910430E+03  0.18879910430E+03  0.00000000000E+00 0.  1.
         21   -1    0    0  501  503 -0.00000000000E+00 -0.00000000000E+00 -0.18823137220E+03  0.18823137220E+03  0.00000000000E+00 0.  1.
        -13    1    1    2    0    0 -0.66994078984E+02 -0.48967439894E+02  0.26276486340E+02  0.87042987581E+02  0.10566000000E+00 0.  1.
         13    1    1    2    0    0  0.77078399052E+02 -0.53348655565E+01  0.23732911560E+02  0.80825754844E+02  0.10566000000E+00 0. -1.
          4    1    1    2  501    0  0.26663943629E+02  0.10226835763E+02 -0.11704958735E+03  0.12048302768E+03  0.00000000000E+00 0.  1.
         -4    1    1    2    0  502 -0.36748263696E+02  0.44075469687E+02  0.67607921552E+02  0.88678706404E+02  0.00000000000E+00 0. -1.
</event>
<event>
 6    1  0.5496865E-006  0.2240871E+02  0.7818608E-02  0.1506306E+00
         21   -1    0    0  503  502  0.00000000000E+00  0.00000000000E+00  0.11131864565E+03  0.11131864565E+03  0.00000000000E+00 0.  1.
         21   -1    0    0  501  503 -0.00000000000E+00 -0.00000000000E+00 -0.97191702423E+02  0.97191702423E+02  0.00000000000E+00 0.  1.
        -13    1    1    2    0    0 -0.47705340323E+01  0.20306401490E+02  0.93611147074E+02  0.95907069379E+02  0.10566000000E+00 0.  1.
         13    1    1    2    0    0 -0.17988705834E+01 -0.36821002424E+02 -0.27081076332E+02  0.45742955897E+02  0.10566000000E+00 0. -1.
          4    1    1    2  501    0  0.11753891794E+02  0.25151069990E+02 -0.48833713889E+02  0.56173498255E+02  0.00000000000E+00 0.  1.
         -4    1    1    2    0  502 -0.51844871783E+01 -0.86364690558E+01 -0.35694136292E+01  0.10686824538E+02  0.00000000000E+00 0. -1.
</event>
<event>
 6    1  0.5496865E-006  0.2476708E+03  0.7818608E-02  0.1031607E+00
         21   -1    0    0  501  502  0.00000000000E+00  0.00000000000E+00  0.30433923707E+03  0.30433923707E+03  0.00000000000E+00 0. -1.
         21   -1    0    0  502  503 -0.00000000000E+00 -0.00000000000E+00 -0.14075989548E+04  0.14075989548E+04  0.00000000000E+00 0.  1.
        -13    1    1    2    0    0  0.12213353341E+03  0.19629785436E+03 -0.77272587535E+03  0.80656973487E+03  0.10566000000E+00 0.  1.
         13    1    1    2    0    0 -0.12030073775E+03 -0.22698757705E+03  0.22854831723E+03  0.34384585517E+03  0.10566000000E+00 0. -1.
          4    1    1    2  501    0 -0.60273707427E+01  0.12184987431E+02 -0.43130108210E+02  0.45221779609E+02  0.00000000000E+00 0.  1.
         -4    1    1    2    0  503  0.41945750908E+01  0.18504735258E+02 -0.51595205141E+03  0.51630082223E+03  0.00000000000E+00 0. -1.
</event>
<event>
 6    1  0.5496865E-006  0.3419927E+02  0.7818608E-02  0.1436180E+00
         21   -1    0    0  503  502  0.00000000000E+00  0.00000000000E+00  0.17052828598E+03  0.17052828598E+03  0.00000000000E+00 0. -1.
         21   -1    0    0  501  503 -0.00000000000E+00 -0.00000000000E+00 -0.78638632041E+03  0.78638632041E+03  0.00000000000E+00 0.  1.
        -13    1    1    2    0    0  0.62521810668E+02  0.19339333891E+02  0.36515804134E+02  0.74942656479E+02  0.10566000000E+00 0.  1.
         13    1    1    2    0    0  0.57306663426E+01 -0.27971990967E+02 -0.12146731393E+03  0.12477817250E+03  0.10566000000E+00 0. -1.
          4    1    1    2  501    0 -0.11509462515E+02  0.99608869244E+01 -0.63683524575E+03  0.63701712475E+03  0.00000000000E+00 0.  1.
         -4    1    1    2    0  502 -0.56743014496E+02 -0.13282298494E+01  0.10592872112E+03  0.12017665267E+03  0.00000000000E+00 0. -1.
</event>
<event>
 6    1  0.5496865E-006  0.1460323E+03  0.7818608E-02  0.1105092E+00
         21   -1    0    0  503  502  0.00000000000E+00  0.00000000000E+00  0.15953300452E+03  0.15953300452E+03  0.00000000000E+00 0.  1.
         21   -1    0    0  501  503 -0.00000000000E+00 -0.00000000000E+00 -0.35016212360E+03  0.35016212360E+03  0.00000000000E+00 0. -1.
        -13    1    1    2    0    0  0.16841290008E+03  0.31516868494E+02  0.53360102737E+02  0.17945341914E+03  0.10566000000E+00 0.  1.
         13    1    1    2    0    0 -0.13087038215E+03 -0.61099723658E+02 -0.10827450527E+03  0.18050931502E+03  0.10566000000E+00 0. -1.
          4    1    1    2  501    0  0.85663788165E+01  0.88927771164E+01 -0.33574258703E+02  0.35772827374E+02  0.00000000000E+00 0.  1.
         -4    1    1    2    0  502 -0.46108896740E+02  0.20690078047E+02 -0.10214045784E+03  0.11395956659E+03  0.00000000000E+00 0. -1.
</event>
<event>
 6    1  0.5496865E-006  0.2700276E+02  0.7818608E-02  0.1444394E+00
         21   -1    0    0  501  502  0.00000000000E+00  0.00000000000E+00  0.29432455379E+03  0.29432455379E+03  0.00000000000E+00 0.  1.
         21   -1    0    0  502  503 -0.00000000000E+00 -0.00000000000E+00 -0.98346341765E+02  0.98346341765E+02  0.00000000000E+00 0.  1.
        -13    1    1    2    0    0  0.14454955096E+02 -0.17214507463E+02 -0.34067434969E+02  0.40815270223E+02  0.10566000000E+00 0.  1.
         13    1    1    2    0    0  0.22210423224E+02  0.14345923731E+02  0.41681319519E+02  0.49360429378E+02  0.10566000000E+00 0. -1.
          4    1    1    2  501    0 -0.97455713975E+01  0.67844072409E+01  0.24203397882E+03  0.24232509413E+03  0.00000000000E+00 0.  1.
         -4    1    1    2    0  503 -0.26919806923E+02 -0.39158235088E+01 -0.53669651341E+02  0.60170101825E+02  0.00000000000E+00 0. -1.
</event>
<event>
 6    1  0.5496865E-006  0.1341232E+03  0.7818608E-02  0.1117919E+00
         21   -1    0    0  503  502  0.00000000000E+00  0.00000000000E+00  0.96263624324E+03  0.96263624324E+03  0.00000000000E+00 0.  1.
         21   -1    0    0  501  503 -0.00000000000E+00 -0.00000000000E+00 -0.11299679412E+03  0.11299679412E+03  0.00000000000E+00 0.  1.
        -13    1    1    2    0    0  0.63304662701E+02 -0.12035872823E+03  0.55384353465E+03  0.57029499017E+03  0.10566000000E+00 0.  1.
         13    1    1    2    0    0 -0.46117566937E+02  0.79564745569E+02 -0.21664383284E+02  0.94481402322E+02  0.10566000000E+00 0. -1.
          4    1    1    2  501    0 -0.69229822138E+01  0.51487884482E+02 -0.32043517715E+02  0.61038651351E+02  0.00000000000E+00 0.  1.
         -4    1    1    2    0  502 -0.10264113550E+02 -0.10693901820E+02  0.34950381547E+03  0.34981799352E+03  0.00000000000E+00 0. -1.
</event>
<event>
 6    1  0.5496865E-006  0.1599949E+03  0.7818608E-02  0.1119200E+00
         21   -1    0    0  503  502  0.00000000000E+00  0.00000000000E+00  0.26159367938E+03  0.26159367938E+03  0.00000000000E+00 0.  1.
         21   -1    0    0  501  503 -0.00000000000E+00 -0.00000000000E+00 -0.17624271818E+03  0.17624271818E+03  0.00000000000E+00 0.  1.
        -13    1    1    2    0    0  0.13721238010E+03 -0.13283354746E+03  0.68210477917E+01  0.19109821151E+03  0.10566000000E+00 0.  1.
         13    1    1    2    0    0 -0.36901608243E+02  0.71197205116E+02  0.14751842193E+02  0.81537713479E+02  0.10566000000E+00 0. -1.
          4    1    1    2  501    0 -0.99260210701E+02  0.83936220806E+02  0.52558024639E+02  0.14021492269E+03  0.00000000000E+00 0.  1.
         -4    1    1    2    0  502 -0.10505611520E+01 -0.22299878458E+02  0.11220046571E+02  0.24985549884E+02  0.00000000000E+00 0. -1.
</event>
<event>
 6    1  0.5496865E-006  0.1969402E+03  0.7818608E-02  0.1062254E+00
         21   -1    0    0  501  502  0.00000000000E+00  0.00000000000E+00  0.19841112873E+04  0.19841112873E+04  0.00000000000E+00 0. -1.
         21   -1    0    0  502  503 -0.00000000000E+00 -0.00000000000E+00 -0.10876638228E+03  0.10876638228E+03  0.00000000000E+00 0. -1.
        -13    1    1    2    0    0 -0.27817192053E+01 -0.21967791527E+03  0.73466921857E+03  0.76681483834E+03  0.10566000000E+00 0.  1.
         13    1    1    2    0    0 -0.55710701211E+02  0.23009671287E+03  0.60302487045E+03  0.64783268291E+03  0.10566000000E+00 0. -1.
          4    1    1    2  501    0  0.69973264236E+02  0.14224764865E+03  0.49432204114E+03  0.51911938088E+03  0.00000000000E+00 0.  1.
         -4    1    1    2    0  503 -0.11480843820E+02 -0.15266644625E+03  0.43328774866E+02  0.15911076744E+03  0.00000000000E+00 0. -1.
</event>
<event>
 6    1  0.5496865E-006  0.3348925E+03  0.7818608E-02  0.9938621E-01
         21   -1    0    0  503  502  0.00000000000E+00  0.00000000000E+00  0.37081571489E+03  0.37081571489E+03  0.00000000000E+00 0. -1.
         21   -1    0    0  501  503 -0.00000000000E+00 -0.00000000000E+00 -0.62861055916E+03  0.62861055916E+03  0.00000000000E+00 0.  1.
        -13    1    1    2    0    0 -0.43399734801E+02  0.26672724155E+03 -0.13137185603E+03  0.30047551329E+03  0.10566000000E+00 0.  1.
         13    1    1    2    0    0  0.16150818987E+03 -0.40742793097E+03 -0.12900607425E+03  0.45686430446E+03  0.10566000000E+00 0. -1.
          4    1    1    2  501    0 -0.57045533107E+02  0.17765697792E+02 -0.65675163193E+02  0.88786485041E+02  0.00000000000E+00 0.  1.
         -4    1    1    2    0  502 -0.61062921962E+02  0.12293499163E+03  0.68258249204E+02  0.15329997126E+03  0.00000000000E+00 0. -1.
</event>
<event>
 6    1  0.5496865E-006  0.6552395E+02  0.7818608E-02  0.1264762E+00
         21   -1    0    0  503  502  0.00000000000E+00  0.00000000000E+00  0.41774904345E+02  0.41774904345E+02  0.00000000000E+00 0.  1.
         21   -1    0    0  501  503 -0.00000000000E+00 -0.00000000000E+00 -0.31142009176E+03  0.31142009176E+03  0.00000000000E+00 0. -1.
        -13    1    1    2    0    0 -0.40421272083E+01 -0.36535997828E+02 -0.54108637511E+01  0.37155168419E+02  0.10566000000E+00 0.  1.
         13    1    1    2    0    0 -0.22823568393E+02 -0.33892637966E+02 -0.10199631807E+03  0.10987668654E+03  0.10566000000E+00 0. -1.
          4    1    1    2  501    0  0.56123872017E+01 -0.15631752741E+02 -0.90822826027E+02  0.92328957058E+02  0.00000000000E+00 0.  1.
         -4    1    1    2    0  502  0.21253308400E+02  0.86060388535E+02 -0.71415179566E+02  0.11383418408E+03  0.00000000000E+00 0. -1.
</event>
<event>
 6    1  0.5496865E-006  0.1758849E+03  0.7818608E-02  0.1078056E+00
         21   -1    0    0  501  502  0.00000000000E+00  0.00000000000E+00  0.43132283619E+03  0.43132283619E+03  0.00000000000E+00 0. -1.
         21   -1    0    0  502  503 -0.00000000000E+00 -0.00000000000E+00 -0.29396460945E+03  0.29396460945E+03  0.00000000000E+00 0.  1.
        -13    1    1    2    0    0 -0.11683367099E+03 -0.51321380301E+02 -0.20756195066E+03  0.24365131906E+03  0.10566000000E+00 0.  1.
         13    1    1    2    0    0  0.16278122851E+03  0.10252796389E+03  0.10063022319E+03  0.21710864726E+03  0.10566000000E+00 0. -1.
          4    1    1    2  501    0 -0.16596507977E+02  0.10606043019E+02  0.12872850704E+03  0.13022657467E+03  0.00000000000E+00 0.  1.
         -4    1    1    2    0  503 -0.29351049537E+02 -0.61812626604E+02  0.11556144717E+03  0.13430090464E+03  0.00000000000E+00 0. -1.
</event>
<event>
 6    1  0.5496865E-006  0.1029368E+03  0.7818608E-02  0.1159786E+00
         21   -1    0    0  501  502  0.00000000000E+00  0.00000000000E+00  0.71492871226E+02  0.71492871226E+02  0.00000000000E+00 0.  1.
         21   -1    0    0  502  503 -0.00000000000E+00 -0.00000000000E+00 -0.37668202996E+03  0.37668202996E+03  0.00000000000E+00 0. -1.
        -13    1    1    2    0    0  0.10426357951E+03  0.18866674779E+02 -0.16925793654E+03  0.19968752008E+03  0.10566000000E+00 0.  1.
         13    1    1    2    0    0 -0.12468171055E+03  0.14064833618E+02 -0.63623708736E+02  0.14068168313E+03  0.10566000000E+00 0. -1.
          4    1    1    2  501    0  0.43062015119E+02 -0.36874229148E+02 -0.47228703642E+02  0.73787508218E+02  0.00000000000E+00 0.  1.
         -4    1    1    2    0  503 -0.22643884077E+02  0.39427207505E+01 -0.25078809813E+02  0.34018189762E+02  0.00000000000E+00 0. -1.
</event>
<event>
 6    1  0.5496865E-006  0.1848671E+03  0.7818608E-02  0.1077952E+00
         21   -1    0    0  501  502  0.00000000000E+00  0.00000000000E+00  0.93301779989E+02  0.93301779989E+02  0.00000000000E+00 0. -1.
         21   -1    0    0  502  503 -0.00000000000E+00 -0.00000000000E+00 -0.12295131920E+04  0.12295131920E+04  0.00000000000E+00 0. -1.
        -13    1    1    2    0    0 -0.31973446279E+01  0.20598336372E+03 -0.46975901058E+03  0.51294532684E+03  0.10566000000E+00 0.  1.
         13    1    1    2    0    0  0.79187761921E+02  0.61981810198E+02 -0.88594323596E+02  0.13402019165E+03  0.10566000000E+00 0. -1.
          4    1    1    2  501    0  0.56060471037E+02 -0.90858079147E+01 -0.64490042095E+02  0.85931914024E+02  0.00000000000E+00 0.  1.
         -4    1    1    2    0  503 -0.13205088833E+03 -0.25887936601E+03 -0.51336803572E+03  0.58991753945E+03  0.00000000000E+00 0. -1.
</event>
<event>
 6    1  0.5496865E-006  0.2033771E+02  0.7818608E-02  0.1513753E+00
         21   -1    0    0  503  502  0.00000000000E+00  0.00000000000E+00  0.37590678515E+02  0.37590678515E+02  0.00000000000E+00 0. -1.
         21   -1    0    0  501  503 -0.00000000000E+00 -0.00000000000E+00 -0.79666104116E+02  0.79666104116E+02  0.00000000000E+00 0.  1.
        -13    1    1    2    0    0  0.15729248163E+01  0.13915251654E+02  0.95643060978E+01  0.16958638985E+02  0.10566000000E+00 0.  1.
         13    1    1    2    0    0 -0.21876065756E+02 -0.79358543375E+01 -0.50371096132E+02  0.55486922122E+02  0.10566000000E+00 0. -1.
          4    1    1    2  501    0  0.15968584492E+02 -0.15882450979E+02 -0.15204613384E+02  0.27174035548E+02  0.00000000000E+00 0.  1.
         -4    1    1    2    0  502  0.43345564478E+01  0.99030536634E+01  0.13935977817E+02  0.17637185976E+02  0.00000000000E+00 0. -1.
</event>
<event>
 6    1  0.5496865E-006  0.3583584E+02  0.7818608E-02  0.1363367E+00
         21   -1    0    0  503  502  0.00000000000E+00  0.00000000000E+00  0.65703430857E+02  0.65703430857E+02  0.00000000000E+00 0. -1.
         21   -1    0    0  501  503 -0.00000000000E+00 -0.00000000000E+00 -0.50080899219E+02  0.50080899219E+02  0.00000000000E+00 0. -1.
        -13    1    1    2    0    0  0.23405505745E+02 -0.47462646082E+01  0.31103725879E+02  0.39214763221E+02  0.10566000000E+00 0.  1.
         13    1    1    2    0    0 -0.41934809750E+02  0.19722094470E+02 -0.10158607699E+02  0.47441519300E+02  0.10566000000E+00 0. -1.
          4    1    1    2  501    0  0.15286866794E+02 -0.25957945483E+01 -0.51189886762E+01  0.16328823925E+02  0.00000000000E+00 0.  1.
         -4    1    1    2    0  502  0.32424372114E+01 -0.12380035314E+02 -0.20359786494E+00  0.12799223630E+02  0.00000000000E+00 0. -1.
</event>
<event>
 6    1  0.5496865E-006  0.4740846E+02  0.7818608E-02  0.1307860E+00
         21   -1    0    0  501  502  0.00000000000E+00  0.00000000000E+00  0.36720311677E+02  0.36720311677E+02  0.00000000000E+00 0. -1.
         21   -1    0    0  502  503 -0.00000000000E+00 -0.00000000000E+00 -0.36676195217E+03  0.36676195217E+03  0.00000000000E+00 0.  1.
        -13    1    1    2    0    0  0.62767455770E+02 -0.10532841861E+02 -0.18507382434E+03  0.19571158852E+03  0.10566000000E+00 0.  1.
         13    1    1    2    0    0 -0.14989115034E+02 -0.40914152189E+02 -0.12064795626E+02  0.45212961376E+02  0.10566000000E+00 0. -1.
          4    1    1    2  501    0 -0.28243739699E+02  0.37436912878E+02 -0.27321840419E+02  0.54274434515E+02  0.00000000000E+00 0.  1.
         -4    1    1    2    0  503 -0.19534601036E+02  0.14010081172E+02 -0.10558118011E+03  0.10828327944E+03  0.00000000000E+00 0. -1.
</event>
<event>
 6    1  0.5496865E-006  0.1986462E+03  0.7818608E-02  0.1085204E+00
         21   -1    0    0  503  502  0.00000000000E+00  0.00000000000E+00  0.10414671464E+04  0.10414671464E+04  0.00000000000E+00 0.  1.
         21   -1    0    0  501  503 -0.00000000000E+00 -0.00000000000E+00 -0.19034720509E+03  0.19034720509E+03  0.00000000000E+00 0.  1.
        -13    1    1    2    0    0  0.16076678070E+03  0.23734134847E+03  0.34528453727E+03  0.44877421529E+03  0.10566000000E+00 0.  1.
         13    1    1    2    0    0 -0.36876313093E+02 -0.91506931001E+02  0.40046925807E+03  0.41244274598E+03  0.10566000000E+00 0. -1.
          4    1    1    2  501    0 -0.82058834096E+02 -0.16517115975E+03 -0.63885913649E+02  0.19518343739E+03  0.00000000000E+00 0.  1.
         -4    1    1    2    0  502 -0.41831633510E+02  0.19336742287E+02  0.16925205966E+03  0.17541395287E+03  0.00000000000E+00 0. -1.
</event>
<event>
 6    1  0.5496865E-006  0.4560227E+03  0.7818608E-02  0.1007915E+00
         21   -1    0    0  501  502  0.00000000000E+00  0.00000000000E+00  0.23577843537E+04  0.23577843537E+04  0.00000000000E+00 0. -1.
         21   -1    0    0  502  503 -0.00000000000E+00 -0.00000000000E+00 -0.16198206763E+03  0.16198206763E+03  0.00000000000E+00 0.  1.
        -13    1    1    2    0    0  0.63787015419E+02 -0.56253742067E+02 -0.26785290892E+01  0.85090848596E+02  0.10566000000E+00 0.  1.
         13    1    1    2    0    0  0.56016226022E+02  0.45856603727E+03  0.67701548214E+03  0.81961613109E+03  0.10566000000E+00 0. -1.
          4    1    1    2  501    0 -0.45757754284E+02  0.38926024409E+02  0.44914925641E+03  0.45314905052E+03  0.00000000000E+00 0.  1.
         -4    1    1    2    0  503 -0.74045487157E+02 -0.44123831961E+03  0.10723160766E+04  0.11619103911E+04  0.00000000000E+00 0. -1.
</event>
<event>
 6    1  0.5496865E-006  0.1607600E+03  0.7818608E-02  0.1090959E+00
         21   -1    0    0  501  502  0.00000000000E+00  0.00000000000E+00  0.70821152879E+03  0.70821152879E+03  0.00000000000E+00 0.  1.
         21   -1    0    0  502  503 -0.00000000000E+00 -0.00000000000E+00 -0.10661033125E+03  0.10661033125E+03  0.00000000000E+00 0.  1.
        -13    1    1    2    0    0  0.35628554291E+02  0.18216676000E+03  0.15134393136E+02  0.18623421638E+03  0.10566000000E+00 0.  1.
         13    1    1    2    0    0 -0.36901384835E+02 -0.88402019631E+02  0.45606676267E+03  0.46601881127E+03  0.10566000000E+00 0. -1.
          4    1    1    2  501    0  0.84960701998E+01 -0.83321159227E+02  0.10632179581E+03  0.13534741611E+03  0.00000000000E+00 0.  1.
         -4    1    1    2    0  503 -0.72232396567E+01 -0.10443581143E+02  0.24078245922E+02  0.27221416292E+02  0.00000000000E+00 0. -1.
</event>
<event>
 6    1  0.5496865E-006  0.1178157E+03  0.7818608E-02  0.1138040E+00
         21   -1    0    0  503  502  0.00000000000E+00  0.00000000000E+00  0.55781368636E+02  0.55781368636E+02  0.00000000000E+00 0.  1.
         21   -1    0    0  501  503 -0.00000000000E+00 -0.00000000000E+00 -0.59809080156E+03  0.59809080156E+03  0.00000000000E+00 0. -1.
        -13    1    1    2    0    0 -0.16264997026E+02  0.12740077559E+03 -0.17087318889E+03  0.21375959766E+03  0.10566000000E+00 0.  1.
         13    1    1    2    0    0  0.28177596755E+02 -0.10218318423E+03 -0.20725699122E+03  0.23278928599E+03  0.10566000000E+00 0. -1.
          4    1    1    2  501    0  0.15846954742E+02 -0.22906263514E+02 -0.17517527564E+03  0.17737587231E+03  0.00000000000E+00 0.  1.
         -4    1    1    2    0  502 -0.27759554471E+02 -0.23113278390E+01  0.10996022828E+02  0.29947414226E+02  0.00000000000E+00 0. -1.
</event>
<event>
 6    1  0.5496865E-006  0.2315951E+03  0.7818608E-02  0.1040398E+00
         21   -1    0    0  503  502  0.00000000000E+00  0.00000000000E+00  0.15620896763E+03  0.15620896763E+03  0.00000000000E+00 0.  1.
         21   -1    0    0  501  503 -0.00000000000E+00 -0.00000000000E+00 -0.74130269848E+03  0.74130269848E+03  0.00000000000E+00 0. -1.
        -13    1    1    2    0    0  0.25739559390E+03  0.15718053162E+02 -0.11183303422E+03  0.28108039359E+03  0.10566000000E+00 0.  1.
         13    1    1    2    0    0 -0.20683455994E+03  0.36252264335E+02 -0.12268281642E+03  0.24319919092E+03  0.10566000000E+00 0. -1.
          4    1    1    2  501    0 -0.38508723800E+02 -0.59447246709E+02 -0.35192782043E+03  0.35898480155E+03  0.00000000000E+00 0.  1.
         -4    1    1    2    0  502 -0.12052310153E+02  0.74769292118E+01  0.13499402198E+01  0.14247280059E+02  0.00000000000E+00 0. -1.
</event>
<event>
 6    1  0.5496865E-006  0.1386734E+03  0.7818608E-02  0.1112853E+00
         21   -1    0    0  503  502  0.00000000000E+00  0.00000000000E+00  0.13883275939E+03  0.13883275939E+03  0.00000000000E+00 0. -1.
         21   -1    0    0  501  503 -0.00000000000E+00 -0.00000000000E+00 -0.67865087901E+03  0.67865087901E+03  0.00000000000E+00 0.  1.
        -13    1    1    2    0    0 -0.60807045667E+01 -0.13364347512E+03 -0.19065288151E+03  0.23290789124E+03  0.10566000000E+00 0.  1.
         13    1    1    2    0    0 -0.96915914261E+02  0.13419964532E+03 -0.36284090191E+03  0.39881796663E+03  0.10566000000E+00 0. -1.
          4    1    1    2  501    0 -0.36069419748E+02 -0.25047457271E+02  0.24132172790E+00  0.43913965807E+02  0.00000000000E+00 0.  1.
         -4    1    1    2    0  502  0.13906603858E+03  0.24491287072E+02  0.13434342076E+02  0.14184381472E+03  0.00000000000E+00 0. -1.
</event>
<event>
 6    1  0.5496865E-006  0.6997971E+02  0.7818608E-02  0.1247935E+00
         21   -1    0    0  503  502  0.00000000000E+00  0.00000000000E+00  0.31414830939E+02  0.31414830939E+02  0.00000000000E+00 0.  1.
         21   -1    0    0  501  503 -0.00000000000E+00 -0.00000000000E+00 -0.63770227843E+03  0.63770227843E+03  0.00000000000E+00 0. -1.
        -13    1    1    2    0    0 -0.21188219823E+02  0.63182001955E+02 -0.14535331602E+03  0.15990154368E+03  0.10566000000E+00 0.  1.
         13    1    1    2    0    0  0.31879049111E+02  0.32198274787E+02 -0.25599996833E+03  0.25997884071E+03  0.10566000000E+00 0. -1.
          4    1    1    2  501    0 -0.19338527220E+02 -0.76601999624E+02 -0.21289606417E+03  0.22708275831E+03  0.00000000000E+00 0.  1.
         -4    1    1    2    0  502  0.86476979325E+01 -0.18778277118E+02  0.79619010254E+01  0.22153966665E+02  0.00000000000E+00 0. -1.
</event>
<event>
 6    1  0.5496865E-006  0.2249421E+03  0.7818608E-02  0.1044263E+00
         21   -1    0    0  501  502  0.00000000000E+00  0.00000000000E+00  0.75360106059E+03  0.75360106059E+03  0.00000000000E+00 0. -1.
         21   -1    0    0  502  503 -0.00000000000E+00 -0.00000000000E+00 -0.23427238357E+03  0.23427238357E+03  0.00000000000E+00 0.  1.
        -13    1    1    2    0    0  0.16265156544E+03  0.75976021362E+02 -0.29993116230E+02  0.18200957598E+03  0.10566000000E+00 0.  1.
         13    1    1    2    0    0 -0.22205205201E+03 -0.17264919084E+03  0.10815259282E+03  0.30135004794E+03  0.10566000000E+00 0. -1.
          4    1    1    2  501    0  0.75875339903E+02 -0.28084844815E+01  0.37794365658E+03  0.38549495760E+03  0.00000000000E+00 0.  1.
         -4    1    1    2    0  503 -0.16474853337E+02  0.99481653961E+02  0.63225543849E+02  0.11901886263E+03  0.00000000000E+00 0. -1.
</event>
<event>
 6    1  0.5496865E-006  0.2080685E+03  0.7818608E-02  0.1098121E+00
         21   -1    0    0  503  502  0.00000000000E+00  0.00000000000E+00  0.53383713786E+03  0.53383713786E+03  0.00000000000E+00 0. -1.
         21   -1    0    0  501  503 -0.00000000000E+00 -0.00000000000E+00 -0.19091548983E+03  0.19091548983E+03  0.00000000000E+00 0. -1.
        -13    1    1    2    0    0 -0.63187838470E+02 -0.15205407061E+02  0.33418613388E+01  0.65077542483E+02  0.10566000000E+00 0.  1.
         13    1    1    2    0    0  0.17894755220E+03 -0.14316896221E+03  0.35314190667E+01  0.22919873530E+03  0.10566000000E+00 0. -1.
          4    1    1    2  501    0  0.21178019773E+02  0.78743415622E+01 -0.13280171371E+02  0.26208333183E+02  0.00000000000E+00 0.  1.
         -4    1    1    2    0  502 -0.13693773350E+03  0.15050002771E+03  0.34932853900E+03  0.40426801673E+03  0.00000000000E+00 0. -1.
</event>
<event>
 6    1  0.5496865E-006  0.5486817E+02  0.7818608E-02  0.1273144E+00
         21   -1    0    0  501  502  0.00000000000E+00  0.00000000000E+00  0.16543451722E+03  0.16543451722E+03  0.00000000000E+00 0. -1.
         21   -1    0    0  502  503 -0.00000000000E+00 -0.00000000000E+00 -0.29109908836E+03  0.29109908836E+03  0.00000000000E+00 0. -1.
        -13    1    1    2    0    0  0.66829272997E+02  0.41836254318E+00 -0.20236673762E+02  0.69827364876E+02  0.10566000000E+00 0.  1.
         13    1    1    2    0    0 -0.46405890252E+02  0.17732459825E+02  0.12587918282E+03  0.13532747915E+03  0.10566000000E+00 0. -1.
          4    1    1    2  501    0 -0.56117724973E+01 -0.19901071731E+02 -0.11183725517E+01  0.20707375589E+02  0.00000000000E+00 0.  1.
         -4    1    1    2    0  503 -0.14811610248E+02  0.17502493634E+01 -0.23018870765E+03  0.23067138596E+03  0.00000000000E+00 0. -1.
</event>
<event>
 6    1  0.5496865E-006  0.1388355E+03  0.7818608E-02  0.1112676E+00
         21   -1    0    0  501  502  0.00000000000E+00  0.00000000000E+00  0.30920590573E+03  0.30920590573E+03  0.00000000000E+00 0. -1.
         21   -1    0    0  502  503 -0.00000000000E+00 -0.00000000000E+00 -0.29117347509E+03  0.29117347509E+03  0.00000000000E+00 0.  1.
        -13    1    1    2    0    0 -0.12038918164E+03  0.87059411705E+02  0.10647088247E+03  0.18278117026E+03  0.10566000000E+00 0.  1.
         13    1    1    2    0    0  0.14070886353E+03 -0.64853645212E+02 -0.16876293444E+02  0.15585185279E+03  0.10566000000E+00 0. -1.
          4    1    1    2  501    0  0.70662219583E+01 -0.39973642603E+02  0.89041714909E+02  0.97858318960E+02  0.00000000000E+00 0.  1.
         -4    1    1    2    0  503 -0.27385903845E+02  0.17767876109E+02 -0.16060387329E+03  0.16388803882E+03  0.00000000000E+00 0. -1.
</event>
<event>
 6    1  0.5496865E-006  0.1228319E+03  0.7818608E-02  0.1140009E+00
         21   -1    0    0  501  502  0.00000000000E+00  0.00000000000E+00  0.19092860299E+03  0.19092860299E+03  0.00000000000E+00 0.  1.
         21   -1    0    0  502  503 -0.00000000000E+00 -0.00000000000E+00 -0.11320621396E+04  0.11320621396E+04  0.00000000000E+00 0.  1.
        -13    1    1    2    0    0  0.11142226328E+03  0.20796697462E+02 -0.29589701541E+03  0.31686350101E+03  0.10566000000E+00 0.  1.
         13    1    1    2    0    0  0.12594946915E+02 -0.10289815200E+03  0.82631572128E+02  0.13256941672E+03  0.10566000000E+00 0. -1.
          4    1    1    2  501    0 -0.12482361442E+03  0.78936044863E+01  0.15915114713E+02  0.12608146012E+03  0.00000000000E+00 0.  1.
         -4    1    1    2    0  503  0.80640422955E+00  0.74207850054E+02 -0.74378320807E+03  0.74747636478E+03  0.00000000000E+00 0. -1.
</event>
<event>
 6    1  0.5496865E-006  0.1039204E+03  0.7818608E-02  0.1167365E+00
         21   -1    0    0  503  502  0.00000000000E+00  0.00000000000E+00  0.15031391541E+03  0.15031391541E+03  0.00000000000E+00 0. -1.
         21   -1    0    0  501  503 -0.00000000000E+00 -0.00000000000E+00 -0.46721064964E+03  0.46721064964E+03  0.00000000000E+00 0.  1.
        -13    1    1    2    0    0  0.30418172512E+02 -0.11961801587E+02 -0.51126455879E+02  0.60681756492E+02  0.10566000000E+00 0.  1.
         13    1    1    2    0    0  0.38931771724E+02  0.19365048145E+01 -0.53043782450E+02  0.65826187199E+02  0.10566000000E+00 0. -1.
          4    1    1    2  501    0  0.78657408245E+02 -0.27318425000E+02 -0.30262117203E+03  0.31386758032E+03  0.00000000000E+00 0.  1.
         -4    1    1    2    0  502 -0.14800735248E+03  0.37343721772E+02  0.89894676122E+02  0.17714904103E+03  0.00000000000E+00 0. -1.
</event>
<event>
 6    1  0.5496865E-006  0.5434909E+02  0.7818608E-02  0.1275028E+00
         21   -1    0    0  501  502  0.00000000000E+00  0.00000000000E+00  0.42913651614E+03  0.42913651614E+03  0.00000000000E+00 0. -1.
         21   -1    0    0  502  503 -0.00000000000E+00 -0.00000000000E+00 -0.21184395545E+03  0.21184395545E+03  0.00000000000E+00 0.  1.
        -13    1    1    2    0    0 -0.49937947061E+02 -0.52821928938E+02 -0.14483037837E+03  0.16204877166E+03  0.10566000000E+00 0.  1.
         13    1    1    2    0    0  0.38055586189E+02  0.41467255807E+02  0.21759242748E+03  0.22475372434E+03  0.10566000000E+00 0. -1.
          4    1    1    2  501    0  0.14209069649E+02 -0.26399109698E+02  0.19152192933E+03  0.19385422376E+03  0.00000000000E+00 0.  1.
         -4    1    1    2    0  503 -0.23267087758E+01  0.37753782829E+02 -0.46991417758E+02  0.60323751828E+02  0.00000000000E+00 0. -1.
</event>
<event>
 6    1  0.5496865E-006  0.8969862E+02  0.7818608E-02  0.1182825E+00
         21   -1    0    0  501  502  0.00000000000E+00  0.00000000000E+00  0.11045059686E+03  0.11045059686E+03  0.00000000000E+00 0. -1.
         21   -1    0    0  502  503 -0.00000000000E+00 -0.00000000000E+00 -0.57771787109E+03  0.57771787109E+03  0.00000000000E+00 0. -1.
        -13    1    1    2    0    0  0.85934387090E+02  0.95625011570E+01 -0.36256249347E+03  0.37273010764E+03  0.10566000000E+00 0.  1.
         13    1    1    2    0    0 -0.52906044469E+02  0.80842526278E+02  0.31921483484E+01  0.96668322482E+02  0.10566000000E+00 0. -1.
          4    1    1    2  501    0 -0.37936330352E+02 -0.52645627332E+02  0.33013696910E+02  0.72805435384E+02  0.00000000000E+00 0.  1.
         -4    1    1    2    0  503  0.49079877314E+01 -0.37759400102E+02 -0.14091062602E+03  0.14596460244E+03  0.00000000000E+00 0. -1.
</event>
<event>
 6    1  0.5496865E-006  0.6682153E+02  0.7818608E-02  0.1235323E+00
         21   -1    0    0  503  502  0.00000000000E+00  0.00000000000E+00  0.45123507787E+03  0.45123507787E+03  0.00000000000E+00 0.  1.
         21   -1    0    0  501  503 -0.00000000000E+00 -0.00000000000E+00 -0.12414837250E+03  0.12414837250E+03  0.00000000000E+00 0. -1.
        -13    1    1    2    0    0  0.49937767891E+02  0.65450130721E+02  0.15176064071E+03  0.17265226180E+03  0.10566000000E+00 0.  1.
         13    1    1    2    0    0 -0.83831809852E+02 -0.11209700524E+02 -0.81960832479E+02  0.11777529008E+03  0.10566000000E+00 0. -1.
          4    1    1    2  501    0 -0.12555908243E+02 -0.41291982804E+02  0.29880318414E+02  0.52492971951E+02  0.00000000000E+00 0.  1.
         -4    1    1    2    0  502  0.46449950205E+02 -0.12948447393E+02  0.22740657873E+03  0.23246292653E+03  0.00000000000E+00 0. -1.
</event>
<event>
 6    1  0.5496865E-006  0.1050500E+03  0.7818608E-02  0.1156460E+00
         21   -1    0    0  503  502  0.00000000000E+00  0.00000000000E+00  0.24438758403E+03  0.24438758403E+03  0.00000000000E+00 0. -1.
         21   -1    0    0  501  503 -0.00000000000E+00 -0.00000000000E+00 -0.37117086928E+03  0.37117086928E+03  0.00000000000E+00 0.  1.
        -13    1    1    2    0    0 -0.28369678928E+02  0.13229187462E+03  0.81451522025E+02  0.15792511003E+03  0.10566000000E+00 0.  1.
         13    1    1    2    0    0  0.82990255193E+01 -0.10589555422E+03 -0.24180649212E+03  0.26410818432E+03  0.10566000000E+00 0. -1.
          4    1    1    2  501    0  0.12527315168E+02  0.63397391674E+01 -0.76841932858E+02  0.78114074042E+02  0.00000000000E+00 0.  1.
         -4    1    1    2    0  502  0.75433382406E+01 -0.32736059560E+02  0.11041361771E+03  0.11541108492E+03  0.00000000000E+00 0. -1.
</event>
<event>
 6    1  0.5496865E-006  0.3220284E+03  0.7818608E-02  0.9986058E-01
         21   -1    0    0  501  502  0.00000000000E+00  0.00000000000E+00  0.17476574380E+03  0.17476574380E+03  0.00000000000E+00 0. -1.
         21   -1    0    0  502  503 -0.00000000000E+00 -0.00000000000E+00 -0.92103266282E+03  0.92103266282E+03  0.00000000000E+00 0.  1.
        -13    1    1    2    0    0 -0.32058368386E+03 -0.99378896237E+01 -0.55087128483E+03  0.63744163939E+03  0.10566000000E+00 0.  1.
         13    1    1    2    0    0  0.31398478459E+03  0.17886565278E+02 -0.22818317811E+03  0.38855366181E+03  0.10566000000E+00 0. -1.
          4    1    1    2  501    0  0.19643938337E+02 -0.10409580177E+02  0.45989385413E+02  0.51080987104E+02  0.00000000000E+00 0.  1.
         -4    1    1    2    0  503 -0.13045039066E+02  0.24609045227E+01 -0.13201841499E+02  0.18722118317E+02  0.00000000000E+00 0. -1.
</event>
<event>
 6    1  0.5496865E-006  0.1720764E+03  0.7818608E-02  0.1081170E+00
         21   -1    0    0  501  502  0.00000000000E+00  0.00000000000E+00  0.76511429139E+03  0.76511429139E+03  0.00000000000E+00 0. -1.
         21   -1    0    0  502  503 -0.00000000000E+00 -0.00000000000E+00 -0.10475739644E+03  0.10475739644E+03  0.00000000000E+00 0.  1.
        -13    1    1    2    0    0  0.71840476053E+02 -0.16934812595E+03  0.12342982417E+03  0.22152827003E+03  0.10566000000E+00 0.  1.
         13    1    1    2    0    0 -0.87654188174E+02  0.13095650645E+03  0.53422060051E+03  0.55697802870E+03  0.10566000000E+00 0. -1.
          4    1    1    2  501    0  0.13421833443E+02  0.26046296141E+02  0.41377268814E+02  0.50701415465E+02  0.00000000000E+00 0.  1.
         -4    1    1    2    0  503  0.23918786781E+01  0.12345323363E+02 -0.38670798545E+02  0.40663973646E+02  0.00000000000E+00 0. -1.
</event>
<event>
 6    1  0.5496865E-006  0.5034574E+02  0.7818608E-02  0.1296476E+00
         21   -1    0    0  501  502  0.00000000000E+00  0.00000000000E+00  0.11779992337E+03  0.11779992337E+03  0.00000000000E+00 0. -1.
         21   -1    0    0  502  503 -0.00000000000E+00 -0.00000000000E+00 -0.16081149675E+03  0.16081149675E+03  0.00000000000E+00 0.  1.
        -13    1    1    2    0    0 -0.32696783381E+02  0.32719924480E+02 -0.86506311788E+01  0.47058662171E+02  0.10566000000E+00 0.  1.
         13    1    1    2    0    0  0.68477438299E+02 -0.32976484495E+02  0.46101877957E+02  0.88893207844E+02  0.10566000000E+00 0. -1.
          4    1    1    2  501    0 -0.74573665324E+02 -0.74038779824E+01 -0.35941131544E+02  0.83113259506E+02  0.00000000000E+00 0.  1.
         -4    1    1    2    0  503  0.38793010407E+02  0.76604379966E+01 -0.44521688616E+02  0.59546290597E+02  0.00000000000E+00 0. -1.
</event>
<event>
 6    1  0.5496865E-006  0.1536574E+03  0.7818608E-02  0.1097560E+00
         21   -1    0    0  503  502  0.00000000000E+00  0.00000000000E+00  0.47545327794E+03  0.47545327794E+03  0.00000000000E+00 0.  1.
         21   -1    0    0  501  503 -0.00000000000E+00 -0.00000000000E+00 -0.15334377299E+03  0.15334377299E+03  0.00000000000E+00 0.  1.
        -13    1    1    2    0    0  0.13860492150E+03  0.95497657166E+02  0.11030185084E+03  0.20124024511E+03  0.10566000000E+00 0.  1.
         13    1    1    2    0    0 -0.10068076849E+03 -0.98996753770E+02  0.81918962634E+02  0.16324123868E+03  0.10566000000E+00 0. -1.
          4    1    1    2  501    0 -0.26081862558E+02  0.95293456177E+00 -0.64484166954E+02  0.69565648323E+02  0.00000000000E+00 0.  1.
         -4    1    1    2    0  502 -0.11842290450E+02  0.25461620417E+01  0.19437285843E+03  0.19474991882E+03  0.00000000000E+00 0. -1.
</event>
<event>
 6    1  0.5496865E-006  0.5842688E+02  0.7818608E-02  0.1260833E+00
         21   -1    0    0  501  502  0.00000000000E+00  0.00000000000E+00  0.91182515301E+02  0.91182515301E+02  0.00000000000E+00 0.  1.
         21   -1    0    0  502  503 -0.00000000000E+00 -0.00000000000E+00 -0.29730903276E+03  0.29730903276E+03  0.00000000000E+00 0.  1.
        -13    1    1    2    0    0 -0.44843260407E+02 -0.12810096387E+02 -0.13018180650E+03  0.13828351485E+03  0.10566000000E+00 0.  1.
         13    1    1    2    0    0  0.63895136720E+02  0.47472638564E+02 -0.69596699244E+02  0.10573529032E+03  0.10566000000E+00 0. -1.
          4    1    1    2  501    0 -0.28679056633E+02 -0.25446984817E+01  0.61991267012E+02  0.68351159211E+02  0.00000000000E+00 0.  1.
         -4    1    1    2    0  503  0.96271803198E+01 -0.32117843695E+02 -0.68339278733E+02  0.76121583682E+02  0.00000000000E+00 0. -1.
</event>
<event>
 6    1  0.5496865E-006  0.3889149E+02  0.7818608E-02  0.1388695E+00
         21   -1    0    0  501  502  0.00000000000E+00  0.00000000000E+00  0.14708426747E+03  0.14708426747E+03  0.00000000000E+00 0. -1.
         21   -1    0    0  502  503 -0.00000000000E+00 -0.00000000000E+00 -0.63111650324E+02  0.63111650324E+02  0.00000000000E+00 0. -1.
        -13    1    1    2    0    0  0.17924099508E+02  0.77173629089E+00 -0.22577014751E+02  0.28837504732E+02  0.10566000000E+00 0.  1.
         13    1    1    2    0    0 -0.48568047975E+02  0.18049605621E+02  0.96627838483E+02  0.10964302933E+03  0.10566000000E+00 0. -1.
          4    1    1    2  501    0  0.48563133128E+01  0.90209436343E+01  0.27900611714E+02  0.29722135473E+02  0.00000000000E+00 0.  1.
         -4    1    1    2    0  503  0.25787635155E+02 -0.27842285546E+02 -0.17978818303E+02  0.41993248253E+02  0.00000000000E+00 0. -1.
</event>
<event>
 6    1  0.5496865E-006  0.5217728E+02  0.7818608E-02  0.1283169E+00
         21   -1    0    0  503  502  0.00000000000E+00  0.00000000000E+00  0.16698571713E+03  0.16698571713E+03  0.00000000000E+00 0.  1.
         21   -1    0    0  501  503 -0.00000000000E+00 -0.00000000000E+00 -0.12830040276E+03  0.12830040276E+03  0.00000000000E+00 0.  1.
        -13    1    1    2    0    0 -0.28104889625E+02 -0.34239151317E+02  0.60510852317E+02  0.74991857664E+02  0.10566000000E+00 0.  1.
         13    1    1    2    0    0  0.62460878820E+02  0.45991222165E+01 -0.74835061410E+02  0.97584890676E+02  0.10566000000E+00 0. -1.
          4    1    1    2  501    0 -0.10023913356E+02  0.67010567790E+01 -0.30476590585E+02  0.32775075509E+02  0.00000000000E+00 0.  1.
         -4    1    1    2    0  502 -0.24332075839E+02  0.22938972321E+02  0.83486114051E+02  0.89934296045E+02  0.00000000000E+00 0. -1.
</event>
<event>
 6    1  0.5496865E-006  0.4519078E+02  0.7818608E-02  0.1312713E+00
         21   -1    0    0  503  502  0.00000000000E+00  0.00000000000E+00  0.12578554213E+03  0.12578554213E+03  0.00000000000E+00 0. -1.
         21   -1    0    0  501  503 -0.00000000000E+00 -0.00000000000E+00 -0.20860983653E+03  0.20860983653E+03  0.00000000000E+00 0. -1.
        -13    1    1    2    0    0 -0.54649546406E+02 -0.12804787178E+02 -0.37317592084E+02  0.67402888217E+02  0.10566000000E+00 0.  1.
         13    1    1    2    0    0  0.18016359537E+02  0.39786465353E+02 -0.99883562794E+01  0.44803241640E+02  0.10566000000E+00 0. -1.
          4    1    1    2  501    0  0.90871058871E+01 -0.92497611808E+01 -0.12563520530E+03  0.12630256683E+03  0.00000000000E+00 0.  1.
         -4    1    1    2    0  502  0.27546080982E+02 -0.17731916994E+02  0.90116859264E+02  0.95886681981E+02  0.00000000000E+00 0. -1.
</event>
<event>
 6    1  0.5496865E-006  0.6440770E+02  0.7818608E-02  0.1242212E+00
         21   -1    0    0  501  502  0.00000000000E+00  0.00000000000E+00  0.62650166475E+03  0.62650166475E+03  0.00000000000E+00 0. -1.
         21   -1    0    0  502  503 -0.00000000000E+00 -0.00000000000E+00 -0.43087206141E+02  0.43087206141E+02  0.00000000000E+00 0.  1.
        -13    1    1    2    0    0  0.18830048371E+02 -0.49284778788E+02  0.15798634757E+01  0.52783210157E+02  0.10566000000E+00 0.  1.
         13    1    1    2    0    0 -0.41879931907E+02  0.69852240825E+02  0.32667353878E+03  0.33667324863E+03  0.10566000000E+00 0. -1.
          4    1    1    2  501    0  0.14716827140E+02 -0.11345316652E+02  0.26414398819E+03  0.26479680456E+03  0.00000000000E+00 0.  1.
         -4    1    1    2    0  503  0.83330563962E+01 -0.92221453844E+01 -0.89829318276E+01  0.15335607540E+02  0.00000000000E+00 0. -1.
</event>
<event>
 6    1  0.5496865E-006  0.4443994E+02  0.7818608E-02  0.1355382E+00
         21   -1    0    0  503  502  0.00000000000E+00  0.00000000000E+00  0.87762165447E+02  0.87762165447E+02  0.00000000000E+00 0. -1.
         21   -1    0    0  501  503 -0.00000000000E+00 -0.00000000000E+00 -0.80240003930E+02  0.80240003930E+02  0.00000000000E+00 0. -1.
        -13    1    1    2    0    0 -0.20962175932E+02 -0.13795708809E+02  0.29619320372E+02  0.38820738075E+02  0.10566000000E+00 0.  1.
         13    1    1    2    0    0  0.33854348570E+02 -0.27558553261E+02 -0.39751846437E+02  0.59040759091E+02  0.10566000000E+00 0. -1.
          4    1    1    2  501    0  0.10216647644E+02 -0.19420256683E+01  0.18311933179E+02  0.21058923276E+02  0.00000000000E+00 0.  1.
         -4    1    1    2    0  502 -0.23108820281E+02  0.43296287738E+02 -0.65724559750E+00  0.49081748934E+02  0.00000000000E+00 0. -1.
</event>
<event>
 6    1  0.5496865E-006  0.1635947E+03  0.7818608E-02  0.1120354E+00
         21   -1    0    0  503  502  0.00000000000E+00  0.00000000000E+00  0.10505229303E+04  0.10505229303E+04  0.00000000000E+00 0.  1.
         21   -1    0    0  501  503 -0.00000000000E+00 -0.00000000000E+00 -0.35327498461E+03  0.35327498461E+03  0.00000000000E+00 0.  1.
        -13    1    1    2    0    0 -0.22897341238E+03 -0.12459711679E+03  0.36649232521E+03  0.44974426143E+03  0.10566000000E+00 0.  1.
         13    1    1    2    0    0  0.60176497556E+02  0.17383564462E+02  0.35811138830E+02  0.72151562698E+02  0.10566000000E+00 0. -1.
          4    1    1    2  501    0  0.15384234179E+03  0.39498051619E+02 -0.26971102271E+03  0.31300415010E+03  0.00000000000E+00 0.  1.
         -4    1    1    2    0  502  0.14954573036E+02  0.67715500713E+02  0.56465550440E+03  0.56889794070E+03  0.00000000000E+00 0. -1.
</event>
<event>
 6    1  0.5496865E-006  0.4109671E+02  0.7818608E-02  0.1332991E+00
         21   -1    0    0  503  502  0.00000000000E+00  0.00000000000E+00  0.23852728286E+03  0.23852728286E+03  0.00000000000E+00 0.  1.
         21   -1    0    0  501  503 -0.00000000000E+00 -0.00000000000E+00 -0.27554323510E+03  0.27554323510E+03  0.00000000000E+00 0.  1.
        -13    1    1    2    0    0  0.37086724109E+02  0.23118459186E+02  0.16415945924E+03  0.16987709522E+03  0.10566000000E+00 0.  1.
         13    1    1    2    0    0 -0.66517638506E+02  0.16453214226E+02 -0.11285693093E+03  0.13203030907E+03  0.10566000000E+00 0. -1.
          4    1    1    2  501    0  0.27893493122E+02 -0.28723278714E+02 -0.14705768333E+03  0.15241074741E+03  0.00000000000E+00 0.  1.
         -4    1    1    2    0  502  0.15374212754E+01 -0.10848394698E+02  0.58739202775E+02  0.59752366266E+02  0.00000000000E+00 0. -1.
</event>
<event>
 6    1  0.5496865E-006  0.4092318E+03  0.7818608E-02  0.9790403E-01
         21   -1    0    0  501  502  0.00000000000E+00  0.00000000000E+00  0.37783997679E+03  0.37783997679E+03  0.00000000000E+00 0. -1.
         21   -1    0    0  502  503 -0.00000000000E+00 -0.00000000000E+00 -0.24857564856E+04  0.24857564856E+04  0.00000000000E+00 0. -1.
        -13    1    1    2    0    0 -0.16959043693E+02  0.30089441285E+03 -0.47718176165E+03  0.56438240730E+03  0.10566000000E+00 0.  1.
         13    1    1    2    0    0  0.41161699087E+03 -0.76643424328E+02  0.29870392486E+02  0.41975589713E+03  0.10566000000E+00 0. -1.
          4    1    1    2  501    0 -0.42476398838E+02  0.42959145955E+01  0.79059070022E+02  0.89850074531E+02  0.00000000000E+00 0.  1.
         -4    1    1    2    0  503 -0.35218154834E+03 -0.22854690312E+03 -0.17396642097E+04  0.17896080835E+04  0.00000000000E+00 0. -1.
</event>
<event>
 6    1  0.5496865E-006  0.3288945E+02  0.7818608E-02  0.1443824E+00
         21   -1    0    0  501  502  0.00000000000E+00  0.00000000000E+00  0.19691834507E+03  0.19691834507E+03  0.00000000000E+00 0. -1.
         21   -1    0    0  502  503 -0.00000000000E+00 -0.00000000000E+00 -0.56778868147E+02  0.56778868147E+02  0.00000000000E+00 0.  1.
        -13    1    1    2    0    0 -0.84593017773E+01 -0.23133631135E+02 -0.21502796842E+02  0.32697188138E+02  0.10566000000E+00 0.  1.
         13    1    1    2    0    0 -0.14605562680E+02  0.63185558890E+02  0.64032287875E+02  0.91136613762E+02  0.10566000000E+00 0. -1.
          4    1    1    2  501    0  0.16943775216E+02 -0.53059609128E+02  0.10077476367E+03  0.11514324397E+03  0.00000000000E+00 0.  1.
         -4    1    1    2    0  503  0.61210892415E+01  0.13007681372E+02 -0.31647777826E+01  0.14720167343E+02  0.00000000000E+00 0. -1.
</event>
<event>
 6    1  0.5496865E-006  0.1134208E+03  0.7818608E-02  0.1152351E+00
         21   -1    0    0  503  502  0.00000000000E+00  0.00000000000E+00  0.47888630638E+03  0.47888630638E+03  0.00000000000E+00 0. -1.
         21   -1    0    0  501  503 -0.00000000000E+00 -0.00000000000E+00 -0.53042112880E+03  0.53042112880E+03  0.00000000000E+00 0. -1.
        -13    1    1    2    0    0  0.86084085803E+02 -0.15995097868E+03 -0.30017645487E+02  0.18410827144E+03  0.10566000000E+00 0.  1.
         13    1    1    2    0    0 -0.84615231809E+01  0.90716324247E+02 -0.32587088475E+03  0.33836798542E+03  0.10566000000E+00 0. -1.
          4    1    1    2  501    0 -0.84394219107E+02  0.47076168276E+02 -0.65185508534E+02  0.11656629170E+03  0.00000000000E+00 0.  1.
         -4    1    1    2    0  502  0.67716564846E+01  0.22158486157E+02  0.36953921636E+03  0.37026488662E+03  0.00000000000E+00 0. -1.
</event>
<event>
 6    1  0.5496865E-006  0.2468068E+03  0.7818608E-02  0.1032061E+00
         21   -1    0    0  503  502  0.00000000000E+00  0.00000000000E+00  0.15315572171E+03  0.15315572171E+03  0.00000000000E+00 0.  1.
         21   -1    0    0  501  503 -0.00000000000E+00 -0.00000000000E+00 -0.93740145785E+03  0.93740145785E+03  0.00000000000E+00 0. -1.
        -13    1    1    2    0    0  0.22258987412E+03 -0.37619172493E+02 -0.31007770604E+02  0.22786607295E+03  0.10566000000E+00 0.  1.
         13    1    1    2    0    0 -0.25654015073E+03  0.36730886966E+02 -0.72392145737E+03  0.76891110969E+03  0.10566000000E+00 0. -1.
          4    1    1    2  501    0  0.11183299496E+02  0.99057500207E+01 -0.55767627704E+02  0.57734031306E+02  0.00000000000E+00 0.  1.
         -4    1    1    2    0  502  0.22766977113E+02 -0.90174644932E+01  0.26451119539E+02  0.36045965622E+02  0.00000000000E+00 0. -1.
</event>
<event>
 6    1  0.5496865E-006  0.2543419E+03  0.7818608E-02  0.1028167E+00
         21   -1    0    0  501  502  0.00000000000E+00  0.00000000000E+00  0.64671120410E+03  0.64671120410E+03  0.00000000000E+00 0. -1.
         21   -1    0    0  502  503 -0.00000000000E+00 -0.00000000000E+00 -0.29142507372E+03  0.29142507372E+03  0.00000000000E+00 0.  1.
        -13    1    1    2    0    0 -0.13021517414E+03 -0.31882611428E+03  0.18466822494E+02  0.34488710823E+03  0.10566000000E+00 0.  1.
         13    1    1    2    0    0  0.16180001288E+03  0.17798788929E+03  0.28926649472E+03  0.37621011288E+03  0.10566000000E+00 0. -1.
          4    1    1    2  501    0  0.86847284918E+01 -0.21341089059E+02  0.44265206709E+02  0.49902656404E+02  0.00000000000E+00 0.  1.
         -4    1    1    2    0  503 -0.40269567232E+02  0.16217931405E+03  0.32876064495E+01  0.16713640031E+03  0.00000000000E+00 0. -1.
</event>
<event>
 6    1  0.5496865E-006  0.3131439E+03  0.7818608E-02  0.1002023E+00
         21   -1    0    0  501  502  0.00000000000E+00  0.00000000000E+00  0.47546345707E+03  0.47546345707E+03  0.00000000000E+00 0.  1.
         21   -1    0    0  502  503 -0.00000000000E+00 -0.00000000000E+00 -0.70455805159E+03  0.70455805159E+03  0.00000000000E+00 0. -1.
        -13    1    1    2    0    0 -0.89810042940E+02  0.31085028786E+03 -0.29986572267E+02  0.32495069004E+03  0.10566000000E+00 0.  1.
         13    1    1    2    0    0  0.11511436592E+03 -0.28121285925E+03  0.51416879137E+02  0.30818127145E+03  0.10566000000E+00 0. -1.
          4    1    1    2  501    0 -0.15819070282E+02 -0.16167047666E+02  0.14714761673E+03  0.14887591318E+03  0.00000000000E+00 0.  1.
         -4    1    1    2    0  503 -0.94852526990E+01 -0.13470380948E+02 -0.39767251811E+03  0.39801363399E+03  0.00000000000E+00 0. -1.
</event>
<event>
 6    1  0.5496865E-006  0.9209953E+02  0.7818608E-02  0.1201714E+00
         21   -1    0    0  501  502  0.00000000000E+00  0.00000000000E+00  0.27119121395E+03  0.27119121395E+03  0.00000000000E+00 0.  1.
         21   -1    0    0  502  503 -0.00000000000E+00 -0.00000000000E+00 -0.44550473281E+03  0.44550473281E+03  0.00000000000E+00 0.  1.
        -13    1    1    2    0    0 -0.10792853448E+03  0.68515257738E+02 -0.18246436059E+03  0.22279174838E+03  0.10566000000E+00 0.  1.
         13    1    1    2    0    0  0.53095062085E+02 -0.10218174217E+02  0.48709580978E+02  0.72774522638E+02  0.10566000000E+00 0. -1.
          4    1    1    2  501    0  0.62300875287E+02 -0.65494048637E+02  0.17942138792E+03  0.20090521126E+03  0.00000000000E+00 0.  1.
         -4    1    1    2    0  503 -0.74674028952E+01  0.71969651162E+01 -0.21998012716E+03  0.22022446448E+03  0.00000000000E+00 0. -1.
</event>
<event>
 6    1  0.5496865E-006  0.4437081E+02  0.7818608E-02  0.1316964E+00
         21   -1    0    0  503  502  0.00000000000E+00  0.00000000000E+00  0.66461904477E+02  0.66461904477E+02  0.00000000000E+00 0.  1.
         21   -1    0    0  501  503 -0.00000000000E+00 -0.00000000000E+00 -0.15558092861E+03  0.15558092861E+03  0.00000000000E+00 0. -1.
        -13    1    1    2    0    0 -0.45061880082E+02 -0.30921797847E+02 -0.74049840003E+01  0.55150481147E+02  0.10566000000E+00 0.  1.
         13    1    1    2    0    0 -0.31672266026E+02  0.42411392341E+02 -0.35546441601E+02  0.63760640760E+02  0.10566000000E+00 0. -1.
          4    1    1    2  501    0  0.43060375444E+02  0.10647894928E+01 -0.51127408701E+02  0.66853134784E+02  0.00000000000E+00 0.  1.
         -4    1    1    2    0  502  0.33673770665E+02 -0.12554383986E+02  0.49598101735E+01  0.36278576392E+02  0.00000000000E+00 0. -1.
</event>
<event>
 6    1  0.5496865E-006  0.6315424E+02  0.7818608E-02  0.1245922E+00
         21   -1    0    0  501  502  0.00000000000E+00  0.00000000000E+00  0.51398077032E+03  0.51398077032E+03  0.00000000000E+00 0. -1.
         21   -1    0    0  502  503 -0.00000000000E+00 -0.00000000000E+00 -0.57012497281E+02  0.57012497281E+02  0.00000000000E+00 0.  1.
        -13    1    1    2    0    0 -0.11989045143E+02 -0.58348703964E+02  0.59913263983E+02  0.84486204927E+02  0.10566000000E+00 0.  1.
         13    1    1    2    0    0  0.11419957645E+02  0.87890836911E+02  0.18342344292E+03  0.20371397895E+03  0.10566000000E+00 0. -1.
          4    1    1    2  501    0  0.33101106603E+01 -0.40064668757E+02  0.24568147233E+03  0.24894883081E+03  0.00000000000E+00 0.  1.
         -4    1    1    2    0  503 -0.27410231628E+01  0.10522535811E+02 -0.32049906194E+02  0.33844252908E+02  0.00000000000E+00 0. -1.
</event>
<event>
 6    1  0.5496865E-006  0.1133624E+03  0.7818608E-02  0.1144162E+00
         21   -1    0    0  503  502  0.00000000000E+00  0.00000000000E+00  0.32069020799E+02  0.32069020799E+02  0.00000000000E+00 0.  1.
         21   -1    0    0  501  503 -0.00000000000E+00 -0.00000000000E+00 -0.65597876452E+03  0.65597876452E+03  0.00000000000E+00 0. -1.
        -13    1    1    2    0    0 -0.75341452275E+02  0.10372380393E+03 -0.30441145378E+03  0.33030486871E+03  0.10566000000E+00 0.  1.
         13    1    1    2    0    0  0.46304039297E+02 -0.83805565194E+02 -0.13528041225E+03  0.16573544556E+03  0.10566000000E+00 0. -1.
          4    1    1    2  501    0  0.50797342607E+01  0.11193098167E+02 -0.73770871692E+02  0.74787904483E+02  0.00000000000E+00 0.  1.
         -4    1    1    2    0  502  0.23957678717E+02 -0.31111336902E+02 -0.11044700599E+03  0.11721956656E+03  0.00000000000E+00 0. -1.
</event>
<event>
 6    1  0.5496865E-006  0.4304509E+02  0.7818608E-02  0.1347705E+00
         21   -1    0    0  501  502  0.00000000000E+00  0.00000000000E+00  0.32062871570E+02  0.32062871570E+02  0.00000000000E+00 0.  1.
         21   -1    0    0  502  503 -0.00000000000E+00 -0.00000000000E+00 -0.22321541725E+03  0.22321541725E+03  0.00000000000E+00 0.  1.
        -13    1    1    2    0    0  0.44979551894E+02  0.40359694747E+02 -0.14680438323E+03  0.15875642711E+03  0.10566000000E+00 0.  1.
         13    1    1    2    0    0 -0.22304034180E+02  0.11305985467E+02 -0.20232522054E+02  0.32166152409E+02  0.10566000000E+00 0. -1.
          4    1    1    2  501    0 -0.28364443292E+01 -0.25171709165E+02 -0.40582145655E+01  0.25654034072E+02  0.00000000000E+00 0.  1.
         -4    1    1    2    0  503 -0.19839073384E+02 -0.26493971049E+02 -0.20057425829E+02  0.38701675230E+02  0.00000000000E+00 0. -1.
</event>
<event>
 6    1  0.5496865E-006  0.3658543E+03  0.7818608E-02  0.9833198E-01
         21   -1    0    0  503  502  0.00000000000E+00  0.00000000000E+00  0.52045693725E+03  0.52045693725E+03  0.00000000000E+00 0.  1.
         21   -1    0    0  501  503 -0.00000000000E+00 -0.00000000000E+00 -0.43436250774E+03  0.43436250774E+03  0.00000000000E+00 0. -1.
        -13    1    1    2    0    0 -0.37196098766E+02 -0.39652342126E+03  0.21841345751E+03  0.45422331838E+03  0.10566000000E+00 0.  1.
         13    1    1    2    0    0  0.54995181024E+02  0.35794681628E+03 -0.17944859788E+03  0.40416853374E+03  0.10566000000E+00 0. -1.
          4    1    1    2  501    0 -0.64619559711E+01 -0.99466729656E+01 -0.13485416049E+02  0.17959666591E+02  0.00000000000E+00 0.  1.
         -4    1    1    2    0  502 -0.11337126288E+02  0.48523277945E+02  0.60614985926E+02  0.78467926275E+02  0.00000000000E+00 0. -1.
</event>
<event>
 6    1  0.5496865E-006  0.3294895E+03  0.7818608E-02  0.9958262E-01
         21   -1    0    0  501  502  0.00000000000E+00  0.00000000000E+00  0.54232921185E+03  0.54232921185E+03  0.00000000000E+00 0.  1.
         21   -1    0    0  502  503 -0.00000000000E+00 -0.00000000000E+00 -0.70536846208E+03  0.70536846208E+03  0.00000000000E+00 0.  1.
        -13    1    1    2    0    0 -0.43635712034E+03 -0.22208948466E+02 -0.20229756245E+02  0.43739001825E+03  0.10566000000E+00 0.  1.
         13    1    1    2    0    0  0.25643234557E+03  0.14420339295E+03 -0.12608285283E+03  0.32007665227E+03  0.10566000000E+00 0. -1.
          4    1    1    2  501    0  0.17973935271E+03 -0.10735662111E+03  0.19015858057E+03  0.28282850771E+03  0.00000000000E+00 0.  1.
         -4    1    1    2    0  503  0.18542206581E+00 -0.14637823370E+02 -0.20688522172E+03  0.20740249570E+03  0.00000000000E+00 0. -1.
</event>
<event>
 6    1  0.5496865E-006  0.1821173E+03  0.7818608E-02  0.1073139E+00
         21   -1    0    0  503  502  0.00000000000E+00  0.00000000000E+00  0.34947584750E+03  0.34947584750E+03  0.00000000000E+00 0. -1.
         21   -1    0    0  501  503 -0.00000000000E+00 -0.00000000000E+00 -0.15693557786E+03  0.15693557786E+03  0.00000000000E+00 0.  1.
        -13    1    1    2    0    0 -0.50057242451E+02  0.16538612975E+03 -0.17406826266E+02  0.17367011315E+03  0.10566000000E+00 0.  1.
         13    1    1    2    0    0  0.60080111271E+02 -0.16698591577E+03  0.10892244108E+03  0.20822589938E+03  0.10566000000E+00 0. -1.
          4    1    1    2  501    0  0.66655615047E+01 -0.28890889860E+02  0.76304132012E+02  0.81862285511E+02  0.00000000000E+00 0.  1.
         -4    1    1    2    0  502 -0.16688430325E+02  0.30490675885E+02  0.24720522815E+02  0.42653127328E+02  0.00000000000E+00 0. -1.
</event>
<event>
 6    1  0.5496865E-006  0.1517590E+03  0.7818608E-02  0.1159109E+00
         21   -1    0    0  501  502  0.00000000000E+00  0.00000000000E+00  0.56363190411E+02  0.56363190411E+02  0.00000000000E+00 0. -1.
         21   -1    0    0  502  503 -0.00000000000E+00 -0.00000000000E+00 -0.67781971616E+03  0.67781971616E+03  0.00000000000E+00 0. -1.
        -13    1    1    2    0    0  0.32254481491E+02  0.89160001938E+01 -0.25129392724E+02  0.41849064248E+02  0.10566000000E+00 0.  1.
         13    1    1    2    0    0 -0.15869834587E+03  0.43337247124E+02 -0.41692488164E+03  0.44820715084E+03  0.10566000000E+00 0. -1.
          4    1    1    2  501    0 -0.15962008564E+01 -0.12060450505E+02  0.73073194530E+01  0.14191520044E+02  0.00000000000E+00 0.  1.
         -4    1    1    2    0  503  0.12804006524E+03 -0.40192796812E+02 -0.18670957084E+03  0.22993517144E+03  0.00000000000E+00 0. -1.
</event>
<event>
 6    1  0.5496865E-006  0.2726805E+03  0.7818608E-02  0.1019266E+00
         21   -1    0    0  501  502  0.00000000000E+00  0.00000000000E+00  0.13654976868E+03  0.13654976868E+03  0.00000000000E+00 0.  1.
         21   -1    0    0  502  503 -0.00000000000E+00 -0.00000000000E+00 -0.85295455395E+03  0.85295455395E+03  0.00000000000E+00 0. -1.
        -13    1    1    2    0    0 -0.19182233033E+03 -0.20816750806E+03 -0.17280936699E+03  0.33165133244E+03  0.10566000000E+00 0.  1.
         13    1    1    2    0    0  0.14963504547E+03  0.19975015673E+03 -0.44912931989E+03  0.51381701908E+03  0.10566000000E+00 0. -1.
          4    1    1    2  501    0 -0.27496083818E+02  0.15962035181E+02 -0.81030593256E+01  0.32809766273E+02  0.00000000000E+00 0.  1.
         -4    1    1    2    0  503  0.69683368676E+02 -0.75446838446E+01 -0.86363039070E+02  0.11122620483E+03  0.00000000000E+00 0. -1.
</event>
<event>
 6    1  0.5496865E-006  0.4722756E+03  0.7818608E-02  0.9808181E-01
         21   -1    0    0  503  502  0.00000000000E+00  0.00000000000E+00  0.81798827943E+03  0.81798827943E+03  0.00000000000E+00 0.  1.
         21   -1    0    0  501  503 -0.00000000000E+00 -0.00000000000E+00 -0.83325775633E+03  0.83325775633E+03  0.00000000000E+00 0.  1.
        -13    1    1    2    0    0  0.17992368471E+03  0.28179380508E+03  0.55706473764E+03  0.64969332302E+03  0.10566000000E+00 0.  1.
         13    1    1    2    0    0  0.17354949338E+03 -0.51131581446E+02 -0.62489522664E+02  0.19141268736E+03  0.10566000000E+00 0. -1.
          4    1    1    2  501    0 -0.41786106053E+03 -0.27315655427E+03 -0.53232082888E+03  0.72978615629E+03  0.00000000000E+00 0.  1.
         -4    1    1    2    0  502  0.64387882443E+02  0.42494330642E+02  0.22476137014E+02  0.80353869087E+02  0.00000000000E+00 0. -1.
</event>
<event>
 6    1  0.5496865E-006  0.8373498E+02  0.7818608E-02  0.1194691E+00
         21   -1    0    0  503  502  0.00000000000E+00  0.00000000000E+00  0.98072448022E+02  0.98072448022E+02  0.00000000000E+00 0.  1.
         21   -1    0    0  501  503 -0.00000000000E+00 -0.00000000000E+00 -0.18808469161E+03  0.18808469161E+03  0.00000000000E+00 0. -1.
        -13    1    1    2    0    0 -0.59541201571E+02  0.40536595216E+02  0.41381993098E+02  0.83071359403E+02  0.10566000000E+00 0.  1.
         13    1    1    2    0    0  0.75560477033E+02 -0.42106322137E+02 -0.41138200613E+02  0.95784606107E+02  0.10566000000E+00 0. -1.
          4    1    1    2  501    0  0.13341506546E+02  0.10187667489E+02 -0.66434459236E+02  0.68522417789E+02  0.00000000000E+00 0.  1.
         -4    1    1    2    0  502 -0.29360782008E+02 -0.86179405677E+01 -0.23821576840E+02  0.38778756335E+02  0.00000000000E+00 0. -1.
</event>
<event>
 6    1  0.5496865E-006  0.9768093E+02  0.7818608E-02  0.1168450E+00
         21   -1    0    0  503  502  0.00000000000E+00  0.00000000000E+00  0.10531280774E+03  0.10531280774E+03  0.00000000000E+00 0.  1.
         21   -1    0    0  501  503 -0.00000000000E+00 -0.00000000000E+00 -0.38984581679E+03  0.38984581679E+03  0.00000000000E+00 0. -1.
        -13    1    1    2    0    0 -0.34231217161E+02  0.61496610680E+02 -0.43289230455E+01  0.70514963605E+02  0.10566000000E+00 0.  1.
         13    1    1    2    0    0  0.78775578256E+02 -0.63898902116E+02 -0.31049744628E+03  0.32664558276E+03  0.10566000000E+00 0. -1.
          4    1    1    2  501    0 -0.42319373931E+01 -0.15879786975E+02 -0.23284873209E+02  0.28500214891E+02  0.00000000000E+00 0.  1.
         -4    1    1    2    0  502 -0.40312423702E+02  0.18282078411E+02  0.53578233489E+02  0.69497863274E+02  0.00000000000E+00 0. -1.
</event>
<event>
 6    1  0.5496865E-006  0.1442756E+03  0.7818608E-02  0.1106898E+00
         21   -1    0    0  501  502  0.00000000000E+00  0.00000000000E+00  0.36522718236E+03  0.36522718236E+03  0.00000000000E+00 0. -1.
         21   -1    0    0  502  503 -0.00000000000E+00 -0.00000000000E+00 -0.16592764909E+03  0.16592764909E+03  0.00000000000E+00 0.  1.
        -13    1    1    2    0    0  0.12901719612E+03  0.42572910309E+02  0.54570923367E+02  0.14640999429E+03  0.10566000000E+00 0.  1.
         13    1    1    2    0    0 -0.15411716740E+03 -0.34062877551E+02 -0.48818505489E+02  0.16521391756E+03  0.10566000000E+00 0. -1.
          4    1    1    2  501    0  0.78657429718E+01 -0.83325602834E+01  0.20058658269E+03  0.20091360986E+03  0.00000000000E+00 0.  1.
         -4    1    1    2    0  503  0.17234228307E+02 -0.17747247424E+00 -0.70394672943E+01  0.18617309730E+02  0.00000000000E+00 0. -1.
</event>
<event>
 6    1  0.5496865E-006  0.9873848E+02  0.7818608E-02  0.1182515E+00
         21   -1    0    0  503  502  0.00000000000E+00  0.00000000000E+00  0.32310997900E+03  0.32310997900E+03  0.00000000000E+00 0.  1.
         21   -1    0    0  501  503 -0.00000000000E+00 -0.00000000000E+00 -0.20114151349E+03  0.20114151349E+03  0.00000000000E+00 0.  1.
        -13    1    1    2    0    0 -0.47339707785E+02 -0.22729154866E+02  0.14192369402E+03  0.15132748760E+03  0.10566000000E+00 0.  1.
         13    1    1    2    0    0  0.14278870881E+03 -0.14891000606E+02  0.56059391497E+02  0.15412016027E+03  0.10566000000E+00 0. -1.
          4    1    1    2  501    0 -0.85638974063E+02  0.48761835964E+02 -0.12982026436E+03  0.16298788778E+03  0.00000000000E+00 0.  1.
         -4    1    1    2    0  502 -0.98100269666E+01 -0.11141680492E+02  0.53805644348E+02  0.55815956831E+02  0.00000000000E+00 0. -1.
</event>
<event>
 6    1  0.5496865E-006  0.1015028E+03  0.7818608E-02  0.1162093E+00
         21   -1    0    0  501  502  0.00000000000E+00  0.00000000000E+00  0.32041571856E+02  0.32041571856E+02  0.00000000000E+00 0. -1.
         21   -1    0    0  502  503 -0.00000000000E+00 -0.00000000000E+00 -0.76619312348E+03  0.76619312348E+03  0.00000000000E+00 0. -1.
        -13    1    1    2    0    0  0.86231843318E+02  0.17925096171E+02 -0.23923346970E+03  0.25493117515E+03  0.10566000000E+00 0.  1.
         13    1    1    2    0    0 -0.11844689916E+03  0.49106714665E+02 -0.33887670394E+03  0.36232384546E+03  0.10566000000E+00 0. -1.
          4    1    1    2  501    0  0.30246449738E+02 -0.68694539121E+01 -0.44676763927E+02  0.54387961479E+02  0.00000000000E+00 0.  1.
         -4    1    1    2    0  503  0.19686061079E+01 -0.60162356924E+02 -0.11136461406E+03  0.12659171325E+03  0.00000000000E+00 0. -1.
</event>
<event>
 6    1  0.5496865E-006  0.6164889E+02  0.7818608E-02  0.1250508E+00
         21   -1    0    0  501  502  0.00000000000E+00  0.00000000000E+00  0.40902980162E+02  0.40902980162E+02  0.00000000000E+00 0.  1.
         21   -1    0    0  502  503 -0.00000000000E+00 -0.00000000000E+00 -0.44097849113E+03  0.44097849113E+03  0.00000000000E+00 0. -1.
        -13    1    1    2    0    0  0.42349119154E+02 -0.30740757676E+02 -0.17231234781E+03  0.18008330974E+03  0.10566000000E+00 0.  1.
         13    1    1    2    0    0 -0.57428643097E+02  0.48162025216E+02 -0.81947770976E+02  0.11105439232E+03  0.10566000000E+00 0. -1.
          4    1    1    2  501    0  0.14043765680E+02 -0.49475657221E+01  0.19734393105E+02  0.24721489281E+02  0.00000000000E+00 0.  1.
         -4    1    1    2    0  503  0.10357582624E+01 -0.12473701818E+02 -0.16554978529E+03  0.16602227995E+03  0.00000000000E+00 0. -1.
</event>
<event>
 6    1  0.5496865E-006  0.2893455E+02  0.7818608E-02  0.1413673E+00
         21   -1    0    0  503  502  0.00000000000E+00  0.00000000000E+00  0.32583055427E+02  0.32583055427E+02  0.00000000000E+00 0.  1.
         21   -1    0    0  501  503 -0.00000000000E+00 -0.00000000000E+00 -0.20416139311E+03  0.20416139311E+03  0.00000000000E+00 0. -1.
        -13    1    1    2    0    0  0.98162419809E+01  0.14720258218E+02  0.12638439607E+02  0.21743641102E+02  0.10566000000E+00 0.  1.
         13    1    1    2    0    0 -0.14101825787E+02 -0.29788907477E+02 -0.13689868290E+03  0.14081015959E+03  0.10566000000E+00 0. -1.
          4    1    1    2  501    0 -0.11447323873E+02  0.11719427946E+02 -0.54254061206E+02  0.56673533263E+02  0.00000000000E+00 0.  1.
         -4    1    1    2    0  502  0.15732907679E+02  0.33492213128E+01  0.69359668220E+01  0.17517114580E+02  0.00000000000E+00 0. -1.
</event>
<event>
 6    1  0.5496865E-006  0.8630463E+02  0.7818608E-02  0.1195877E+00
         21   -1    0    0  503  502  0.00000000000E+00  0.00000000000E+00  0.82976467011E+02  0.82976467011E+02  0.00000000000E+00 0. -1.
         21   -1    0    0  501  503 -0.00000000000E+00 -0.00000000000E+00 -0.10031447284E+04  0.10031447284E+04  0.00000000000E+00 0.  1.
        -13    1    1    2    0    0 -0.16588698792E+02  0.65647588049E+02 -0.11481737427E+03  0.13329602898E+03  0.10566000000E+00 0.  1.
         13    1    1    2    0    0 -0.53877514364E+02 -0.10880726556E+03 -0.23026642630E+03  0.26031604991E+03  0.10566000000E+00 0. -1.
          4    1    1    2  501    0 -0.12291986501E+02  0.19167735743E+02 -0.60185110649E+03  0.60228170270E+03  0.00000000000E+00 0.  1.
         -4    1    1    2    0  502  0.82758199656E+02  0.23991941772E+02  0.26766645689E+02  0.90227413804E+02  0.00000000000E+00 0. -1.
</event>
<event>
 6    1  0.5496865E-006  0.1620665E+03  0.7818608E-02  0.1105821E+00
         21   -1    0    0  501  502  0.00000000000E+00  0.00000000000E+00  0.10642762504E+04  0.10642762504E+04  0.00000000000E+00 0. -1.
         21   -1    0    0  502  503 -0.00000000000E+00 -0.00000000000E+00 -0.26821510956E+03  0.26821510956E+03  0.00000000000E+00 0.  1.
        -13    1    1    2    0    0  0.95930942424E+02  0.10346621851E+03 -0.14069053107E+03  0.19925320771E+03  0.10566000000E+00 0.  1.
         13    1    1    2    0    0 -0.76080880541E+02 -0.11383014839E+03  0.27605151896E+03  0.30813966858E+03  0.10566000000E+00 0. -1.
          4    1    1    2  501    0  0.19247273259E+03 -0.59873576427E+02  0.52772924539E+03  0.56491482047E+03  0.00000000000E+00 0.  1.
         -4    1    1    2    0  503 -0.21232279447E+03  0.70237506308E+02  0.13297090758E+03  0.26018366322E+03  0.00000000000E+00 0. -1.
</event>
<event>
 6    1  0.5496865E-006  0.7125329E+02  0.7818608E-02  0.1223477E+00
         21   -1    0    0  503  502  0.00000000000E+00  0.00000000000E+00  0.78417818075E+03  0.78417818075E+03  0.00000000000E+00 0.  1.
         21   -1    0    0  501  503 -0.00000000000E+00 -0.00000000000E+00 -0.13564112744E+03  0.13564112744E+03  0.00000000000E+00 0.  1.
        -13    1    1    2    0    0  0.93524071517E+02  0.71029783833E+02  0.29126798813E+03  0.31405259785E+03  0.10566000000E+00 0.  1.
         13    1    1    2    0    0 -0.53180884473E+02  0.95179930392E+01 -0.51428287115E+02  0.74590070013E+02  0.10566000000E+00 0. -1.
          4    1    1    2  501    0 -0.15674096401E+02 -0.30727503728E+02 -0.54584950528E+02  0.64570686905E+02  0.00000000000E+00 0.  1.
         -4    1    1    2    0  502 -0.24669090643E+02 -0.49820273144E+02  0.46328230282E+03  0.46660595341E+03  0.00000000000E+00 0. -1.
</event>
<event>
 6    1  0.1207214E-005  0.4363981E+02  0.7818608E-02  0.1320100E+00
         21   -1    0    0  501  502  0.00000000000E+00  0.00000000000E+00  0.69673990272E+03  0.69673990272E+03  0.00000000000E+00 0.  1.
         21   -1    0    0  502  503 -0.00000000000E+00 -0.00000000000E+00 -0.76873986312E+03  0.76873986312E+03  0.00000000000E+00 0. -1.
        -13    1    1    2    0    0 -0.56484556073E+02  0.26884928571E+02 -0.27934902875E+02  0.68510396450E+02  0.10566000000E+00 0.  1.
         13    1    1    2    0    0  0.40214354367E+02 -0.67020980724E+01  0.22003003243E+03  0.22377519691E+03  0.10566000000E+00 0. -1.
          4    1    1    2  501    0 -0.10452155653E+01 -0.11200424279E+02  0.45434754093E+03  0.45448677641E+03  0.00000000000E+00 0.  1.
         -4    1    1    2    0  503  0.17315417271E+02 -0.89824062195E+01 -0.71844263089E+03  0.71870739608E+03  0.00000000000E+00 0. -1.
</event>
<event>
 6    1  0.5496865E-006  0.1697327E+03  0.7818608E-02  0.1091002E+00
         21   -1    0    0  501  502  0.00000000000E+00  0.00000000000E+00  0.17687668586E+03  0.17687668586E+03  0.00000000000E+00 0. -1.
         21   -1    0    0  502  503 -0.00000000000E+00 -0.00000000000E+00 -0.67957950702E+03  0.67957950702E+03  0.00000000000E+00 0.  1.
        -13    1    1    2    0    0 -0.51471348811E+02  0.11883523199E+03 -0.27523107991E+03  0.30417638078E+03  0.10566000000E+00 0.  1.
         13    1    1    2    0    0  0.23685584342E+03 -0.98762108318E+02 -0.65039403141E+02  0.26473530124E+03  0.10566000000E+00 0. -1.
          4    1    1    2  501    0 -0.47115166518E+02  0.60921042565E+02 -0.51388873404E+02  0.92585250732E+02  0.00000000000E+00 0.  1.
         -4    1    1    2    0  503 -0.13826932809E+03 -0.80994166239E+02 -0.11104346470E+03  0.19495926012E+03  0.00000000000E+00 0. -1.
</event>
<event>
 6    1  0.5496865E-006  0.1047036E+03  0.7818608E-02  0.1156999E+00
         21   -1    0    0  501  502  0.00000000000E+00  0.00000000000E+00  0.32515398074E+03  0.32515398074E+03  0.00000000000E+00 0. -1.
         21   -1    0    0  502  503 -0.00000000000E+00 -0.00000000000E+00 -0.11719755028E+03  0.11719755028E+03  0.00000000000E+00 0. -1.
        -13    1    1    2    0    0  0.12205865502E+03  0.33687315724E+02  0.62991956828E+02  0.14142541601E+03  0.10566000000E+00 0.  1.
         13    1    1    2    0    0 -0.91231015782E+02  0.37904724772E+02  0.13570749871E+03  0.16785828181E+03  0.10566000000E+00 0. -1.
          4    1    1    2  501    0 -0.96904020041E+01 -0.42702500290E+02  0.57949599740E+02  0.72633074642E+02  0.00000000000E+00 0.  1.
         -4    1    1    2    0  503 -0.21137237231E+02 -0.28889540206E+02 -0.48692624817E+02  0.60434758564E+02  0.00000000000E+00 0. -1.
</event>
<event>
 6    1  0.5496865E-006  0.1965268E+02  0.7818608E-02  0.1517092E+00
         21   -1    0    0  503  502  0.00000000000E+00  0.00000000000E+00  0.24864847213E+03  0.24864847213E+03  0.00000000000E+00 0. -1.
         21   -1    0    0  501  503 -0.00000000000E+00 -0.00000000000E+00 -0.42696612419E+02  0.42696612419E+02  0.00000000000E+00 0. -1.
        -13    1    1    2    0    0 -0.94219188672E+01 -0.10764056841E+02  0.32908339461E+02  0.35883247414E+02  0.10566000000E+00 0.  1.
         13    1    1    2    0    0 -0.53683023047E+01 -0.20029716917E+02 -0.32649048311E+02  0.38677897423E+02  0.10566000000E+00 0. -1.
          4    1    1    2  501    0  0.20521445770E+02  0.12155192820E+02  0.23270369013E+02  0.33322492748E+02  0.00000000000E+00 0.  1.
         -4    1    1    2    0  502 -0.57312245979E+01  0.18638580939E+02  0.18242219954E+03  0.18346144696E+03  0.00000000000E+00 0. -1.
</event>
<event>
 6    1  0.5496865E-006  0.4561035E+02  0.7818608E-02  0.1310772E+00
         21   -1    0    0  503  502  0.00000000000E+00  0.00000000000E+00  0.36969715785E+02  0.36969715785E+02  0.00000000000E+00 0. -1.
         21   -1    0    0  501  503 -0.00000000000E+00 -0.00000000000E+00 -0.11841962136E+03  0.11841962136E+03  0.00000000000E+00 0.  1.
        -13    1    1    2    0    0  0.17505973832E+02 -0.34846562136E+02 -0.30037054391E+02  0.49223752529E+02  0.10566000000E+00 0.  1.
         13    1    1    2    0    0 -0.49109520326E+02  0.28984350648E+02 -0.26367916940E+02  0.62826075613E+02  0.10566000000E+00 0. -1.
          4    1    1    2  501    0  0.16990025329E+02 -0.42032017341E+01 -0.14247352331E+02  0.22568006424E+02  0.00000000000E+00 0.  1.
         -4    1    1    2    0  502  0.14613521165E+02  0.10065413222E+02 -0.10797581910E+02  0.20771502576E+02  0.00000000000E+00 0. -1.
</event>
<event>
 6    1  0.5496865E-006  0.2004752E+03  0.7818608E-02  0.1059811E+00
         21   -1    0    0  503  502  0.00000000000E+00  0.00000000000E+00  0.36098336370E+03  0.36098336370E+03  0.00000000000E+00 0.  1.
         21   -1    0    0  501  503 -0.00000000000E+00 -0.00000000000E+00 -0.32265585175E+03  0.32265585175E+03  0.00000000000E+00 0.  1.
        -13    1    1    2    0    0  0.20272682833E+03 -0.17153673748E+02  0.12872229793E+03  0.24075268762E+03  0.10566000000E+00 0.  1.
         13    1    1    2    0    0 -0.16397594409E+03  0.14687897938E+03 -0.17920210130E+01  0.22014714926E+03  0.10566000000E+00 0. -1.
          4    1    1    2  501    0 -0.47476662490E+02 -0.14072007555E+03 -0.11831363925E+03  0.18987967342E+03  0.00000000000E+00 0.  1.
         -4    1    1    2    0  502  0.87257782525E+01  0.10994769915E+02  0.29710874291E+02  0.32859705153E+02  0.00000000000E+00 0. -1.
</event>
<event>
 6    1  0.5496865E-006  0.1932018E+02  0.7818608E-02  0.1539280E+00
         21   -1    0    0  503  502  0.00000000000E+00  0.00000000000E+00  0.78548499333E+02  0.78548499333E+02  0.00000000000E+00 0. -1.
         21   -1    0    0  501  503 -0.00000000000E+00 -0.00000000000E+00 -0.25299921559E+02  0.25299921559E+02  0.00000000000E+00 0.  1.
        -13    1    1    2    0    0  0.39136772461E+01 -0.13925809375E+02  0.24122909758E+02  0.28127761652E+02  0.10566000000E+00 0.  1.
         13    1    1    2    0    0 -0.14483500901E+02 -0.44844696096E+01 -0.35975016042E+01  0.15583178361E+02  0.10566000000E+00 0. -1.
          4    1    1    2  501    0 -0.39091465494E+01  0.20637899313E+02 -0.32880087334E+01  0.21260651830E+02  0.00000000000E+00 0.  1.
         -4    1    1    2    0  502  0.14478970204E+02 -0.22276203283E+01  0.36011178353E+02  0.38876829049E+02  0.00000000000E+00 0. -1.
</event>
<event>
 6    1  0.5496865E-006  0.5814496E+02  0.7818608E-02  0.1261772E+00
         21   -1    0    0  503  502  0.00000000000E+00  0.00000000000E+00  0.49984803933E+02  0.49984803933E+02  0.00000000000E+00 0. -1.
         21   -1    0    0  501  503 -0.00000000000E+00 -0.00000000000E+00 -0.11401189326E+04  0.11401189326E+04  0.00000000000E+00 0. -1.
        -13    1    1    2    0    0  0.26927931708E+02  0.31121245424E+02 -0.18297364580E+03  0.18754469239E+03  0.10566000000E+00 0.  1.
         13    1    1    2    0    0 -0.78379585078E+02 -0.37257626202E+02 -0.37526025194E+03  0.38516458549E+03  0.10566000000E+00 0. -1.
          4    1    1    2  501    0  0.41494824173E+02 -0.10167667425E+02 -0.57167530441E+03  0.57326944412E+03  0.00000000000E+00 0.  1.
         -4    1    1    2    0  502  0.99568291966E+01  0.16304048203E+02  0.39775073488E+02  0.44125014521E+02  0.00000000000E+00 0. -1.
</event>
<event>
 6    1  0.5496865E-006  0.1085139E+03  0.7818608E-02  0.1151189E+00
         21   -1    0    0  501  502  0.00000000000E+00  0.00000000000E+00  0.60399624999E+03  0.60399624999E+03  0.00000000000E+00 0. -1.
         21   -1    0    0  502  503 -0.00000000000E+00 -0.00000000000E+00 -0.41673818960E+02  0.41673818960E+02  0.00000000000E+00 0.  1.
        -13    1    1    2    0    0  0.63864582321E+02 -0.69878010037E+02  0.10193690070E+03  0.13911421225E+03  0.10566000000E+00 0.  1.
         13    1    1    2    0    0 -0.84703884599E+02  0.10281390262E+03  0.36753030077E+03  0.39092707733E+03  0.10566000000E+00 0. -1.
          4    1    1    2  501    0  0.16362559271E+02 -0.23460242828E+02  0.99292199408E+02  0.10332984662E+03  0.00000000000E+00 0.  1.
         -4    1    1    2    0  503  0.44767430070E+01 -0.94756497506E+01 -0.64369698441E+01  0.12298932755E+02  0.00000000000E+00 0. -1.
</event>
<event>
 6    1  0.5496865E-006  0.5697245E+02  0.7818608E-02  0.1265742E+00
         21   -1    0    0  503  502  0.00000000000E+00  0.00000000000E+00  0.22539467105E+02  0.22539467105E+02  0.00000000000E+00 0.  1.
         21   -1    0    0  501  503 -0.00000000000E+00 -0.00000000000E+00 -0.32854153604E+03  0.32854153604E+03  0.00000000000E+00 0. -1.
        -13    1    1    2    0    0 -0.43644338152E+02  0.43536529031E+02 -0.12538556050E+03  0.13972046221E+03  0.10566000000E+00 0.  1.
         13    1    1    2    0    0  0.33236262402E+02 -0.44458444828E+02 -0.84701907410E+02  0.10127006832E+03  0.10566000000E+00 0. -1.
          4    1    1    2  501    0  0.65906163237E+01 -0.86156458594E+01 -0.98820622078E+02  0.99414188751E+02  0.00000000000E+00 0.  1.
         -4    1    1    2    0  502  0.38174594264E+01  0.95375616563E+01  0.29060210543E+01  0.10676283866E+02  0.00000000000E+00 0. -1.
</event>
<event>
 6    1  0.5496865E-006  0.1345838E+03  0.7818608E-02  0.1143978E+00
         21   -1    0    0  501  502  0.00000000000E+00  0.00000000000E+00  0.12998112520E+04  0.12998112520E+04  0.00000000000E+00 0.  1.
         21   -1    0    0  502  503 -0.00000000000E+00 -0.00000000000E+00 -0.58355458437E+02  0.58355458437E+02  0.00000000000E+00 0.  1.
        -13    1    1    2    0    0  0.19645646059E+02  0.12838439181E+03  0.69623049995E+02  0.14736310164E+03  0.10566000000E+00 0.  1.
         13    1    1    2    0    0  0.67368629543E+02  0.10061076809E+02  0.11270470017E+03  0.13168947611E+03  0.10566000000E+00 0. -1.
          4    1    1    2  501    0 -0.82970914929E+02 -0.15958209423E+03  0.84636041378E+03  0.86526098233E+03  0.00000000000E+00 0.  1.
         -4    1    1    2    0  503 -0.40433606725E+01  0.21136625613E+02  0.21276762966E+03  0.21385315041E+03  0.00000000000E+00 0. -1.
</event>
<event>
 6    1  0.5496865E-006  0.2119739E+02  0.7818608E-02  0.1501005E+00
         21   -1    0    0  503  502  0.00000000000E+00  0.00000000000E+00  0.10930770111E+03  0.10930770111E+03  0.00000000000E+00 0.  1.
         21   -1    0    0  501  503 -0.00000000000E+00 -0.00000000000E+00 -0.98351164295E+02  0.98351164295E+02  0.00000000000E+00 0. -1.
        -13    1    1    2    0    0  0.26497235253E+02  0.15873204502E+01  0.92984021731E+02  0.96698823796E+02  0.10566000000E+00 0.  1.
         13    1    1    2    0    0 -0.11245918805E+01 -0.23333720194E+02 -0.56942133322E+02  0.61547907489E+02  0.10566000000E+00 0. -1.
          4    1    1    2  501    0 -0.11113315745E+02  0.86008217670E+01 -0.26469559714E+02  0.29968608799E+02  0.00000000000E+00 0.  1.
         -4    1    1    2    0  502 -0.14259327627E+02  0.13145577977E+02  0.13842081188E+01  0.19443525319E+02  0.00000000000E+00 0. -1.
</event>
<event>
 6    1  0.5496865E-006  0.3034262E+02  0.7818608E-02  0.1402178E+00
         21   -1    0    0  501  502  0.00000000000E+00  0.00000000000E+00  0.68388565302E+02  0.68388565302E+02  0.00000000000E+00 0.  1.
         21   -1    0    0  502  503 -0.00000000000E+00 -0.00000000000E+00 -0.46763906093E+02  0.46763906093E+02  0.00000000000E+00 0. -1.
        -13    1    1    2    0    0  0.29751644212E+02 -0.62102425759E+01 -0.56169640864E+01  0.30907748150E+02  0.10566000000E+00 0.  1.
         13    1    1    2    0    0 -0.26651052183E+02  0.20382935321E+02  0.19110725138E+01  0.33606636204E+02  0.10566000000E+00 0. -1.
          4    1    1    2  501    0  0.11094035552E+02  0.25966251170E+01  0.26283703022E+02  0.28647044026E+02  0.00000000000E+00 0.  1.
         -4    1    1    2    0  503 -0.14194627581E+02 -0.16769317862E+02 -0.95315224047E+00  0.21991043015E+02  0.00000000000E+00 0. -1.
</event>
<event>
 6    1  0.5496865E-006  0.1020284E+03  0.7818608E-02  0.1161242E+00
         21   -1    0    0  501  502  0.00000000000E+00  0.00000000000E+00  0.28622332455E+03  0.28622332455E+03  0.00000000000E+00 0. -1.
         21   -1    0    0  502  503 -0.00000000000E+00 -0.00000000000E+00 -0.16663515785E+03  0.16663515785E+03  0.00000000000E+00 0.  1.
        -13    1    1    2    0    0 -0.91530599039E+02 -0.30297168636E+02 -0.30787122350E+02  0.10121080503E+03  0.10566000000E+00 0.  1.
         13    1    1    2    0    0  0.12278343809E+03  0.25582842747E+02  0.21050641532E+03  0.24503717385E+03  0.10566000000E+00 0. -1.
          4    1    1    2  501    0 -0.25607624803E+02 -0.58642206569E+01  0.15186645603E+02  0.30344253767E+02  0.00000000000E+00 0.  1.
         -4    1    1    2    0  503 -0.56452142521E+01  0.10578546546E+02 -0.75317771880E+02  0.76266249757E+02  0.00000000000E+00 0. -1.
</event>
<event>
 6    1  0.5496865E-006  0.1859175E+03  0.7818608E-02  0.1070244E+00
         21   -1    0    0  501  502  0.00000000000E+00  0.00000000000E+00  0.35136544273E+03  0.35136544273E+03  0.00000000000E+00 0. -1.
         21   -1    0    0  502  503 -0.00000000000E+00 -0.00000000000E+00 -0.39862520081E+03  0.39862520081E+03  0.00000000000E+00 0. -1.
        -13    1    1    2    0    0 -0.80800261298E+02  0.16104546575E+03  0.15813027923E+03  0.23972801388E+03  0.10566000000E+00 0.  1.
         13    1    1    2    0    0  0.69946567528E+02 -0.17156463237E+03  0.29757885447E+02  0.18764990887E+03  0.10566000000E+00 0. -1.
          4    1    1    2  501    0  0.31969973832E+01  0.17750570700E+02  0.41768406348E+02  0.45496190184E+02  0.00000000000E+00 0.  1.
         -4    1    1    2    0  503  0.76566963867E+01 -0.72314040830E+01 -0.27691632911E+03  0.27711653061E+03  0.00000000000E+00 0. -1.
</event>
<event>
 6    1  0.5496865E-006  0.9899377E+02  0.7818608E-02  0.1166231E+00
         21   -1    0    0  503  502  0.00000000000E+00  0.00000000000E+00  0.90770738048E+03  0.90770738048E+03  0.00000000000E+00 0. -1.
         21   -1    0    0  501  503 -0.00000000000E+00 -0.00000000000E+00 -0.87863944769E+02  0.87863944769E+02  0.00000000000E+00 0.  1.
        -13    1    1    2    0    0  0.93913934328E+02 -0.48826996678E+02  0.56719308811E+00  0.10585006159E+03  0.10566000000E+00 0.  1.
         13    1    1    2    0    0 -0.15167156759E+03 -0.10651547635E+02  0.61472572464E+03  0.63324990926E+03  0.10566000000E+00 0. -1.
          4    1    1    2  501    0 -0.45112076760E+01  0.23528217284E+02 -0.13063118916E+02  0.27286866421E+02  0.00000000000E+00 0.  1.
         -4    1    1    2    0  502  0.62268840942E+02  0.35950327030E+02  0.21761363690E+03  0.22918448798E+03  0.00000000000E+00 0. -1.
</event>
<event>
 6    1  0.5496865E-006  0.2682700E+03  0.7818608E-02  0.1040597E+00
         21   -1    0    0  501  502  0.00000000000E+00  0.00000000000E+00  0.84777153640E+03  0.84777153640E+03  0.00000000000E+00 0.  1.
         21   -1    0    0  502  503 -0.00000000000E+00 -0.00000000000E+00 -0.27199321849E+03  0.27199321849E+03  0.00000000000E+00 0.  1.
        -13    1    1    2    0    0 -0.15792095080E+03 -0.33221242821E+03  0.20741748937E+03  0.42228681038E+03  0.10566000000E+00 0.  1.
         13    1    1    2    0    0  0.12023644791E+03  0.85856901544E+02  0.24963794902E+02  0.14983795637E+03  0.10566000000E+00 0. -1.
          4    1    1    2  501    0  0.43174402072E+02  0.23683582172E+03  0.41253159986E+03  0.47763747375E+03  0.00000000000E+00 0.  1.
         -4    1    1    2    0  503 -0.54898991857E+01  0.95197049427E+01 -0.69134566221E+02  0.70002514397E+02  0.00000000000E+00 0. -1.
</event>
<event>
 6    1  0.5496865E-006  0.7003051E+02  0.7818608E-02  0.1226647E+00
         21   -1    0    0  503  502  0.00000000000E+00  0.00000000000E+00  0.16641907593E+03  0.16641907593E+03  0.00000000000E+00 0.  1.
         21   -1    0    0  501  503 -0.00000000000E+00 -0.00000000000E+00 -0.83259784150E+02  0.83259784150E+02  0.00000000000E+00 0. -1.
        -13    1    1    2    0    0  0.56447884362E+02 -0.49033460078E+02  0.84875862712E+02  0.11311307215E+03  0.10566000000E+00 0.  1.
         13    1    1    2    0    0 -0.41818297301E+02  0.71946127531E+02 -0.22342603748E+01  0.83246731703E+02  0.10566000000E+00 0. -1.
          4    1    1    2  501    0 -0.59837555952E+01 -0.32614465516E+02 -0.12011735891E+02  0.35267414011E+02  0.00000000000E+00 0.  1.
         -4    1    1    2    0  502 -0.86458314659E+01  0.97017980635E+01  0.12529425331E+02  0.18051642212E+02  0.00000000000E+00 0. -1.
</event>
<event>
 6    1  0.5496865E-006  0.6375208E+02  0.7818608E-02  0.1244141E+00
         21   -1    0    0  501  502  0.00000000000E+00  0.00000000000E+00  0.11597921378E+03  0.11597921378E+03  0.00000000000E+00 0.  1.
         21   -1    0    0  502  503 -0.00000000000E+00 -0.00000000000E+00 -0.69395235128E+03  0.69395235128E+03  0.00000000000E+00 0.  1.
        -13    1    1    2    0    0 -0.60890909401E+02  0.57438428199E+02 -0.28229748953E+03  0.29444653104E+03  0.10566000000E+00 0.  1.
         13    1    1    2    0    0  0.46032145768E+02 -0.11913926279E+02 -0.51029902865E+02  0.69749281243E+02  0.10566000000E+00 0. -1.
          4    1    1    2  501    0  0.73350478653E+01 -0.32190970589E+02  0.97658902329E+02  0.10308890687E+03  0.00000000000E+00 0.  1.
         -4    1    1    2    0  503  0.75237157682E+01 -0.13333531332E+02 -0.34230464743E+03  0.34264684591E+03  0.00000000000E+00 0. -1.
</event>
<event>
 6    1  0.5496865E-006  0.6730123E+02  0.7818608E-02  0.1233992E+00
         21   -1    0    0  503  502  0.00000000000E+00  0.00000000000E+00  0.20875840191E+03  0.20875840191E+03  0.00000000000E+00 0.  1.
         21   -1    0    0  501  503 -0.00000000000E+00 -0.00000000000E+00 -0.11025487024E+03  0.11025487024E+03  0.00000000000E+00 0. -1.
        -13    1    1    2    0    0 -0.37034173358E+02 -0.62735864648E+02  0.90976155199E+02  0.11655037833E+03  0.10566000000E+00 0.  1.
         13    1    1    2    0    0  0.59791436669E+02  0.38421295945E+02 -0.72197148261E+02  0.10130968000E+03  0.10566000000E+00 0. -1.
          4    1    1    2  501    0  0.16518349116E+02  0.92529890038E+00  0.20994089501E+02  0.26729456215E+02  0.00000000000E+00 0.  1.
         -4    1    1    2    0  502 -0.39275612427E+02  0.23389269803E+02  0.58730435235E+02  0.74423757607E+02  0.00000000000E+00 0. -1.
</event>
<event>
 6    1  0.5496865E-006  0.1275164E+03  0.7818608E-02  0.1125674E+00
         21   -1    0    0  501  502  0.00000000000E+00  0.00000000000E+00  0.22230780051E+03  0.22230780051E+03  0.00000000000E+00 0. -1.
         21   -1    0    0  502  503 -0.00000000000E+00 -0.00000000000E+00 -0.17266560883E+03  0.17266560883E+03  0.00000000000E+00 0.  1.
        -13    1    1    2    0    0 -0.31532719551E+01 -0.85018531420E+02 -0.77892219768E+02  0.11534861453E+03  0.10566000000E+00 0.  1.
         13    1    1    2    0    0  0.41485895803E+02  0.13441700268E+03  0.12353378674E+03  0.18721543149E+03  0.10566000000E+00 0. -1.
          4    1    1    2  501    0 -0.11820955551E+02  0.66688587634E+01  0.23721644120E+02  0.27329929878E+02  0.00000000000E+00 0.  1.
         -4    1    1    2    0  503 -0.26511668298E+02 -0.56067330021E+02 -0.19721019408E+02  0.65079433449E+02  0.00000000000E+00 0. -1.
</event>
<event>
 6    1  0.5496865E-006  0.7409244E+02  0.7818608E-02  0.1216382E+00
         21   -1    0    0  503  502  0.00000000000E+00  0.00000000000E+00  0.12424396400E+03  0.12424396400E+03  0.00000000000E+00 0. -1.
         21   -1    0    0  501  503 -0.00000000000E+00 -0.00000000000E+00 -0.19884155474E+03  0.19884155474E+03  0.00000000000E+00 0. -1.
        -13    1    1    2    0    0  0.29271425470E+02  0.68458183994E+02 -0.68372070112E+02  0.10108457073E+03  0.10566000000E+00 0.  1.
         13    1    1    2    0    0 -0.33049767520E+02 -0.65860077428E+02 -0.86956693377E+02  0.11397944823E+03  0.10566000000E+00 0. -1.
          4    1    1    2  501    0 -0.28285767162E+01 -0.15582294550E+02 -0.82490563788E+01  0.17856530481E+02  0.00000000000E+00 0.  1.
         -4    1    1    2    0  502  0.66069187653E+01  0.12984187984E+02  0.88980229128E+02  0.90164969300E+02  0.00000000000E+00 0. -1.
</event>
<event>
 6    1  0.5496865E-006  0.1111996E+03  0.7818608E-02  0.1173951E+00
         21   -1    0    0  501  502  0.00000000000E+00  0.00000000000E+00  0.12405034184E+03  0.12405034184E+03  0.00000000000E+00 0. -1.
         21   -1    0    0  502  503 -0.00000000000E+00 -0.00000000000E+00 -0.19450901180E+04  0.19450901180E+04  0.00000000000E+00 0. -1.
        -13    1    1    2    0    0  0.65155390086E+02 -0.44428892447E+02 -0.11712115547E+03  0.14119676895E+03  0.10566000000E+00 0.  1.
         13    1    1    2    0    0  0.49058375168E+01 -0.14913063401E+02  0.73748554685E+02  0.75401108638E+02  0.10566000000E+00 0. -1.
          4    1    1    2  501    0 -0.11101793114E+03  0.10048521694E+03 -0.11485302923E+03  0.18871533637E+03  0.00000000000E+00 0.  1.
         -4    1    1    2    0  503  0.40956703538E+02 -0.41143261088E+02 -0.16628141462E+04  0.16638272459E+04  0.00000000000E+00 0. -1.
</event>
