<event>
 6    1  0.2415530E-005  0.9950761E+03  0.7818608E-02  0.1014288E+00
          4   -1    0    0  502    0 -0.00000000000E+00  0.00000000000E+00  0.97756696701E+03  0.97756696701E+03  0.00000000000E+00 0.  1.
         21   -1    0    0  501  502  0.00000000000E+00 -0.00000000000E+00 -0.36577682401E+03  0.36577682401E+03  0.00000000000E+00 0.  1.
    9000010    2    1    2  501    0 -0.52366790548E+02 -0.34025147519E+02  0.32047398578E+03  0.10454090565E+04  0.99311455957E+03 0.  0.
        -13    1    3    3    0    0  0.23800542249E+03 -0.16951255297E+03  0.56917122975E+03  0.63979448785E+03  0.10566000000E+00 0.  1.
          4    1    3    3  501    0 -0.29037221304E+03  0.13548740545E+03 -0.24869724397E+03  0.40561456865E+03  0.00000000000E+00 0.  1.
         13    1    1    2    0    0  0.52366790548E+02  0.34025147519E+02  0.29131615721E+03  0.29793473452E+03  0.10566000000E+00 0. -1.
<mgrwt>
<rscale>  1 0.49805275E+03</rscale>
<asrwt>0</asrwt>
<pdfrwt beam="2">  1       21 0.56273358E-01 0.99507614E+03</pdfrwt>
<pdfrwt beam="1">  1        4 0.15039492E+00 0.99507614E+03</pdfrwt>
<totfact> 0.34458892E+01</totfact>
</mgrwt>
</event>
<event>
 6    1  0.2415530E-005  0.1011759E+04  0.7818608E-02  0.9798786E-01
          4   -1    0    0  502    0 -0.00000000000E+00  0.00000000000E+00  0.10883883981E+04  0.10883883981E+04  0.00000000000E+00 0.  1.
         21   -1    0    0  501  502  0.00000000000E+00 -0.00000000000E+00 -0.32459167084E+03  0.32459167084E+03  0.00000000000E+00 0.  1.
    9000010    2    1    2  501    0  0.15858741948E+02  0.17622353456E+03  0.65493768405E+03  0.12052385558E+04  0.99616784357E+03 0.  0.
        -13    1    3    3    0    0  0.44574135075E+03  0.30723308808E+03  0.23500821459E+03  0.59017488448E+03  0.10566000000E+00 0.  1.
          4    1    3    3  501    0 -0.42988260880E+03 -0.13100955352E+03  0.41992946946E+03  0.61506367132E+03  0.00000000000E+00 0.  1.
         13    1    1    2    0    0 -0.15858741948E+02 -0.17622353456E+03  0.10885904322E+03  0.20774151315E+03  0.10566000000E+00 0. -1.
<mgrwt>
<rscale>  1 0.65427720E+03</rscale>
<asrwt>0</asrwt>
<pdfrwt beam="2">  1       21 0.49937181E-01 0.10117592E+04</pdfrwt>
<pdfrwt beam="1">  1        4 0.16744437E+00 0.10117592E+04</pdfrwt>
<totfact> 0.33258400E+01</totfact>
</mgrwt>
</event>
<event>
 6    1  0.2415530E-005  0.1111862E+04  0.7818608E-02  0.9426674E-01
          4   -1    0    0  502    0 -0.00000000000E+00  0.00000000000E+00  0.10302623603E+04  0.10302623603E+04  0.00000000000E+00 0.  1.
         21   -1    0    0  501  502  0.00000000000E+00 -0.00000000000E+00 -0.66879808013E+03  0.66879808013E+03  0.00000000000E+00 0.  1.
    9000010    2    1    2  501    0  0.37637547169E+03 -0.29055357091E+03  0.17128751558E+02  0.11119941403E+04  0.10050660181E+04 0.  0.
        -13    1    3    3    0    0  0.31182561182E+02  0.36616396530E+03 -0.29112723432E+02  0.36864069693E+03  0.10566000000E+00 0.  1.
          4    1    3    3  501    0  0.34519291051E+03 -0.65671753621E+03  0.46241474990E+02  0.74335344341E+03  0.00000000000E+00 0.  1.
         13    1    1    2    0    0 -0.37637547169E+03  0.29055357091E+03  0.34433552858E+03  0.58706630006E+03  0.10566000000E+00 0. -1.
<mgrwt>
<rscale>  1 0.89912685E+03</rscale>
<asrwt>0</asrwt>
<pdfrwt beam="2">  1       21 0.10289201E+00 0.11118622E+04</pdfrwt>
<pdfrwt beam="1">  1        4 0.15850190E+00 0.11118622E+04</pdfrwt>
<totfact> 0.72018902E+00</totfact>
</mgrwt>
</event>
<event>
 6    1  0.2415530E-005  0.1011767E+04  0.7818608E-02  0.9916101E-01
          4   -1    0    0  502    0 -0.00000000000E+00  0.00000000000E+00  0.63720529110E+03  0.63720529110E+03  0.00000000000E+00 0.  1.
         21   -1    0    0  501  502  0.00000000000E+00 -0.00000000000E+00 -0.50475423813E+03  0.50475423813E+03  0.00000000000E+00 0.  1.
    9000010    2    1    2  501    0 -0.61812017605E+02 -0.10391335968E+03  0.13680035864E+03  0.10209734165E+04  0.10045166337E+04 0.  0.
        -13    1    3    3    0    0  0.25941811130E+03  0.28332663172E+03  0.30496013457E+03  0.49048183611E+03  0.10566000000E+00 0.  1.
          4    1    3    3  501    0 -0.32123012891E+03 -0.38723999140E+03 -0.16815977593E+03  0.53049158042E+03  0.00000000000E+00 0.  1.
         13    1    1    2    0    0  0.61812017605E+02  0.10391335968E+03 -0.43493056686E+01  0.12098611269E+03  0.10566000000E+00 0. -1.
<mgrwt>
<rscale>  1 0.59487279E+03</rscale>
<asrwt>0</asrwt>
<pdfrwt beam="2">  1       21 0.77654498E-01 0.10117670E+04</pdfrwt>
<pdfrwt beam="1">  1        4 0.98031583E-01 0.10117670E+04</pdfrwt>
<totfact> 0.48945514E+01</totfact>
</mgrwt>
</event>
<event>
 6    1  0.2415530E-005  0.1051073E+04  0.7818608E-02  0.9714517E-01
         21   -1    0    0  501  502  0.00000000000E+00  0.00000000000E+00  0.39299994954E+03  0.39299994954E+03  0.00000000000E+00 0.  1.
          4   -1    0    0  502    0 -0.00000000000E+00 -0.00000000000E+00 -0.10190664987E+04  0.10190664987E+04  0.00000000000E+00 0.  1.
    9000010    2    1    2  501    0 -0.70902372935E+02  0.19624241476E+03 -0.46932713033E+03  0.11510961656E+04  0.10301534815E+04 0.  0.
        -13    1    3    3    0    0 -0.97427028167E+02 -0.34755667562E+03 -0.48721739052E+03  0.60635671463E+03  0.10566000000E+00 0.  1.
          4    1    3    3  501    0  0.26524655232E+02  0.54379909038E+03  0.17890260195E+02  0.54473945097E+03  0.00000000000E+00 0.  1.
         13    1    1    2    0    0  0.70902372935E+02 -0.19624241476E+03 -0.15673941882E+03  0.26097028263E+03  0.10566000000E+00 0. -1.
<mgrwt>
<rscale>  1 0.70159021E+03</rscale>
<asrwt>0</asrwt>
<pdfrwt beam="1">  1       21 0.60461530E-01 0.10510730E+04</pdfrwt>
<pdfrwt beam="2">  1        4 0.15677946E+00 0.10510730E+04</pdfrwt>
<totfact> 0.26125820E+01</totfact>
</mgrwt>
</event>
<event>
 6    1  0.2415530E-005  0.1050538E+04  0.7818608E-02  0.9606517E-01
          4   -1    0    0  502    0 -0.00000000000E+00  0.00000000000E+00  0.11365708729E+04  0.11365708729E+04  0.00000000000E+00 0.  1.
         21   -1    0    0  501  502  0.00000000000E+00 -0.00000000000E+00 -0.44092227247E+03  0.44092227247E+03  0.00000000000E+00 0. -1.
    9000010    2    1    2  501    0  0.94862642996E+02  0.28576491521E+03  0.32438663106E+03  0.10994806258E+04  0.10064643324E+04 0.  0.
        -13    1    3    3    0    0  0.29397861624E+03  0.34258847405E+03 -0.23074750086E+03  0.50698590678E+03  0.10566000000E+00 0.  1.
          4    1    3    3  501    0 -0.19911597325E+03 -0.56823558844E+02  0.55513413192E+03  0.59249471902E+03  0.00000000000E+00 0.  1.
         13    1    1    2    0    0 -0.94862642996E+02 -0.28576491521E+03  0.37126196932E+03  0.47801251953E+03  0.10566000000E+00 0. -1.
<mgrwt>
<rscale>  1 0.76866345E+03</rscale>
<asrwt>0</asrwt>
<pdfrwt beam="2">  1       21 0.67834196E-01 0.10505384E+04</pdfrwt>
<pdfrwt beam="1">  1        4 0.17485706E+00 0.10505384E+04</pdfrwt>
<totfact> 0.14856764E+01</totfact>
</mgrwt>
</event>
<event>
 6    1  0.2415530E-005  0.1787008E+04  0.7818608E-02  0.8759579E-01
         21   -1    0    0  501  502  0.00000000000E+00  0.00000000000E+00  0.16024898977E+04  0.16024898977E+04  0.00000000000E+00 0. -1.
          4   -1    0    0  502    0 -0.00000000000E+00 -0.00000000000E+00 -0.27570364123E+04  0.27570364123E+04  0.00000000000E+00 0.  1.
    9000010    2    1    2  501    0  0.81339387980E+03 -0.12297317847E+04  0.76096984826E+03  0.19422855662E+04  0.10097268169E+04 0.  0.
        -13    1    3    3    0    0  0.22861935119E+03  0.69924327681E+02 -0.11930430601E+03  0.26718859993E+03  0.10566000000E+00 0.  1.
          4    1    3    3  501    0  0.58477452862E+03 -0.12996561124E+04  0.88027415426E+03  0.16750969663E+04  0.00000000000E+00 0.  1.
         13    1    1    2    0    0 -0.81339387980E+03  0.12297317847E+04 -0.19155163629E+04  0.24172407438E+04  0.10566000000E+00 0. -1.
<mgrwt>
<rscale>  1 0.17031331E+04</rscale>
<asrwt>0</asrwt>
<pdfrwt beam="1">  1       21 0.24653691E+00 0.17870081E+04</pdfrwt>
<pdfrwt beam="2">  1        4 0.42415944E+00 0.17870081E+04</pdfrwt>
<totfact> 0.87873809E-03</totfact>
</mgrwt>
</event>
<event>
 6    1  0.2415530E-005  0.8582473E+03  0.7818608E-02  0.1029362E+00
          4   -1    0    0  502    0 -0.00000000000E+00  0.00000000000E+00  0.42940341579E+03  0.42940341579E+03  0.00000000000E+00 0.  1.
         21   -1    0    0  501  502  0.00000000000E+00 -0.00000000000E+00 -0.99032355703E+03  0.99032355703E+03  0.00000000000E+00 0.  1.
    9000010    2    1    2  501    0 -0.42802239274E+02  0.44545387359E+02 -0.79970528698E+03  0.11730800993E+04  0.85602105707E+03 0.  0.
        -13    1    3    3    0    0  0.40657771543E+03 -0.86406985948E+00 -0.37844579770E+03  0.55545244464E+03  0.10566000000E+00 0.  1.
          4    1    3    3  501    0 -0.44937995470E+03  0.45409457218E+02 -0.42125948928E+03  0.61762765466E+03  0.00000000000E+00 0.  1.
         13    1    1    2    0    0  0.42802239274E+02 -0.44545387359E+02  0.23878514574E+03  0.24664687351E+03  0.10566000000E+00 0. -1.
<mgrwt>
<rscale>  1 0.44454438E+03</rscale>
<asrwt>0</asrwt>
<pdfrwt beam="2">  1       21 0.15235747E+00 0.85824727E+03</pdfrwt>
<pdfrwt beam="1">  1        4 0.66062065E-01 0.85824727E+03</pdfrwt>
<totfact> 0.22278519E+01</totfact>
</mgrwt>
</event>
<event>
 6    1  0.2415530E-005  0.1007442E+04  0.7818608E-02  0.9832092E-01
          4   -1    0    0  502    0 -0.00000000000E+00  0.00000000000E+00  0.12960382108E+04  0.12960382108E+04  0.00000000000E+00 0.  1.
         21   -1    0    0  501  502  0.00000000000E+00 -0.00000000000E+00 -0.34847221662E+03  0.34847221662E+03  0.00000000000E+00 0.  1.
    9000010    2    1    2  501    0  0.14934311115E+03  0.59357641122E+02  0.41733891094E+03  0.10904639805E+04  0.99454171945E+03 0.  0.
        -13    1    3    3    0    0 -0.28654953172E+03  0.29883579233E+03 -0.38519599312E+02  0.41580913362E+03  0.10566000000E+00 0.  1.
          4    1    3    3  501    0  0.43589264287E+03 -0.23947815120E+03  0.45585851025E+03  0.67465484685E+03  0.00000000000E+00 0.  1.
         13    1    1    2    0    0 -0.14934311115E+03 -0.59357641122E+02  0.53022708323E+03  0.55404644694E+03  0.10566000000E+00 0. -1.
<mgrwt>
<rscale>  1 0.63668373E+03</rscale>
<asrwt>0</asrwt>
<pdfrwt beam="2">  1       21 0.53611111E-01 0.10074423E+04</pdfrwt>
<pdfrwt beam="1">  1        4 0.19939049E+00 0.10074423E+04</pdfrwt>
<totfact> 0.17138889E+01</totfact>
</mgrwt>
</event>
<event>
 6    1  0.2415530E-005  0.1029848E+04  0.7818608E-02  0.9727778E-01
         21   -1    0    0  501  502  0.00000000000E+00  0.00000000000E+00  0.66064055544E+03  0.66064055544E+03  0.00000000000E+00 0.  1.
          4   -1    0    0  502    0 -0.00000000000E+00 -0.00000000000E+00 -0.59316221624E+03  0.59316221624E+03  0.00000000000E+00 0.  1.
    9000010    2    1    2  501    0 -0.18912746124E+03  0.96270184259E+02  0.11523678124E+03  0.10362757046E+04  0.10077453424E+04 0.  0.
        -13    1    3    3    0    0 -0.32924282170E+03  0.37255483810E+03  0.38237095961E+03  0.62722045961E+03  0.10566000000E+00 0.  1.
          4    1    3    3  501    0  0.14011536046E+03 -0.27628465384E+03 -0.26713417837E+03  0.40905524497E+03  0.00000000000E+00 0.  1.
         13    1    1    2    0    0  0.18912746124E+03 -0.96270184259E+02 -0.47758442042E+02  0.21752706710E+03  0.10566000000E+00 0. -1.
<mgrwt>
<rscale>  1 0.69386720E+03</rscale>
<asrwt>0</asrwt>
<pdfrwt beam="1">  1       21 0.10163701E+00 0.10298484E+04</pdfrwt>
<pdfrwt beam="2">  1        4 0.91255725E-01 0.10298484E+04</pdfrwt>
<totfact> 0.30291090E+01</totfact>
</mgrwt>
</event>
<event>
 6    1  0.2415530E-005  0.1090421E+04  0.7818608E-02  0.9462035E-01
          4   -1    0    0  502    0 -0.00000000000E+00  0.00000000000E+00  0.11097929297E+04  0.11097929297E+04  0.00000000000E+00 0.  1.
         21   -1    0    0  501  502  0.00000000000E+00 -0.00000000000E+00 -0.62201095533E+03  0.62201095533E+03  0.00000000000E+00 0.  1.
    9000010    2    1    2  501    0 -0.11541039402E+01  0.44475339521E+03  0.26084227775E+02  0.10907331129E+04  0.99559601352E+03 0.  0.
        -13    1    3    3    0    0  0.45056438708E+03 -0.30101640602E+01 -0.34058976031E+02  0.45185988205E+03  0.10566000000E+00 0.  1.
          4    1    3    3  501    0 -0.45171849102E+03  0.44776355927E+03  0.60143203806E+02  0.63887323085E+03  0.00000000000E+00 0.  1.
         13    1    1    2    0    0  0.11541039402E+01 -0.44475339521E+03  0.46169774657E+03  0.64107077211E+03  0.10566000000E+00 0. -1.
<mgrwt>
<rscale>  1 0.87141673E+03</rscale>
<asrwt>0</asrwt>
<pdfrwt beam="2">  1       21 0.95693993E-01 0.10904212E+04</pdfrwt>
<pdfrwt beam="1">  1        4 0.17073737E+00 0.10904212E+04</pdfrwt>
<totfact> 0.70229766E+00</totfact>
</mgrwt>
</event>
<event>
 6    1  0.2415530E-005  0.1017116E+04  0.7818608E-02  0.9716194E-01
          4   -1    0    0  502    0 -0.00000000000E+00  0.00000000000E+00  0.32611323350E+03  0.32611323350E+03  0.00000000000E+00 0.  1.
         21   -1    0    0  501  502  0.00000000000E+00 -0.00000000000E+00 -0.13242175670E+04  0.13242175670E+04  0.00000000000E+00 0.  1.
    9000010    2    1    2  501    0  0.73113574597E+02  0.21698806679E+03 -0.99274899733E+03  0.14212934526E+04  0.99100710938E+03 0.  0.
        -13    1    3    3    0    0 -0.38040564152E+03  0.22438474604E+03 -0.82854626587E+03  0.93890675373E+03  0.10566000000E+00 0.  1.
          4    1    3    3  501    0  0.45351921611E+03 -0.73966792487E+01 -0.16420273146E+03  0.48238669889E+03  0.00000000000E+00 0.  1.
         13    1    1    2    0    0 -0.73113574597E+02 -0.21698806679E+03 -0.53553361494E+01  0.22903734785E+03  0.10566000000E+00 0. -1.
<mgrwt>
<rscale>  1 0.70060734E+03</rscale>
<asrwt>0</asrwt>
<pdfrwt beam="2">  1       21 0.20372578E+00 0.10171158E+04</pdfrwt>
<pdfrwt beam="1">  1        4 0.50171267E-01 0.10171158E+04</pdfrwt>
<totfact> 0.16653561E+01</totfact>
</mgrwt>
</event>
<event>
 6    1  0.2415530E-005  0.1019644E+04  0.7818608E-02  0.1004017E+00
         21   -1    0    0  501  502  0.00000000000E+00  0.00000000000E+00  0.40667075233E+03  0.40667075233E+03  0.00000000000E+00 0.  1.
          4   -1    0    0  502    0 -0.00000000000E+00 -0.00000000000E+00 -0.80464609120E+03  0.80464609120E+03  0.00000000000E+00 0.  1.
    9000010    2    1    2  501    0 -0.25619836820E+02 -0.75530198817E+02 -0.26052227375E+03  0.10524000626E+04  0.10165199702E+04 0.  0.
        -13    1    3    3    0    0 -0.19855559125E+03  0.40768524935E+03 -0.29009738042E+03  0.53831968815E+03  0.10566000000E+00 0.  1.
          4    1    3    3  501    0  0.17293575443E+03 -0.48321544817E+03  0.29575106667E+02  0.51408037450E+03  0.00000000000E+00 0.  1.
         13    1    1    2    0    0  0.25619836820E+02  0.75530198817E+02 -0.13745306512E+03  0.15891678088E+03  0.10566000000E+00 0. -1.
<mgrwt>
<rscale>  1 0.53923592E+03</rscale>
<asrwt>0</asrwt>
<pdfrwt beam="1">  1       21 0.62564732E-01 0.10196441E+04</pdfrwt>
<pdfrwt beam="2">  1        4 0.12379171E+00 0.10196441E+04</pdfrwt>
<totfact> 0.45139197E+01</totfact>
</mgrwt>
</event>
<event>
 6    1  0.2415530E-005  0.1273275E+04  0.7818608E-02  0.9180137E-01
          4   -1    0    0  502    0 -0.00000000000E+00  0.00000000000E+00  0.16800187841E+04  0.16800187841E+04  0.00000000000E+00 0.  1.
         21   -1    0    0  501  502  0.00000000000E+00 -0.00000000000E+00 -0.71378297421E+03  0.71378297421E+03  0.00000000000E+00 0. -1.
    9000010    2    1    2  501    0 -0.63849888730E+03  0.44620041297E+03  0.17808321327E+03  0.12856681182E+04  0.10072006958E+04 0.  0.
        -13    1    3    3    0    0 -0.51908734444E+03  0.45511306181E+03  0.55778862764E+03  0.88752900486E+03  0.10566000000E+00 0.  1.
          4    1    3    3  501    0 -0.11941154286E+03 -0.89126488433E+01 -0.37970541437E+03  0.39813911335E+03  0.00000000000E+00 0.  1.
         13    1    1    2    0    0  0.63849888730E+03 -0.44620041297E+03  0.78815259665E+03  0.11081336401E+04  0.10566000000E+00 0. -1.
<mgrwt>
<rscale>  1 0.11260823E+04</rscale>
<asrwt>0</asrwt>
<pdfrwt beam="2">  1       21 0.10981277E+00 0.12732749E+04</pdfrwt>
<pdfrwt beam="1">  1        4 0.25846443E+00 0.12732749E+04</pdfrwt>
<totfact> 0.12977417E+00</totfact>
</mgrwt>
</event>
<event>
 6    1  0.2415530E-005  0.7193345E+03  0.7818608E-02  0.1021537E+00
          4   -1    0    0  502    0 -0.00000000000E+00  0.00000000000E+00  0.15573505778E+04  0.15573505778E+04  0.00000000000E+00 0.  1.
         21   -1    0    0  501  502  0.00000000000E+00 -0.00000000000E+00 -0.13526689350E+03  0.13526689350E+03  0.00000000000E+00 0.  1.
    9000010    2    1    2  501    0 -0.61323568200E+02  0.11759376947E+03  0.89050800797E+03  0.11447474270E+04  0.70700303017E+03 0.  0.
        -13    1    3    3    0    0 -0.31129921712E+03 -0.11676030224E+02  0.13683385002E+03  0.34024556711E+03  0.10566000000E+00 0.  1.
          4    1    3    3  501    0  0.24997564892E+03  0.12926979970E+03  0.75367415795E+03  0.80450185987E+03  0.00000000000E+00 0.  1.
         13    1    1    2    0    0  0.61323568200E+02 -0.11759376947E+03  0.53157567634E+03  0.54787004434E+03  0.10566000000E+00 0. -1.
<mgrwt>
<rscale>  1 0.47136027E+03</rscale>
<asrwt>0</asrwt>
<pdfrwt beam="2">  1       21 0.20810292E-01 0.71933453E+03</pdfrwt>
<pdfrwt beam="1">  1        4 0.23959238E+00 0.71933453E+03</pdfrwt>
<totfact> 0.67911113E+01</totfact>
</mgrwt>
</event>
<event>
 6    1  0.2415530E-005  0.1017659E+04  0.7818608E-02  0.9740065E-01
         21   -1    0    0  501  502  0.00000000000E+00  0.00000000000E+00  0.35204297237E+03  0.35204297237E+03  0.00000000000E+00 0.  1.
          4   -1    0    0  502    0 -0.00000000000E+00 -0.00000000000E+00 -0.14483510612E+04  0.14483510612E+04  0.00000000000E+00 0.  1.
    9000010    2    1    2  501    0 -0.17848693996E+03  0.11275764709E+03 -0.43594415392E+03  0.11071030323E+04  0.99551893209E+03 0.  0.
        -13    1    3    3    0    0 -0.24497497611E+03 -0.29255337456E+03 -0.56036348991E+03  0.67794355803E+03  0.10566000000E+00 0.  1.
          4    1    3    3  501    0  0.66488036149E+02  0.40531102164E+03  0.12441933599E+03  0.42915947430E+03  0.00000000000E+00 0.  1.
         13    1    1    2    0    0  0.17848693996E+03 -0.11275764709E+03 -0.66036393490E+03  0.69329100123E+03  0.10566000000E+00 0. -1.
<mgrwt>
<rscale>  1 0.68680640E+03</rscale>
<asrwt>0</asrwt>
<pdfrwt beam="1">  1       21 0.54160457E-01 0.10176590E+04</pdfrwt>
<pdfrwt beam="2">  1        4 0.22282324E+00 0.10176590E+04</pdfrwt>
<totfact> 0.11801692E+01</totfact>
</mgrwt>
</event>
<event>
 6    1  0.2415530E-005  0.1015696E+04  0.7818608E-02  0.9882279E-01
         21   -1    0    0  501  502  0.00000000000E+00  0.00000000000E+00  0.31106156161E+03  0.31106156161E+03  0.00000000000E+00 0.  1.
          4   -1    0    0  502    0 -0.00000000000E+00 -0.00000000000E+00 -0.10665528184E+04  0.10665528184E+04  0.00000000000E+00 0.  1.
    9000010    2    1    2  501    0 -0.11657024578E+03 -0.64550729671E+02 -0.63423875228E+03  0.11974544513E+04  0.10069175483E+04 0.  0.
        -13    1    3    3    0    0 -0.72094059763E+02  0.39040454530E+03  0.22094377527E+02  0.39761971170E+03  0.10566000000E+00 0.  1.
          4    1    3    3  501    0 -0.44476186020E+02 -0.45495527497E+03 -0.65633312981E+03  0.79983473957E+03  0.00000000000E+00 0.  1.
         13    1    1    2    0    0  0.11657024578E+03  0.64550729671E+02 -0.12125250447E+03  0.18015992869E+03  0.10566000000E+00 0. -1.
<mgrwt>
<rscale>  1 0.61127862E+03</rscale>
<asrwt>0</asrwt>
<pdfrwt beam="1">  1       21 0.47855625E-01 0.10156960E+04</pdfrwt>
<pdfrwt beam="2">  1        4 0.16408505E+00 0.10156960E+04</pdfrwt>
<totfact> 0.38562949E+01</totfact>
</mgrwt>
</event>
<event>
 6    1  0.2415530E-005  0.1017867E+04  0.7818608E-02  0.9746116E-01
          4   -1    0    0  502    0 -0.00000000000E+00  0.00000000000E+00  0.99612517136E+03  0.99612517136E+03  0.00000000000E+00 0.  1.
         21   -1    0    0  501  502  0.00000000000E+00 -0.00000000000E+00 -0.42402079988E+03  0.42402079988E+03  0.00000000000E+00 0.  1.
    9000010    2    1    2  501    0 -0.13149544948E+03 -0.15959649196E+03  0.26828642043E+03  0.10526307307E+04  0.99664023517E+03 0.  0.
        -13    1    3    3    0    0 -0.47871525377E+03 -0.36691657493E+03  0.23334457699E+03  0.64671923578E+03  0.10566000000E+00 0.  1.
          4    1    3    3  501    0  0.34721980429E+03  0.20732008297E+03  0.34941843438E+02  0.40591149493E+03  0.00000000000E+00 0.  1.
         13    1    1    2    0    0  0.13149544948E+03  0.15959649196E+03  0.30381795106E+03  0.36751524054E+03  0.10566000000E+00 0. -1.
<mgrwt>
<rscale>  1 0.68336189E+03</rscale>
<asrwt>0</asrwt>
<pdfrwt beam="2">  1       21 0.65233970E-01 0.10178673E+04</pdfrwt>
<pdfrwt beam="1">  1        4 0.15325003E+00 0.10178673E+04</pdfrwt>
<totfact> 0.23501281E+01</totfact>
</mgrwt>
</event>
<event>
 6    1  0.2415530E-005  0.1041977E+04  0.7818608E-02  0.9686876E-01
         21   -1    0    0  501  502  0.00000000000E+00  0.00000000000E+00  0.13024443969E+04  0.13024443969E+04  0.00000000000E+00 0.  1.
          4   -1    0    0  502    0 -0.00000000000E+00 -0.00000000000E+00 -0.35512677335E+03  0.35512677335E+03  0.00000000000E+00 0.  1.
    9000010    2    1    2  501    0  0.52198160768E+02 -0.22909736468E+03  0.96730008552E+03  0.14217543760E+04  0.10151383156E+04 0.  0.
        -13    1    3    3    0    0 -0.18905830321E+02  0.36631639994E+03  0.64240593237E+03  0.73975031490E+03  0.10566000000E+00 0.  1.
          4    1    3    3  501    0  0.71103991089E+02 -0.59541376461E+03  0.32489415315E+03  0.68200406112E+03  0.00000000000E+00 0.  1.
         13    1    1    2    0    0 -0.52198160768E+02  0.22909736468E+03 -0.19982461964E+02  0.23581679423E+03  0.10566000000E+00 0. -1.
<mgrwt>
<rscale>  1 0.71803576E+03</rscale>
<asrwt>0</asrwt>
<pdfrwt beam="1">  1       21 0.20037606E+00 0.10419770E+04</pdfrwt>
<pdfrwt beam="2">  1        4 0.54634889E-01 0.10419770E+04</pdfrwt>
<totfact> 0.14598950E+01</totfact>
</mgrwt>
</event>
<event>
 6    1  0.2415530E-005  0.1154130E+04  0.7818608E-02  0.9339451E-01
          4   -1    0    0  502    0 -0.00000000000E+00  0.00000000000E+00  0.35130624267E+03  0.35130624267E+03  0.00000000000E+00 0.  1.
         21   -1    0    0  501  502  0.00000000000E+00 -0.00000000000E+00 -0.21562621845E+04  0.21562621845E+04  0.00000000000E+00 0.  1.
    9000010    2    1    2  501    0  0.43170076802E+03  0.38938171811E+03 -0.12900393319E+04  0.17309586140E+04  0.99701182050E+03 0.  0.
        -13    1    3    3    0    0  0.12437903222E+02 -0.72674025660E+02 -0.10652203955E+04  0.10677690376E+04  0.10566000000E+00 0.  1.
          4    1    3    3  501    0  0.41926286479E+03  0.46205574377E+03 -0.22481893633E+03  0.66318957643E+03  0.00000000000E+00 0.  1.
         13    1    1    2    0    0 -0.43170076802E+03 -0.38938171811E+03 -0.51491660999E+03  0.77660981317E+03  0.10566000000E+00 0. -1.
<mgrwt>
<rscale>  1 0.97230616E+03</rscale>
<asrwt>0</asrwt>
<pdfrwt beam="2">  1       21 0.33173264E+00 0.11541301E+04</pdfrwt>
<pdfrwt beam="1">  1        4 0.54047115E-01 0.11541301E+04</pdfrwt>
<totfact> 0.21254985E+00</totfact>
</mgrwt>
</event>
<event>
 6    1  0.2415530E-005  0.1004278E+04  0.7818608E-02  0.9992267E-01
          4   -1    0    0  502    0 -0.00000000000E+00  0.00000000000E+00  0.11177326816E+04  0.11177326816E+04  0.00000000000E+00 0.  1.
         21   -1    0    0  501  502  0.00000000000E+00 -0.00000000000E+00 -0.27800722798E+03  0.27800722798E+03  0.00000000000E+00 0.  1.
    9000010    2    1    2  501    0 -0.78207115913E+02  0.57429340838E+02  0.82046522710E+03  0.12968184779E+04  0.99958015862E+03 0.  0.
        -13    1    3    3    0    0  0.94877560377E+01 -0.38247075654E+03  0.24756948478E+02  0.38338859501E+03  0.10566000000E+00 0.  1.
          4    1    3    3  501    0 -0.87694871950E+02  0.43990009738E+03  0.79570827862E+03  0.91342988286E+03  0.00000000000E+00 0.  1.
         13    1    1    2    0    0  0.78207115913E+02 -0.57429340838E+02  0.19260226573E+02  0.98921431753E+02  0.10566000000E+00 0. -1.
<mgrwt>
<rscale>  1 0.55990616E+03</rscale>
<asrwt>0</asrwt>
<pdfrwt beam="2">  1       21 0.42770343E-01 0.10042783E+04</pdfrwt>
<pdfrwt beam="1">  1        4 0.17195887E+00 0.10042783E+04</pdfrwt>
<totfact> 0.43003732E+01</totfact>
</mgrwt>
</event>
<event>
 6    1  0.2415530E-005  0.1046229E+04  0.7818608E-02  0.9615111E-01
          4   -1    0    0  502    0 -0.00000000000E+00  0.00000000000E+00  0.11566049694E+04  0.11566049694E+04  0.00000000000E+00 0.  1.
         21   -1    0    0  501  502  0.00000000000E+00 -0.00000000000E+00 -0.43526825098E+03  0.43526825098E+03  0.00000000000E+00 0.  1.
    9000010    2    1    2  501    0 -0.66858399584E+02 -0.28836340571E+03  0.32174720497E+03  0.10945852859E+04  0.10034800371E+04 0.  0.
        -13    1    3    3    0    0 -0.18920874133E+03  0.17826364605E+03  0.51343584241E+03  0.57549478775E+03  0.10566000000E+00 0.  1.
          4    1    3    3  501    0  0.12235034174E+03 -0.46662705176E+03 -0.19168863744E+03  0.51909049816E+03  0.00000000000E+00 0.  1.
         13    1    1    2    0    0  0.66858399584E+02  0.28836340571E+03  0.39958951344E+03  0.49728793447E+03  0.10566000000E+00 0. -1.
<mgrwt>
<rscale>  1 0.76304075E+03</rscale>
<asrwt>0</asrwt>
<pdfrwt beam="2">  1       21 0.66964347E-01 0.10462293E+04</pdfrwt>
<pdfrwt beam="1">  1        4 0.17793923E+00 0.10462293E+04</pdfrwt>
<totfact> 0.14557701E+01</totfact>
</mgrwt>
</event>
<event>
 6    1  0.2415530E-005  0.1009221E+04  0.7818608E-02  0.9618953E-01
          4   -1    0    0  502    0 -0.00000000000E+00  0.00000000000E+00  0.11611587829E+04  0.11611587829E+04  0.00000000000E+00 0.  1.
         21   -1    0    0  501  502  0.00000000000E+00 -0.00000000000E+00 -0.38753352637E+03  0.38753352637E+03  0.00000000000E+00 0.  1.
    9000010    2    1    2  501    0  0.26800911958E+03 -0.18470276849E+03  0.51538700941E+03  0.11332034354E+04  0.95529171234E+03 0.  0.
        -13    1    3    3    0    0 -0.10023429648E+03  0.24224767740E+03 -0.11602988910E+03  0.28669460707E+03  0.10566000000E+00 0.  1.
          4    1    3    3  501    0  0.36824341606E+03 -0.42695044589E+03  0.63141689852E+03  0.84650882833E+03  0.00000000000E+00 0.  1.
         13    1    1    2    0    0 -0.26800911958E+03  0.18470276849E+03  0.25823824711E+03  0.41548887386E+03  0.10566000000E+00 0. -1.
<mgrwt>
<rscale>  1 0.76054364E+03</rscale>
<asrwt>0</asrwt>
<pdfrwt beam="2">  1       21 0.59620543E-01 0.10092206E+04</pdfrwt>
<pdfrwt beam="1">  1        4 0.17863981E+00 0.10092206E+04</pdfrwt>
<totfact> 0.18765093E+01</totfact>
</mgrwt>
</event>
<event>
 6    1  0.2415530E-005  0.8744348E+03  0.7818608E-02  0.9928849E-01
          4   -1    0    0  502    0 -0.00000000000E+00  0.00000000000E+00  0.14249336291E+03  0.14249336291E+03  0.00000000000E+00 0.  1.
         21   -1    0    0  501  502  0.00000000000E+00 -0.00000000000E+00 -0.19508186289E+04  0.19508186289E+04  0.00000000000E+00 0.  1.
    9000010    2    1    2  501    0 -0.48383513770E+00 -0.17979748060E+03 -0.14828175012E+04  0.17214481938E+04  0.85575041579E+03 0.  0.
        -13    1    3    3    0    0  0.24548442710E+03 -0.38772624619E+03 -0.12274049903E+04  0.13103882124E+04  0.10566000000E+00 0.  1.
          4    1    3    3  501    0 -0.24596826224E+03  0.20792876559E+03 -0.25541251087E+03  0.41105998139E+03  0.00000000000E+00 0.  1.
         13    1    1    2    0    0  0.48383513770E+00  0.17979748060E+03 -0.32550776480E+03  0.37186379796E+03  0.10566000000E+00 0. -1.
<mgrwt>
<rscale>  1 0.58883271E+03</rscale>
<asrwt>0</asrwt>
<pdfrwt beam="2">  1       21 0.30012594E+00 0.87443476E+03</pdfrwt>
<pdfrwt beam="1">  1        4 0.21922056E-01 0.87443476E+03</pdfrwt>
<totfact> 0.21363519E+01</totfact>
</mgrwt>
</event>
<event>
 6    1  0.2415530E-005  0.1025304E+04  0.7818608E-02  0.9966885E-01
         21   -1    0    0  501  502  0.00000000000E+00  0.00000000000E+00  0.88247069248E+03  0.88247069248E+03  0.00000000000E+00 0.  1.
          4   -1    0    0  502    0 -0.00000000000E+00 -0.00000000000E+00 -0.39301920575E+03  0.39301920575E+03  0.00000000000E+00 0.  1.
    9000010    2    1    2  501    0 -0.47169977999E+02 -0.86821357500E+02  0.54602448393E+03  0.11616326625E+04  0.10205316020E+04 0.  0.
        -13    1    3    3    0    0 -0.52072755778E+03 -0.70493864881E+02  0.15664001434E+03  0.54832716482E+03  0.10566000000E+00 0.  1.
          4    1    3    3  501    0  0.47355757978E+03 -0.16327492619E+02  0.38938446959E+03  0.61330549772E+03  0.00000000000E+00 0.  1.
         13    1    1    2    0    0  0.47169977999E+02  0.86821357500E+02 -0.56572997194E+02  0.11385723569E+03  0.10566000000E+00 0. -1.
<mgrwt>
<rscale>  1 0.57126435E+03</rscale>
<asrwt>0</asrwt>
<pdfrwt beam="1">  1       21 0.13576472E+00 0.10253037E+04</pdfrwt>
<pdfrwt beam="2">  1        4 0.60464493E-01 0.10253037E+04</pdfrwt>
<totfact> 0.36461434E+01</totfact>
</mgrwt>
</event>
<event>
 6    1  0.2415530E-005  0.9824423E+03  0.7818608E-02  0.9939017E-01
          4   -1    0    0  502    0 -0.00000000000E+00  0.00000000000E+00  0.11589262669E+04  0.11589262669E+04  0.00000000000E+00 0.  1.
         21   -1    0    0  501  502  0.00000000000E+00 -0.00000000000E+00 -0.27012535838E+03  0.27012535838E+03  0.00000000000E+00 0.  1.
    9000010    2    1    2  501    0  0.12028803734E+03 -0.24346141117E+02  0.70983365678E+03  0.12120464759E+04  0.97474657879E+03 0.  0.
        -13    1    3    3    0    0  0.49638108396E+03  0.54922066316E+02  0.65519394146E+03  0.82382627172E+03  0.10566000000E+00 0.  1.
          4    1    3    3  501    0 -0.37609304662E+03 -0.79268207434E+02  0.54639715321E+02  0.38822020416E+03  0.00000000000E+00 0.  1.
         13    1    1    2    0    0 -0.12028803734E+03  0.24346141117E+02  0.17896725175E+03  0.21700514942E+03  0.10566000000E+00 0. -1.
<mgrwt>
<rscale>  1 0.58407076E+03</rscale>
<asrwt>0</asrwt>
<pdfrwt beam="2">  1       21 0.41557748E-01 0.98244228E+03</pdfrwt>
<pdfrwt beam="1">  1        4 0.17829635E+00 0.98244228E+03</pdfrwt>
<totfact> 0.41283727E+01</totfact>
</mgrwt>
</event>
<event>
 6    1  0.2415530E-005  0.1115894E+04  0.7818608E-02  0.9373113E-01
          4   -1    0    0  502    0 -0.00000000000E+00  0.00000000000E+00  0.35421729745E+03  0.35421729745E+03  0.00000000000E+00 0.  1.
         21   -1    0    0  501  502  0.00000000000E+00 -0.00000000000E+00 -0.22823858407E+04  0.22823858407E+04  0.00000000000E+00 0.  1.
    9000010    2    1    2  501    0 -0.56957520912E+03 -0.64349769634E+01 -0.16763884553E+04  0.20138266521E+04  0.95956354860E+03 0.  0.
        -13    1    3    3    0    0 -0.16169506414E+03  0.26180228650E+03 -0.45025619271E+02  0.31098721604E+03  0.10566000000E+00 0.  1.
          4    1    3    3  501    0 -0.40788014497E+03 -0.26823726346E+03 -0.16313628360E+04  0.17028394360E+04  0.00000000000E+00 0.  1.
         13    1    1    2    0    0  0.56957520912E+03  0.64349769634E+01 -0.25178008799E+03  0.62277648610E+03  0.10566000000E+00 0. -1.
<mgrwt>
<rscale>  1 0.94321766E+03</rscale>
<asrwt>0</asrwt>
<pdfrwt beam="2">  1       21 0.35113630E+00 0.11158941E+04</pdfrwt>
<pdfrwt beam="1">  1        4 0.54494967E-01 0.11158941E+04</pdfrwt>
<totfact> 0.15857404E+00</totfact>
</mgrwt>
</event>
<event>
 6    1  0.2415530E-005  0.9978096E+03  0.7818608E-02  0.9941162E-01
         21   -1    0    0  501  502  0.00000000000E+00  0.00000000000E+00  0.46628594840E+03  0.46628594840E+03  0.00000000000E+00 0.  1.
          4   -1    0    0  502    0 -0.00000000000E+00 -0.00000000000E+00 -0.67064933940E+03  0.67064933940E+03  0.00000000000E+00 0.  1.
    9000010    2    1    2  501    0  0.77152412080E+02  0.87083414332E+02 -0.15188616984E+03  0.10093034515E+04  0.99100354833E+03 0.  0.
        -13    1    3    3    0    0 -0.41534373943E+03 -0.10370119151E+02  0.12770265162E+03  0.43465611655E+03  0.10566000000E+00 0.  1.
          4    1    3    3  501    0  0.49249615151E+03  0.97453533483E+02 -0.27958882146E+03  0.57464733492E+03  0.00000000000E+00 0.  1.
         13    1    1    2    0    0 -0.77152412080E+02 -0.87083414332E+02 -0.52477221156E+02  0.12763183633E+03  0.10566000000E+00 0. -1.
<mgrwt>
<rscale>  1 0.58307198E+03</rscale>
<asrwt>0</asrwt>
<pdfrwt beam="1">  1       21 0.71736300E-01 0.99780963E+03</pdfrwt>
<pdfrwt beam="2">  1        4 0.10317682E+00 0.99780963E+03</pdfrwt>
<totfact> 0.52044445E+01</totfact>
</mgrwt>
</event>
<event>
 6    1  0.2415530E-005  0.1008811E+04  0.7818608E-02  0.9843879E-01
         21   -1    0    0  501  502  0.00000000000E+00  0.00000000000E+00  0.57905929011E+03  0.57905929011E+03  0.00000000000E+00 0.  1.
          4   -1    0    0  502    0 -0.00000000000E+00 -0.00000000000E+00 -0.61882575685E+03  0.61882575685E+03  0.00000000000E+00 0.  1.
    9000010    2    1    2  501    0 -0.40912150478E+02 -0.14848973331E+03  0.66120426191E+02  0.10109758438E+04  0.99698407264E+03 0.  0.
        -13    1    3    3    0    0 -0.41192108542E+03 -0.21580412841E+03  0.31275168103E+03  0.56041415721E+03  0.10566000000E+00 0.  1.
          4    1    3    3  501    0  0.37100893494E+03  0.67314395094E+02 -0.24663125484E+03  0.45056168663E+03  0.00000000000E+00 0.  1.
         13    1    1    2    0    0  0.40912150478E+02  0.14848973331E+03 -0.10588689293E+03  0.18690920313E+03  0.10566000000E+00 0. -1.
<mgrwt>
<rscale>  1 0.63059960E+03</rscale>
<asrwt>0</asrwt>
<pdfrwt beam="1">  1       21 0.89086045E-01 0.10088113E+04</pdfrwt>
<pdfrwt beam="2">  1        4 0.95203962E-01 0.10088113E+04</pdfrwt>
<totfact> 0.37899903E+01</totfact>
</mgrwt>
</event>
<event>
 6    1  0.2415530E-005  0.1014080E+04  0.7818608E-02  0.9745904E-01
         21   -1    0    0  501  502  0.00000000000E+00  0.00000000000E+00  0.93747784789E+03  0.93747784789E+03  0.00000000000E+00 0.  1.
          4   -1    0    0  502    0 -0.00000000000E+00 -0.00000000000E+00 -0.41993313812E+03  0.41993313812E+03  0.00000000000E+00 0.  1.
    9000010    2    1    2  501    0 -0.43789917356E+02 -0.20463009218E+03  0.53656727247E+03  0.11472850701E+04  0.99225377936E+03 0.  0.
        -13    1    3    3    0    0  0.33290621955E+03 -0.15357544390E+03 -0.12241493795E+03  0.38651959352E+03  0.10566000000E+00 0.  1.
          4    1    3    3  501    0 -0.37669613690E+03 -0.51054648283E+02  0.65898221042E+03  0.76076547655E+03  0.00000000000E+00 0.  1.
         13    1    1    2    0    0  0.43789917356E+02  0.20463009218E+03 -0.19022562697E+02  0.21012591593E+03  0.10566000000E+00 0. -1.
<mgrwt>
<rscale>  1 0.68348247E+03</rscale>
<asrwt>0</asrwt>
<pdfrwt beam="1">  1       21 0.14422736E+00 0.10140802E+04</pdfrwt>
<pdfrwt beam="2">  1        4 0.64605098E-01 0.10140802E+04</pdfrwt>
<totfact> 0.26766048E+01</totfact>
</mgrwt>
</event>
<event>
 6    1  0.2415530E-005  0.1022357E+04  0.7818608E-02  0.9811838E-01
         21   -1    0    0  501  502  0.00000000000E+00  0.00000000000E+00  0.28744621004E+03  0.28744621004E+03  0.00000000000E+00 0.  1.
          4   -1    0    0  502    0 -0.00000000000E+00 -0.00000000000E+00 -0.16517289958E+04  0.16517289958E+04  0.00000000000E+00 0.  1.
    9000010    2    1    2  501    0 -0.13569232165E+03  0.92643745887E+02 -0.66210194990E+03  0.12180280591E+04  0.10090679318E+04 0.  0.
        -13    1    3    3    0    0  0.22019490335E+03 -0.15832469769E+03 -0.72865879489E+03  0.77749350859E+03  0.10566000000E+00 0.  1.
          4    1    3    3  501    0 -0.35588722500E+03  0.25096844358E+03  0.66556844991E+02  0.44053455052E+03  0.00000000000E+00 0.  1.
         13    1    1    2    0    0  0.13569232165E+03 -0.92643745887E+02 -0.70218083587E+03  0.72114714672E+03  0.10566000000E+00 0. -1.
<mgrwt>
<rscale>  1 0.64731078E+03</rscale>
<asrwt>0</asrwt>
<pdfrwt beam="1">  1       21 0.44222494E-01 0.10223568E+04</pdfrwt>
<pdfrwt beam="2">  1        4 0.25411215E+00 0.10223568E+04</pdfrwt>
<totfact> 0.11639087E+01</totfact>
</mgrwt>
</event>
<event>
 6    1  0.2415530E-005  0.1188384E+04  0.7818608E-02  0.9658796E-01
          4   -1    0    0  502    0 -0.00000000000E+00  0.00000000000E+00  0.67223609363E+03  0.67223609363E+03  0.00000000000E+00 0.  1.
         21   -1    0    0  501  502  0.00000000000E+00 -0.00000000000E+00 -0.73982301932E+03  0.73982301932E+03  0.00000000000E+00 0.  1.
    9000010    2    1    2  501    0 -0.16855013926E+03  0.43680637424E+02 -0.18409180888E+03  0.12025584053E+04  0.11755593463E+04 0.  0.
        -13    1    3    3    0    0 -0.19516145030E+03 -0.46009599169E+03  0.22974675744E+03  0.55005444910E+03  0.10566000000E+00 0.  1.
          4    1    3    3  501    0  0.26611311044E+02  0.50377662911E+03 -0.41383856632E+03  0.65250395623E+03  0.00000000000E+00 0.  1.
         13    1    1    2    0    0  0.16855013926E+03 -0.43680637424E+02  0.11650488319E+03  0.20950070764E+03  0.10566000000E+00 0. -1.
<mgrwt>
<rscale>  1 0.73523929E+03</rscale>
<asrwt>0</asrwt>
<pdfrwt beam="2">  1       21 0.11381893E+00 0.11883842E+04</pdfrwt>
<pdfrwt beam="1">  1        4 0.10342094E+00 0.11883842E+04</pdfrwt>
<totfact> 0.16613668E+01</totfact>
</mgrwt>
</event>
<event>
 6    1  0.2415530E-005  0.1059471E+04  0.7818608E-02  0.9565053E-01
          4   -1    0    0  502    0 -0.00000000000E+00  0.00000000000E+00  0.43140297436E+03  0.43140297436E+03  0.00000000000E+00 0.  1.
         21   -1    0    0  501  502  0.00000000000E+00 -0.00000000000E+00 -0.20452336152E+04  0.20452336152E+04  0.00000000000E+00 0.  1.
    9000010    2    1    2  501    0  0.32676301777E+03  0.88314582159E+02 -0.18012456459E+04  0.20897284215E+04  0.10039449506E+04 0.  0.
        -13    1    3    3    0    0  0.35709978343E+03  0.30015102238E+03 -0.26070396316E+03  0.53439447895E+03  0.10566000000E+00 0.  1.
          4    1    3    3  501    0 -0.30336765657E+02 -0.21183644022E+03 -0.15405416827E+04  0.15553339426E+04  0.00000000000E+00 0.  1.
         13    1    1    2    0    0 -0.32676301777E+03 -0.88314582159E+02  0.18741500505E+03  0.38690816802E+03  0.10566000000E+00 0. -1.
<mgrwt>
<rscale>  1 0.79653044E+03</rscale>
<asrwt>0</asrwt>
<pdfrwt beam="2">  1       21 0.31465132E+00 0.10594711E+04</pdfrwt>
<pdfrwt beam="1">  1        4 0.66369689E-01 0.10594711E+04</pdfrwt>
<totfact> 0.17668185E+00</totfact>
</mgrwt>
</event>
<event>
 6    1  0.2415530E-005  0.1203898E+04  0.7818608E-02  0.9388582E-01
         21   -1    0    0  501  502  0.00000000000E+00  0.00000000000E+00  0.99346804871E+03  0.99346804871E+03  0.00000000000E+00 0.  1.
          4   -1    0    0  502    0 -0.00000000000E+00 -0.00000000000E+00 -0.11304947625E+04  0.11304947625E+04  0.00000000000E+00 0.  1.
    9000010    2    1    2  501    0  0.28876264941E+03 -0.31740343778E+03  0.54234793127E+03  0.13204214435E+04  0.11248300761E+04 0.  0.
        -13    1    3    3    0    0  0.12034817625E+03 -0.64343735939E+03 -0.13069799600E+02  0.65472601126E+03  0.10566000000E+00 0.  1.
          4    1    3    3  501    0  0.16841447315E+03  0.32603392161E+03  0.55541773087E+03  0.66569543229E+03  0.00000000000E+00 0.  1.
         13    1    1    2    0    0 -0.28876264941E+03  0.31740343778E+03 -0.67937464504E+03  0.80354136763E+03  0.10566000000E+00 0. -1.
<mgrwt>
<rscale>  1 0.93021345E+03</rscale>
<asrwt>0</asrwt>
<pdfrwt beam="1">  1       21 0.15284124E+00 0.12038985E+04</pdfrwt>
<pdfrwt beam="2">  1        4 0.17392227E+00 0.12038985E+04</pdfrwt>
<totfact> 0.19276990E+00</totfact>
</mgrwt>
</event>
<event>
 6    1  0.2415530E-005  0.1032427E+04  0.7818608E-02  0.9601831E-01
         21   -1    0    0  501  502  0.00000000000E+00  0.00000000000E+00  0.34766066650E+04  0.34766066650E+04  0.00000000000E+00 0.  1.
          4   -1    0    0  502    0 -0.00000000000E+00 -0.00000000000E+00 -0.13520440309E+03  0.13520440309E+03  0.00000000000E+00 0.  1.
    9000010    2    1    2  501    0  0.12076290706E+03 -0.29887714261E+03  0.27639264519E+04  0.29504567392E+04  0.98081308719E+03 0.  0.
        -13    1    3    3    0    0  0.36730442679E+03  0.23873209802E+03  0.10677416237E+04  0.11541134011E+04  0.10566000000E+00 0.  1.
          4    1    3    3  501    0 -0.24654151973E+03 -0.53760924063E+03  0.16961848282E+04  0.17963433380E+04  0.00000000000E+00 0.  1.
         13    1    1    2    0    0 -0.12076290706E+03  0.29887714261E+03  0.57747581004E+03  0.66135432897E+03  0.10566000000E+00 0. -1.
<mgrwt>
<rscale>  1 0.77175124E+03</rscale>
<asrwt>0</asrwt>
<pdfrwt beam="1">  1       21 0.53486250E+00 0.10324270E+04</pdfrwt>
<pdfrwt beam="2">  1        4 0.20800680E-01 0.10324270E+04</pdfrwt>
<totfact> 0.60950510E-01</totfact>
</mgrwt>
</event>
<event>
 6    1  0.2415530E-005  0.1119145E+04  0.7818608E-02  0.9408262E-01
         21   -1    0    0  501  502  0.00000000000E+00  0.00000000000E+00  0.14846019366E+04  0.14846019366E+04  0.00000000000E+00 0.  1.
          4   -1    0    0  502    0 -0.00000000000E+00 -0.00000000000E+00 -0.14070361513E+04  0.14070361513E+04  0.00000000000E+00 0.  1.
    9000010    2    1    2  501    0  0.32169343995E+03  0.37996608641E+03  0.12138727153E+04  0.16510517964E+04  0.10023094180E+04 0.  0.
        -13    1    3    3    0    0 -0.23206451108E+03  0.29194676611E+03  0.73260112019E+02  0.38007092328E+03  0.10566000000E+00 0.  1.
          4    1    3    3  501    0  0.55375795104E+03  0.88019320308E+02  0.11406126033E+04  0.12709808732E+04  0.00000000000E+00 0.  1.
         13    1    1    2    0    0 -0.32169343995E+03 -0.37996608641E+03 -0.11363069301E+04  0.12405862915E+04  0.10566000000E+00 0. -1.
<mgrwt>
<rscale>  1 0.91398846E+03</rscale>
<asrwt>0</asrwt>
<pdfrwt beam="1">  1       21 0.22840030E+00 0.11191448E+04</pdfrwt>
<pdfrwt beam="2">  1        4 0.21646710E+00 0.11191448E+04</pdfrwt>
<totfact> 0.29118957E-01</totfact>
</mgrwt>
</event>
<event>
 6    1  0.2415530E-005  0.1183115E+04  0.7818608E-02  0.9296338E-01
         21   -1    0    0  501  502  0.00000000000E+00  0.00000000000E+00  0.74611451882E+03  0.74611451882E+03  0.00000000000E+00 0. -1.
          4   -1    0    0  502    0 -0.00000000000E+00 -0.00000000000E+00 -0.14442367267E+04  0.14442367267E+04  0.00000000000E+00 0.  1.
    9000010    2    1    2  501    0 -0.19717474004E+03 -0.59978467839E+03 -0.94321856955E+03  0.15130833693E+04  0.10005700744E+04 0.  0.
        -13    1    3    3    0    0 -0.40726976044E+03 -0.14764653117E+03 -0.91658836992E+03  0.10138059020E+04  0.10566000000E+00 0.  1.
          4    1    3    3  501    0  0.21009502040E+03 -0.45213814722E+03 -0.26630199631E+02  0.49927746725E+03  0.00000000000E+00 0.  1.
         13    1    1    2    0    0  0.19717474004E+03  0.59978467839E+03  0.24509636167E+03  0.67726787626E+03  0.10566000000E+00 0. -1.
<mgrwt>
<rscale>  1 0.10112068E+04</rscale>
<asrwt>0</asrwt>
<pdfrwt beam="1">  1       21 0.11478685E+00 0.11831145E+04</pdfrwt>
<pdfrwt beam="2">  1        4 0.22219026E+00 0.11831145E+04</pdfrwt>
<totfact> 0.19808008E+00</totfact>
</mgrwt>
</event>
<event>
 6    1  0.2415530E-005  0.8557749E+03  0.7818608E-02  0.1004260E+00
          4   -1    0    0  502    0 -0.00000000000E+00  0.00000000000E+00  0.45192995573E+03  0.45192995573E+03  0.00000000000E+00 0.  1.
         21   -1    0    0  501  502  0.00000000000E+00 -0.00000000000E+00 -0.13037488215E+04  0.13037488215E+04  0.00000000000E+00 0.  1.
    9000010    2    1    2  501    0  0.11914405357E+03  0.61071566777E+02 -0.11472829150E+04  0.14312961985E+04  0.84523705501E+03 0.  0.
        -13    1    3    3    0    0 -0.12407704247E+03  0.41016707643E+03 -0.52952052251E+03  0.68119317229E+03  0.10566000000E+00 0.  1.
          4    1    3    3  501    0  0.24322109604E+03 -0.34909550966E+03 -0.61776239247E+03  0.75010302624E+03  0.00000000000E+00 0.  1.
         13    1    1    2    0    0 -0.11914405357E+03 -0.61071566777E+02  0.29546404926E+03  0.32438257866E+03  0.10566000000E+00 0. -1.
<mgrwt>
<rscale>  1 0.53821057E+03</rscale>
<asrwt>0</asrwt>
<pdfrwt beam="2">  1       21 0.20057674E+00 0.85577492E+03</pdfrwt>
<pdfrwt beam="1">  1        4 0.69527687E-01 0.85577492E+03</pdfrwt>
<totfact> 0.88190115E+00</totfact>
</mgrwt>
</event>
<event>
 6    1  0.2415530E-005  0.1050484E+04  0.7818608E-02  0.9537344E-01
          4   -1    0    0  502    0 -0.00000000000E+00  0.00000000000E+00  0.15141340166E+04  0.15141340166E+04  0.00000000000E+00 0.  1.
         21   -1    0    0  501  502  0.00000000000E+00 -0.00000000000E+00 -0.36719250939E+03  0.36719250939E+03  0.00000000000E+00 0.  1.
    9000010    2    1    2  501    0  0.37098078639E+03 -0.91917032764E+02  0.10537732446E+04  0.14879363620E+04  0.97848918316E+03 0.  0.
        -13    1    3    3    0    0  0.60790096524E+03  0.11891663590E+02  0.10679290301E+04  0.12288846242E+04  0.10566000000E+00 0.  1.
          4    1    3    3  501    0 -0.23692017884E+03 -0.10380869635E+03 -0.14155785485E+02  0.25905173777E+03  0.00000000000E+00 0.  1.
         13    1    1    2    0    0 -0.37098078639E+03  0.91917032764E+02  0.93168262591E+02  0.39339016396E+03  0.10566000000E+00 0. -1.
<mgrwt>
<rscale>  1 0.81585748E+03</rscale>
<asrwt>0</asrwt>
<pdfrwt beam="2">  1       21 0.56491156E-01 0.10504840E+04</pdfrwt>
<pdfrwt beam="1">  1        4 0.23294369E+00 0.10504840E+04</pdfrwt>
<totfact> 0.92501570E+00</totfact>
</mgrwt>
</event>
<event>
 6    1  0.2415530E-005  0.1010026E+04  0.7818608E-02  0.9815872E-01
          4   -1    0    0  502    0 -0.00000000000E+00  0.00000000000E+00  0.58529023021E+03  0.58529023021E+03  0.00000000000E+00 0.  1.
         21   -1    0    0  501  502  0.00000000000E+00 -0.00000000000E+00 -0.61598012965E+03  0.61598012965E+03  0.00000000000E+00 0.  1.
    9000010    2    1    2  501    0 -0.19841649800E+02 -0.16698308933E+03  0.56978458580E+02  0.10116317685E+04  0.99592933836E+03 0.  0.
        -13    1    3    3    0    0  0.86747840041E+02  0.14874554631E+02  0.50705574572E+03  0.51463771777E+03  0.10566000000E+00 0.  1.
          4    1    3    3  501    0 -0.10658948984E+03 -0.18185764396E+03 -0.45007728714E+03  0.49699405068E+03  0.00000000000E+00 0.  1.
         13    1    1    2    0    0  0.19841649800E+02  0.16698308933E+03 -0.87668358019E+02  0.18963859141E+03  0.10566000000E+00 0. -1.
<mgrwt>
<rscale>  1 0.64517674E+03</rscale>
<asrwt>0</asrwt>
<pdfrwt beam="2">  1       21 0.94766174E-01 0.10100259E+04</pdfrwt>
<pdfrwt beam="1">  1        4 0.90044651E-01 0.10100259E+04</pdfrwt>
<totfact> 0.37217449E+01</totfact>
</mgrwt>
</event>
<event>
 6    1  0.2415530E-005  0.1020725E+04  0.7818608E-02  0.9726041E-01
          4   -1    0    0  502    0 -0.00000000000E+00  0.00000000000E+00  0.68115530949E+03  0.68115530949E+03  0.00000000000E+00 0.  1.
         21   -1    0    0  501  502  0.00000000000E+00 -0.00000000000E+00 -0.58862304235E+03  0.58862304235E+03  0.00000000000E+00 0.  1.
    9000010    2    1    2  501    0 -0.15585802582E+03 -0.15417190840E+03 -0.25003237978E+02  0.10210308741E+04  0.99690429954E+03 0.  0.
        -13    1    3    3    0    0  0.17478767092E+03  0.22988057118E+03 -0.32288811363E+03  0.43318881796E+03  0.10566000000E+00 0.  1.
          4    1    3    3  501    0 -0.33064569674E+03 -0.38405247958E+03  0.29788487565E+03  0.58784205616E+03  0.00000000000E+00 0.  1.
         13    1    1    2    0    0  0.15585802582E+03  0.15417190840E+03  0.11753550512E+03  0.24874747773E+03  0.10566000000E+00 0. -1.
<mgrwt>
<rscale>  1 0.69487268E+03</rscale>
<asrwt>0</asrwt>
<pdfrwt beam="2">  1       21 0.90557391E-01 0.10207247E+04</pdfrwt>
<pdfrwt beam="1">  1        4 0.10479312E+00 0.10207247E+04</pdfrwt>
<totfact> 0.28871654E+01</totfact>
</mgrwt>
</event>
<event>
 6    1  0.2415530E-005  0.1011976E+04  0.7818608E-02  0.9815842E-01
          4   -1    0    0  502    0 -0.00000000000E+00  0.00000000000E+00  0.38168621420E+03  0.38168621420E+03  0.00000000000E+00 0.  1.
         21   -1    0    0  501  502  0.00000000000E+00 -0.00000000000E+00 -0.11679323833E+04  0.11679323833E+04  0.00000000000E+00 0.  1.
    9000010    2    1    2  501    0 -0.13477475406E+03 -0.98959144507E+02 -0.89432642479E+03  0.13505244000E+04  0.99806776041E+03 0.  0.
        -13    1    3    3    0    0 -0.52340934997E+03  0.15624575375E+03 -0.45618404133E+03  0.71166984897E+03  0.10566000000E+00 0.  1.
          4    1    3    3  501    0  0.38863459590E+03 -0.25520489826E+03 -0.43814238346E+03  0.63885455106E+03  0.00000000000E+00 0.  1.
         13    1    1    2    0    0  0.13477475406E+03  0.98959144507E+02  0.10808025572E+03  0.19909419744E+03  0.10566000000E+00 0. -1.
<mgrwt>
<rscale>  1 0.64519270E+03</rscale>
<asrwt>0</asrwt>
<pdfrwt beam="2">  1       21 0.17968191E+00 0.10119765E+04</pdfrwt>
<pdfrwt beam="1">  1        4 0.58720956E-01 0.10119765E+04</pdfrwt>
<totfact> 0.17559358E+01</totfact>
</mgrwt>
</event>
<event>
 6    1  0.2415530E-005  0.1094009E+04  0.7818608E-02  0.9455259E-01
          4   -1    0    0  502    0 -0.00000000000E+00  0.00000000000E+00  0.10251363630E+04  0.10251363630E+04  0.00000000000E+00 0.  1.
         21   -1    0    0  501  502  0.00000000000E+00 -0.00000000000E+00 -0.84154174954E+03  0.84154174954E+03  0.00000000000E+00 0.  1.
    9000010    2    1    2  501    0  0.42737770593E+03 -0.14421415452E+03 -0.36790731130E+03  0.11542149134E+04  0.99669797372E+03 0.  0.
        -13    1    3    3    0    0  0.42252387062E+03 -0.11226573748E+03  0.27108272948E+03  0.51440827603E+03  0.10566000000E+00 0.  1.
          4    1    3    3  501    0  0.48538353099E+01 -0.31948417038E+02 -0.63899004078E+03  0.63980663742E+03  0.00000000000E+00 0.  1.
         13    1    1    2    0    0 -0.42737770593E+03  0.14421415452E+03  0.55150192476E+03  0.71246319910E+03  0.10566000000E+00 0. -1.
<mgrwt>
<rscale>  1 0.87664309E+03</rscale>
<asrwt>0</asrwt>
<pdfrwt beam="2">  1       21 0.12946796E+00 0.10940093E+04</pdfrwt>
<pdfrwt beam="1">  1        4 0.15771329E+00 0.10940093E+04</pdfrwt>
<totfact> 0.40480373E+00</totfact>
</mgrwt>
</event>
<event>
 6    1  0.2415530E-005  0.1002863E+04  0.7818608E-02  0.1016874E+00
         21   -1    0    0  501  502  0.00000000000E+00  0.00000000000E+00  0.28874538589E+03  0.28874538589E+03  0.00000000000E+00 0.  1.
          4   -1    0    0  502    0 -0.00000000000E+00 -0.00000000000E+00 -0.11380435602E+04  0.11380435602E+04  0.00000000000E+00 0.  1.
    9000010    2    1    2  501    0  0.70988436904E+01  0.55926201681E+02 -0.59450808433E+03  0.11658365851E+04  0.10012776573E+04 0.  0.
        -13    1    3    3    0    0  0.29861468749E+03 -0.37693608363E+03 -0.29351044751E+03  0.56338258465E+03  0.10566000000E+00 0.  1.
          4    1    3    3  501    0 -0.29151584380E+03  0.43286228531E+03 -0.30099763682E+03  0.60245400040E+03  0.00000000000E+00 0.  1.
         13    1    1    2    0    0 -0.70988436904E+01 -0.55926201681E+02 -0.25479008996E+03  0.26095236102E+03  0.10566000000E+00 0. -1.
<mgrwt>
<rscale>  1 0.48831837E+03</rscale>
<asrwt>0</asrwt>
<pdfrwt beam="1">  1       21 0.44422367E-01 0.10028634E+04</pdfrwt>
<pdfrwt beam="2">  1        4 0.17508363E+00 0.10028634E+04</pdfrwt>
<totfact> 0.37708124E+01</totfact>
</mgrwt>
</event>
<event>
 6    1  0.2415530E-005  0.8702602E+03  0.7818608E-02  0.1011482E+00
         21   -1    0    0  501  502  0.00000000000E+00  0.00000000000E+00  0.55150738322E+03  0.55150738322E+03  0.00000000000E+00 0.  1.
          4   -1    0    0  502    0 -0.00000000000E+00 -0.00000000000E+00 -0.43048304204E+03  0.43048304204E+03  0.00000000000E+00 0.  1.
    9000010    2    1    2  501    0  0.10129849684E+03  0.96708204508E+01  0.86564461799E+02  0.87455484140E+03  0.86429037617E+03 0.  0.
        -13    1    3    3    0    0  0.16374066062E+03  0.39884427336E+03  0.18363730360E+03  0.46862610765E+03  0.10566000000E+00 0.  1.
          4    1    3    3  501    0 -0.62442163784E+02 -0.38917345291E+03 -0.97072841802E+02  0.40592873375E+03  0.00000000000E+00 0.  1.
         13    1    1    2    0    0 -0.10129849684E+03 -0.96708204508E+01  0.34459879372E+02  0.10743558386E+03  0.10566000000E+00 0. -1.
<mgrwt>
<rscale>  1 0.50889740E+03</rscale>
<asrwt>0</asrwt>
<pdfrwt beam="1">  1       21 0.84847290E-01 0.87026017E+03</pdfrwt>
<pdfrwt beam="2">  1        4 0.66228160E-01 0.87026017E+03</pdfrwt>
<totfact> 0.99016588E+01</totfact>
</mgrwt>
</event>
<event>
 6    1  0.2415530E-005  0.9466608E+03  0.7818608E-02  0.9876311E-01
          4   -1    0    0  502    0 -0.00000000000E+00  0.00000000000E+00  0.72670388562E+03  0.72670388562E+03  0.00000000000E+00 0.  1.
         21   -1    0    0  501  502  0.00000000000E+00 -0.00000000000E+00 -0.42833066483E+03  0.42833066483E+03  0.00000000000E+00 0.  1.
    9000010    2    1    2  501    0  0.13553238753E+03  0.98903528803E+02  0.27380958177E+03  0.98546356353E+03  0.93167366169E+03 0.  0.
        -13    1    3    3    0    0  0.15307258461E+03 -0.22767493160E+03 -0.24787346979E+03  0.36974093474E+03  0.10566000000E+00 0.  1.
          4    1    3    3  501    0 -0.17540197085E+02  0.32657846040E+03  0.52168305156E+03  0.61572262878E+03  0.00000000000E+00 0.  1.
         13    1    1    2    0    0 -0.13553238753E+03 -0.98903528803E+02  0.24563639023E+02  0.16957098692E+03  0.10566000000E+00 0. -1.
<mgrwt>
<rscale>  1 0.61423207E+03</rscale>
<asrwt>0</asrwt>
<pdfrwt beam="2">  1       21 0.65897025E-01 0.94666084E+03</pdfrwt>
<pdfrwt beam="1">  1        4 0.11180060E+00 0.94666084E+03</pdfrwt>
<totfact> 0.52112225E+01</totfact>
</mgrwt>
</event>
<event>
 6    1  0.2415530E-005  0.9826940E+03  0.7818608E-02  0.9953379E-01
          4   -1    0    0  502    0 -0.00000000000E+00  0.00000000000E+00  0.89546570791E+03  0.89546570791E+03  0.00000000000E+00 0.  1.
         21   -1    0    0  501  502  0.00000000000E+00 -0.00000000000E+00 -0.34015499988E+03  0.34015499988E+03  0.00000000000E+00 0.  1.
    9000010    2    1    2  501    0  0.11084394389E+03 -0.37907978003E+02  0.46212643524E+03  0.10859319823E+04  0.97568644207E+03 0.  0.
        -13    1    3    3    0    0  0.45860281041E+03  0.22962521570E+03  0.38297667638E+03  0.64009016804E+03  0.10566000000E+00 0.  1.
          4    1    3    3  501    0 -0.34775886651E+03 -0.26753319371E+03  0.79149758867E+02  0.44584181422E+03  0.00000000000E+00 0.  1.
         13    1    1    2    0    0 -0.11084394389E+03  0.37907978003E+02  0.93184272787E+02  0.14968872554E+03  0.10566000000E+00 0. -1.
<mgrwt>
<rscale>  1 0.57742616E+03</rscale>
<asrwt>0</asrwt>
<pdfrwt beam="2">  1       21 0.52331539E-01 0.98269396E+03</pdfrwt>
<pdfrwt beam="1">  1        4 0.13776395E+00 0.98269396E+03</pdfrwt>
<totfact> 0.51034467E+01</totfact>
</mgrwt>
</event>
<event>
 6    1  0.2415530E-005  0.1046535E+04  0.7818608E-02  0.9593660E-01
          4   -1    0    0  502    0 -0.00000000000E+00  0.00000000000E+00  0.91971166143E+03  0.91971166143E+03  0.00000000000E+00 0.  1.
         21   -1    0    0  501  502  0.00000000000E+00 -0.00000000000E+00 -0.59885869066E+03  0.59885869066E+03  0.00000000000E+00 0.  1.
    9000010    2    1    2  501    0 -0.31746188515E+03  0.22795691195E+02 -0.27257309467E+02  0.10468898772E+04  0.99696226704E+03 0.  0.
        -13    1    3    3    0    0 -0.21192983352E+03  0.26165514935E+03  0.41431243429E+03  0.53388432819E+03  0.10566000000E+00 0.  1.
          4    1    3    3  501    0 -0.10553205164E+03 -0.23885945815E+03 -0.44156974376E+03  0.51300554897E+03  0.00000000000E+00 0.  1.
         13    1    1    2    0    0  0.31746188515E+03 -0.22795691195E+02  0.34811028024E+03  0.47168047493E+03  0.10566000000E+00 0. -1.
<mgrwt>
<rscale>  1 0.77717246E+03</rscale>
<asrwt>0</asrwt>
<pdfrwt beam="2">  1       21 0.92132106E-01 0.10465350E+04</pdfrwt>
<pdfrwt beam="1">  1        4 0.14149410E+00 0.10465350E+04</pdfrwt>
<totfact> 0.12923745E+01</totfact>
</mgrwt>
</event>
<event>
 6    1  0.2415530E-005  0.1060641E+04  0.7818608E-02  0.9589115E-01
         21   -1    0    0  501  502  0.00000000000E+00  0.00000000000E+00  0.31516870254E+04  0.31516870254E+04  0.00000000000E+00 0. -1.
          4   -1    0    0  502    0 -0.00000000000E+00 -0.00000000000E+00 -0.16500788541E+03  0.16500788541E+03  0.00000000000E+00 0.  1.
    9000010    2    1    2  501    0  0.50199904018E+02 -0.30647044996E+03  0.17924503904E+04  0.20827473898E+04  0.10141568521E+04 0.  0.
        -13    1    3    3    0    0  0.38039534023E+03 -0.17465479535E+03  0.16457350706E+04  0.16981309862E+04  0.10566000000E+00 0.  1.
          4    1    3    3  501    0 -0.33019543621E+03 -0.13181565461E+03  0.14671531980E+03  0.38461640366E+03  0.00000000000E+00 0.  1.
         13    1    1    2    0    0 -0.50199904018E+02  0.30647044996E+03  0.11942287495E+04  0.12339475209E+04  0.10566000000E+00 0. -1.
<mgrwt>
<rscale>  1 0.78020857E+03</rscale>
<asrwt>0</asrwt>
<pdfrwt beam="1">  1       21 0.48487488E+00 0.10606405E+04</pdfrwt>
<pdfrwt beam="2">  1        4 0.25385831E-01 0.10606405E+04</pdfrwt>
<totfact> 0.95779548E-01</totfact>
</mgrwt>
</event>
<event>
 6    1  0.2415530E-005  0.1101691E+04  0.7818608E-02  0.9437783E-01
         21   -1    0    0  501  502  0.00000000000E+00  0.00000000000E+00  0.23571217660E+04  0.23571217660E+04  0.00000000000E+00 0. -1.
          4   -1    0    0  502    0 -0.00000000000E+00 -0.00000000000E+00 -0.57192730942E+03  0.57192730942E+03  0.00000000000E+00 0.  1.
    9000010    2    1    2  501    0 -0.24973618589E+03 -0.39800372060E+03  0.20944614719E+04  0.23665357671E+04  0.99646753847E+03 0.  0.
        -13    1    3    3    0    0 -0.32609454619E+03  0.25840963475E+03  0.57646611081E+03  0.71093345713E+03  0.10566000000E+00 0.  1.
          4    1    3    3  501    0  0.76358360307E+02 -0.65641335535E+03  0.15179953611E+04  0.16556023099E+04  0.00000000000E+00 0.  1.
         13    1    1    2    0    0  0.24973618589E+03  0.39800372060E+03 -0.30926701533E+03  0.56251330836E+03  0.10566000000E+00 0. -1.
<mgrwt>
<rscale>  1 0.89030450E+03</rscale>
<asrwt>0</asrwt>
<pdfrwt beam="1">  1       21 0.36263411E+00 0.11016908E+04</pdfrwt>
<pdfrwt beam="2">  1        4 0.87988818E-01 0.11016908E+04</pdfrwt>
<totfact> 0.45920925E-01</totfact>
</mgrwt>
</event>
<event>
 6    1  0.2415530E-005  0.1055193E+04  0.7818608E-02  0.9577674E-01
          4   -1    0    0  502    0 -0.00000000000E+00  0.00000000000E+00  0.10842143844E+04  0.10842143844E+04  0.00000000000E+00 0.  1.
         21   -1    0    0  501  502  0.00000000000E+00 -0.00000000000E+00 -0.84943789821E+03  0.84943789821E+03  0.00000000000E+00 0.  1.
    9000010    2    1    2  501    0  0.31796098163E+03 -0.80682976927E+02 -0.47086732228E+03  0.11554864107E+04  0.10029077134E+04 0.  0.
        -13    1    3    3    0    0  0.31587187808E+03 -0.28946323608E+03 -0.71543731232E+03  0.83391520398E+03  0.10566000000E+00 0.  1.
          4    1    3    3  501    0  0.20891035485E+01  0.20878025915E+03  0.24456999004E+03  0.32157120672E+03  0.00000000000E+00 0.  1.
         13    1    1    2    0    0 -0.31796098163E+03  0.80682976927E+02  0.70564380846E+03  0.77816587190E+03  0.10566000000E+00 0. -1.
<mgrwt>
<rscale>  1 0.78791624E+03</rscale>
<asrwt>0</asrwt>
<pdfrwt beam="2">  1       21 0.13068275E+00 0.10551933E+04</pdfrwt>
<pdfrwt beam="1">  1        4 0.16680221E+00 0.10551933E+04</pdfrwt>
<totfact> 0.33972133E+00</totfact>
</mgrwt>
</event>
<event>
 6    1  0.2415530E-005  0.1016686E+04  0.7818608E-02  0.9909293E-01
          4   -1    0    0  502    0 -0.00000000000E+00  0.00000000000E+00  0.50548559308E+03  0.50548559308E+03  0.00000000000E+00 0.  1.
         21   -1    0    0  501  502  0.00000000000E+00 -0.00000000000E+00 -0.72359060482E+03  0.72359060482E+03  0.00000000000E+00 0.  1.
    9000010    2    1    2  501    0  0.11083521889E+03 -0.50487573662E+02 -0.32464495963E+03  0.10672608324E+04  0.10093650944E+04 0.  0.
        -13    1    3    3    0    0  0.47679332241E+03  0.44066944713E+02 -0.46174011047E+03  0.66518997940E+03  0.10566000000E+00 0.  1.
          4    1    3    3  501    0 -0.36595810352E+03 -0.94554518375E+02  0.13709515084E+03  0.40207085304E+03  0.00000000000E+00 0.  1.
         13    1    1    2    0    0 -0.11083521889E+03  0.50487573662E+02  0.10653994789E+03  0.16181536546E+03  0.10566000000E+00 0. -1.
<mgrwt>
<rscale>  1 0.59812996E+03</rscale>
<asrwt>0</asrwt>
<pdfrwt beam="2">  1       21 0.11132163E+00 0.10166864E+04</pdfrwt>
<pdfrwt beam="1">  1        4 0.77767015E-01 0.10166864E+04</pdfrwt>
<totfact> 0.34959169E+01</totfact>
</mgrwt>
</event>
<event>
 6    1  0.2415530E-005  0.1131324E+04  0.7818608E-02  0.9403799E-01
         21   -1    0    0  501  502  0.00000000000E+00  0.00000000000E+00  0.43183678674E+03  0.43183678674E+03  0.00000000000E+00 0. -1.
          4   -1    0    0  502    0 -0.00000000000E+00 -0.00000000000E+00 -0.15251303119E+04  0.15251303119E+04  0.00000000000E+00 0.  1.
    9000010    2    1    2  501    0  0.10345263640E+02  0.48958232925E+03 -0.71701444789E+03  0.13394042785E+04  0.10198510780E+04 0.  0.
        -13    1    3    3    0    0 -0.24026221367E+03 -0.25214608775E+03 -0.21191679803E+03  0.40769145360E+03  0.10566000000E+00 0.  1.
          4    1    3    3  501    0  0.25060747731E+03  0.74172841700E+03 -0.50509764986E+03  0.93171282494E+03  0.00000000000E+00 0.  1.
         13    1    1    2    0    0 -0.10345263640E+02 -0.48958232925E+03 -0.37627907725E+03  0.61756282007E+03  0.10566000000E+00 0. -1.
<mgrwt>
<rscale>  1 0.91763704E+03</rscale>
<asrwt>0</asrwt>
<pdfrwt beam="1">  1       21 0.66436430E-01 0.11313240E+04</pdfrwt>
<pdfrwt beam="2">  1        4 0.23463543E+00 0.11313240E+04</pdfrwt>
<totfact> 0.62181464E+00</totfact>
</mgrwt>
</event>
<event>
 6    1  0.2415530E-005  0.1037384E+04  0.7818608E-02  0.9617466E-01
         21   -1    0    0  501  502  0.00000000000E+00  0.00000000000E+00  0.60481466776E+03  0.60481466776E+03  0.00000000000E+00 0. -1.
          4   -1    0    0  502    0 -0.00000000000E+00 -0.00000000000E+00 -0.74993621194E+03  0.74993621194E+03  0.00000000000E+00 0.  1.
    9000010    2    1    2  501    0  0.15859512011E+03 -0.25608589036E+03 -0.17504961595E+03  0.10520495483E+04  0.99269002652E+03 0.  0.
        -13    1    3    3    0    0  0.33036974992E+03  0.30555691530E+03 -0.70811366431E+02  0.45554742994E+03  0.10566000000E+00 0.  1.
          4    1    3    3  501    0 -0.17177462981E+03 -0.56164280565E+03 -0.10423824952E+03  0.59650211840E+03  0.00000000000E+00 0.  1.
         13    1    1    2    0    0 -0.15859512011E+03  0.25608589036E+03  0.29928071770E+02  0.30270133136E+03  0.10566000000E+00 0. -1.
<mgrwt>
<rscale>  1 0.76150904E+03</rscale>
<asrwt>0</asrwt>
<pdfrwt beam="1">  1       21 0.93048410E-01 0.10373842E+04</pdfrwt>
<pdfrwt beam="2">  1        4 0.11537480E+00 0.10373842E+04</pdfrwt>
<totfact> 0.21298249E+01</totfact>
</mgrwt>
</event>
<event>
 6    1  0.2415530E-005  0.9255897E+03  0.7818608E-02  0.9593715E-01
          4   -1    0    0  502    0 -0.00000000000E+00  0.00000000000E+00  0.67685694852E+03  0.67685694852E+03  0.00000000000E+00 0.  1.
         21   -1    0    0  501  502  0.00000000000E+00 -0.00000000000E+00 -0.84814617387E+03  0.84814617387E+03  0.00000000000E+00 0.  1.
    9000010    2    1    2  501    0  0.37314697323E+03 -0.26895322714E+03 -0.40352668418E+03  0.10097277101E+04  0.80320717239E+03 0.  0.
        -13    1    3    3    0    0  0.56279758764E+03 -0.14165346866E+02 -0.10271958337E+03  0.57227013349E+03  0.10566000000E+00 0.  1.
          4    1    3    3  501    0 -0.18965061442E+03 -0.25478788027E+03 -0.30080710081E+03  0.43745757666E+03  0.00000000000E+00 0.  1.
         13    1    1    2    0    0 -0.37314697323E+03  0.26895322714E+03  0.23223745883E+03  0.51527541224E+03  0.10566000000E+00 0. -1.
<mgrwt>
<rscale>  1 0.77713559E+03</rscale>
<asrwt>0</asrwt>
<pdfrwt beam="2">  1       21 0.13048403E+00 0.92558968E+03</pdfrwt>
<pdfrwt beam="1">  1        4 0.10413184E+00 0.92558968E+03</pdfrwt>
<totfact> 0.11753712E+01</totfact>
</mgrwt>
</event>
<event>
 6    1  0.2415530E-005  0.1049390E+04  0.7818608E-02  0.9675592E-01
          4   -1    0    0  502    0 -0.00000000000E+00  0.00000000000E+00  0.88736990697E+03  0.88736990697E+03  0.00000000000E+00 0.  1.
         21   -1    0    0  501  502  0.00000000000E+00 -0.00000000000E+00 -0.49561584833E+03  0.49561584833E+03  0.00000000000E+00 0.  1.
    9000010    2    1    2  501    0  0.13871953413E+03  0.19453835454E+03  0.18201695852E+03  0.10650581804E+04  0.10218270274E+04 0.  0.
        -13    1    3    3    0    0  0.19446679808E+03 -0.40392827318E+03  0.81708754710E+02  0.45568817978E+03  0.10566000000E+00 0.  1.
          4    1    3    3  501    0 -0.55747263949E+02  0.59846662772E+03  0.10030820381E+03  0.60937000065E+03  0.00000000000E+00 0.  1.
         13    1    1    2    0    0 -0.13871953413E+03 -0.19453835454E+03  0.20973710011E+03  0.31792757487E+03  0.10566000000E+00 0. -1.
<mgrwt>
<rscale>  1 0.72488812E+03</rscale>
<asrwt>0</asrwt>
<pdfrwt beam="2">  1       21 0.76248592E-01 0.10493897E+04</pdfrwt>
<pdfrwt beam="1">  1        4 0.13651845E+00 0.10493897E+04</pdfrwt>
<totfact> 0.22268446E+01</totfact>
</mgrwt>
</event>
<event>
 6    1  0.2415530E-005  0.1001473E+04  0.7818608E-02  0.9797605E-01
         21   -1    0    0  501  502  0.00000000000E+00  0.00000000000E+00  0.60469007587E+03  0.60469007587E+03  0.00000000000E+00 0.  1.
          4   -1    0    0  502    0 -0.00000000000E+00 -0.00000000000E+00 -0.63852791023E+03  0.63852791023E+03  0.00000000000E+00 0.  1.
    9000010    2    1    2  501    0 -0.15500885792E+03  0.97556885542E+02  0.11386916480E+03  0.10079256983E+04  0.98458261947E+03 0.  0.
        -13    1    3    3    0    0  0.24642072042E+03 -0.33068539152E+03  0.79130462255E+02  0.41992575634E+03  0.10566000000E+00 0.  1.
          4    1    3    3  501    0 -0.40142957835E+03  0.42824227706E+03  0.34738702542E+02  0.58799994191E+03  0.00000000000E+00 0.  1.
         13    1    1    2    0    0  0.15500885792E+03 -0.97556885542E+02 -0.14770699916E+03  0.23529228784E+03  0.10566000000E+00 0. -1.
<mgrwt>
<rscale>  1 0.65491216E+03</rscale>
<asrwt>0</asrwt>
<pdfrwt beam="1">  1       21 0.93029243E-01 0.10014729E+04</pdfrwt>
<pdfrwt beam="2">  1        4 0.98235063E-01 0.10014729E+04</pdfrwt>
<totfact> 0.31685377E+01</totfact>
</mgrwt>
</event>
<event>
 6    1  0.2415530E-005  0.1110097E+04  0.7818608E-02  0.9419061E-01
         21   -1    0    0  501  502  0.00000000000E+00  0.00000000000E+00  0.39942800218E+03  0.39942800218E+03  0.00000000000E+00 0.  1.
          4   -1    0    0  502    0 -0.00000000000E+00 -0.00000000000E+00 -0.17338800814E+04  0.17338800814E+04  0.00000000000E+00 0.  1.
    9000010    2    1    2  501    0  0.44119286701E+02  0.48887818980E+03 -0.11767518894E+04  0.16177329126E+04  0.99567382783E+03 0.  0.
        -13    1    3    3    0    0  0.19280793281E+03 -0.27257663790E+03 -0.33466959480E+03  0.47273319253E+03  0.10566000000E+00 0.  1.
          4    1    3    3  501    0 -0.14868864610E+03  0.76145482769E+03 -0.84208229456E+03  0.11449997200E+04  0.00000000000E+00 0.  1.
         13    1    1    2    0    0 -0.44119286701E+02 -0.48887818980E+03 -0.15770018989E+03  0.51557517102E+03  0.10566000000E+00 0. -1.
<mgrwt>
<rscale>  1 0.90523468E+03</rscale>
<asrwt>0</asrwt>
<pdfrwt beam="1">  1       21 0.61450464E-01 0.11100967E+04</pdfrwt>
<pdfrwt beam="2">  1        4 0.26675077E+00 0.11100967E+04</pdfrwt>
<totfact> 0.46957800E+00</totfact>
</mgrwt>
</event>
<event>
 6    1  0.2415530E-005  0.1121237E+04  0.7818608E-02  0.9396182E-01
          4   -1    0    0  502    0 -0.00000000000E+00  0.00000000000E+00  0.45247782022E+03  0.45247782022E+03  0.00000000000E+00 0.  1.
         21   -1    0    0  501  502  0.00000000000E+00 -0.00000000000E+00 -0.14929985764E+04  0.14929985764E+04  0.00000000000E+00 0. -1.
    9000010    2    1    2  501    0 -0.48860130884E+03 -0.16872686577E+03 -0.78602764622E+03  0.13693108402E+04  0.99497372937E+03 0.  0.
        -13    1    3    3    0    0  0.17316242231E+03  0.24659667714E+03 -0.69576289986E+02  0.30925073479E+03  0.10566000000E+00 0.  1.
          4    1    3    3  501    0 -0.66176373115E+03 -0.41532354291E+03 -0.71645135623E+03  0.10600601054E+04  0.00000000000E+00 0.  1.
         13    1    1    2    0    0  0.48860130884E+03  0.16872686577E+03 -0.25449310993E+03  0.57616555642E+03  0.10566000000E+00 0. -1.
<mgrwt>
<rscale>  1 0.92390574E+03</rscale>
<asrwt>0</asrwt>
<pdfrwt beam="2">  1       21 0.22969209E+00 0.11212371E+04</pdfrwt>
<pdfrwt beam="1">  1        4 0.69611971E-01 0.11212371E+04</pdfrwt>
<totfact> 0.54090755E+00</totfact>
</mgrwt>
</event>
<event>
 6    1  0.2415530E-005  0.1395956E+04  0.7818608E-02  0.9048854E-01
          4   -1    0    0  502    0 -0.00000000000E+00  0.00000000000E+00  0.10179293739E+04  0.10179293739E+04  0.00000000000E+00 0.  1.
         21   -1    0    0  501  502  0.00000000000E+00 -0.00000000000E+00 -0.13829225125E+04  0.13829225125E+04  0.00000000000E+00 0. -1.
    9000010    2    1    2  501    0  0.66295315890E+03  0.71406753324E+03 -0.15940403096E+03  0.14050274915E+04  0.99964657450E+03 0.  0.
        -13    1    3    3    0    0  0.12497928859E+03  0.36520874264E+03 -0.53668355113E+03  0.66107979359E+03  0.10566000000E+00 0.  1.
          4    1    3    3  501    0  0.53797387031E+03  0.34885879060E+03  0.37727952017E+03  0.74394769793E+03  0.00000000000E+00 0.  1.
         13    1    1    2    0    0 -0.66295315890E+03 -0.71406753324E+03 -0.20558910765E+03  0.99582439480E+03  0.10566000000E+00 0. -1.
<mgrwt>
<rscale>  1 0.12759537E+04</rscale>
<asrwt>0</asrwt>
<pdfrwt beam="2">  1       21 0.21275731E+00 0.13959558E+04</pdfrwt>
<pdfrwt beam="1">  1        4 0.15660452E+00 0.13959558E+04</pdfrwt>
<totfact> 0.92152561E-01</totfact>
</mgrwt>
</event>
<event>
 6    1  0.2415530E-005  0.1100993E+04  0.7818608E-02  0.9460623E-01
          4   -1    0    0  502    0 -0.00000000000E+00  0.00000000000E+00  0.46989007376E+03  0.46989007376E+03  0.00000000000E+00 0.  1.
         21   -1    0    0  501  502  0.00000000000E+00 -0.00000000000E+00 -0.13942658676E+04  0.13942658676E+04  0.00000000000E+00 0. -1.
    9000010    2    1    2  501    0  0.31891667419E+03 -0.29469002156E+03 -0.91215707366E+03  0.14297605430E+04  0.10117483033E+04 0.  0.
        -13    1    3    3    0    0  0.24680040328E+03 -0.44494264962E+03 -0.10796125840E+04  0.11935023013E+04  0.10566000000E+00 0.  1.
          4    1    3    3  501    0  0.72116270906E+02  0.15025262807E+03  0.16745551039E+03  0.23625824161E+03  0.00000000000E+00 0.  1.
         13    1    1    2    0    0 -0.31891667419E+03  0.29469002156E+03 -0.12218720201E+02  0.43439539842E+03  0.10566000000E+00 0. -1.
<mgrwt>
<rscale>  1 0.87250241E+03</rscale>
<asrwt>0</asrwt>
<pdfrwt beam="2">  1       21 0.21450244E+00 0.11009926E+04</pdfrwt>
<pdfrwt beam="1">  1        4 0.72290781E-01 0.11009926E+04</pdfrwt>
<totfact> 0.62781989E+00</totfact>
</mgrwt>
</event>
<event>
 6    1  0.2415530E-005  0.7758195E+03  0.7818608E-02  0.1007193E+00
          4   -1    0    0  502    0 -0.00000000000E+00  0.00000000000E+00  0.66052663369E+03  0.66052663369E+03  0.00000000000E+00 0.  1.
         21   -1    0    0  501  502  0.00000000000E+00 -0.00000000000E+00 -0.36310443142E+03  0.36310443142E+03  0.00000000000E+00 0.  1.
    9000010    2    1    2  501    0  0.22236451167E+02 -0.16248774590E+03  0.12527683250E+03  0.78586906892E+03  0.75828700464E+03 0.  0.
        -13    1    3    3    0    0  0.22953470171E+03  0.35366452482E+02  0.35114048354E+03  0.42099479283E+03  0.10566000000E+00 0.  1.
          4    1    3    3  501    0 -0.20729825054E+03 -0.19785419838E+03 -0.22586365104E+03  0.36487427609E+03  0.00000000000E+00 0.  1.
         13    1    1    2    0    0 -0.22236451167E+02  0.16248774590E+03  0.17214536978E+03  0.23776199618E+03  0.10566000000E+00 0. -1.
<mgrwt>
<rscale>  1 0.52605721E+03</rscale>
<asrwt>0</asrwt>
<pdfrwt beam="2">  1       21 0.55862220E-01 0.77581951E+03</pdfrwt>
<pdfrwt beam="1">  1        4 0.10161948E+00 0.77581951E+03</pdfrwt>
<totfact> 0.96408869E+01</totfact>
</mgrwt>
</event>
<event>
 6    1  0.2415530E-005  0.1014021E+04  0.7818608E-02  0.1004523E+00
          4   -1    0    0  502    0 -0.00000000000E+00  0.00000000000E+00  0.95088426396E+03  0.95088426396E+03  0.00000000000E+00 0.  1.
         21   -1    0    0  501  502  0.00000000000E+00 -0.00000000000E+00 -0.32596041794E+03  0.32596041794E+03  0.00000000000E+00 0.  1.
    9000010    2    1    2  501    0 -0.19345778291E+02 -0.77439057425E+02  0.50506633479E+03  0.11328415538E+04  0.10108743328E+04 0.  0.
        -13    1    3    3    0    0  0.11738496209E+03  0.15820952608E+03 -0.25683884738E+03  0.32369072918E+03  0.10566000000E+00 0.  1.
          4    1    3    3  501    0 -0.13673074038E+03 -0.23564858351E+03  0.76190518218E+03  0.80915082457E+03  0.00000000000E+00 0.  1.
         13    1    1    2    0    0  0.19345778291E+02  0.77439057425E+02  0.11985751123E+03  0.14400312814E+03  0.10566000000E+00 0. -1.
<mgrwt>
<rscale>  1 0.53710814E+03</rscale>
<asrwt>0</asrwt>
<pdfrwt beam="2">  1       21 0.50147757E-01 0.10140207E+04</pdfrwt>
<pdfrwt beam="1">  1        4 0.14628989E+00 0.10140207E+04</pdfrwt>
<totfact> 0.47646099E+01</totfact>
</mgrwt>
</event>
<event>
 6    1  0.2415530E-005  0.1016822E+04  0.7818608E-02  0.9676286E-01
         21   -1    0    0  501  502  0.00000000000E+00  0.00000000000E+00  0.28742493107E+03  0.28742493107E+03  0.00000000000E+00 0.  1.
          4   -1    0    0  502    0 -0.00000000000E+00 -0.00000000000E+00 -0.14904438195E+04  0.14904438195E+04  0.00000000000E+00 0.  1.
    9000010    2    1    2  501    0 -0.17778011364E+03 -0.19247914503E+03 -0.78526760310E+03  0.12847459082E+04  0.98248300247E+03 0.  0.
        -13    1    3    3    0    0 -0.32210436011E+03  0.30546619568E+03 -0.15853527773E+03  0.47137486245E+03  0.10566000000E+00 0.  1.
          4    1    3    3  501    0  0.14432424647E+03 -0.49794534070E+03 -0.62673232536E+03  0.81337104577E+03  0.00000000000E+00 0.  1.
         13    1    1    2    0    0  0.17778011364E+03  0.19247914503E+03 -0.41775128532E+03  0.49312284233E+03  0.10566000000E+00 0. -1.
<mgrwt>
<rscale>  1 0.72446417E+03</rscale>
<asrwt>0</asrwt>
<pdfrwt beam="1">  1       21 0.44219221E-01 0.10168219E+04</pdfrwt>
<pdfrwt beam="2">  1        4 0.22929904E+00 0.10168219E+04</pdfrwt>
<totfact> 0.16632080E+01</totfact>
</mgrwt>
</event>
<event>
 6    1  0.2415530E-005  0.9917359E+03  0.7818608E-02  0.9549690E-01
         21   -1    0    0  501  502  0.00000000000E+00  0.00000000000E+00  0.39469850279E+03  0.39469850279E+03  0.00000000000E+00 0.  1.
          4   -1    0    0  502    0 -0.00000000000E+00 -0.00000000000E+00 -0.17394559027E+04  0.17394559027E+04  0.00000000000E+00 0.  1.
    9000010    2    1    2  501    0  0.10415225006E+03  0.42254619859E+03 -0.35571531768E+03  0.10536002732E+04  0.89114935190E+03 0.  0.
        -13    1    3    3    0    0 -0.25963452941E+03 -0.91980723413E+02  0.80777725322E+02  0.28704632799E+03  0.10566000000E+00 0.  1.
          4    1    3    3  501    0  0.36378677947E+03  0.51452692200E+03 -0.43649304300E+03  0.76655394525E+03  0.00000000000E+00 0.  1.
         13    1    1    2    0    0 -0.10415225006E+03 -0.42254619859E+03 -0.98904208224E+03  0.10805541323E+04  0.10566000000E+00 0. -1.
<mgrwt>
<rscale>  1 0.80717467E+03</rscale>
<asrwt>0</asrwt>
<pdfrwt beam="1">  1       21 0.60722848E-01 0.99173593E+03</pdfrwt>
<pdfrwt beam="2">  1        4 0.26760859E+00 0.99173593E+03</pdfrwt>
<totfact> 0.48393239E+00</totfact>
</mgrwt>
</event>
<event>
 6    1  0.2415530E-005  0.1096585E+04  0.7818608E-02  0.9539123E-01
         21   -1    0    0  501  502  0.00000000000E+00  0.00000000000E+00  0.60512675642E+03  0.60512675642E+03  0.00000000000E+00 0.  1.
          4   -1    0    0  502    0 -0.00000000000E+00 -0.00000000000E+00 -0.96564051798E+03  0.96564051798E+03  0.00000000000E+00 0.  1.
    9000010    2    1    2  501    0  0.26827137584E+03 -0.19883684006E+03 -0.24225210787E+02  0.10968520704E+04  0.10445056167E+04 0.  0.
        -13    1    3    3    0    0  0.63599551987E+03 -0.27732713084E+03 -0.13075756460E+03  0.70604404300E+03  0.10566000000E+00 0.  1.
          4    1    3    3  501    0 -0.36772414403E+03  0.78490290786E+02  0.10653235382E+03  0.39080802738E+03  0.00000000000E+00 0.  1.
         13    1    1    2    0    0 -0.26827137584E+03  0.19883684006E+03 -0.33628855078E+03  0.47391520402E+03  0.10566000000E+00 0. -1.
<mgrwt>
<rscale>  1 0.81459864E+03</rscale>
<asrwt>0</asrwt>
<pdfrwt beam="1">  1       21 0.93096424E-01 0.10965845E+04</pdfrwt>
<pdfrwt beam="2">  1        4 0.14856008E+00 0.10965845E+04</pdfrwt>
<totfact> 0.11011004E+01</totfact>
</mgrwt>
</event>
<event>
 6    1  0.2415530E-005  0.9075713E+03  0.7818608E-02  0.9960060E-01
          4   -1    0    0  502    0 -0.00000000000E+00  0.00000000000E+00  0.70325422355E+03  0.70325422355E+03  0.00000000000E+00 0.  1.
         21   -1    0    0  501  502  0.00000000000E+00 -0.00000000000E+00 -0.39570315117E+03  0.39570315117E+03  0.00000000000E+00 0.  1.
    9000010    2    1    2  501    0 -0.19964254981E+02 -0.14420982559E+03  0.28736643924E+03  0.95197956738E+03  0.89581838619E+03 0.  0.
        -13    1    3    3    0    0 -0.40036594862E+03 -0.46265348034E+02 -0.83688584939E+02  0.41162745979E+03  0.10566000000E+00 0.  1.
          4    1    3    3  501    0  0.38040169364E+03 -0.97944477557E+02  0.37105502417E+03  0.54035210759E+03  0.00000000000E+00 0.  1.
         13    1    1    2    0    0  0.19964254981E+02  0.14420982559E+03  0.20184633143E+02  0.14697780735E+03  0.10566000000E+00 0. -1.
<mgrwt>
<rscale>  1 0.57436760E+03</rscale>
<asrwt>0</asrwt>
<pdfrwt beam="2">  1       21 0.60877408E-01 0.90757128E+03</pdfrwt>
<pdfrwt beam="1">  1        4 0.10819296E+00 0.90757128E+03</pdfrwt>
<totfact> 0.67709674E+01</totfact>
</mgrwt>
</event>
<event>
 6    1  0.2415530E-005  0.1273222E+04  0.7818608E-02  0.9174298E-01
         21   -1    0    0  501  502  0.00000000000E+00  0.00000000000E+00  0.13183633719E+04  0.13183633719E+04  0.00000000000E+00 0. -1.
          4   -1    0    0  502    0 -0.00000000000E+00 -0.00000000000E+00 -0.82317217342E+03  0.82317217342E+03  0.00000000000E+00 0.  1.
    9000010    2    1    2  501    0  0.89604129680E+02  0.79126089441E+03  0.18344442048E+03  0.12863696153E+04  0.99346475968E+03 0.  0.
        -13    1    3    3    0    0  0.49317729146E+03  0.45403853908E+03 -0.11729086317E+03  0.68053801770E+03  0.10566000000E+00 0.  1.
          4    1    3    3  501    0 -0.40357316178E+03  0.33722235533E+03  0.30073528365E+03  0.60583159762E+03  0.00000000000E+00 0.  1.
         13    1    1    2    0    0 -0.89604129680E+02 -0.79126089441E+03  0.31174677801E+03  0.85516593001E+03  0.10566000000E+00 0. -1.
<mgrwt>
<rscale>  1 0.11322697E+04</rscale>
<asrwt>0</asrwt>
<pdfrwt beam="1">  1       21 0.20282513E+00 0.12732223E+04</pdfrwt>
<pdfrwt beam="2">  1        4 0.12664187E+00 0.12732223E+04</pdfrwt>
<totfact> 0.19207719E+00</totfact>
</mgrwt>
</event>
<event>
 6    1  0.2415530E-005  0.1035038E+04  0.7818608E-02  0.9668007E-01
         21   -1    0    0  501  502  0.00000000000E+00  0.00000000000E+00  0.44970228437E+03  0.44970228437E+03  0.00000000000E+00 0.  1.
          4   -1    0    0  502    0 -0.00000000000E+00 -0.00000000000E+00 -0.95043475183E+03  0.95043475183E+03  0.00000000000E+00 0.  1.
    9000010    2    1    2  501    0 -0.21146313561E+03  0.14333448950E+03 -0.30726652907E+03  0.10796834294E+04  0.10030165274E+04 0.  0.
        -13    1    3    3    0    0 -0.33016965324E+03 -0.17420396184E+03 -0.54859080995E+03  0.66355927254E+03  0.10566000000E+00 0.  1.
          4    1    3    3  501    0  0.11870651763E+03  0.31753845135E+03  0.24132428088E+03  0.41612415690E+03  0.00000000000E+00 0.  1.
         13    1    1    2    0    0  0.21146313561E+03 -0.14333448950E+03 -0.19346593839E+03  0.32045360676E+03  0.10566000000E+00 0. -1.
<mgrwt>
<rscale>  1 0.72954031E+03</rscale>
<asrwt>0</asrwt>
<pdfrwt beam="1">  1       21 0.69184967E-01 0.10350380E+04</pdfrwt>
<pdfrwt beam="2">  1        4 0.14622073E+00 0.10350380E+04</pdfrwt>
<totfact> 0.23281964E+01</totfact>
</mgrwt>
</event>
<event>
 6    1  0.2415530E-005  0.1011152E+04  0.7818608E-02  0.9804666E-01
          4   -1    0    0  502    0 -0.00000000000E+00  0.00000000000E+00  0.86295344297E+03  0.86295344297E+03  0.00000000000E+00 0.  1.
         21   -1    0    0  501  502  0.00000000000E+00 -0.00000000000E+00 -0.42182180584E+03  0.42182180584E+03  0.00000000000E+00 0.  1.
    9000010    2    1    2  501    0 -0.10599173140E+03 -0.13782260133E+03  0.28363258714E+03  0.10501792589E+04  0.99609222204E+03 0.  0.
        -13    1    3    3    0    0 -0.13208027664E+03  0.40705057349E+03 -0.15158947020E+02  0.42821159921E+03  0.10566000000E+00 0.  1.
          4    1    3    3  501    0  0.26088545242E+02 -0.54487317483E+03  0.29879153416E+03  0.62196765971E+03  0.00000000000E+00 0.  1.
         13    1    1    2    0    0  0.10599173140E+03  0.13782260133E+03  0.15749904999E+03  0.23459598989E+03  0.10566000000E+00 0. -1.
<mgrwt>
<rscale>  1 0.65112744E+03</rscale>
<asrwt>0</asrwt>
<pdfrwt beam="2">  1       21 0.64895663E-01 0.10111523E+04</pdfrwt>
<pdfrwt beam="1">  1        4 0.13276207E+00 0.10111523E+04</pdfrwt>
<totfact> 0.34774375E+01</totfact>
</mgrwt>
</event>
<event>
 6    1  0.2415530E-005  0.1032111E+04  0.7818608E-02  0.9714950E-01
         21   -1    0    0  501  502  0.00000000000E+00  0.00000000000E+00  0.82935114114E+03  0.82935114114E+03  0.00000000000E+00 0.  1.
          4   -1    0    0  502    0 -0.00000000000E+00 -0.00000000000E+00 -0.76793224937E+03  0.76793224937E+03  0.00000000000E+00 0.  1.
    9000010    2    1    2  501    0  0.21928311684E+03 -0.18382603934E+02  0.46932494249E+03  0.11338070019E+04  0.10083795964E+04 0.  0.
        -13    1    3    3    0    0  0.41257750041E+03  0.37793542511E+03  0.39919399545E+03  0.68732178531E+03  0.10566000000E+00 0.  1.
          4    1    3    3  501    0 -0.19329438357E+03 -0.39631802904E+03  0.70130947038E+02  0.44648521655E+03  0.00000000000E+00 0.  1.
         13    1    1    2    0    0 -0.21928311684E+03  0.18382603934E+02 -0.40790605072E+03  0.46347638865E+03  0.10566000000E+00 0. -1.
<mgrwt>
<rscale>  1 0.70133607E+03</rscale>
<asrwt>0</asrwt>
<pdfrwt beam="1">  1       21 0.12759248E+00 0.10321107E+04</pdfrwt>
<pdfrwt beam="2">  1        4 0.11814342E+00 0.10321107E+04</pdfrwt>
<totfact> 0.90236533E+00</totfact>
</mgrwt>
</event>
<event>
 6    1  0.2415530E-005  0.1050158E+04  0.7818608E-02  0.9609754E-01
          4   -1    0    0  502    0 -0.00000000000E+00  0.00000000000E+00  0.26255336475E+03  0.26255336475E+03  0.00000000000E+00 0.  1.
         21   -1    0    0  501  502  0.00000000000E+00 -0.00000000000E+00 -0.23453854616E+04  0.23453854616E+04  0.00000000000E+00 0.  1.
    9000010    2    1    2  501    0 -0.14597974425E+03 -0.25992039958E+03 -0.20559412362E+04  0.23086198837E+04  0.10069571496E+04 0.  0.
        -13    1    3    3    0    0 -0.45962853289E+03  0.19073700022E+03 -0.10713580225E+04  0.11812904025E+04  0.10566000000E+00 0.  1.
          4    1    3    3  501    0  0.31364878864E+03 -0.45065739980E+03 -0.98458321369E+03  0.11273294812E+04  0.00000000000E+00 0.  1.
         13    1    1    2    0    0  0.14597974425E+03  0.25992039958E+03 -0.26890860653E+02  0.29931894260E+03  0.10566000000E+00 0. -1.
<mgrwt>
<rscale>  1 0.76653949E+03</rscale>
<asrwt>0</asrwt>
<pdfrwt beam="2">  1       21 0.36082854E+00 0.10501578E+04</pdfrwt>
<pdfrwt beam="1">  1        4 0.40392825E-01 0.10501578E+04</pdfrwt>
<totfact> 0.26069662E+00</totfact>
</mgrwt>
</event>
<event>
 6    1  0.2415530E-005  0.1048568E+04  0.7818608E-02  0.9618396E-01
          4   -1    0    0  502    0 -0.00000000000E+00  0.00000000000E+00  0.57433111060E+03  0.57433111060E+03  0.00000000000E+00 0.  1.
         21   -1    0    0  501  502  0.00000000000E+00 -0.00000000000E+00 -0.91307681837E+03  0.91307681837E+03  0.00000000000E+00 0.  1.
    9000010    2    1    2  501    0  0.26277096148E+03  0.12446561053E+03 -0.49253449134E+03  0.11584835189E+04  0.10074490419E+04 0.  0.
        -13    1    3    3    0    0  0.27811233212E+03 -0.40621968735E+03 -0.36395306726E+03  0.61222769457E+03  0.10566000000E+00 0.  1.
          4    1    3    3  501    0 -0.15341370637E+02  0.53068529788E+03 -0.12858142408E+03  0.54625582437E+03  0.00000000000E+00 0.  1.
         13    1    1    2    0    0 -0.26277096148E+03 -0.12446561053E+03  0.15378878357E+03  0.32892441004E+03  0.10566000000E+00 0. -1.
<mgrwt>
<rscale>  1 0.76090469E+03</rscale>
<asrwt>0</asrwt>
<pdfrwt beam="2">  1       21 0.14047336E+00 0.10485675E+04</pdfrwt>
<pdfrwt beam="1">  1        4 0.88358632E-01 0.10485675E+04</pdfrwt>
<totfact> 0.14066320E+01</totfact>
</mgrwt>
</event>
<event>
 6    1  0.2415530E-005  0.1230202E+04  0.7818608E-02  0.9234706E-01
         21   -1    0    0  501  502  0.00000000000E+00  0.00000000000E+00  0.10625307221E+04  0.10625307221E+04  0.00000000000E+00 0.  1.
          4   -1    0    0  502    0 -0.00000000000E+00 -0.00000000000E+00 -0.99893150579E+03  0.99893150579E+03  0.00000000000E+00 0.  1.
    9000010    2    1    2  501    0 -0.63064577009E+03  0.31435602094E+03  0.38209548642E+03  0.12881746484E+04  0.10083963352E+04 0.  0.
        -13    1    3    3    0    0 -0.27381260149E+03 -0.27465125270E+03 -0.15212837767E+03  0.41659297377E+03  0.10566000000E+00 0.  1.
          4    1    3    3  501    0 -0.35683316860E+03  0.58900727364E+03  0.53422386409E+03  0.87158167464E+03  0.00000000000E+00 0.  1.
         13    1    1    2    0    0  0.63064577009E+03 -0.31435602094E+03 -0.31849627015E+03  0.77328757943E+03  0.10566000000E+00 0. -1.
<mgrwt>
<rscale>  1 0.10702271E+04</rscale>
<asrwt>0</asrwt>
<pdfrwt beam="1">  1       21 0.16346627E+00 0.12302020E+04</pdfrwt>
<pdfrwt beam="2">  1        4 0.15368177E+00 0.12302020E+04</pdfrwt>
<totfact> 0.22379874E+00</totfact>
</mgrwt>
</event>
<event>
 6    1  0.2415530E-005  0.1056476E+04  0.7818608E-02  0.9554217E-01
          4   -1    0    0  502    0 -0.00000000000E+00  0.00000000000E+00  0.11693555390E+04  0.11693555390E+04  0.00000000000E+00 0.  1.
         21   -1    0    0  501  502  0.00000000000E+00 -0.00000000000E+00 -0.48950082652E+03  0.48950082652E+03  0.00000000000E+00 0.  1.
    9000010    2    1    2  501    0 -0.23477713206E+03  0.26547307714E+03  0.22145410578E+03  0.10794364972E+04  0.99526125920E+03 0.  0.
        -13    1    3    3    0    0  0.85262250445E+01 -0.32096397947E+03 -0.13840711924E+03  0.34963854829E+03  0.10566000000E+00 0.  1.
          4    1    3    3  501    0 -0.24330335711E+03  0.58643705661E+03  0.35986122501E+03  0.72979794889E+03  0.00000000000E+00 0.  1.
         13    1    1    2    0    0  0.23477713206E+03 -0.26547307714E+03  0.45840060672E+03  0.57941986834E+03  0.10566000000E+00 0. -1.
<mgrwt>
<rscale>  1 0.80401985E+03</rscale>
<asrwt>0</asrwt>
<pdfrwt beam="2">  1       21 0.75307820E-01 0.10564759E+04</pdfrwt>
<pdfrwt beam="1">  1        4 0.17990085E+00 0.10564759E+04</pdfrwt>
<totfact> 0.10753947E+01</totfact>
</mgrwt>
</event>
<event>
 6    1  0.2415530E-005  0.1031798E+04  0.7818608E-02  0.9683643E-01
         21   -1    0    0  501  502  0.00000000000E+00  0.00000000000E+00  0.10349579878E+04  0.10349579878E+04  0.00000000000E+00 0.  1.
          4   -1    0    0  502    0 -0.00000000000E+00 -0.00000000000E+00 -0.43900654247E+03  0.43900654247E+03  0.00000000000E+00 0.  1.
    9000010    2    1    2  501    0  0.11265078271E+03  0.21715797736E+03  0.65520533073E+03  0.12222527505E+04  0.10023771620E+04 0.  0.
        -13    1    3    3    0    0 -0.35890573108E+03  0.38813504886E+03  0.36976199818E+03  0.64512486110E+03  0.10566000000E+00 0.  1.
          4    1    3    3  501    0  0.47155651379E+03 -0.17097707149E+03  0.28544333255E+03  0.57712788944E+03  0.00000000000E+00 0.  1.
         13    1    1    2    0    0 -0.11265078271E+03 -0.21715797736E+03 -0.59253885355E+02  0.25171177976E+03  0.10566000000E+00 0. -1.
<mgrwt>
<rscale>  1 0.71999111E+03</rscale>
<asrwt>0</asrwt>
<pdfrwt beam="1">  1       21 0.15922431E+00 0.10317983E+04</pdfrwt>
<pdfrwt beam="2">  1        4 0.67539468E-01 0.10317983E+04</pdfrwt>
<totfact> 0.18351977E+01</totfact>
</mgrwt>
</event>
<event>
 6    1  0.2415530E-005  0.1069659E+04  0.7818608E-02  0.9535044E-01
         21   -1    0    0  501  502  0.00000000000E+00  0.00000000000E+00  0.55989879309E+03  0.55989879309E+03  0.00000000000E+00 0. -1.
          4   -1    0    0  502    0 -0.00000000000E+00 -0.00000000000E+00 -0.92108036633E+03  0.92108036633E+03  0.00000000000E+00 0.  1.
    9000010    2    1    2  501    0  0.28969191158E+03 -0.22189932836E+03 -0.30039302739E+03  0.11110386588E+04  0.10054900371E+04 0.  0.
        -13    1    3    3    0    0  0.38979677781E+03 -0.51315163807E+03  0.47805981030E+02  0.64618229210E+03  0.10566000000E+00 0.  1.
          4    1    3    3  501    0 -0.10010486622E+03  0.29125230971E+03 -0.34819900842E+03  0.46485636665E+03  0.00000000000E+00 0.  1.
         13    1    1    2    0    0 -0.28969191158E+03  0.22189932836E+03 -0.60788545859E+02  0.36994050067E+03  0.10566000000E+00 0. -1.
<mgrwt>
<rscale>  1 0.81748758E+03</rscale>
<asrwt>0</asrwt>
<pdfrwt beam="1">  1       21 0.86138276E-01 0.10696593E+04</pdfrwt>
<pdfrwt beam="2">  1        4 0.14170467E+00 0.10696593E+04</pdfrwt>
<totfact> 0.15105830E+01</totfact>
</mgrwt>
</event>
<event>
 6    1  0.2415530E-005  0.1015197E+04  0.7818608E-02  0.9872560E-01
         21   -1    0    0  501  502  0.00000000000E+00  0.00000000000E+00  0.81245685940E+03  0.81245685940E+03  0.00000000000E+00 0.  1.
          4   -1    0    0  502    0 -0.00000000000E+00 -0.00000000000E+00 -0.53023340848E+03  0.53023340848E+03  0.00000000000E+00 0.  1.
    9000010    2    1    2  501    0  0.67139393891E+02  0.12022765331E+03  0.46270841244E+03  0.11156721643E+04  0.10058145537E+04 0.  0.
        -13    1    3    3    0    0  0.31253500675E+03 -0.32228323382E+03  0.40815422586E+03  0.60674088085E+03  0.10566000000E+00 0.  1.
          4    1    3    3  501    0 -0.24539561286E+03  0.44251088713E+03  0.54554186585E+02  0.50893128349E+03  0.00000000000E+00 0.  1.
         13    1    1    2    0    0 -0.67139393891E+02 -0.12022765331E+03 -0.18048496152E+03  0.22701810354E+03  0.10566000000E+00 0. -1.
<mgrwt>
<rscale>  1 0.61609752E+03</rscale>
<asrwt>0</asrwt>
<pdfrwt beam="1">  1       21 0.12499336E+00 0.10151972E+04</pdfrwt>
<pdfrwt beam="2">  1        4 0.81574370E-01 0.10151972E+04</pdfrwt>
<totfact> 0.23229388E+01</totfact>
</mgrwt>
</event>
<event>
 6    1  0.2415530E-005  0.1027023E+04  0.7818608E-02  0.9620852E-01
          4   -1    0    0  502    0 -0.00000000000E+00  0.00000000000E+00  0.26962136165E+03  0.26962136165E+03  0.00000000000E+00 0.  1.
         21   -1    0    0  501  502  0.00000000000E+00 -0.00000000000E+00 -0.17186626594E+04  0.17186626594E+04  0.00000000000E+00 0.  1.
    9000010    2    1    2  501    0  0.15130153444E+02  0.30648848955E+03 -0.12689243972E+04  0.16324663362E+04  0.98010871720E+03 0.  0.
        -13    1    3    3    0    0  0.34643448721E+03  0.43932638705E+03 -0.11073337178E+04  0.12406500321E+04  0.10566000000E+00 0.  1.
          4    1    3    3  501    0 -0.33130433376E+03 -0.13283789750E+03 -0.16159067935E+03  0.39181630419E+03  0.00000000000E+00 0.  1.
         13    1    1    2    0    0 -0.15130153444E+02 -0.30648848955E+03 -0.18011690061E+03  0.35581768480E+03  0.10566000000E+00 0. -1.
<mgrwt>
<rscale>  1 0.75931322E+03</rscale>
<asrwt>0</asrwt>
<pdfrwt beam="2">  1       21 0.26440963E+00 0.10270235E+04</pdfrwt>
<pdfrwt beam="1">  1        4 0.41480211E-01 0.10270235E+04</pdfrwt>
<totfact> 0.99613321E+00</totfact>
</mgrwt>
</event>
<event>
 6    1  0.2415530E-005  0.1021866E+04  0.7818608E-02  0.9791903E-01
         21   -1    0    0  501  502  0.00000000000E+00  0.00000000000E+00  0.16440866182E+04  0.16440866182E+04  0.00000000000E+00 0.  1.
          4   -1    0    0  502    0 -0.00000000000E+00 -0.00000000000E+00 -0.28943820216E+03  0.28943820216E+03  0.00000000000E+00 0.  1.
    9000010    2    1    2  501    0 -0.13522769339E+03 -0.11212789436E+03  0.14170819668E+04  0.17470921162E+04  0.10066530525E+04 0.  0.
        -13    1    3    3    0    0 -0.32369011762E+03 -0.44906915549E+03  0.11540159886E+04  0.12799184786E+04  0.10566000000E+00 0.  1.
          4    1    3    3  501    0  0.18846242423E+03  0.33694126113E+03  0.26306597823E+03  0.46717363763E+03  0.00000000000E+00 0.  1.
         13    1    1    2    0    0  0.13522769339E+03  0.11212789436E+03 -0.62433550783E+02  0.18643270416E+03  0.10566000000E+00 0. -1.
<mgrwt>
<rscale>  1 0.65798875E+03</rscale>
<asrwt>0</asrwt>
<pdfrwt beam="1">  1       21 0.25293640E+00 0.10218657E+04</pdfrwt>
<pdfrwt beam="2">  1        4 0.44528955E-01 0.10218657E+04</pdfrwt>
<totfact> 0.10176247E+01</totfact>
</mgrwt>
</event>
<event>
 6    1  0.2415530E-005  0.1070362E+04  0.7818608E-02  0.9506741E-01
          4   -1    0    0  502    0 -0.00000000000E+00  0.00000000000E+00  0.86800722495E+03  0.86800722495E+03  0.00000000000E+00 0.  1.
         21   -1    0    0  501  502  0.00000000000E+00 -0.00000000000E+00 -0.64192734222E+03  0.64192734222E+03  0.00000000000E+00 0. -1.
    9000010    2    1    2  501    0  0.33291784305E+03 -0.22519172791E+03  0.27477349683E+03  0.11050683130E+04  0.99203321382E+03 0.  0.
        -13    1    3    3    0    0  0.38882887410E+03 -0.58440510138E+03  0.23065064567E+03  0.73886192713E+03  0.10566000000E+00 0.  1.
          4    1    3    3  501    0 -0.55911031045E+02  0.35921337347E+03  0.44122851153E+02  0.36620638589E+03  0.00000000000E+00 0.  1.
         13    1    1    2    0    0 -0.33291784305E+03  0.22519172791E+03 -0.48693614095E+02  0.40486625416E+03  0.10566000000E+00 0. -1.
<mgrwt>
<rscale>  1 0.83788625E+03</rscale>
<asrwt>0</asrwt>
<pdfrwt beam="2">  1       21 0.98758052E-01 0.10703623E+04</pdfrwt>
<pdfrwt beam="1">  1        4 0.13353957E+00 0.10703623E+04</pdfrwt>
<totfact> 0.12652450E+01</totfact>
</mgrwt>
</event>
<event>
 6    1  0.2415530E-005  0.1042818E+04  0.7818608E-02  0.9821174E-01
          4   -1    0    0  502    0 -0.00000000000E+00  0.00000000000E+00  0.40672209688E+03  0.40672209688E+03  0.00000000000E+00 0.  1.
         21   -1    0    0  501  502  0.00000000000E+00 -0.00000000000E+00 -0.10205499718E+04  0.10205499718E+04  0.00000000000E+00 0.  1.
    9000010    2    1    2  501    0 -0.14330515194E+03  0.44854608595E+02 -0.69825752503E+03  0.12550028623E+04  0.10319497617E+04 0.  0.
        -13    1    3    3    0    0 -0.18440412960E+03  0.34943239316E+03  0.93216045217E+02  0.40595211868E+03  0.10566000000E+00 0.  1.
          4    1    3    3  501    0  0.41098977661E+02 -0.30457778457E+03 -0.79147357025E+03  0.84905074361E+03  0.00000000000E+00 0.  1.
         13    1    1    2    0    0  0.14330515194E+03 -0.44854608595E+02  0.84429650122E+02  0.17226920639E+03  0.10566000000E+00 0. -1.
<mgrwt>
<rscale>  1 0.64238521E+03</rscale>
<asrwt>0</asrwt>
<pdfrwt beam="2">  1       21 0.15700769E+00 0.10428176E+04</pdfrwt>
<pdfrwt beam="1">  1        4 0.62572631E-01 0.10428176E+04</pdfrwt>
<totfact> 0.22587359E+01</totfact>
</mgrwt>
</event>
<event>
 6    1  0.2415530E-005  0.1149508E+04  0.7818608E-02  0.9339809E-01
         21   -1    0    0  501  502  0.00000000000E+00  0.00000000000E+00  0.20308012855E+04  0.20308012855E+04  0.00000000000E+00 0. -1.
          4   -1    0    0  502    0 -0.00000000000E+00 -0.00000000000E+00 -0.37212241874E+03  0.37212241874E+03  0.00000000000E+00 0.  1.
    9000010    2    1    2  501    0 -0.36203333722E+03 -0.46287603552E+03  0.10502549812E+04  0.15570501929E+04  0.98795112030E+03 0.  0.
        -13    1    3    3    0    0 -0.66193010915E+03 -0.16355752450E+03  0.43074068159E+03  0.80649865415E+03  0.10566000000E+00 0.  1.
          4    1    3    3  501    0  0.29989677193E+03 -0.29931851102E+03  0.61951429963E+03  0.75055153874E+03  0.00000000000E+00 0.  1.
         13    1    1    2    0    0  0.36203333722E+03  0.46287603552E+03  0.60842388551E+03  0.84587351131E+03  0.10566000000E+00 0. -1.
<mgrwt>
<rscale>  1 0.97199109E+03</rscale>
<asrwt>0</asrwt>
<pdfrwt beam="1">  1       21 0.31243096E+00 0.11495085E+04</pdfrwt>
<pdfrwt beam="2">  1        4 0.57249604E-01 0.11495085E+04</pdfrwt>
<totfact> 0.24828628E+00</totfact>
</mgrwt>
</event>
<event>
 6    1  0.2824924E-005  0.8127236E+03  0.7818608E-02  0.1020116E+00
         21   -1    0    0  501  502  0.00000000000E+00  0.00000000000E+00  0.29330476502E+03  0.29330476502E+03  0.00000000000E+00 0.  1.
          4   -1    0    0  502    0 -0.00000000000E+00 -0.00000000000E+00 -0.90974665362E+03  0.90974665362E+03  0.00000000000E+00 0.  1.
    9000010    2    1    2  501    0 -0.95973177723E+02  0.18403701731E+01 -0.29019986290E+03  0.86298067850E+03  0.80703497646E+03 0.  0.
        -13    1    3    3    0    0 -0.43799067206E+03  0.34047554878E+02 -0.27669029929E+03  0.51918455071E+03  0.10566000000E+00 0.  1.
          4    1    3    3  501    0  0.34201749434E+03 -0.32207184705E+02 -0.13509563610E+02  0.34379612780E+03  0.00000000000E+00 0.  1.
         13    1    1    2    0    0  0.95973177723E+02 -0.18403701731E+01 -0.32624202570E+03  0.34007074014E+03  0.10566000000E+00 0. -1.
<mgrwt>
<rscale>  1 0.47644707E+03</rscale>
<asrwt>0</asrwt>
<pdfrwt beam="1">  1       21 0.45123810E-01 0.81272363E+03</pdfrwt>
<pdfrwt beam="2">  1        4 0.13996102E+00 0.81272363E+03</pdfrwt>
<totfact> 0.68298267E+01</totfact>
</mgrwt>
</event>
<event>
 6    1  0.2415530E-005  0.1015513E+04  0.7818608E-02  0.9737899E-01
          4   -1    0    0  502    0 -0.00000000000E+00  0.00000000000E+00  0.24740624945E+03  0.24740624945E+03  0.00000000000E+00 0.  1.
         21   -1    0    0  501  502  0.00000000000E+00 -0.00000000000E+00 -0.15795413149E+04  0.15795413149E+04  0.00000000000E+00 0.  1.
    9000010    2    1    2  501    0 -0.10737659907E+03 -0.18510895728E+03 -0.12131807704E+04  0.15821104847E+04  0.99270889190E+03 0.  0.
        -13    1    3    3    0    0  0.37372977301E+03  0.15713524037E+03 -0.34586369611E+03  0.53290443276E+03  0.10566000000E+00 0.  1.
          4    1    3    3  501    0 -0.48110637208E+03 -0.34224419765E+03 -0.86731707429E+03  0.10492060519E+04  0.00000000000E+00 0.  1.
         13    1    1    2    0    0  0.10737659907E+03  0.18510895728E+03 -0.11895429505E+03  0.24483707964E+03  0.10566000000E+00 0. -1.
<mgrwt>
<rscale>  1 0.68804423E+03</rscale>
<asrwt>0</asrwt>
<pdfrwt beam="2">  1       21 0.24300636E+00 0.10155127E+04</pdfrwt>
<pdfrwt beam="1">  1        4 0.38062499E-01 0.10155127E+04</pdfrwt>
<totfact> 0.16249751E+01</totfact>
</mgrwt>
</event>
<event>
 6    1  0.2415530E-005  0.1010082E+04  0.7818608E-02  0.1010350E+00
         21   -1    0    0  501  502  0.00000000000E+00  0.00000000000E+00  0.11308598539E+04  0.11308598539E+04  0.00000000000E+00 0.  1.
          4   -1    0    0  502    0 -0.00000000000E+00 -0.00000000000E+00 -0.25843203135E+03  0.25843203135E+03  0.00000000000E+00 0.  1.
    9000010    2    1    2  501    0 -0.43138219151E+02 -0.51775660600E+02  0.78700151446E+03  0.12804833825E+04  0.10078316745E+04 0.  0.
        -13    1    3    3    0    0  0.16078820859E+03 -0.41417917446E+03  0.67409586295E+02  0.44937879352E+03  0.10566000000E+00 0.  1.
          4    1    3    3  501    0 -0.20392642774E+03  0.36240351386E+03  0.71959192817E+03  0.83110458901E+03  0.00000000000E+00 0.  1.
         13    1    1    2    0    0  0.43138219151E+02  0.51775660600E+02  0.85426308047E+02  0.10880850267E+03  0.10566000000E+00 0. -1.
<mgrwt>
<rscale>  1 0.51335663E+03</rscale>
<asrwt>0</asrwt>
<pdfrwt beam="1">  1       21 0.17397844E+00 0.10100823E+04</pdfrwt>
<pdfrwt beam="2">  1        4 0.39758775E-01 0.10100823E+04</pdfrwt>
<totfact> 0.43879880E+01</totfact>
</mgrwt>
</event>
<event>
 6    1  0.2415530E-005  0.1048065E+04  0.7818608E-02  0.9776979E-01
          4   -1    0    0  502    0 -0.00000000000E+00  0.00000000000E+00  0.23371704665E+03  0.23371704665E+03  0.00000000000E+00 0.  1.
         21   -1    0    0  501  502  0.00000000000E+00 -0.00000000000E+00 -0.15897701877E+04  0.15897701877E+04  0.00000000000E+00 0.  1.
    9000010    2    1    2  501    0  0.52069857894E+02 -0.16290746431E+03 -0.11690938455E+04  0.15701023465E+04  0.10340168504E+04 0.  0.
        -13    1    3    3    0    0  0.15995791276E+03 -0.57782526125E+03 -0.82785254912E+03  0.10221587062E+04  0.10566000000E+00 0.  1.
          4    1    3    3  501    0 -0.10788805487E+03  0.41491779694E+03 -0.34124129633E+03  0.54794364028E+03  0.00000000000E+00 0.  1.
         13    1    1    2    0    0 -0.52069857894E+02  0.16290746431E+03 -0.18695929554E+03  0.25338488784E+03  0.10566000000E+00 0. -1.
<mgrwt>
<rscale>  1 0.66612730E+03</rscale>
<asrwt>0</asrwt>
<pdfrwt beam="2">  1       21 0.24458003E+00 0.10480653E+04</pdfrwt>
<pdfrwt beam="1">  1        4 0.35956469E-01 0.10480653E+04</pdfrwt>
<totfact> 0.17727126E+01</totfact>
</mgrwt>
</event>
<event>
 6    1  0.2415530E-005  0.1002621E+04  0.7818608E-02  0.1000900E+00
          4   -1    0    0  502    0 -0.00000000000E+00  0.00000000000E+00  0.14830946295E+04  0.14830946295E+04  0.00000000000E+00 0.  1.
         21   -1    0    0  501  502  0.00000000000E+00 -0.00000000000E+00 -0.22503390941E+03  0.22503390941E+03  0.00000000000E+00 0.  1.
    9000010    2    1    2  501    0  0.59461321469E+02 -0.70859795888E+02  0.93091435639E+03  0.13681557255E+04  0.99834452512E+03 0.  0.
        -13    1    3    3    0    0 -0.36690513780E+03  0.14745438319E+03  0.76512858407E+03  0.86126879462E+03  0.10566000000E+00 0.  1.
          4    1    3    3  501    0  0.42636645927E+03 -0.21831417908E+03  0.16578577232E+03  0.50688693087E+03  0.00000000000E+00 0.  1.
         13    1    1    2    0    0 -0.59461321469E+02  0.70859795888E+02  0.32714636369E+03  0.33997281341E+03  0.10566000000E+00 0. -1.
<mgrwt>
<rscale>  1 0.55257506E+03</rscale>
<asrwt>0</asrwt>
<pdfrwt beam="2">  1       21 0.34620602E-01 0.10026208E+04</pdfrwt>
<pdfrwt beam="1">  1        4 0.22816840E+00 0.10026208E+04</pdfrwt>
<totfact> 0.28222338E+01</totfact>
</mgrwt>
</event>
<event>
 6    1  0.2415530E-005  0.1036999E+04  0.7818608E-02  0.9620534E-01
         21   -1    0    0  501  502  0.00000000000E+00  0.00000000000E+00  0.13985830876E+04  0.13985830876E+04  0.00000000000E+00 0. -1.
          4   -1    0    0  502    0 -0.00000000000E+00 -0.00000000000E+00 -0.46830907527E+03  0.46830907527E+03  0.00000000000E+00 0.  1.
    9000010    2    1    2  501    0  0.22200003863E+03  0.19941717234E+03  0.11095991862E+04  0.15187416855E+04  0.99313379141E+03 0.  0.
        -13    1    3    3    0    0  0.16352358914E+03  0.47815345563E+03  0.11252429894E+04  0.12335082034E+04  0.10566000000E+00 0.  1.
          4    1    3    3  501    0  0.58476449499E+02 -0.27873628329E+03 -0.15643803261E+02  0.28523348216E+03  0.00000000000E+00 0.  1.
         13    1    1    2    0    0 -0.22200003863E+03 -0.19941717234E+03 -0.17932517381E+03  0.34815047739E+03  0.10566000000E+00 0. -1.
<mgrwt>
<rscale>  1 0.75951893E+03</rscale>
<asrwt>0</asrwt>
<pdfrwt beam="1">  1       21 0.21516663E+00 0.10369985E+04</pdfrwt>
<pdfrwt beam="2">  1        4 0.72047551E-01 0.10369985E+04</pdfrwt>
<totfact> 0.63163245E+00</totfact>
</mgrwt>
</event>
<event>
 6    1  0.2415530E-005  0.9427060E+03  0.7818608E-02  0.9949037E-01
          4   -1    0    0  502    0 -0.00000000000E+00  0.00000000000E+00  0.11644907073E+04  0.11644907073E+04  0.00000000000E+00 0.  1.
         21   -1    0    0  501  502  0.00000000000E+00 -0.00000000000E+00 -0.35626940820E+03  0.35626940820E+03  0.00000000000E+00 0.  1.
    9000010    2    1    2  501    0 -0.55357276037E+02  0.12262624130E+03  0.94082228947E+03  0.13318562858E+04  0.93305571247E+03 0.  0.
        -13    1    3    3    0    0  0.61257017145E+02 -0.33448445386E+03  0.74903731940E+03  0.82261120163E+03  0.10566000000E+00 0.  1.
          4    1    3    3  501    0 -0.11661429318E+03  0.45711069516E+03  0.19178497006E+03  0.50924508417E+03  0.00000000000E+00 0.  1.
         13    1    1    2    0    0  0.55357276037E+02 -0.12262624130E+03 -0.13260099037E+03  0.18890382971E+03  0.10566000000E+00 0. -1.
<mgrwt>
<rscale>  1 0.57942466E+03</rscale>
<asrwt>0</asrwt>
<pdfrwt beam="2">  1       21 0.54810679E-01 0.94270599E+03</pdfrwt>
<pdfrwt beam="1">  1        4 0.17915242E+00 0.94270599E+03</pdfrwt>
<totfact> 0.22563392E+01</totfact>
</mgrwt>
</event>
<event>
 6    1  0.2415530E-005  0.1002691E+04  0.7818608E-02  0.1014508E+00
          4   -1    0    0  502    0 -0.00000000000E+00  0.00000000000E+00  0.58970367061E+03  0.58970367061E+03  0.00000000000E+00 0.  1.
         21   -1    0    0  501  502  0.00000000000E+00 -0.00000000000E+00 -0.65849969462E+03  0.65849969462E+03  0.00000000000E+00 0.  1.
    9000010    2    1    2  501    0  0.60266792150E+02  0.66222532682E+01 -0.26971707877E+03  0.10383338298E+04  0.10008565827E+04 0.  0.
        -13    1    3    3    0    0  0.69985394454E+02  0.14341112765E+03  0.36003981627E+03  0.39381897801E+03  0.10566000000E+00 0.  1.
          4    1    3    3  501    0 -0.97186023043E+01 -0.13678887438E+03 -0.62975689504E+03  0.64451485183E+03  0.00000000000E+00 0.  1.
         13    1    1    2    0    0 -0.60266792150E+02 -0.66222532682E+01  0.20092105476E+03  0.20986953539E+03  0.10566000000E+00 0. -1.
<mgrwt>
<rscale>  1 0.49721779E+03</rscale>
<asrwt>0</asrwt>
<pdfrwt beam="2">  1       21 0.10130764E+00 0.10026913E+04</pdfrwt>
<pdfrwt beam="1">  1        4 0.90723642E-01 0.10026913E+04</pdfrwt>
<totfact> 0.31038144E+01</totfact>
</mgrwt>
</event>
<event>
 6    1  0.2415530E-005  0.9967315E+03  0.7818608E-02  0.9743637E-01
         21   -1    0    0  501  502  0.00000000000E+00  0.00000000000E+00  0.14710819350E+04  0.14710819350E+04  0.00000000000E+00 0.  1.
          4   -1    0    0  502    0 -0.00000000000E+00 -0.00000000000E+00 -0.29720101647E+03  0.29720101647E+03  0.00000000000E+00 0.  1.
    9000010    2    1    2  501    0 -0.14740024611E+03  0.16606669408E+03  0.11819145164E+04  0.15460904014E+04  0.97168339793E+03 0.  0.
        -13    1    3    3    0    0  0.34228535521E+03  0.49903640662E+02  0.11177522441E+03  0.36351526749E+03  0.10566000000E+00 0.  1.
          4    1    3    3  501    0 -0.48968560132E+03  0.11616305342E+03  0.10701392920E+04  0.11825751339E+04  0.00000000000E+00 0.  1.
         13    1    1    2    0    0  0.14740024611E+03 -0.16606669408E+03 -0.80335978819E+01  0.22219255004E+03  0.10566000000E+00 0. -1.
<mgrwt>
<rscale>  1 0.68477041E+03</rscale>
<asrwt>0</asrwt>
<pdfrwt beam="1">  1       21 0.22632029E+00 0.99673146E+03</pdfrwt>
<pdfrwt beam="2">  1        4 0.45723234E-01 0.99673146E+03</pdfrwt>
<totfact> 0.14337968E+01</totfact>
</mgrwt>
</event>
<event>
 6    1  0.2415530E-005  0.1001160E+04  0.7818608E-02  0.9957023E-01
          4   -1    0    0  502    0 -0.00000000000E+00  0.00000000000E+00  0.16976253736E+03  0.16976253736E+03  0.00000000000E+00 0.  1.
         21   -1    0    0  501  502  0.00000000000E+00 -0.00000000000E+00 -0.18310544637E+04  0.18310544637E+04  0.00000000000E+00 0.  1.
    9000010    2    1    2  501    0 -0.77335795146E+02  0.77530004812E+02 -0.15455641591E+04  0.18414913781E+04  0.99515335445E+03 0.  0.
        -13    1    3    3    0    0 -0.15572901675E+02 -0.25229070543E+03 -0.14776752469E+04  0.14991388401E+04  0.10566000000E+00 0.  1.
          4    1    3    3  501    0 -0.61762893471E+02  0.32982071024E+03 -0.67888912225E+02  0.34235253807E+03  0.00000000000E+00 0.  1.
         13    1    1    2    0    0  0.77335795146E+02 -0.77530004812E+02 -0.11572776725E+03  0.15932562296E+03  0.10566000000E+00 0. -1.
<mgrwt>
<rscale>  1 0.57575534E+03</rscale>
<asrwt>0</asrwt>
<pdfrwt beam="2">  1       21 0.28170069E+00 0.10011603E+04</pdfrwt>
<pdfrwt beam="1">  1        4 0.26117314E-01 0.10011603E+04</pdfrwt>
<totfact> 0.19517501E+01</totfact>
</mgrwt>
</event>
<event>
 6    1  0.2415530E-005  0.1003611E+04  0.7818608E-02  0.9752588E-01
         21   -1    0    0  501  502  0.00000000000E+00  0.00000000000E+00  0.69482226025E+03  0.69482226025E+03  0.00000000000E+00 0. -1.
          4   -1    0    0  502    0 -0.00000000000E+00 -0.00000000000E+00 -0.54769236020E+03  0.54769236020E+03  0.00000000000E+00 0.  1.
    9000010    2    1    2  501    0 -0.27930069678E+01 -0.21112510663E+03  0.20337070639E+03  0.10240091262E+04  0.98114903805E+03 0.  0.
        -13    1    3    3    0    0  0.25807685951E+03 -0.16443440669E+03 -0.31665074973E+03  0.44035218631E+03  0.10566000000E+00 0.  1.
          4    1    3    3  501    0 -0.26086986648E+03 -0.46690699932E+02  0.52002145612E+03  0.58365693993E+03  0.00000000000E+00 0.  1.
         13    1    1    2    0    0  0.27930069678E+01  0.21112510663E+03 -0.56240806345E+02  0.21850549421E+03  0.10566000000E+00 0. -1.
<mgrwt>
<rscale>  1 0.67970200E+03</rscale>
<asrwt>0</asrwt>
<pdfrwt beam="1">  1       21 0.10689573E+00 0.10036110E+04</pdfrwt>
<pdfrwt beam="2">  1        4 0.84260362E-01 0.10036110E+04</pdfrwt>
<totfact> 0.32243904E+01</totfact>
</mgrwt>
</event>
<event>
 6    1  0.2415530E-005  0.1017950E+04  0.7818608E-02  0.9845512E-01
         21   -1    0    0  501  502  0.00000000000E+00  0.00000000000E+00  0.24231418375E+03  0.24231418375E+03  0.00000000000E+00 0.  1.
          4   -1    0    0  502    0 -0.00000000000E+00 -0.00000000000E+00 -0.14059074079E+04  0.14059074079E+04  0.00000000000E+00 0.  1.
    9000010    2    1    2  501    0 -0.11299623909E+03 -0.97302851418E+02 -0.10027987820E+04  0.14289253109E+04  0.10069687940E+04 0.  0.
        -13    1    3    3    0    0  0.61392686098E+02 -0.10063170230E+03 -0.11767202355E+04  0.11826099633E+04  0.10566000000E+00 0.  1.
          4    1    3    3  501    0 -0.17438892519E+03  0.33288508819E+01  0.17392145355E+03  0.24631534764E+03  0.00000000000E+00 0.  1.
         13    1    1    2    0    0  0.11299623909E+03  0.97302851418E+02 -0.16079444222E+03  0.21929628076E+03  0.10566000000E+00 0. -1.
<mgrwt>
<rscale>  1 0.62976269E+03</rscale>
<asrwt>0</asrwt>
<pdfrwt beam="1">  1       21 0.37279104E-01 0.10179500E+04</pdfrwt>
<pdfrwt beam="2">  1        4 0.21629346E+00 0.10179500E+04</pdfrwt>
<totfact> 0.28785316E+01</totfact>
</mgrwt>
</event>
<event>
 6    1  0.2415530E-005  0.1290771E+04  0.7818608E-02  0.9158191E-01
         21   -1    0    0  501  502  0.00000000000E+00  0.00000000000E+00  0.18217626703E+04  0.18217626703E+04  0.00000000000E+00 0. -1.
          4   -1    0    0  502    0 -0.00000000000E+00 -0.00000000000E+00 -0.63739814488E+03  0.63739814488E+03  0.00000000000E+00 0.  1.
    9000010    2    1    2  501    0  0.67421373759E+03  0.45259159505E+03  0.45787063590E+03  0.13695752524E+04  0.10033381967E+04 0.  0.
        -13    1    3    3    0    0  0.19214197759E+03 -0.22037512079E+02 -0.29794809932E+03  0.35521440362E+03  0.10566000000E+00 0.  1.
          4    1    3    3  501    0  0.48207176000E+03  0.47462910713E+03  0.75581873521E+03  0.10143608488E+04  0.00000000000E+00 0.  1.
         13    1    1    2    0    0 -0.67421373759E+03 -0.45259159505E+03  0.72649388957E+03  0.10895855628E+04  0.10566000000E+00 0. -1.
<mgrwt>
<rscale>  1 0.11495582E+04</rscale>
<asrwt>0</asrwt>
<pdfrwt beam="1">  1       21 0.28027118E+00 0.12907714E+04</pdfrwt>
<pdfrwt beam="2">  1        4 0.98061254E-01 0.12907714E+04</pdfrwt>
<totfact> 0.11327471E+00</totfact>
</mgrwt>
</event>
<event>
 6    1  0.2415530E-005  0.1010822E+04  0.7818608E-02  0.9743501E-01
         21   -1    0    0  501  502  0.00000000000E+00  0.00000000000E+00  0.88472842894E+03  0.88472842894E+03  0.00000000000E+00 0.  1.
          4   -1    0    0  502    0 -0.00000000000E+00 -0.00000000000E+00 -0.50926402119E+03  0.50926402119E+03  0.00000000000E+00 0.  1.
    9000010    2    1    2  501    0 -0.21049189313E+03  0.32506082187E+02  0.51986408123E+03  0.11366701633E+04  0.98812798495E+03 0.  0.
        -13    1    3    3    0    0 -0.14562189378E+03  0.31215647789E+03  0.71219701107E+03  0.79112072174E+03  0.10566000000E+00 0.  1.
          4    1    3    3  501    0 -0.64869999356E+02 -0.27965039570E+03 -0.19233292984E+03  0.34554944151E+03  0.00000000000E+00 0.  1.
         13    1    1    2    0    0  0.21049189313E+03 -0.32506082187E+02 -0.14439967348E+03  0.25732228687E+03  0.10566000000E+00 0. -1.
<mgrwt>
<rscale>  1 0.68484803E+03</rscale>
<asrwt>0</asrwt>
<pdfrwt beam="1">  1       21 0.13611207E+00 0.10108216E+04</pdfrwt>
<pdfrwt beam="2">  1        4 0.78348311E-01 0.10108216E+04</pdfrwt>
<totfact> 0.20329112E+01</totfact>
</mgrwt>
</event>
<event>
 6    1  0.2415530E-005  0.1018093E+04  0.7818608E-02  0.1014846E+00
          4   -1    0    0  502    0 -0.00000000000E+00  0.00000000000E+00  0.22067151914E+03  0.22067151914E+03  0.00000000000E+00 0.  1.
         21   -1    0    0  501  502  0.00000000000E+00 -0.00000000000E+00 -0.14805103066E+04  0.14805103066E+04  0.00000000000E+00 0.  1.
    9000010    2    1    2  501    0 -0.29864042610E+02  0.48929305667E+02 -0.12842777307E+04  0.16388664094E+04  0.10164781751E+04 0.  0.
        -13    1    3    3    0    0 -0.49161130618E+03  0.15989529692E+03 -0.85266834150E+03  0.99714166200E+03  0.10566000000E+00 0.  1.
          4    1    3    3  501    0  0.46174726357E+03 -0.11096599125E+03 -0.43160938917E+03  0.64172474742E+03  0.00000000000E+00 0.  1.
         13    1    1    2    0    0  0.29864042610E+02 -0.48929305667E+02  0.24438943256E+02  0.62315416276E+02  0.10566000000E+00 0. -1.
<mgrwt>
<rscale>  1 0.49593329E+03</rscale>
<asrwt>0</asrwt>
<pdfrwt beam="2">  1       21 0.22777080E+00 0.10180932E+04</pdfrwt>
<pdfrwt beam="1">  1        4 0.33949466E-01 0.10180932E+04</pdfrwt>
<totfact> 0.25637543E+01</totfact>
</mgrwt>
</event>
<event>
 6    1  0.2415530E-005  0.1061206E+04  0.7818608E-02  0.9611158E-01
         21   -1    0    0  501  502  0.00000000000E+00  0.00000000000E+00  0.39021764966E+03  0.39021764966E+03  0.00000000000E+00 0.  1.
          4   -1    0    0  502    0 -0.00000000000E+00 -0.00000000000E+00 -0.14239191845E+04  0.14239191845E+04  0.00000000000E+00 0.  1.
    9000010    2    1    2  501    0  0.28503628771E+03 -0.37643487326E+02 -0.42914129607E+03  0.11446924295E+04  0.10215164163E+04 0.  0.
        -13    1    3    3    0    0  0.42700478033E+03 -0.17011711718E+03 -0.68412174479E+03  0.82419384179E+03  0.10566000000E+00 0.  1.
          4    1    3    3  501    0 -0.14196849262E+03  0.13247362985E+03  0.25498044872E+03  0.32049858773E+03  0.00000000000E+00 0.  1.
         13    1    1    2    0    0 -0.28503628771E+03  0.37643487326E+02 -0.60456023877E+03  0.66944440465E+03  0.10566000000E+00 0. -1.
<mgrwt>
<rscale>  1 0.76562047E+03</rscale>
<asrwt>0</asrwt>
<pdfrwt beam="1">  1       21 0.60033485E-01 0.10612062E+04</pdfrwt>
<pdfrwt beam="2">  1        4 0.21906449E+00 0.10612062E+04</pdfrwt>
<totfact> 0.98842033E+00</totfact>
</mgrwt>
</event>
<event>
 6    1  0.2415530E-005  0.9887377E+03  0.7818608E-02  0.9873331E-01
         21   -1    0    0  501  502  0.00000000000E+00  0.00000000000E+00  0.62967868448E+03  0.62967868448E+03  0.00000000000E+00 0.  1.
          4   -1    0    0  502    0 -0.00000000000E+00 -0.00000000000E+00 -0.53808056651E+03  0.53808056651E+03  0.00000000000E+00 0.  1.
    9000010    2    1    2  501    0  0.13984341010E+03  0.50512864911E+02 -0.80475815844E+01  0.98877040923E+03  0.97749395381E+03 0.  0.
        -13    1    3    3    0    0 -0.62536005174E+02  0.49454893071E+03 -0.37542563558E+02  0.49989884182E+03  0.10566000000E+00 0.  1.
          4    1    3    3  501    0  0.20237941527E+03 -0.44403606580E+03  0.29494981973E+02  0.48887156741E+03  0.00000000000E+00 0.  1.
         13    1    1    2    0    0 -0.13984341010E+03 -0.50512864911E+02  0.99645699554E+02  0.17898884176E+03  0.10566000000E+00 0. -1.
<mgrwt>
<rscale>  1 0.61571382E+03</rscale>
<asrwt>0</asrwt>
<pdfrwt beam="1">  1       21 0.96873644E-01 0.98873766E+03</pdfrwt>
<pdfrwt beam="2">  1        4 0.82781626E-01 0.98873766E+03</pdfrwt>
<totfact> 0.42987848E+01</totfact>
</mgrwt>
</event>
<event>
 6    1  0.2415530E-005  0.1033869E+04  0.7818608E-02  0.9682500E-01
         21   -1    0    0  501  502  0.00000000000E+00  0.00000000000E+00  0.90102266437E+03  0.90102266437E+03  0.00000000000E+00 0.  1.
          4   -1    0    0  502    0 -0.00000000000E+00 -0.00000000000E+00 -0.49961669957E+03  0.49961669957E+03  0.00000000000E+00 0.  1.
    9000010    2    1    2  501    0  0.22894988248E+02  0.24303142314E+03  0.48585087038E+03  0.11423383644E+04  0.10046379534E+04 0.  0.
        -13    1    3    3    0    0 -0.39084755754E+02 -0.35541109332E+03  0.39681703079E+03  0.53414270610E+03  0.10566000000E+00 0.  1.
          4    1    3    3  501    0  0.61979744002E+02  0.59844251646E+03  0.89033839584E+02  0.60819565830E+03  0.00000000000E+00 0.  1.
         13    1    1    2    0    0 -0.22894988248E+02 -0.24303142314E+03 -0.84444905578E+02  0.25830099954E+03  0.10566000000E+00 0. -1.
<mgrwt>
<rscale>  1 0.72068341E+03</rscale>
<asrwt>0</asrwt>
<pdfrwt beam="1">  1       21 0.13861887E+00 0.10338694E+04</pdfrwt>
<pdfrwt beam="2">  1        4 0.76864108E-01 0.10338694E+04</pdfrwt>
<totfact> 0.20164095E+01</totfact>
</mgrwt>
</event>
<event>
 6    1  0.2415530E-005  0.1032627E+04  0.7818608E-02  0.9821841E-01
         21   -1    0    0  501  502  0.00000000000E+00  0.00000000000E+00  0.12197542897E+04  0.12197542897E+04  0.00000000000E+00 0.  1.
          4   -1    0    0  502    0 -0.00000000000E+00 -0.00000000000E+00 -0.39161046693E+03  0.39161046693E+03  0.00000000000E+00 0.  1.
    9000010    2    1    2  501    0  0.15347240729E+03  0.16090862722E+02  0.95883661714E+03  0.14091438050E+04  0.10210317865E+04 0.  0.
        -13    1    3    3    0    0  0.54276483158E+03  0.17765125172E+03  0.73843762292E+03  0.93351152309E+03  0.10566000000E+00 0.  1.
          4    1    3    3  501    0 -0.38929242429E+03 -0.16156038900E+03  0.22039899422E+03  0.47563228187E+03  0.00000000000E+00 0.  1.
         13    1    1    2    0    0 -0.15347240729E+03 -0.16090862722E+02 -0.13069279432E+03  0.20222095172E+03  0.10566000000E+00 0. -1.
<mgrwt>
<rscale>  1 0.64203502E+03</rscale>
<asrwt>0</asrwt>
<pdfrwt beam="1">  1       21 0.18765450E+00 0.10326270E+04</pdfrwt>
<pdfrwt beam="2">  1        4 0.60247765E-01 0.10326270E+04</pdfrwt>
<totfact> 0.14518712E+01</totfact>
</mgrwt>
</event>
<event>
 6    1  0.2415530E-005  0.1059761E+04  0.7818608E-02  0.9603651E-01
          4   -1    0    0  502    0 -0.00000000000E+00  0.00000000000E+00  0.59650651520E+03  0.59650651520E+03  0.00000000000E+00 0.  1.
         21   -1    0    0  501  502  0.00000000000E+00 -0.00000000000E+00 -0.80330868773E+03  0.80330868773E+03  0.00000000000E+00 0.  1.
    9000010    2    1    2  501    0  0.28812411484E+03  0.68675576019E+02 -0.27710409518E+03  0.10953908087E+04  0.10175276429E+04 0.  0.
        -13    1    3    3    0    0  0.47625406611E+03 -0.14636472049E+02  0.24386818854E+03  0.53526055931E+03  0.10566000000E+00 0.  1.
          4    1    3    3  501    0 -0.18812995127E+03  0.83312048069E+02 -0.52097228371E+03  0.56013024942E+03  0.00000000000E+00 0.  1.
         13    1    1    2    0    0 -0.28812411484E+03 -0.68675576019E+02  0.70301922640E+02  0.30442439421E+03  0.10566000000E+00 0. -1.
<mgrwt>
<rscale>  1 0.77054987E+03</rscale>
<asrwt>0</asrwt>
<pdfrwt beam="2">  1       21 0.12358595E+00 0.10597615E+04</pdfrwt>
<pdfrwt beam="1">  1        4 0.91770233E-01 0.10597615E+04</pdfrwt>
<totfact> 0.18096909E+01</totfact>
</mgrwt>
</event>
<event>
 6    1  0.2415530E-005  0.1067664E+04  0.7818608E-02  0.9525619E-01
         21   -1    0    0  501  502  0.00000000000E+00  0.00000000000E+00  0.13202121401E+04  0.13202121401E+04  0.00000000000E+00 0.  1.
          4   -1    0    0  502    0 -0.00000000000E+00 -0.00000000000E+00 -0.46692789952E+03  0.46692789952E+03  0.00000000000E+00 0.  1.
    9000010    2    1    2  501    0  0.36665124354E+03  0.96680414521E+02  0.91110434276E+03  0.14035733409E+04  0.99806150266E+03 0.  0.
        -13    1    3    3    0    0  0.14470576918E+03 -0.41673638893E+03  0.65180424768E+03  0.78705639312E+03  0.10566000000E+00 0.  1.
          4    1    3    3  501    0  0.22194547436E+03  0.51341680345E+03  0.25930009507E+03  0.61651694783E+03  0.00000000000E+00 0.  1.
         13    1    1    2    0    0 -0.36665124354E+03 -0.96680414521E+02 -0.57820102186E+02  0.38356669866E+03  0.10566000000E+00 0. -1.
<mgrwt>
<rscale>  1 0.82421106E+03</rscale>
<asrwt>0</asrwt>
<pdfrwt beam="1">  1       21 0.20310956E+00 0.10676643E+04</pdfrwt>
<pdfrwt beam="2">  1        4 0.71835062E-01 0.10676643E+04</pdfrwt>
<totfact> 0.76384629E+00</totfact>
</mgrwt>
</event>
<event>
 6    1  0.2415530E-005  0.1307186E+04  0.7818608E-02  0.9139093E-01
         21   -1    0    0  501  502  0.00000000000E+00  0.00000000000E+00  0.24856982809E+04  0.24856982809E+04  0.00000000000E+00 0. -1.
          4   -1    0    0  502    0 -0.00000000000E+00 -0.00000000000E+00 -0.52343217782E+03  0.52343217782E+03  0.00000000000E+00 0.  1.
    9000010    2    1    2  501    0 -0.83326585391E+03  0.10869530682E+03  0.16670855181E+04  0.21184687710E+04  0.10012937413E+04 0.  0.
        -13    1    3    3    0    0  0.57916457409E+02  0.11529158508E+03 -0.83780318607E+02  0.15383633699E+03  0.10566000000E+00 0.  1.
          4    1    3    3  501    0 -0.89118231132E+03 -0.65962782552E+01  0.17508658367E+04  0.19646324340E+04  0.00000000000E+00 0.  1.
         13    1    1    2    0    0  0.83326585391E+03 -0.10869530682E+03  0.29518058506E+03  0.89066168772E+03  0.10566000000E+00 0. -1.
<mgrwt>
<rscale>  1 0.11704826E+04</rscale>
<asrwt>0</asrwt>
<pdfrwt beam="1">  1       21 0.38241511E+00 0.13071862E+04</pdfrwt>
<pdfrwt beam="2">  1        4 0.80528029E-01 0.13071862E+04</pdfrwt>
<totfact> 0.40437647E-01</totfact>
</mgrwt>
</event>
<event>
 6    1  0.2415530E-005  0.1033614E+04  0.7818608E-02  0.9610672E-01
         21   -1    0    0  501  502  0.00000000000E+00  0.00000000000E+00  0.57969458472E+03  0.57969458472E+03  0.00000000000E+00 0. -1.
          4   -1    0    0  502    0 -0.00000000000E+00 -0.00000000000E+00 -0.12006001462E+04  0.12006001462E+04  0.00000000000E+00 0.  1.
    9000010    2    1    2  501    0  0.27236635085E+03 -0.15151580920E+03 -0.89346916197E+03  0.13662519831E+04  0.98550335789E+03 0.  0.
        -13    1    3    3    0    0 -0.10784182892E+03 -0.43962080238E+03 -0.73570726192E+03  0.86380639981E+03  0.10566000000E+00 0.  1.
          4    1    3    3  501    0  0.38020817977E+03  0.28810499318E+03 -0.15776190005E+03  0.50244558329E+03  0.00000000000E+00 0.  1.
         13    1    1    2    0    0 -0.27236635085E+03  0.15151580920E+03  0.27256360051E+03  0.41404274780E+03  0.10566000000E+00 0. -1.
<mgrwt>
<rscale>  1 0.76593830E+03</rscale>
<asrwt>0</asrwt>
<pdfrwt beam="1">  1       21 0.89183783E-01 0.10336137E+04</pdfrwt>
<pdfrwt beam="2">  1        4 0.18470771E+00 0.10336137E+04</pdfrwt>
<totfact> 0.66904097E+00</totfact>
</mgrwt>
</event>
<event>
 6    1  0.2415530E-005  0.9743522E+03  0.7818608E-02  0.1022159E+00
          4   -1    0    0  502    0 -0.00000000000E+00  0.00000000000E+00  0.42003690405E+03  0.42003690405E+03  0.00000000000E+00 0.  1.
         21   -1    0    0  501  502  0.00000000000E+00 -0.00000000000E+00 -0.64024470907E+03  0.64024470907E+03  0.00000000000E+00 0.  1.
    9000010    2    1    2  501    0  0.37845043934E+02 -0.36205290453E+02 -0.24135344549E+03  0.10037995834E+04  0.97294349659E+03 0.  0.
        -13    1    3    3    0    0  0.36320410843E+03  0.23620688489E+03  0.11656927843E+03  0.44866393291E+03  0.10566000000E+00 0.  1.
          4    1    3    3  501    0 -0.32535906450E+03 -0.27241217535E+03 -0.35792272392E+03  0.55513565048E+03  0.00000000000E+00 0.  1.
         13    1    1    2    0    0 -0.37845043934E+02  0.36205290453E+02  0.21145640473E+02  0.56482029728E+02  0.10566000000E+00 0. -1.
<mgrwt>
<rscale>  1 0.46915549E+03</rscale>
<asrwt>0</asrwt>
<pdfrwt beam="2">  1       21 0.98499186E-01 0.97435215E+03</pdfrwt>
<pdfrwt beam="1">  1        4 0.64621062E-01 0.97435215E+03</pdfrwt>
<totfact> 0.72270736E+01</totfact>
</mgrwt>
</event>
<event>
 6    1  0.2415530E-005  0.1031515E+04  0.7818608E-02  0.9905920E-01
          4   -1    0    0  502    0 -0.00000000000E+00  0.00000000000E+00  0.12622740673E+04  0.12622740673E+04  0.00000000000E+00 0.  1.
         21   -1    0    0  501  502  0.00000000000E+00 -0.00000000000E+00 -0.26503368843E+03  0.26503368843E+03  0.00000000000E+00 0.  1.
    9000010    2    1    2  501    0  0.31286780773E+02 -0.11365807123E+03  0.94279491190E+03  0.13974565338E+04  0.10247563116E+04 0.  0.
        -13    1    3    3    0    0  0.29274698181E+03  0.26244957580E+03  0.53057478331E+02  0.39673124703E+03  0.10566000000E+00 0.  1.
          4    1    3    3  501    0 -0.26146020104E+03 -0.37610764703E+03  0.88973743357E+03  0.10007252868E+04  0.00000000000E+00 0.  1.
         13    1    1    2    0    0 -0.31286780773E+02  0.11365807123E+03  0.54445467008E+02  0.12985122197E+03  0.10566000000E+00 0. -1.
<mgrwt>
<rscale>  1 0.59975222E+03</rscale>
<asrwt>0</asrwt>
<pdfrwt beam="2">  1       21 0.40774414E-01 0.10315147E+04</pdfrwt>
<pdfrwt beam="1">  1        4 0.19419601E+00 0.10315147E+04</pdfrwt>
<totfact> 0.33289080E+01</totfact>
</mgrwt>
</event>
<event>
 6    1  0.2415530E-005  0.9378336E+03  0.7818608E-02  0.9801922E-01
         21   -1    0    0  501  502  0.00000000000E+00  0.00000000000E+00  0.16854568507E+04  0.16854568507E+04  0.00000000000E+00 0.  1.
          4   -1    0    0  502    0 -0.00000000000E+00 -0.00000000000E+00 -0.42570216267E+03  0.42570216267E+03  0.00000000000E+00 0.  1.
    9000010    2    1    2  501    0  0.75054816924E+02 -0.20667998954E+03  0.15103111984E+04  0.17777997182E+04  0.91169187686E+03 0.  0.
        -13    1    3    3    0    0  0.29008048632E+03  0.94317365502E+02  0.10186712845E+03  0.32158883221E+03  0.10566000000E+00 0.  1.
          4    1    3    3  501    0 -0.21502566940E+03 -0.30099735505E+03  0.14084440700E+04  0.14562108860E+04  0.00000000000E+00 0.  1.
         13    1    1    2    0    0 -0.75054816924E+02  0.20667998954E+03 -0.25055651038E+03  0.33335929518E+03  0.10566000000E+00 0. -1.
<mgrwt>
<rscale>  1 0.65259501E+03</rscale>
<asrwt>0</asrwt>
<pdfrwt beam="1">  1       21 0.25930105E+00 0.93783363E+03</pdfrwt>
<pdfrwt beam="2">  1        4 0.65492641E-01 0.93783363E+03</pdfrwt>
<totfact> 0.41212020E+00</totfact>
</mgrwt>
</event>
<event>
 6    1  0.2415530E-005  0.1043213E+04  0.7818608E-02  0.9839233E-01
          4   -1    0    0  502    0 -0.00000000000E+00  0.00000000000E+00  0.46468852967E+03  0.46468852967E+03  0.00000000000E+00 0.  1.
         21   -1    0    0  501  502  0.00000000000E+00 -0.00000000000E+00 -0.79826187803E+03  0.79826187803E+03  0.00000000000E+00 0.  1.
    9000010    2    1    2  501    0  0.81238210342E+02  0.11574041222E+03 -0.38571715006E+03  0.11122371798E+04  0.10335851849E+04 0.  0.
        -13    1    3    3    0    0  0.50397461618E+03 -0.73954459775E+02 -0.27656792587E-01  0.50937185612E+03  0.10566000000E+00 0.  1.
          4    1    3    3  501    0 -0.42273640584E+03  0.18969487200E+03 -0.38568949327E+03  0.60286532369E+03  0.00000000000E+00 0.  1.
         13    1    1    2    0    0 -0.81238210342E+02 -0.11574041222E+03  0.52143801701E+02  0.15071322789E+03  0.10566000000E+00 0. -1.
<mgrwt>
<rscale>  1 0.63298927E+03</rscale>
<asrwt>0</asrwt>
<pdfrwt beam="2">  1       21 0.12280952E+00 0.10432132E+04</pdfrwt>
<pdfrwt beam="1">  1        4 0.71490543E-01 0.10432132E+04</pdfrwt>
<totfact> 0.32773576E+01</totfact>
</mgrwt>
</event>
<event>
 6    1  0.2415530E-005  0.1014252E+04  0.7818608E-02  0.1001567E+00
         21   -1    0    0  501  502  0.00000000000E+00  0.00000000000E+00  0.15181287071E+04  0.15181287071E+04  0.00000000000E+00 0.  1.
          4   -1    0    0  502    0 -0.00000000000E+00 -0.00000000000E+00 -0.37100620380E+03  0.37100620380E+03  0.00000000000E+00 0.  1.
    9000010    2    1    2  501    0  0.85818788400E+01  0.87080730114E+02  0.13381075994E+04  0.16790586859E+04  0.10104699011E+04 0.  0.
        -13    1    3    3    0    0 -0.20523144084E+03 -0.35084254864E+03  0.10176072552E+04  0.10957805324E+04  0.10566000000E+00 0.  1.
          4    1    3    3  501    0  0.21381331968E+03  0.43792327876E+03  0.32050034418E+03  0.58327815352E+03  0.00000000000E+00 0.  1.
         13    1    1    2    0    0 -0.85818788400E+01 -0.87080730114E+02 -0.19098509608E+03  0.21007622495E+03  0.10566000000E+00 0. -1.
<mgrwt>
<rscale>  1 0.54968583E+03</rscale>
<asrwt>0</asrwt>
<pdfrwt beam="1">  1       21 0.23355826E+00 0.10142515E+04</pdfrwt>
<pdfrwt beam="2">  1        4 0.57077878E-01 0.10142515E+04</pdfrwt>
<totfact> 0.80194360E+00</totfact>
</mgrwt>
</event>
<event>
 6    1  0.2415530E-005  0.9170151E+03  0.7818608E-02  0.9814210E-01
         21   -1    0    0  501  502  0.00000000000E+00  0.00000000000E+00  0.29389841540E+03  0.29389841540E+03  0.00000000000E+00 0.  1.
          4   -1    0    0  502    0 -0.00000000000E+00 -0.00000000000E+00 -0.11470657934E+04  0.11470657934E+04  0.00000000000E+00 0.  1.
    9000010    2    1    2  501    0  0.17855660977E+03  0.13840535862E+03 -0.77886943852E+03  0.12031434755E+04  0.88875087302E+03 0.  0.
        -13    1    3    3    0    0  0.16973098703E+03 -0.86883115772E+02 -0.91840933571E+03  0.93799413796E+03  0.10566000000E+00 0.  1.
          4    1    3    3  501    0  0.88256227385E+01  0.22528847439E+03  0.13953989719E+03  0.26514933758E+03  0.00000000000E+00 0.  1.
         13    1    1    2    0    0 -0.17855660977E+03 -0.13840535862E+03 -0.74297939460E+02  0.23782073324E+03  0.10566000000E+00 0. -1.
<mgrwt>
<rscale>  1 0.64605525E+03</rscale>
<asrwt>0</asrwt>
<pdfrwt beam="1">  1       21 0.45215141E-01 0.91701506E+03</pdfrwt>
<pdfrwt beam="2">  1        4 0.17647166E+00 0.91701506E+03</pdfrwt>
<totfact> 0.35786240E+01</totfact>
</mgrwt>
</event>
<event>
 6    1  0.2415530E-005  0.1004259E+04  0.7818608E-02  0.1028053E+00
         21   -1    0    0  501  502  0.00000000000E+00  0.00000000000E+00  0.39484725051E+03  0.39484725051E+03  0.00000000000E+00 0.  1.
          4   -1    0    0  502    0 -0.00000000000E+00 -0.00000000000E+00 -0.77803436407E+03  0.77803436407E+03  0.00000000000E+00 0.  1.
    9000010    2    1    2  501    0 -0.37895340809E+01 -0.39909292263E+02 -0.25156278146E+03  0.10352876898E+04  0.10034588459E+04 0.  0.
        -13    1    3    3    0    0 -0.38157807285E+02  0.80583621274E+02  0.38056052307E+03  0.39086578407E+03  0.10566000000E+00 0.  1.
          4    1    3    3  501    0  0.34368273204E+02 -0.12049291354E+03 -0.63212330453E+03  0.64442190570E+03  0.00000000000E+00 0.  1.
         13    1    1    2    0    0  0.37895340809E+01  0.39909292263E+02 -0.13162433210E+03  0.13759392480E+03  0.10566000000E+00 0. -1.
<mgrwt>
<rscale>  1 0.44889064E+03</rscale>
<asrwt>0</asrwt>
<pdfrwt beam="1">  1       21 0.60745731E-01 0.10042593E+04</pdfrwt>
<pdfrwt beam="2">  1        4 0.11969759E+00 0.10042593E+04</pdfrwt>
<totfact> 0.52574174E+01</totfact>
</mgrwt>
</event>
<event>
 6    1  0.2415530E-005  0.9990104E+03  0.7818608E-02  0.9935751E-01
         21   -1    0    0  501  502  0.00000000000E+00  0.00000000000E+00  0.44951152418E+03  0.44951152418E+03  0.00000000000E+00 0.  1.
          4   -1    0    0  502    0 -0.00000000000E+00 -0.00000000000E+00 -0.98652446683E+03  0.98652446683E+03  0.00000000000E+00 0.  1.
    9000010    2    1    2  501    0  0.95398838723E+02  0.69354592723E+02 -0.12419608256E+03  0.10067007268E+04  0.99202353220E+03 0.  0.
        -13    1    3    3    0    0  0.44027134917E+03  0.20985729652E+03  0.18604506030E+03  0.52200739595E+03  0.10566000000E+00 0.  1.
          4    1    3    3  501    0 -0.34487251045E+03 -0.14050270380E+03 -0.31024114286E+03  0.48469333084E+03  0.00000000000E+00 0.  1.
         13    1    1    2    0    0 -0.95398838723E+02 -0.69354592723E+02 -0.41281686009E+03  0.42933526421E+03  0.10566000000E+00 0. -1.
<mgrwt>
<rscale>  1 0.58559495E+03</rscale>
<asrwt>0</asrwt>
<pdfrwt beam="1">  1       21 0.69155620E-01 0.99901035E+03</pdfrwt>
<pdfrwt beam="2">  1        4 0.15177299E+00 0.99901035E+03</pdfrwt>
<totfact> 0.21161855E+01</totfact>
</mgrwt>
</event>
<event>
 6    1  0.2415530E-005  0.1119324E+04  0.7818608E-02  0.9395652E-01
         21   -1    0    0  501  502  0.00000000000E+00  0.00000000000E+00  0.13955185453E+04  0.13955185453E+04  0.00000000000E+00 0.  1.
          4   -1    0    0  502    0 -0.00000000000E+00 -0.00000000000E+00 -0.59664431122E+03  0.59664431122E+03  0.00000000000E+00 0.  1.
    9000010    2    1    2  501    0  0.39960459319E+03  0.33360746753E+03  0.93009646993E+03  0.14553229739E+04  0.99091258022E+03 0.  0.
        -13    1    3    3    0    0  0.69356070305E+03  0.42177880971E+03  0.65190680158E+03  0.10411082087E+04  0.10566000000E+00 0.  1.
          4    1    3    3  501    0 -0.29395610986E+03 -0.88171342184E+02  0.27818966835E+03  0.41421476516E+03  0.00000000000E+00 0.  1.
         13    1    1    2    0    0 -0.39960459319E+03 -0.33360746753E+03 -0.13122223581E+03  0.53683988267E+03  0.10566000000E+00 0. -1.
<mgrwt>
<rscale>  1 0.92434369E+03</rscale>
<asrwt>0</asrwt>
<pdfrwt beam="1">  1       21 0.21469516E+00 0.11193237E+04</pdfrwt>
<pdfrwt beam="2">  1        4 0.91791433E-01 0.11193237E+04</pdfrwt>
<totfact> 0.35963035E+00</totfact>
</mgrwt>
</event>
<event>
 6    1  0.2415530E-005  0.1030754E+04  0.7818608E-02  0.9687884E-01
         21   -1    0    0  501  502  0.00000000000E+00  0.00000000000E+00  0.91728637653E+03  0.91728637653E+03  0.00000000000E+00 0.  1.
          4   -1    0    0  502    0 -0.00000000000E+00 -0.00000000000E+00 -0.63167690912E+03  0.63167690912E+03  0.00000000000E+00 0.  1.
    9000010    2    1    2  501    0  0.19719230979E+03  0.14012033448E+03  0.56818709334E+03  0.11769839300E+04  0.10019661089E+04 0.  0.
        -13    1    3    3    0    0  0.57349538541E+03 -0.66703314885E+02  0.19898640925E+03  0.61068968514E+03  0.10566000000E+00 0.  1.
          4    1    3    3  501    0 -0.37630307562E+03  0.20682364937E+03  0.36920068409E+03  0.56629424488E+03  0.00000000000E+00 0.  1.
         13    1    1    2    0    0 -0.19719230979E+03 -0.14012033448E+03 -0.28257762592E+03  0.37197935563E+03  0.10566000000E+00 0. -1.
<mgrwt>
<rscale>  1 0.71742758E+03</rscale>
<asrwt>0</asrwt>
<pdfrwt beam="1">  1       21 0.14112098E+00 0.10307544E+04</pdfrwt>
<pdfrwt beam="2">  1        4 0.97181063E-01 0.10307544E+04</pdfrwt>
<totfact> 0.11108641E+01</totfact>
</mgrwt>
</event>
<event>
 6    1  0.2415530E-005  0.1040481E+04  0.7818608E-02  0.9510550E-01
         21   -1    0    0  501  502  0.00000000000E+00  0.00000000000E+00  0.52275168962E+03  0.52275168962E+03  0.00000000000E+00 0. -1.
          4   -1    0    0  502    0 -0.00000000000E+00 -0.00000000000E+00 -0.10805811194E+04  0.10805811194E+04  0.00000000000E+00 0.  1.
    9000010    2    1    2  501    0  0.41706424218E+03  0.11176068485E+03 -0.24166818726E+03  0.10681777145E+04  0.94666101862E+03 0.  0.
        -13    1    3    3    0    0  0.61175249558E+03 -0.21499280458E+03 -0.74467770875E+02  0.65269325255E+03  0.10566000000E+00 0.  1.
          4    1    3    3  501    0 -0.19468825339E+03  0.32675348942E+03 -0.16720041639E+03  0.41548446192E+03  0.00000000000E+00 0.  1.
         13    1    1    2    0    0 -0.41706424218E+03 -0.11176068485E+03 -0.31616124251E+03  0.53515509454E+03  0.10566000000E+00 0. -1.
<mgrwt>
<rscale>  1 0.83510462E+03</rscale>
<asrwt>0</asrwt>
<pdfrwt beam="1">  1       21 0.80423337E-01 0.10404807E+04</pdfrwt>
<pdfrwt beam="2">  1        4 0.16624325E+00 0.10404807E+04</pdfrwt>
<totfact> 0.11560079E+01</totfact>
</mgrwt>
</event>
<event>
 6    1  0.2415530E-005  0.1036124E+04  0.7818608E-02  0.9616237E-01
          4   -1    0    0  502    0 -0.00000000000E+00  0.00000000000E+00  0.80819642081E+03  0.80819642081E+03  0.00000000000E+00 0.  1.
         21   -1    0    0  501  502  0.00000000000E+00 -0.00000000000E+00 -0.65515287903E+03  0.65515287903E+03  0.00000000000E+00 0.  1.
    9000010    2    1    2  501    0 -0.16702582199E+03  0.25351224323E+03 -0.13497028397E+03  0.10448782045E+04  0.99064998961E+03 0.  0.
        -13    1    3    3    0    0  0.29927328592E+01  0.25790730556E+03 -0.54391851508E+03  0.60197383409E+03  0.10566000000E+00 0.  1.
          4    1    3    3  501    0 -0.17001855485E+03 -0.43950623270E+01  0.40894823111E+03  0.44290437037E+03  0.00000000000E+00 0.  1.
         13    1    1    2    0    0  0.16702582199E+03 -0.25351224323E+03  0.28801382576E+03  0.41847109538E+03  0.10566000000E+00 0. -1.
<mgrwt>
<rscale>  1 0.76230765E+03</rscale>
<asrwt>0</asrwt>
<pdfrwt beam="2">  1       21 0.10079275E+00 0.10361243E+04</pdfrwt>
<pdfrwt beam="1">  1        4 0.12433791E+00 0.10361243E+04</pdfrwt>
<totfact> 0.14496471E+01</totfact>
</mgrwt>
</event>
<event>
 6    1  0.2415530E-005  0.1259863E+04  0.7818608E-02  0.9220018E-01
         21   -1    0    0  501  502  0.00000000000E+00  0.00000000000E+00  0.83512878021E+03  0.83512878021E+03  0.00000000000E+00 0. -1.
          4   -1    0    0  502    0 -0.00000000000E+00 -0.00000000000E+00 -0.11691011808E+04  0.11691011808E+04  0.00000000000E+00 0.  1.
    9000010    2    1    2  501    0 -0.30799200600E+03  0.62059181338E+03 -0.36202712227E+03  0.13108466953E+04  0.10522652454E+04 0.  0.
        -13    1    3    3    0    0 -0.43746731329E+03  0.47433497348E+03  0.23186054979E+03  0.68566073461E+03  0.10566000000E+00 0.  1.
          4    1    3    3  501    0  0.12947530729E+03  0.14625683990E+03 -0.59388767206E+03  0.62518596069E+03  0.00000000000E+00 0.  1.
         13    1    1    2    0    0  0.30799200600E+03 -0.62059181338E+03  0.28054721681E+02  0.69338326571E+03  0.10566000000E+00 0. -1.
<mgrwt>
<rscale>  1 0.10849182E+04</rscale>
<asrwt>0</asrwt>
<pdfrwt beam="1">  1       21 0.12848135E+00 0.12598633E+04</pdfrwt>
<pdfrwt beam="2">  1        4 0.17986172E+00 0.12598633E+04</pdfrwt>
<totfact> 0.27959715E+00</totfact>
</mgrwt>
</event>
<event>
 6    1  0.2415530E-005  0.7284912E+03  0.7818608E-02  0.1030570E+00
          4   -1    0    0  502    0 -0.00000000000E+00  0.00000000000E+00  0.45755218666E+03  0.45755218666E+03  0.00000000000E+00 0.  1.
         21   -1    0    0  501  502  0.00000000000E+00 -0.00000000000E+00 -0.52399803333E+03  0.52399803333E+03  0.00000000000E+00 0.  1.
    9000010    2    1    2  501    0  0.97177822821E+02  0.73669885006E+01 -0.25291805479E+03  0.77114656666E+03  0.72194299156E+03 0.  0.
        -13    1    3    3    0    0  0.25626201314E+03 -0.26105557536E+01  0.17777823079E+03  0.31190085747E+03  0.10566000000E+00 0.  1.
          4    1    3    3  501    0 -0.15908419032E+03  0.99775442542E+01 -0.43069628558E+03  0.45924570919E+03  0.00000000000E+00 0.  1.
         13    1    1    2    0    0 -0.97177822821E+02 -0.73669885006E+01  0.18647220812E+03  0.21040365333E+03  0.10566000000E+00 0. -1.
<mgrwt>
<rscale>  1 0.44057637E+03</rscale>
<asrwt>0</asrwt>
<pdfrwt beam="2">  1       21 0.80615083E-01 0.72849124E+03</pdfrwt>
<pdfrwt beam="1">  1        4 0.70392644E-01 0.72849124E+03</pdfrwt>
<totfact> 0.98755701E+01</totfact>
</mgrwt>
</event>
<event>
 6    1  0.2415530E-005  0.1015218E+04  0.7818608E-02  0.9882401E-01
          4   -1    0    0  502    0 -0.00000000000E+00  0.00000000000E+00  0.14164259174E+04  0.14164259174E+04  0.00000000000E+00 0.  1.
         21   -1    0    0  501  502  0.00000000000E+00 -0.00000000000E+00 -0.23630975037E+03  0.23630975037E+03  0.00000000000E+00 0.  1.
    9000010    2    1    2  501    0  0.11901151359E+03 -0.60231400196E+02  0.97176181373E+03  0.14053430453E+04  0.10064176521E+04 0.  0.
        -13    1    3    3    0    0 -0.17844957036E+03  0.35617481718E+02 -0.15314122099E+03  0.23783418362E+03  0.10566000000E+00 0.  1.
          4    1    3    3  501    0  0.29746108395E+03 -0.95848881915E+02  0.11249030347E+04  0.11675088617E+04  0.00000000000E+00 0.  1.
         13    1    1    2    0    0 -0.11901151359E+03  0.60231400196E+02  0.20835435326E+03  0.24739262241E+03  0.10566000000E+00 0. -1.
<mgrwt>
<rscale>  1 0.61121830E+03</rscale>
<asrwt>0</asrwt>
<pdfrwt beam="2">  1       21 0.36355347E-01 0.10152182E+04</pdfrwt>
<pdfrwt beam="1">  1        4 0.21791167E+00 0.10152182E+04</pdfrwt>
<totfact> 0.29611593E+01</totfact>
</mgrwt>
</event>
<event>
 6    1  0.2415530E-005  0.1156258E+04  0.7818608E-02  0.9330737E-01
         21   -1    0    0  501  502  0.00000000000E+00  0.00000000000E+00  0.65195348385E+03  0.65195348385E+03  0.00000000000E+00 0.  1.
          4   -1    0    0  502    0 -0.00000000000E+00 -0.00000000000E+00 -0.13479735718E+04  0.13479735718E+04  0.00000000000E+00 0.  1.
    9000010    2    1    2  501    0  0.47985929483E+03  0.35469956785E+03 -0.10656552059E+03  0.11611580622E+04  0.99038129472E+03 0.  0.
        -13    1    3    3    0    0  0.38830520280E+03 -0.29613903262E+03 -0.12341018605E+03  0.50369568427E+03  0.10566000000E+00 0.  1.
          4    1    3    3  501    0  0.91554092027E+02  0.65083860047E+03  0.16844665465E+02  0.65746237792E+03  0.00000000000E+00 0.  1.
         13    1    1    2    0    0 -0.47985929483E+03 -0.35469956785E+03 -0.58945456739E+03  0.83876899349E+03  0.10566000000E+00 0. -1.
<mgrwt>
<rscale>  1 0.98001771E+03</rscale>
<asrwt>0</asrwt>
<pdfrwt beam="1">  1       21 0.10030054E+00 0.11562577E+04</pdfrwt>
<pdfrwt beam="2">  1        4 0.20738055E+00 0.11562577E+04</pdfrwt>
<totfact> 0.34858100E+00</totfact>
</mgrwt>
</event>
<event>
 6    1  0.2415530E-005  0.1069534E+04  0.7818608E-02  0.9513527E-01
         21   -1    0    0  501  502  0.00000000000E+00  0.00000000000E+00  0.25432275706E+04  0.25432275706E+04  0.00000000000E+00 0.  1.
          4   -1    0    0  502    0 -0.00000000000E+00 -0.00000000000E+00 -0.29622209563E+03  0.29622209563E+03  0.00000000000E+00 0.  1.
    9000010    2    1    2  501    0  0.29632689009E+03 -0.25880106280E+03  0.21961578894E+04  0.24427468757E+04  0.99454271276E+03 0.  0.
        -13    1    3    3    0    0 -0.17069002955E+03  0.14797680429E+03  0.14747709184E+04  0.14919723502E+04  0.10566000000E+00 0.  1.
          4    1    3    3  501    0  0.46701691963E+03 -0.40677786709E+03  0.72138697101E+03  0.95077452549E+03  0.00000000000E+00 0.  1.
         13    1    1    2    0    0 -0.29632689009E+03  0.25880106280E+03  0.50847585532E+02  0.39670279053E+03  0.10566000000E+00 0. -1.
<mgrwt>
<rscale>  1 0.83293854E+03</rscale>
<asrwt>0</asrwt>
<pdfrwt beam="1">  1       21 0.39126577E+00 0.10695339E+04</pdfrwt>
<pdfrwt beam="2">  1        4 0.45572632E-01 0.10695339E+04</pdfrwt>
<totfact> 0.12891069E+00</totfact>
</mgrwt>
</event>
<event>
 6    1  0.2415530E-005  0.1025371E+04  0.7818608E-02  0.9710673E-01
          4   -1    0    0  502    0 -0.00000000000E+00  0.00000000000E+00  0.80837250359E+03  0.80837250359E+03  0.00000000000E+00 0.  1.
         21   -1    0    0  501  502  0.00000000000E+00 -0.00000000000E+00 -0.52413633642E+03  0.52413633642E+03  0.00000000000E+00 0.  1.
    9000010    2    1    2  501    0  0.17026436015E+03  0.15111622271E+03  0.83106127320E+02  0.10287336448E+04  0.99978008509E+03 0.  0.
        -13    1    3    3    0    0  0.17015865322E+03 -0.37954096677E+03  0.23373329864E+03  0.47711275269E+03  0.10566000000E+00 0.  1.
          4    1    3    3  501    0  0.10570693086E+00  0.53065718948E+03 -0.15062717132E+03  0.55162089215E+03  0.00000000000E+00 0.  1.
         13    1    1    2    0    0 -0.17026436015E+03 -0.15111622271E+03  0.20113003985E+03  0.30377519517E+03  0.10566000000E+00 0. -1.
<mgrwt>
<rscale>  1 0.70384885E+03</rscale>
<asrwt>0</asrwt>
<pdfrwt beam="2">  1       21 0.80636359E-01 0.10253713E+04</pdfrwt>
<pdfrwt beam="1">  1        4 0.12436500E+00 0.10253713E+04</pdfrwt>
<totfact> 0.24876424E+01</totfact>
</mgrwt>
</event>
<event>
 6    1  0.2415530E-005  0.8998380E+03  0.7818608E-02  0.1007889E+00
          4   -1    0    0  502    0 -0.00000000000E+00  0.00000000000E+00  0.71780036619E+03  0.71780036619E+03  0.00000000000E+00 0.  1.
         21   -1    0    0  501  502  0.00000000000E+00 -0.00000000000E+00 -0.44601768854E+03  0.44601768854E+03  0.00000000000E+00 0.  1.
    9000010    2    1    2  501    0 -0.10181430895E+03  0.14641216258E+02  0.29181274153E+02  0.90031099437E+03  0.89393949522E+03 0.  0.
        -13    1    3    3    0    0 -0.46658097929E+03  0.12735816219E+03 -0.10630977346E+03  0.49519661833E+03  0.10566000000E+00 0.  1.
          4    1    3    3  501    0  0.36476667034E+03 -0.11271694594E+03  0.13549104761E+03  0.40511437604E+03  0.00000000000E+00 0.  1.
         13    1    1    2    0    0  0.10181430895E+03 -0.14641216258E+02  0.24260140349E+03  0.26350706036E+03  0.10566000000E+00 0. -1.
<mgrwt>
<rscale>  1 0.52322280E+03</rscale>
<asrwt>0</asrwt>
<pdfrwt beam="2">  1       21 0.68618106E-01 0.89983795E+03</pdfrwt>
<pdfrwt beam="1">  1        4 0.11043083E+00 0.89983795E+03</pdfrwt>
<totfact> 0.49198509E+01</totfact>
</mgrwt>
</event>
<event>
 6    1  0.2415530E-005  0.1166873E+04  0.7818608E-02  0.9318108E-01
          4   -1    0    0  502    0 -0.00000000000E+00  0.00000000000E+00  0.12451523801E+04  0.12451523801E+04  0.00000000000E+00 0.  1.
         21   -1    0    0  501  502  0.00000000000E+00 -0.00000000000E+00 -0.66956154886E+03  0.66956154886E+03  0.00000000000E+00 0. -1.
    9000010    2    1    2  501    0  0.55039733490E+03 -0.25796637720E+03  0.58817875924E+03  0.13067317375E+04  0.99604703851E+03 0.  0.
        -13    1    3    3    0    0  0.35160905521E+03  0.28334956324E+03  0.57341899333E+03  0.72988030236E+03  0.10566000000E+00 0.  1.
          4    1    3    3  501    0  0.19878827969E+03 -0.54131594044E+03  0.14759765903E+02  0.57685143513E+03  0.00000000000E+00 0.  1.
         13    1    1    2    0    0 -0.55039733490E+03  0.25796637720E+03 -0.12587928003E+02  0.60798219146E+03  0.10566000000E+00 0. -1.
<mgrwt>
<rscale>  1 0.99132784E+03</rscale>
<asrwt>0</asrwt>
<pdfrwt beam="2">  1       21 0.10300947E+00 0.11668734E+04</pdfrwt>
<pdfrwt beam="1">  1        4 0.19156190E+00 0.11668734E+04</pdfrwt>
<totfact> 0.41504820E+00</totfact>
</mgrwt>
</event>
<event>
 6    1  0.2415530E-005  0.1029289E+04  0.7818608E-02  0.9632132E-01
         21   -1    0    0  501  502  0.00000000000E+00  0.00000000000E+00  0.50311491125E+03  0.50311491125E+03  0.00000000000E+00 0.  1.
          4   -1    0    0  502    0 -0.00000000000E+00 -0.00000000000E+00 -0.11364392867E+04  0.11364392867E+04  0.00000000000E+00 0.  1.
    9000010    2    1    2  501    0 -0.21411087737E+03 -0.20052690596E+03 -0.10419635070E+03  0.10345492512E+04  0.98660061114E+03 0.  0.
        -13    1    3    3    0    0  0.95840317109E+02 -0.34817685871E+03 -0.42980510294E+03  0.56137770619E+03  0.10566000000E+00 0.  1.
          4    1    3    3  501    0 -0.30995119448E+03  0.14764995275E+03  0.32560875224E+03  0.47317154504E+03  0.00000000000E+00 0.  1.
         13    1    1    2    0    0  0.21411087737E+03  0.20052690596E+03 -0.52912802475E+03  0.60500494672E+03  0.10566000000E+00 0. -1.
<mgrwt>
<rscale>  1 0.75205503E+03</rscale>
<asrwt>0</asrwt>
<pdfrwt beam="1">  1       21 0.77402295E-01 0.10292887E+04</pdfrwt>
<pdfrwt beam="2">  1        4 0.17483681E+00 0.10292887E+04</pdfrwt>
<totfact> 0.10983410E+01</totfact>
</mgrwt>
</event>
<event>
 6    1  0.2415530E-005  0.1025704E+04  0.7818608E-02  0.9701424E-01
          4   -1    0    0  502    0 -0.00000000000E+00  0.00000000000E+00  0.49338640373E+03  0.49338640373E+03  0.00000000000E+00 0.  1.
         21   -1    0    0  501  502  0.00000000000E+00 -0.00000000000E+00 -0.12156504797E+04  0.12156504797E+04  0.00000000000E+00 0.  1.
    9000010    2    1    2  501    0  0.86141053799E+02  0.21819891843E+03 -0.93829518727E+03  0.13901317230E+04  0.99851755098E+03 0.  0.
        -13    1    3    3    0    0 -0.13080213927E+02  0.44951217143E+03 -0.33464001541E+02  0.45094582250E+03  0.10566000000E+00 0.  1.
          4    1    3    3  501    0  0.99221267726E+02 -0.23131325301E+03 -0.90483118573E+03  0.93918590048E+03  0.00000000000E+00 0.  1.
         13    1    1    2    0    0 -0.86141053799E+02 -0.21819891843E+03  0.21603111130E+03  0.31890516046E+03  0.10566000000E+00 0. -1.
<mgrwt>
<rscale>  1 0.70932043E+03</rscale>
<asrwt>0</asrwt>
<pdfrwt beam="2">  1       21 0.18702315E+00 0.10257038E+04</pdfrwt>
<pdfrwt beam="1">  1        4 0.75905602E-01 0.10257038E+04</pdfrwt>
<totfact> 0.87776661E+00</totfact>
</mgrwt>
</event>
<event>
 6    1  0.2415530E-005  0.1208277E+04  0.7818608E-02  0.9259235E-01
         21   -1    0    0  501  502  0.00000000000E+00  0.00000000000E+00  0.21529046388E+04  0.21529046388E+04  0.00000000000E+00 0.  1.
          4   -1    0    0  502    0 -0.00000000000E+00 -0.00000000000E+00 -0.41581384091E+03  0.41581384091E+03  0.00000000000E+00 0.  1.
    9000010    2    1    2  501    0  0.64225582078E+03 -0.22108154544E+03  0.10230767778E+04  0.15832309754E+04  0.99928206186E+03 0.  0.
        -13    1    3    3    0    0  0.64971985425E+02  0.14798165713E+02  0.95341074439E+03  0.95573657630E+03  0.10566000000E+00 0.  1.
          4    1    3    3  501    0  0.57728383536E+03 -0.23587971115E+03  0.69666033403E+02  0.62749439910E+03  0.00000000000E+00 0.  1.
         13    1    1    2    0    0 -0.64225582078E+03  0.22108154544E+03  0.71401402009E+03  0.98548750429E+03  0.10566000000E+00 0. -1.
<mgrwt>
<rscale>  1 0.10462396E+04</rscale>
<asrwt>0</asrwt>
<pdfrwt beam="1">  1       21 0.33121609E+00 0.12082774E+04</pdfrwt>
<pdfrwt beam="2">  1        4 0.63971362E-01 0.12082774E+04</pdfrwt>
<totfact> 0.14702214E+00</totfact>
</mgrwt>
</event>
<event>
 6    1  0.2415530E-005  0.1030743E+04  0.7818608E-02  0.9905762E-01
          4   -1    0    0  502    0 -0.00000000000E+00  0.00000000000E+00  0.31834368044E+03  0.31834368044E+03  0.00000000000E+00 0.  1.
         21   -1    0    0  501  502  0.00000000000E+00 -0.00000000000E+00 -0.10446890739E+04  0.10446890739E+04  0.00000000000E+00 0.  1.
    9000010    2    1    2  501    0 -0.11634058317E+03  0.20944657608E+02 -0.68587770465E+03  0.12380869462E+04  0.10239420153E+04 0.  0.
        -13    1    3    3    0    0 -0.15676578926E+03 -0.28015294123E+03  0.14585228670E+03  0.35261038536E+03  0.10566000000E+00 0.  1.
          4    1    3    3  501    0  0.40425206087E+02  0.30109759884E+03 -0.83172999135E+03  0.88547656086E+03  0.00000000000E+00 0.  1.
         13    1    1    2    0    0  0.11634058317E+03 -0.20944657608E+02 -0.40467688848E+02  0.12494580817E+03  0.10566000000E+00 0. -1.
<mgrwt>
<rscale>  1 0.59982862E+03</rscale>
<asrwt>0</asrwt>
<pdfrwt beam="2">  1       21 0.16072139E+00 0.10307430E+04</pdfrwt>
<pdfrwt beam="1">  1        4 0.48975951E-01 0.10307430E+04</pdfrwt>
<totfact> 0.35814756E+01</totfact>
</mgrwt>
</event>
<event>
 6    1  0.2415530E-005  0.1012148E+04  0.7818608E-02  0.9720630E-01
         21   -1    0    0  501  502  0.00000000000E+00  0.00000000000E+00  0.30516843631E+03  0.30516843631E+03  0.00000000000E+00 0.  1.
          4   -1    0    0  502    0 -0.00000000000E+00 -0.00000000000E+00 -0.12737503741E+04  0.12737503741E+04  0.00000000000E+00 0.  1.
    9000010    2    1    2  501    0 -0.46148082244E+01  0.22889820888E+03 -0.72768665602E+03  0.12465842885E+04  0.98591522587E+03 0.  0.
        -13    1    3    3    0    0  0.79128372227E+02 -0.38145335096E+03 -0.35170758660E+03  0.52484873619E+03  0.10566000000E+00 0.  1.
          4    1    3    3  501    0 -0.83743180451E+02  0.61035155984E+03 -0.37597906943E+03  0.72173555235E+03  0.00000000000E+00 0.  1.
         13    1    1    2    0    0  0.46148082244E+01 -0.22889820888E+03 -0.24089528173E+03  0.33233452184E+03  0.10566000000E+00 0. -1.
<mgrwt>
<rscale>  1 0.69801674E+03</rscale>
<asrwt>0</asrwt>
<pdfrwt beam="1">  1       21 0.46948992E-01 0.10121485E+04</pdfrwt>
<pdfrwt beam="2">  1        4 0.19596159E+00 0.10121485E+04</pdfrwt>
<totfact> 0.24061577E+01</totfact>
</mgrwt>
</event>
<event>
 6    1  0.2415530E-005  0.1315819E+04  0.7818608E-02  0.9144034E-01
         21   -1    0    0  501  502  0.00000000000E+00  0.00000000000E+00  0.11076756867E+04  0.11076756867E+04  0.00000000000E+00 0.  1.
          4   -1    0    0  502    0 -0.00000000000E+00 -0.00000000000E+00 -0.11692964473E+04  0.11692964473E+04  0.00000000000E+00 0.  1.
    9000010    2    1    2  501    0  0.31609513986E+03 -0.74429115125E+03  0.36116393821E+03  0.13644852201E+04  0.10380246000E+04 0.  0.
        -13    1    3    3    0    0  0.36584030322E+03 -0.91066330285E+03  0.53586122139E+03  0.11181654790E+04  0.10566000000E+00 0.  1.
          4    1    3    3  501    0 -0.49745163367E+02  0.16637215160E+03 -0.17469728319E+03  0.24631974111E+03  0.00000000000E+00 0.  1.
         13    1    1    2    0    0 -0.31609513986E+03  0.74429115125E+03 -0.42278469881E+03  0.91248691387E+03  0.10566000000E+00 0. -1.
<mgrwt>
<rscale>  1 0.11650241E+04</rscale>
<asrwt>0</asrwt>
<pdfrwt beam="1">  1       21 0.17041164E+00 0.13158193E+04</pdfrwt>
<pdfrwt beam="2">  1        4 0.17989176E+00 0.13158193E+04</pdfrwt>
<totfact> 0.12589199E+00</totfact>
</mgrwt>
</event>
<event>
 6    1  0.2415530E-005  0.1029586E+04  0.7818608E-02  0.9986982E-01
          4   -1    0    0  502    0 -0.00000000000E+00  0.00000000000E+00  0.16809257459E+04  0.16809257459E+04  0.00000000000E+00 0.  1.
         21   -1    0    0  501  502  0.00000000000E+00 -0.00000000000E+00 -0.20211401367E+03  0.20211401367E+03  0.00000000000E+00 0.  1.
    9000010    2    1    2  501    0 -0.70814682298E+02 -0.58044205561E+02  0.11584784189E+04  0.15498771989E+04  0.10255063313E+04 0.  0.
        -13    1    3    3    0    0 -0.18196579381E+03  0.42240828223E+03  0.26895163874E+03  0.53279949527E+03  0.10566000000E+00 0.  1.
          4    1    3    3  501    0  0.11115111152E+03 -0.48045248779E+03  0.88952678016E+03  0.10170777036E+04  0.00000000000E+00 0.  1.
         13    1    1    2    0    0  0.70814682298E+02  0.58044205561E+02  0.32033331329E+03  0.33316256062E+03  0.10566000000E+00 0. -1.
<mgrwt>
<rscale>  1 0.56224738E+03</rscale>
<asrwt>0</asrwt>
<pdfrwt beam="2">  1       21 0.31094465E-01 0.10295859E+04</pdfrwt>
<pdfrwt beam="1">  1        4 0.25860395E+00 0.10295859E+04</pdfrwt>
<totfact> 0.22648816E+01</totfact>
</mgrwt>
</event>
<event>
 6    1  0.2415530E-005  0.1017271E+04  0.7818608E-02  0.9916968E-01
         21   -1    0    0  501  502  0.00000000000E+00  0.00000000000E+00  0.26701462333E+03  0.26701462333E+03  0.00000000000E+00 0.  1.
          4   -1    0    0  502    0 -0.00000000000E+00 -0.00000000000E+00 -0.12553257439E+04  0.12553257439E+04  0.00000000000E+00 0.  1.
    9000010    2    1    2  501    0 -0.94170514231E+01  0.11825148593E+03 -0.77721521283E+03  0.12801966326E+04  0.10103305580E+04 0.  0.
        -13    1    3    3    0    0 -0.13201667512E+03 -0.42842620245E+03 -0.26313408301E+03  0.51982398008E+03  0.10566000000E+00 0.  1.
          4    1    3    3  501    0  0.12259962370E+03  0.54667768838E+03 -0.51408112982E+03  0.76037265254E+03  0.00000000000E+00 0.  1.
         13    1    1    2    0    0  0.94170514231E+01 -0.11825148593E+03 -0.21109590778E+03  0.24214373464E+03  0.10566000000E+00 0. -1.
<mgrwt>
<rscale>  1 0.59445958E+03</rscale>
<asrwt>0</asrwt>
<pdfrwt beam="1">  1       21 0.41079172E-01 0.10172708E+04</pdfrwt>
<pdfrwt beam="2">  1        4 0.19312704E+00 0.10172708E+04</pdfrwt>
<totfact> 0.33362178E+01</totfact>
</mgrwt>
</event>
<event>
 6    1  0.2415530E-005  0.1051195E+04  0.7818608E-02  0.9514579E-01
          4   -1    0    0  502    0 -0.00000000000E+00  0.00000000000E+00  0.14894987022E+04  0.14894987022E+04  0.00000000000E+00 0.  1.
         21   -1    0    0  501  502  0.00000000000E+00 -0.00000000000E+00 -0.36549091187E+03  0.36549091187E+03  0.00000000000E+00 0.  1.
    9000010    2    1    2  501    0  0.22417350216E+03 -0.34670447867E+03  0.90787395159E+03  0.13889728740E+04  0.96672269973E+03 0.  0.
        -13    1    3    3    0    0 -0.23758990855E+03  0.13754746753E+03  0.58459493267E+03  0.64584790542E+03  0.10566000000E+00 0.  1.
          4    1    3    3  501    0  0.46176341071E+03 -0.48425194620E+03  0.32327901891E+03  0.74312496859E+03  0.00000000000E+00 0.  1.
         13    1    1    2    0    0 -0.22417350216E+03  0.34670447867E+03  0.21613383877E+03  0.46601674007E+03  0.10566000000E+00 0. -1.
<mgrwt>
<rscale>  1 0.83217480E+03</rscale>
<asrwt>0</asrwt>
<pdfrwt beam="2">  1       21 0.56229372E-01 0.10511948E+04</pdfrwt>
<pdfrwt beam="1">  1        4 0.22915364E+00 0.10511948E+04</pdfrwt>
<totfact> 0.98729549E+00</totfact>
</mgrwt>
</event>
<event>
 6    1  0.2415530E-005  0.1228315E+04  0.7818608E-02  0.9231423E-01
          4   -1    0    0  502    0 -0.00000000000E+00  0.00000000000E+00  0.12346985501E+04  0.12346985501E+04  0.00000000000E+00 0.  1.
         21   -1    0    0  501  502  0.00000000000E+00 -0.00000000000E+00 -0.11336900729E+04  0.11336900729E+04  0.00000000000E+00 0.  1.
    9000010    2    1    2  501    0 -0.71104376482E+02  0.71304118424E+03 -0.59904955099E+03  0.13666078002E+04  0.99763367643E+03 0.  0.
        -13    1    3    3    0    0  0.45022134721E+03  0.34304496851E+03 -0.41341554267E+03  0.70092191719E+03  0.10566000000E+00 0.  1.
          4    1    3    3  501    0 -0.52132572370E+03  0.36999621573E+03 -0.18563400831E+03  0.66568588305E+03  0.00000000000E+00 0.  1.
         13    1    1    2    0    0  0.71104376482E+02 -0.71304118424E+03  0.70005802817E+03  0.10017808227E+04  0.10566000000E+00 0. -1.
<mgrwt>
<rscale>  1 0.10734900E+04</rscale>
<asrwt>0</asrwt>
<pdfrwt beam="2">  1       21 0.17441386E+00 0.12283145E+04</pdfrwt>
<pdfrwt beam="1">  1        4 0.18995362E+00 0.12283145E+04</pdfrwt>
<totfact> 0.10128024E+00</totfact>
</mgrwt>
</event>
<event>
 6    1  0.2415530E-005  0.1169249E+04  0.7818608E-02  0.9341832E-01
         21   -1    0    0  501  502  0.00000000000E+00  0.00000000000E+00  0.10567316641E+04  0.10567316641E+04  0.00000000000E+00 0.  1.
          4   -1    0    0  502    0 -0.00000000000E+00 -0.00000000000E+00 -0.70278756893E+03  0.70278756893E+03  0.00000000000E+00 0.  1.
    9000010    2    1    2  501    0  0.27326757544E+03 -0.48226154313E+03  0.24059812476E+03  0.11937465897E+04  0.10295106114E+04 0.  0.
        -13    1    3    3    0    0  0.11711996558E+03 -0.18703871132E+03  0.63774045967E+03  0.67484329361E+03  0.10566000000E+00 0.  1.
          4    1    3    3  501    0  0.15614760986E+03 -0.29522283181E+03 -0.39714233491E+03  0.51890329607E+03  0.00000000000E+00 0.  1.
         13    1    1    2    0    0 -0.27326757544E+03  0.48226154313E+03  0.11334597038E+03  0.56577264332E+03  0.10566000000E+00 0. -1.
<mgrwt>
<rscale>  1 0.97021283E+03</rscale>
<asrwt>0</asrwt>
<pdfrwt beam="1">  1       21 0.16257410E+00 0.11692491E+04</pdfrwt>
<pdfrwt beam="2">  1        4 0.10812116E+00 0.11692491E+04</pdfrwt>
<totfact> 0.56703608E+00</totfact>
</mgrwt>
</event>
<event>
 6    1  0.2415530E-005  0.1018490E+04  0.7818608E-02  0.9672416E-01
          4   -1    0    0  502    0 -0.00000000000E+00  0.00000000000E+00  0.25189699669E+03  0.25189699669E+03  0.00000000000E+00 0.  1.
         21   -1    0    0  501  502  0.00000000000E+00 -0.00000000000E+00 -0.24186659865E+04  0.24186659865E+04  0.00000000000E+00 0.  1.
    9000010    2    1    2  501    0 -0.25083982332E+03  0.82819811412E+02 -0.21798840205E+04  0.24060790455E+04  0.98363727678E+03 0.  0.
        -13    1    3    3    0    0  0.27437614986E+03 -0.54367323290E+02 -0.17716892734E+03  0.33109955819E+03  0.10566000000E+00 0.  1.
          4    1    3    3  501    0 -0.52521597318E+03  0.13718713470E+03 -0.20027150931E+04  0.20749794873E+04  0.00000000000E+00 0.  1.
         13    1    1    2    0    0  0.25083982332E+03 -0.82819811412E+02  0.13115030641E+02  0.26448393773E+03  0.10566000000E+00 0. -1.
<mgrwt>
<rscale>  1 0.72683156E+03</rscale>
<asrwt>0</asrwt>
<pdfrwt beam="2">  1       21 0.37210248E+00 0.10184901E+04</pdfrwt>
<pdfrwt beam="1">  1        4 0.38753382E-01 0.10184901E+04</pdfrwt>
<totfact> 0.24183934E+00</totfact>
</mgrwt>
</event>
<event>
 6    1  0.2415530E-005  0.1027724E+04  0.7818608E-02  0.9687231E-01
          4   -1    0    0  502    0 -0.00000000000E+00  0.00000000000E+00  0.49870286877E+03  0.49870286877E+03  0.00000000000E+00 0.  1.
         21   -1    0    0  501  502  0.00000000000E+00 -0.00000000000E+00 -0.99566874062E+03  0.99566874062E+03  0.00000000000E+00 0.  1.
    9000010    2    1    2  501    0 -0.14049716093E+01  0.24458468642E+03 -0.64031037982E+03  0.12108732815E+04  0.99819491013E+03 0.  0.
        -13    1    3    3    0    0 -0.40213182039E+03  0.25040890801E+03 -0.22246121604E+02  0.47424626859E+03  0.10566000000E+00 0.  1.
          4    1    3    3  501    0  0.40072684878E+03 -0.58242215967E+01 -0.61806425822E+03  0.73662701293E+03  0.00000000000E+00 0.  1.
         13    1    1    2    0    0  0.14049716093E+01 -0.24458468642E+03  0.14334450797E+03  0.28349832787E+03  0.10566000000E+00 0. -1.
<mgrwt>
<rscale>  1 0.71782157E+03</rscale>
<asrwt>0</asrwt>
<pdfrwt beam="2">  1       21 0.15317980E+00 0.10277240E+04</pdfrwt>
<pdfrwt beam="1">  1        4 0.76723519E-01 0.10277240E+04</pdfrwt>
<totfact> 0.15374731E+01</totfact>
</mgrwt>
</event>
<event>
 6    1  0.2415530E-005  0.1114088E+04  0.7818608E-02  0.9419844E-01
         21   -1    0    0  501  502  0.00000000000E+00  0.00000000000E+00  0.16800768507E+04  0.16800768507E+04  0.00000000000E+00 0.  1.
          4   -1    0    0  502    0 -0.00000000000E+00 -0.00000000000E+00 -0.38022955030E+03  0.38022955030E+03  0.00000000000E+00 0.  1.
    9000010    2    1    2  501    0  0.42564001645E+03  0.23094605423E+03  0.89206531862E+03  0.14272253166E+04  0.10033374648E+04 0.  0.
        -13    1    3    3    0    0  0.27326689697E+03 -0.35610962393E+03  0.15995883657E+03  0.47652460776E+03  0.10566000000E+00 0.  1.
          4    1    3    3  501    0  0.15237311948E+03  0.58705567817E+03  0.73210648205E+03  0.95070070888E+03  0.00000000000E+00 0.  1.
         13    1    1    2    0    0 -0.42564001645E+03 -0.23094605423E+03  0.40778198181E+03  0.63308108440E+03  0.10566000000E+00 0. -1.
<mgrwt>
<rscale>  1 0.90460450E+03</rscale>
<asrwt>0</asrwt>
<pdfrwt beam="1">  1       21 0.25847336E+00 0.11140878E+04</pdfrwt>
<pdfrwt beam="2">  1        4 0.58496855E-01 0.11140878E+04</pdfrwt>
<totfact> 0.51914396E+00</totfact>
</mgrwt>
</event>
<event>
 6    1  0.2415530E-005  0.1035640E+04  0.7818608E-02  0.9579338E-01
         21   -1    0    0  501  502  0.00000000000E+00  0.00000000000E+00  0.43248944001E+03  0.43248944001E+03  0.00000000000E+00 0.  1.
          4   -1    0    0  502    0 -0.00000000000E+00 -0.00000000000E+00 -0.11074750146E+04  0.11074750146E+04  0.00000000000E+00 0.  1.
    9000010    2    1    2  501    0  0.28453484912E+03 -0.19508719067E+03 -0.45787757796E+03  0.11323433245E+04  0.97648883038E+03 0.  0.
        -13    1    3    3    0    0 -0.74418963814E+02  0.34677516821E+03 -0.29738934090E+03  0.46285162926E+03  0.10566000000E+00 0.  1.
          4    1    3    3  501    0  0.35895381293E+03 -0.54186235888E+03 -0.16048823706E+03  0.66949169526E+03  0.00000000000E+00 0.  1.
         13    1    1    2    0    0 -0.28453484912E+03  0.19508719067E+03 -0.21710799660E+03  0.40762113007E+03  0.10566000000E+00 0. -1.
<mgrwt>
<rscale>  1 0.78678957E+03</rscale>
<asrwt>0</asrwt>
<pdfrwt beam="1">  1       21 0.66536838E-01 0.10356397E+04</pdfrwt>
<pdfrwt beam="2">  1        4 0.17038077E+00 0.10356397E+04</pdfrwt>
<totfact> 0.16735019E+01</totfact>
</mgrwt>
</event>
<event>
 6    1  0.2415530E-005  0.1001972E+04  0.7818608E-02  0.9959345E-01
          4   -1    0    0  502    0 -0.00000000000E+00  0.00000000000E+00  0.65073808051E+03  0.65073808051E+03  0.00000000000E+00 0.  1.
         21   -1    0    0  501  502  0.00000000000E+00 -0.00000000000E+00 -0.51001839168E+03  0.51001839168E+03  0.00000000000E+00 0.  1.
    9000010    2    1    2  501    0 -0.87173579245E+02  0.64493761985E+02  0.25161942770E+02  0.10022879198E+04  0.99608698044E+03 0.  0.
        -13    1    3    3    0    0 -0.44930198795E+03 -0.25697360357E+03  0.44951292324E+01  0.51761754864E+03  0.10566000000E+00 0.  1.
          4    1    3    3  501    0  0.36212840871E+03  0.32146736556E+03  0.20666813538E+02  0.48467037118E+03  0.00000000000E+00 0.  1.
         13    1    1    2    0    0  0.87173579245E+02 -0.64493761985E+02  0.11555774606E+03  0.15846855237E+03  0.10566000000E+00 0. -1.
<mgrwt>
<rscale>  1 0.57469387E+03</rscale>
<asrwt>0</asrwt>
<pdfrwt beam="2">  1       21 0.78464368E-01 0.10019720E+04</pdfrwt>
<pdfrwt beam="1">  1        4 0.10011355E+00 0.10019720E+04</pdfrwt>
<totfact> 0.45454482E+01</totfact>
</mgrwt>
</event>
<event>
 6    1  0.2415530E-005  0.1041474E+04  0.7818608E-02  0.9598698E-01
          4   -1    0    0  502    0 -0.00000000000E+00  0.00000000000E+00  0.54239663258E+03  0.54239663258E+03  0.00000000000E+00 0.  1.
         21   -1    0    0  501  502  0.00000000000E+00 -0.00000000000E+00 -0.86729154230E+03  0.86729154230E+03  0.00000000000E+00 0.  1.
    9000010    2    1    2  501    0 -0.22140359626E+03  0.22744467782E+03 -0.32914323626E+03  0.10922473247E+04  0.99192656708E+03 0.  0.
        -13    1    3    3    0    0 -0.54514932019E+03  0.37958399438E+03 -0.31258291615E+03  0.73415249146E+03  0.10566000000E+00 0.  1.
          4    1    3    3  501    0  0.32374572393E+03 -0.15213931655E+03 -0.16560320104E+02  0.35809483326E+03  0.00000000000E+00 0.  1.
         13    1    1    2    0    0  0.22140359626E+03 -0.22744467782E+03  0.42483265413E+01  0.31744085016E+03  0.10566000000E+00 0. -1.
<mgrwt>
<rscale>  1 0.77382442E+03</rscale>
<asrwt>0</asrwt>
<pdfrwt beam="2">  1       21 0.13342947E+00 0.10414744E+04</pdfrwt>
<pdfrwt beam="1">  1        4 0.83445636E-01 0.10414744E+04</pdfrwt>
<totfact> 0.18486418E+01</totfact>
</mgrwt>
</event>
<event>
 6    1  0.2415530E-005  0.1181852E+04  0.7818608E-02  0.9303542E-01
          4   -1    0    0  502    0 -0.00000000000E+00  0.00000000000E+00  0.83818055816E+03  0.83818055816E+03  0.00000000000E+00 0.  1.
         21   -1    0    0  501  502  0.00000000000E+00 -0.00000000000E+00 -0.10651522617E+04  0.10651522617E+04  0.00000000000E+00 0. -1.
    9000010    2    1    2  501    0  0.39952226867E+03 -0.47009767481E+03 -0.42414255647E+03  0.12556552585E+04  0.10080492810E+04 0.  0.
        -13    1    3    3    0    0  0.20411266596E+03 -0.57647946347E+03 -0.68136488212E+03  0.91555920942E+03  0.10566000000E+00 0.  1.
          4    1    3    3  501    0  0.19540960271E+03  0.10638178866E+03  0.25722232566E+03  0.34009604909E+03  0.00000000000E+00 0.  1.
         13    1    1    2    0    0 -0.39952226867E+03  0.47009767481E+03  0.19717085295E+03  0.64767756132E+03  0.10566000000E+00 0. -1.
<mgrwt>
<rscale>  1 0.10045747E+04</rscale>
<asrwt>0</asrwt>
<pdfrwt beam="2">  1       21 0.16386958E+00 0.11818516E+04</pdfrwt>
<pdfrwt beam="1">  1        4 0.12895085E+00 0.11818516E+04</pdfrwt>
<totfact> 0.35538980E+00</totfact>
</mgrwt>
</event>
<event>
 6    1  0.2415530E-005  0.9955111E+03  0.7818608E-02  0.9989378E-01
          4   -1    0    0  502    0 -0.00000000000E+00  0.00000000000E+00  0.62910667979E+03  0.62910667979E+03  0.00000000000E+00 0.  1.
         21   -1    0    0  501  502  0.00000000000E+00 -0.00000000000E+00 -0.64565002199E+03  0.64565002199E+03  0.00000000000E+00 0.  1.
    9000010    2    1    2  501    0 -0.39331133489E+01  0.10045037139E+03 -0.24495220064E+03  0.10252043741E+04  0.99042247626E+03 0.  0.
        -13    1    3    3    0    0  0.33677738322E+03  0.23481191823E+03 -0.44699317537E+03  0.60692549195E+03  0.10566000000E+00 0.  1.
          4    1    3    3  501    0 -0.34071049657E+03 -0.13436154684E+03  0.20204097472E+03  0.41827888210E+03  0.00000000000E+00 0.  1.
         13    1    1    2    0    0  0.39331133489E+01 -0.10045037139E+03  0.22840885845E+03  0.24955232773E+03  0.10566000000E+00 0. -1.
<mgrwt>
<rscale>  1 0.56118455E+03</rscale>
<asrwt>0</asrwt>
<pdfrwt beam="2">  1       21 0.99330773E-01 0.99551114E+03</pdfrwt>
<pdfrwt beam="1">  1        4 0.96785643E-01 0.99551114E+03</pdfrwt>
<totfact> 0.27976015E+01</totfact>
</mgrwt>
</event>
<event>
 6    1  0.2415530E-005  0.1159814E+04  0.7818608E-02  0.9358299E-01
          4   -1    0    0  502    0 -0.00000000000E+00  0.00000000000E+00  0.36181983544E+03  0.36181983544E+03  0.00000000000E+00 0.  1.
         21   -1    0    0  501  502  0.00000000000E+00 -0.00000000000E+00 -0.20310596797E+04  0.20310596797E+04  0.00000000000E+00 0. -1.
    9000010    2    1    2  501    0  0.66979328891E+02 -0.53091861186E+03 -0.13030683900E+04  0.17444642562E+04  0.10289837265E+04 0.  0.
        -13    1    3    3    0    0 -0.69997923897E+02 -0.56026906860E+03 -0.15175946857E+03  0.58466407966E+03  0.10566000000E+00 0.  1.
          4    1    3    3  501    0  0.13697725279E+03  0.29350456739E+02 -0.11513089214E+04  0.11598001766E+04  0.00000000000E+00 0.  1.
         13    1    1    2    0    0 -0.66979328891E+02  0.53091861186E+03 -0.36617145435E+03  0.64841525896E+03  0.10566000000E+00 0. -1.
<mgrwt>
<rscale>  1 0.95588453E+03</rscale>
<asrwt>0</asrwt>
<pdfrwt beam="2">  1       21 0.31247073E+00 0.11598139E+04</pdfrwt>
<pdfrwt beam="1">  1        4 0.55664589E-01 0.11598139E+04</pdfrwt>
<totfact> 0.26320327E+00</totfact>
</mgrwt>
</event>
<event>
 6    1  0.2415530E-005  0.1041855E+04  0.7818608E-02  0.9634491E-01
          4   -1    0    0  502    0 -0.00000000000E+00  0.00000000000E+00  0.25382148209E+03  0.25382148209E+03  0.00000000000E+00 0.  1.
         21   -1    0    0  501  502  0.00000000000E+00 -0.00000000000E+00 -0.17268772371E+04  0.17268772371E+04  0.00000000000E+00 0.  1.
    9000010    2    1    2  501    0  0.12383097899E+03 -0.25180121669E+03 -0.11999365640E+04  0.15891223311E+04  0.10033563980E+04 0.  0.
        -13    1    3    3    0    0  0.60694134629E+02  0.32295233524E+03 -0.85468334754E+03  0.91567768595E+03  0.10566000000E+00 0.  1.
          4    1    3    3  501    0  0.63136844357E+02 -0.57475355193E+03 -0.34525321649E+03  0.67344464514E+03  0.00000000000E+00 0.  1.
         13    1    1    2    0    0 -0.12383097899E+03  0.25180121669E+03 -0.27311919102E+03  0.39157638814E+03  0.10566000000E+00 0. -1.
<mgrwt>
<rscale>  1 0.75054808E+03</rscale>
<asrwt>0</asrwt>
<pdfrwt beam="2">  1       21 0.26567343E+00 0.10418551E+04</pdfrwt>
<pdfrwt beam="1">  1        4 0.39049457E-01 0.10418551E+04</pdfrwt>
<totfact> 0.11038884E+01</totfact>
</mgrwt>
</event>
<event>
 6    1  0.2415530E-005  0.1065102E+04  0.7818608E-02  0.9567572E-01
          4   -1    0    0  502    0 -0.00000000000E+00  0.00000000000E+00  0.55406542785E+03  0.55406542785E+03  0.00000000000E+00 0.  1.
         21   -1    0    0  501  502  0.00000000000E+00 -0.00000000000E+00 -0.87853960175E+03  0.87853960175E+03  0.00000000000E+00 0.  1.
    9000010    2    1    2  501    0 -0.31147167299E+03  0.10981511866E+03 -0.24998515928E+03  0.10940454516E+04  0.10126050104E+04 0.  0.
        -13    1    3    3    0    0  0.18742473705E+03  0.42862756505E+03 -0.56734106538E+02  0.47124133051E+03  0.10566000000E+00 0.  1.
          4    1    3    3  501    0 -0.49889641004E+03 -0.31881244639E+03 -0.19325105274E+03  0.62280412114E+03  0.00000000000E+00 0.  1.
         13    1    1    2    0    0  0.31147167299E+03 -0.10981511866E+03 -0.74489014615E+02  0.33855957795E+03  0.10566000000E+00 0. -1.
<mgrwt>
<rscale>  1 0.79480141E+03</rscale>
<asrwt>0</asrwt>
<pdfrwt beam="2">  1       21 0.13515994E+00 0.10651023E+04</pdfrwt>
<pdfrwt beam="1">  1        4 0.85240836E-01 0.10651023E+04</pdfrwt>
<totfact> 0.16956508E+01</totfact>
</mgrwt>
</event>
<event>
 6    1  0.2415530E-005  0.1084887E+04  0.7818608E-02  0.9675147E-01
         21   -1    0    0  501  502  0.00000000000E+00  0.00000000000E+00  0.11739668441E+04  0.11739668441E+04  0.00000000000E+00 0.  1.
          4   -1    0    0  502    0 -0.00000000000E+00 -0.00000000000E+00 -0.40725807257E+03  0.40725807257E+03  0.00000000000E+00 0.  1.
    9000010    2    1    2  501    0  0.20310739066E+03  0.75142257113E+02  0.81794956732E+03  0.13586836818E+04  0.10630526240E+04 0.  0.
        -13    1    3    3    0    0  0.48970473770E+03  0.38583131676E+03  0.65880423415E+03  0.90702787455E+03  0.10566000000E+00 0.  1.
          4    1    3    3  501    0 -0.28659734703E+03 -0.31068905965E+03  0.15914533317E+03  0.45165580720E+03  0.00000000000E+00 0.  1.
         13    1    1    2    0    0 -0.20310739066E+03 -0.75142257113E+02 -0.51240795743E+02  0.22254123496E+03  0.10566000000E+00 0. -1.
<mgrwt>
<rscale>  1 0.72515995E+03</rscale>
<asrwt>0</asrwt>
<pdfrwt beam="1">  1       21 0.18061028E+00 0.10848870E+04</pdfrwt>
<pdfrwt beam="2">  1        4 0.62655089E-01 0.10848870E+04</pdfrwt>
<totfact> 0.14880392E+01</totfact>
</mgrwt>
</event>
<event>
 6    1  0.2415530E-005  0.1000497E+04  0.7818608E-02  0.1001596E+00
          4   -1    0    0  502    0 -0.00000000000E+00  0.00000000000E+00  0.40551989081E+03  0.40551989081E+03  0.00000000000E+00 0.  1.
         21   -1    0    0  501  502  0.00000000000E+00 -0.00000000000E+00 -0.89890475456E+03  0.89890475456E+03  0.00000000000E+00 0.  1.
    9000010    2    1    2  501    0  0.69492149711E+02  0.58872883536E+02 -0.59810171914E+03  0.11656413385E+04  0.99634275649E+03 0.  0.
        -13    1    3    3    0    0  0.33095608502E+03  0.26916164940E+03  0.56243364856E+02  0.43028275700E+03  0.10566000000E+00 0.  1.
          4    1    3    3  501    0 -0.26146393531E+03 -0.21028876586E+03 -0.65434508399E+03  0.73535858155E+03  0.00000000000E+00 0.  1.
         13    1    1    2    0    0 -0.69492149711E+02 -0.58872883536E+02  0.10471685539E+03  0.13878330683E+03  0.10566000000E+00 0. -1.
<mgrwt>
<rscale>  1 0.54955996E+03</rscale>
<asrwt>0</asrwt>
<pdfrwt beam="2">  1       21 0.13829304E+00 0.10004969E+04</pdfrwt>
<pdfrwt beam="1">  1        4 0.62387677E-01 0.10004969E+04</pdfrwt>
<totfact> 0.32468887E+01</totfact>
</mgrwt>
</event>
<event>
 6    1  0.2415530E-005  0.1014653E+04  0.7818608E-02  0.9723730E-01
          4   -1    0    0  502    0 -0.00000000000E+00  0.00000000000E+00  0.49235457389E+03  0.49235457389E+03  0.00000000000E+00 0.  1.
         21   -1    0    0  501  502  0.00000000000E+00 -0.00000000000E+00 -0.91056462010E+03  0.91056462010E+03  0.00000000000E+00 0.  1.
    9000010    2    1    2  501    0 -0.22117844314E+03 -0.40824611496E+02 -0.53760735437E+03  0.11482777186E+04  0.98941068269E+03 0.  0.
        -13    1    3    3    0    0 -0.21709532614E+03 -0.37648173967E+03 -0.66063259559E+03  0.79076185951E+03  0.10566000000E+00 0.  1.
          4    1    3    3  501    0 -0.40831170030E+01  0.33565712818E+03  0.12302524122E+03  0.35751585912E+03  0.00000000000E+00 0.  1.
         13    1    1    2    0    0  0.22117844314E+03  0.40824611496E+02  0.11939730816E+03  0.25464147536E+03  0.10566000000E+00 0. -1.
<mgrwt>
<rscale>  1 0.69621352E+03</rscale>
<asrwt>0</asrwt>
<pdfrwt beam="2">  1       21 0.14008686E+00 0.10146527E+04</pdfrwt>
<pdfrwt beam="1">  1        4 0.75746859E-01 0.10146527E+04</pdfrwt>
<totfact> 0.20298434E+01</totfact>
</mgrwt>
</event>
<event>
 6    1  0.2415530E-005  0.1060770E+04  0.7818608E-02  0.9739936E-01
          4   -1    0    0  502    0 -0.00000000000E+00  0.00000000000E+00  0.43018001219E+03  0.43018001219E+03  0.00000000000E+00 0.  1.
         21   -1    0    0  501  502  0.00000000000E+00 -0.00000000000E+00 -0.90902744443E+03  0.90902744443E+03  0.00000000000E+00 0. -1.
    9000010    2    1    2  501    0  0.90730175077E+02  0.16293322050E+03 -0.44167514054E+03  0.11490470258E+04  0.10442475467E+04 0.  0.
        -13    1    3    3    0    0 -0.33021889383E+03  0.44210248376E+03 -0.27936836499E+03  0.61850288480E+03  0.10566000000E+00 0.  1.
          4    1    3    3  501    0  0.42094906890E+03 -0.27916926326E+03 -0.16230677556E+03  0.53054414100E+03  0.00000000000E+00 0.  1.
         13    1    1    2    0    0 -0.90730175077E+02 -0.16293322050E+03 -0.37172291695E+02  0.19016043081E+03  0.10566000000E+00 0. -1.
<mgrwt>
<rscale>  1 0.68687983E+03</rscale>
<asrwt>0</asrwt>
<pdfrwt beam="2">  1       21 0.13985038E+00 0.10607696E+04</pdfrwt>
<pdfrwt beam="1">  1        4 0.66181540E-01 0.10607696E+04</pdfrwt>
<totfact> 0.27486101E+01</totfact>
</mgrwt>
</event>
<event>
 6    1  0.2415530E-005  0.1022857E+04  0.7818608E-02  0.9709186E-01
          4   -1    0    0  502    0 -0.00000000000E+00  0.00000000000E+00  0.24630535500E+03  0.24630535500E+03  0.00000000000E+00 0.  1.
         21   -1    0    0  501  502  0.00000000000E+00 -0.00000000000E+00 -0.16769545366E+04  0.16769545366E+04  0.00000000000E+00 0.  1.
    9000010    2    1    2  501    0  0.65170448326E+02 -0.22107429023E+03 -0.13132855348E+04  0.16646187002E+04  0.99655180097E+03 0.  0.
        -13    1    3    3    0    0 -0.26729549441E+03 -0.47931820277E+02 -0.12564788097E+04  0.12854895375E+04  0.10566000000E+00 0.  1.
          4    1    3    3  501    0  0.33246594274E+03 -0.17314246995E+03 -0.56806725131E+02  0.37912916269E+03  0.00000000000E+00 0.  1.
         13    1    1    2    0    0 -0.65170448326E+02  0.22107429023E+03 -0.11736364678E+03  0.25864119139E+03  0.10566000000E+00 0. -1.
<mgrwt>
<rscale>  1 0.70472475E+03</rscale>
<asrwt>0</asrwt>
<pdfrwt beam="2">  1       21 0.25799301E+00 0.10228570E+04</pdfrwt>
<pdfrwt beam="1">  1        4 0.37893132E-01 0.10228570E+04</pdfrwt>
<totfact> 0.13152814E+01</totfact>
</mgrwt>
</event>
<event>
 6    1  0.2415530E-005  0.1083451E+04  0.7818608E-02  0.9515502E-01
          4   -1    0    0  502    0 -0.00000000000E+00  0.00000000000E+00  0.18703740648E+04  0.18703740648E+04  0.00000000000E+00 0.  1.
         21   -1    0    0  501  502  0.00000000000E+00 -0.00000000000E+00 -0.55969909134E+03  0.55969909134E+03  0.00000000000E+00 0.  1.
    9000010    2    1    2  501    0 -0.17253910935E+03  0.33392364015E+03  0.17721961135E+02  0.10835954382E+04  0.10161644867E+04 0.  0.
        -13    1    3    3    0    0 -0.39821207375E+03  0.41782114120E+03  0.34867573258E+03  0.67433088270E+03  0.10566000000E+00 0.  1.
          4    1    3    3  501    0  0.22567296440E+03 -0.83897501052E+02 -0.33095377145E+03  0.40926455549E+03  0.00000000000E+00 0.  1.
         13    1    1    2    0    0  0.17253910935E+03 -0.33392364015E+03  0.12929530124E+04  0.13464777180E+04  0.10566000000E+00 0. -1.
<mgrwt>
<rscale>  1 0.83150502E+03</rscale>
<asrwt>0</asrwt>
<pdfrwt beam="2">  1       21 0.86107553E-01 0.10834505E+04</pdfrwt>
<pdfrwt beam="1">  1        4 0.28774985E+00 0.10834505E+04</pdfrwt>
<totfact> 0.16016977E+00</totfact>
</mgrwt>
</event>
<event>
 6    1  0.2415530E-005  0.1116113E+04  0.7818608E-02  0.9448607E-01
         21   -1    0    0  501  502  0.00000000000E+00  0.00000000000E+00  0.46767080673E+03  0.46767080673E+03  0.00000000000E+00 0. -1.
          4   -1    0    0  502    0 -0.00000000000E+00 -0.00000000000E+00 -0.17518955524E+04  0.17518955524E+04  0.00000000000E+00 0.  1.
    9000010    2    1    2  501    0 -0.40682318872E+03  0.15370370235E+03 -0.31886202338E+03  0.11607674492E+04  0.10278998716E+04 0.  0.
        -13    1    3    3    0    0  0.78967608556E+02 -0.15057814458E+02  0.32610638603E+03  0.33586903274E+03  0.10566000000E+00 0.  1.
          4    1    3    3  501    0 -0.48579079727E+03  0.16876151681E+03 -0.64496840942E+03  0.82489841642E+03  0.00000000000E+00 0.  1.
         13    1    1    2    0    0  0.40682318872E+03 -0.15370370235E+03 -0.96536272225E+03  0.10587989099E+04  0.10566000000E+00 0. -1.
<mgrwt>
<rscale>  1 0.88181228E+03</rscale>
<asrwt>0</asrwt>
<pdfrwt beam="1">  1       21 0.71949355E-01 0.11161129E+04</pdfrwt>
<pdfrwt beam="2">  1        4 0.26952239E+00 0.11161129E+04</pdfrwt>
<totfact> 0.31507178E+00</totfact>
</mgrwt>
</event>
<event>
 6    1  0.2415530E-005  0.1088662E+04  0.7818608E-02  0.9499828E-01
          4   -1    0    0  502    0 -0.00000000000E+00  0.00000000000E+00  0.85186667051E+03  0.85186667051E+03  0.00000000000E+00 0.  1.
         21   -1    0    0  501  502  0.00000000000E+00 -0.00000000000E+00 -0.67215739954E+03  0.67215739954E+03  0.00000000000E+00 0.  1.
    9000010    2    1    2  501    0 -0.22011932190E+03  0.32356958489E+03  0.27161370419E+03  0.11220337366E+04  0.10158916821E+04 0.  0.
        -13    1    3    3    0    0  0.37057141599E+03  0.24988988130E+03  0.27869237463E+03  0.52672343594E+03  0.10566000000E+00 0.  1.
          4    1    3    3  501    0 -0.59069073789E+03  0.73679703587E+02 -0.70786704421E+01  0.59531030071E+03  0.00000000000E+00 0.  1.
         13    1    1    2    0    0  0.22011932190E+03 -0.32356958489E+03 -0.91904433218E+02  0.40199033340E+03  0.10566000000E+00 0. -1.
<mgrwt>
<rscale>  1 0.84296494E+03</rscale>
<asrwt>0</asrwt>
<pdfrwt beam="2">  1       21 0.10340883E+00 0.10886623E+04</pdfrwt>
<pdfrwt beam="1">  1        4 0.13105641E+00 0.10886623E+04</pdfrwt>
<totfact> 0.11819214E+01</totfact>
</mgrwt>
</event>
<event>
 6    1  0.2415530E-005  0.1004378E+04  0.7818608E-02  0.1038338E+00
         21   -1    0    0  501  502  0.00000000000E+00  0.00000000000E+00  0.22312933703E+03  0.22312933703E+03  0.00000000000E+00 0.  1.
          4   -1    0    0  502    0 -0.00000000000E+00 -0.00000000000E+00 -0.12702358802E+04  0.12702358802E+04  0.00000000000E+00 0.  1.
    9000010    2    1    2  501    0 -0.24280339269E+02 -0.16914154481E+02 -0.91729052560E+03  0.13602193082E+04  0.10039417486E+04 0.  0.
        -13    1    3    3    0    0 -0.29027506796E+03  0.12589973062E+03  0.73182403196E+02  0.32475534260E+03  0.10566000000E+00 0.  1.
          4    1    3    3  501    0  0.26599472869E+03 -0.14281388510E+03 -0.99047292880E+03  0.10354639656E+04  0.00000000000E+00 0.  1.
         13    1    1    2    0    0  0.24280339269E+02  0.16914154481E+02 -0.12981601755E+03  0.13314590897E+03  0.10566000000E+00 0. -1.
<mgrwt>
<rscale>  1 0.41611482E+03</rscale>
<asrwt>0</asrwt>
<pdfrwt beam="1">  1       21 0.34327590E-01 0.10043777E+04</pdfrwt>
<pdfrwt beam="2">  1        4 0.19542091E+00 0.10043777E+04</pdfrwt>
<totfact> 0.46794325E+01</totfact>
</mgrwt>
</event>
<event>
 6    1  0.2415530E-005  0.1031110E+04  0.7818608E-02  0.9680756E-01
          4   -1    0    0  502    0 -0.00000000000E+00  0.00000000000E+00  0.38412611674E+03  0.38412611674E+03  0.00000000000E+00 0.  1.
         21   -1    0    0  501  502  0.00000000000E+00 -0.00000000000E+00 -0.16310661931E+04  0.16310661931E+04  0.00000000000E+00 0.  1.
    9000010    2    1    2  501    0 -0.13062487071E+03  0.21024738737E+03 -0.13889343476E+04  0.17298342804E+04  0.10009601366E+04 0.  0.
        -13    1    3    3    0    0  0.49969275626E+02 -0.31545911963E+03 -0.11423146826E+03  0.33920528323E+03  0.10566000000E+00 0.  1.
          4    1    3    3  501    0 -0.18059414633E+03  0.52570650700E+03 -0.12747028793E+04  0.13906289972E+04  0.00000000000E+00 0.  1.
         13    1    1    2    0    0  0.13062487071E+03 -0.21024738737E+03  0.14199427123E+03  0.28535802945E+03  0.10566000000E+00 0. -1.
<mgrwt>
<rscale>  1 0.72174196E+03</rscale>
<asrwt>0</asrwt>
<pdfrwt beam="2">  1       21 0.25093326E+00 0.10311101E+04</pdfrwt>
<pdfrwt beam="1">  1        4 0.59096325E-01 0.10311101E+04</pdfrwt>
<totfact> 0.57400056E+00</totfact>
</mgrwt>
</event>
<event>
 6    1  0.2415530E-005  0.1037538E+04  0.7818608E-02  0.9741388E-01
          4   -1    0    0  502    0 -0.00000000000E+00  0.00000000000E+00  0.11700272900E+04  0.11700272900E+04  0.00000000000E+00 0.  1.
         21   -1    0    0  501  502  0.00000000000E+00 -0.00000000000E+00 -0.32673608254E+03  0.32673608254E+03  0.00000000000E+00 0.  1.
    9000010    2    1    2  501    0  0.19781063275E+03 -0.14507234327E+02  0.68896356042E+03  0.12454537227E+04  0.10184030055E+04 0.  0.
        -13    1    3    3    0    0  0.44775112779E+03 -0.19290481797E+03  0.78468024928E+03  0.92380541567E+03  0.10566000000E+00 0.  1.
          4    1    3    3  501    0 -0.24994049504E+03  0.17839758365E+03 -0.95716688857E+02  0.32164830707E+03  0.00000000000E+00 0.  1.
         13    1    1    2    0    0 -0.19781063275E+03  0.14507234327E+02  0.15432764699E+03  0.25130964977E+03  0.10566000000E+00 0. -1.
<mgrwt>
<rscale>  1 0.68605115E+03</rscale>
<asrwt>0</asrwt>
<pdfrwt beam="2">  1       21 0.50267090E-01 0.10375376E+04</pdfrwt>
<pdfrwt beam="1">  1        4 0.18000420E+00 0.10375376E+04</pdfrwt>
<totfact> 0.26625547E+01</totfact>
</mgrwt>
</event>
<event>
 6    1  0.2415530E-005  0.1448147E+04  0.7818608E-02  0.9009308E-01
         21   -1    0    0  501  502  0.00000000000E+00  0.00000000000E+00  0.86365360386E+03  0.86365360386E+03  0.00000000000E+00 0. -1.
          4   -1    0    0  502    0 -0.00000000000E+00 -0.00000000000E+00 -0.18309903094E+04  0.18309903094E+04  0.00000000000E+00 0.  1.
    9000010    2    1    2  501    0 -0.38246893879E+03  0.94291706575E+03 -0.30319036622E+03  0.14795449654E+04  0.10304143945E+04 0.  0.
        -13    1    3    3    0    0 -0.21790737855E+03 -0.19859639502E+03 -0.63044293559E+02  0.30149419208E+03  0.10566000000E+00 0.  1.
          4    1    3    3  501    0 -0.16456156024E+03  0.11415134608E+04 -0.24014607266E+03  0.11780507733E+04  0.00000000000E+00 0.  1.
         13    1    1    2    0    0  0.38246893879E+03 -0.94291706575E+03 -0.66414633935E+03  0.12150989479E+04  0.10566000000E+00 0. -1.
<mgrwt>
<rscale>  1 0.13258568E+04</rscale>
<asrwt>0</asrwt>
<pdfrwt beam="1">  1       21 0.13286979E+00 0.14481467E+04</pdfrwt>
<pdfrwt beam="2">  1        4 0.28169081E+00 0.14481467E+04</pdfrwt>
<totfact> 0.55262439E-01</totfact>
</mgrwt>
</event>
<event>
 6    1  0.2415530E-005  0.1000148E+04  0.7818608E-02  0.1003963E+00
         21   -1    0    0  501  502  0.00000000000E+00  0.00000000000E+00  0.69874437810E+03  0.69874437810E+03  0.00000000000E+00 0.  1.
          4   -1    0    0  502    0 -0.00000000000E+00 -0.00000000000E+00 -0.44582629448E+03  0.44582629448E+03  0.00000000000E+00 0.  1.
    9000010    2    1    2  501    0  0.34324505899E+01 -0.84584199566E+02  0.30445688820E+03  0.10454620046E+04  0.99655934982E+03 0.  0.
        -13    1    3    3    0    0 -0.46921821605E+03  0.11117281383E+03  0.88979123959E+02  0.49034928823E+03  0.10566000000E+00 0.  1.
          4    1    3    3  501    0  0.47265066664E+03 -0.19575701340E+03  0.21547776424E+03  0.55511271634E+03  0.00000000000E+00 0.  1.
         13    1    1    2    0    0 -0.34324505899E+01  0.84584199566E+02 -0.51538804580E+02  0.99108668011E+02  0.10566000000E+00 0. -1.
<mgrwt>
<rscale>  1 0.53946100E+03</rscale>
<asrwt>0</asrwt>
<pdfrwt beam="1">  1       21 0.10749913E+00 0.10001484E+04</pdfrwt>
<pdfrwt beam="2">  1        4 0.68588661E-01 0.10001484E+04</pdfrwt>
<totfact> 0.50787847E+01</totfact>
</mgrwt>
</event>
<event>
 6    1  0.2415530E-005  0.1035324E+04  0.7818608E-02  0.9636733E-01
          4   -1    0    0  502    0 -0.00000000000E+00  0.00000000000E+00  0.13525735108E+04  0.13525735108E+04  0.00000000000E+00 0.  1.
         21   -1    0    0  501  502  0.00000000000E+00 -0.00000000000E+00 -0.32161872620E+03  0.32161872620E+03  0.00000000000E+00 0.  1.
    9000010    2    1    2  501    0 -0.34585276990E+02 -0.28166015219E+03  0.81194624379E+03  0.13157325673E+04  0.99567409480E+03 0.  0.
        -13    1    3    3    0    0  0.18081610078E+03  0.27678124057E+03  0.59199183864E+03  0.67805358609E+03  0.10566000000E+00 0.  1.
          4    1    3    3  501    0 -0.21540137777E+03 -0.55844139276E+03  0.21995440515E+03  0.63767898118E+03  0.00000000000E+00 0.  1.
         13    1    1    2    0    0  0.34585276990E+02  0.28166015219E+03  0.21900854082E+03  0.35845966974E+03  0.10566000000E+00 0. -1.
<mgrwt>
<rscale>  1 0.74911930E+03</rscale>
<asrwt>0</asrwt>
<pdfrwt beam="2">  1       21 0.49479805E-01 0.10353239E+04</pdfrwt>
<pdfrwt beam="1">  1        4 0.20808823E+00 0.10353239E+04</pdfrwt>
<totfact> 0.17835259E+01</totfact>
</mgrwt>
</event>
<event>
 6    1  0.2415530E-005  0.1002397E+04  0.7818608E-02  0.1010318E+00
          4   -1    0    0  502    0 -0.00000000000E+00  0.00000000000E+00  0.10441084119E+04  0.10441084119E+04  0.00000000000E+00 0.  1.
         21   -1    0    0  501  502  0.00000000000E+00 -0.00000000000E+00 -0.38953614751E+03  0.38953614751E+03  0.00000000000E+00 0.  1.
    9000010    2    1    2  501    0  0.37971267883E+02 -0.57638026131E+02  0.26339478274E+03  0.10364244787E+04  0.10000174644E+04 0.  0.
        -13    1    3    3    0    0  0.27787922029E+03  0.31630995589E+03  0.39056770553E+03  0.57429260228E+03  0.10566000000E+00 0.  1.
          4    1    3    3  501    0 -0.23990795241E+03 -0.37394798202E+03 -0.12717292278E+03  0.46213187639E+03  0.00000000000E+00 0.  1.
         13    1    1    2    0    0 -0.37971267883E+02  0.57638026131E+02  0.39117748168E+03  0.39722008078E+03  0.10566000000E+00 0. -1.
<mgrwt>
<rscale>  1 0.51348269E+03</rscale>
<asrwt>0</asrwt>
<pdfrwt beam="2">  1       21 0.59928638E-01 0.10023966E+04</pdfrwt>
<pdfrwt beam="1">  1        4 0.16063206E+00 0.10023966E+04</pdfrwt>
<totfact> 0.25038369E+01</totfact>
</mgrwt>
</event>
<event>
 6    1  0.2415530E-005  0.9053411E+03  0.7818608E-02  0.1001601E+00
          4   -1    0    0  502    0 -0.00000000000E+00  0.00000000000E+00  0.21750034182E+04  0.21750034182E+04  0.00000000000E+00 0.  1.
         21   -1    0    0  501  502  0.00000000000E+00 -0.00000000000E+00 -0.12623288268E+03  0.12623288268E+03  0.00000000000E+00 0.  1.
    9000010    2    1    2  501    0  0.10977447966E+03  0.55262027031E+02  0.19226307288E+04  0.21251238652E+04  0.89696053135E+03 0.  0.
        -13    1    3    3    0    0 -0.18435939210E+03  0.59434838497E+02  0.17933913283E+04  0.18038218740E+04  0.10566000000E+00 0.  1.
          4    1    3    3  501    0  0.29413387176E+03 -0.41728114662E+01  0.12923940050E+03  0.32130199114E+03  0.00000000000E+00 0.  1.
         13    1    1    2    0    0 -0.10977447966E+03 -0.55262027031E+02  0.12613980666E+03  0.17611243569E+03  0.10566000000E+00 0. -1.
<mgrwt>
<rscale>  1 0.54953702E+03</rscale>
<asrwt>0</asrwt>
<pdfrwt beam="2">  1       21 0.19420445E-01 0.90534111E+03</pdfrwt>
<pdfrwt beam="1">  1        4 0.33461588E+00 0.90534111E+03</pdfrwt>
<totfact> 0.19645213E+01</totfact>
</mgrwt>
</event>
<event>
 6    1  0.2415530E-005  0.9906132E+03  0.7818608E-02  0.9829395E-01
         21   -1    0    0  501  502  0.00000000000E+00  0.00000000000E+00  0.35941871745E+03  0.35941871745E+03  0.00000000000E+00 0.  1.
          4   -1    0    0  502    0 -0.00000000000E+00 -0.00000000000E+00 -0.94843281794E+03  0.94843281794E+03  0.00000000000E+00 0.  1.
    9000010    2    1    2  501    0  0.12609980497E+03 -0.11480365653E+03 -0.45089753648E+03  0.10884039636E+04  0.97582455345E+03 0.  0.
        -13    1    3    3    0    0  0.28624795841E+03  0.49671734078E+02 -0.69502053830E+03  0.75329856941E+03  0.10566000000E+00 0.  1.
          4    1    3    3  501    0 -0.16014815344E+03 -0.16447539061E+03  0.24412300182E+03  0.33510539415E+03  0.00000000000E+00 0.  1.
         13    1    1    2    0    0 -0.12609980497E+03  0.11480365653E+03 -0.13811656402E+03  0.21944757184E+03  0.10566000000E+00 0. -1.
<mgrwt>
<rscale>  1 0.63808621E+03</rscale>
<asrwt>0</asrwt>
<pdfrwt beam="1">  1       21 0.55295187E-01 0.99061324E+03</pdfrwt>
<pdfrwt beam="2">  1        4 0.14591274E+00 0.99061324E+03</pdfrwt>
<totfact> 0.38846629E+01</totfact>
</mgrwt>
</event>
<event>
 6    1  0.2415530E-005  0.1091239E+04  0.7818608E-02  0.9477578E-01
         21   -1    0    0  501  502  0.00000000000E+00  0.00000000000E+00  0.98556197070E+03  0.98556197070E+03  0.00000000000E+00 0.  1.
          4   -1    0    0  502    0 -0.00000000000E+00 -0.00000000000E+00 -0.58637374853E+03  0.58637374853E+03  0.00000000000E+00 0.  1.
    9000010    2    1    2  501    0 -0.93034965166E+02 -0.40968655375E+03  0.36400074037E+03  0.11503473571E+04  0.10071265689E+04 0.  0.
        -13    1    3    3    0    0  0.81409494111E+00  0.33734790523E+03  0.13533084907E+03  0.36348139125E+03  0.10566000000E+00 0.  1.
          4    1    3    3  501    0 -0.93849060107E+02 -0.74703445898E+03  0.22866989130E+03  0.78686596582E+03  0.00000000000E+00 0.  1.
         13    1    1    2    0    0  0.93034965166E+02  0.40968655375E+03  0.35187481806E+02  0.42158836216E+03  0.10566000000E+00 0. -1.
<mgrwt>
<rscale>  1 0.85957259E+03</rscale>
<asrwt>0</asrwt>
<pdfrwt beam="1">  1       21 0.15162492E+00 0.10912390E+04</pdfrwt>
<pdfrwt beam="2">  1        4 0.90211346E-01 0.10912390E+04</pdfrwt>
<totfact> 0.10793944E+01</totfact>
</mgrwt>
</event>
<event>
 6    1  0.2415530E-005  0.1071778E+04  0.7818608E-02  0.9520179E-01
          4   -1    0    0  502    0 -0.00000000000E+00  0.00000000000E+00  0.84196782441E+03  0.84196782441E+03  0.00000000000E+00 0.  1.
         21   -1    0    0  501  502  0.00000000000E+00 -0.00000000000E+00 -0.76816354045E+03  0.76816354045E+03  0.00000000000E+00 0.  1.
    9000010    2    1    2  501    0  0.27363425132E+03 -0.26655201129E+03 -0.25996685456E+03  0.11028554416E+04  0.10013898749E+04 0.  0.
        -13    1    3    3    0    0  0.26121277434E+03  0.35528038905E+03 -0.17791374684E+03  0.47550981147E+03  0.10566000000E+00 0.  1.
          4    1    3    3  501    0  0.12421476975E+02 -0.62183240034E+03 -0.82053107723E+02  0.62734563016E+03  0.00000000000E+00 0.  1.
         13    1    1    2    0    0 -0.27363425132E+03  0.26655201129E+03  0.33377113853E+03  0.50727592323E+03  0.10566000000E+00 0. -1.
<mgrwt>
<rscale>  1 0.82812328E+03</rscale>
<asrwt>0</asrwt>
<pdfrwt beam="2">  1       21 0.11817901E+00 0.10717777E+04</pdfrwt>
<pdfrwt beam="1">  1        4 0.12953351E+00 0.10717777E+04</pdfrwt>
<totfact> 0.86915718E+00</totfact>
</mgrwt>
</event>
<event>
 6    1  0.2415530E-005  0.1022854E+04  0.7818608E-02  0.9697564E-01
         21   -1    0    0  501  502  0.00000000000E+00  0.00000000000E+00  0.13142371891E+04  0.13142371891E+04  0.00000000000E+00 0.  1.
          4   -1    0    0  502    0 -0.00000000000E+00 -0.00000000000E+00 -0.39528053419E+03  0.39528053419E+03  0.00000000000E+00 0.  1.
    9000010    2    1    2  501    0  0.18700741007E+03  0.14984478918E+03  0.10244737084E+04  0.14476798116E+04  0.99438685900E+03 0.  0.
        -13    1    3    3    0    0 -0.35237160402E+03  0.51354914933E+02  0.75924071213E+03  0.83859975240E+03  0.10566000000E+00 0.  1.
          4    1    3    3  501    0  0.53937901409E+03  0.98489874244E+02  0.26523299627E+03  0.60908005917E+03  0.00000000000E+00 0.  1.
         13    1    1    2    0    0 -0.18700741007E+03 -0.14984478918E+03 -0.10551705350E+03  0.26183791171E+03  0.10566000000E+00 0. -1.
<mgrwt>
<rscale>  1 0.71161995E+03</rscale>
<asrwt>0</asrwt>
<pdfrwt beam="1">  1       21 0.20219033E+00 0.10228541E+04</pdfrwt>
<pdfrwt beam="2">  1        4 0.60812391E-01 0.10228541E+04</pdfrwt>
<totfact> 0.11279276E+01</totfact>
</mgrwt>
</event>
<event>
 6    1  0.2415530E-005  0.9889803E+03  0.7818608E-02  0.1033040E+00
         21   -1    0    0  501  502  0.00000000000E+00  0.00000000000E+00  0.34184435120E+03  0.34184435120E+03  0.00000000000E+00 0.  1.
          4   -1    0    0  502    0 -0.00000000000E+00 -0.00000000000E+00 -0.77539237918E+03  0.77539237918E+03  0.00000000000E+00 0.  1.
    9000010    2    1    2  501    0 -0.27740001456E+02  0.23270095241E+02 -0.39669992573E+03  0.10655763121E+04  0.98831727741E+03 0.  0.
        -13    1    3    3    0    0  0.26414830724E+03 -0.31550343188E+03  0.72047561306E+02  0.41774107531E+03  0.10566000000E+00 0.  1.
          4    1    3    3  501    0 -0.29188830869E+03  0.33877352712E+03 -0.46874748704E+03  0.64783523680E+03  0.00000000000E+00 0.  1.
         13    1    1    2    0    0  0.27740001456E+02 -0.23270095241E+02 -0.36848102248E+02  0.51660418278E+02  0.10566000000E+00 0. -1.
<mgrwt>
<rscale>  1 0.43260520E+03</rscale>
<asrwt>0</asrwt>
<pdfrwt beam="1">  1       21 0.52591439E-01 0.98898031E+03</pdfrwt>
<pdfrwt beam="2">  1        4 0.11929113E+00 0.98898031E+03</pdfrwt>
<totfact> 0.72957412E+01</totfact>
</mgrwt>
</event>
<event>
 6    1  0.2415530E-005  0.1192586E+04  0.7818608E-02  0.9281253E-01
          4   -1    0    0  502    0 -0.00000000000E+00  0.00000000000E+00  0.33228820697E+03  0.33228820697E+03  0.00000000000E+00 0.  1.
         21   -1    0    0  501  502  0.00000000000E+00 -0.00000000000E+00 -0.28853039062E+04  0.28853039062E+04  0.00000000000E+00 0.  1.
    9000010    2    1    2  501    0 -0.19298437280E+03  0.62221886161E+03 -0.21290898411E+04  0.24403454186E+04  0.99893089381E+03 0.  0.
        -13    1    3    3    0    0  0.33266161504E+03  0.38445164669E+03 -0.50396317463E+03  0.71585313530E+03  0.10566000000E+00 0.  1.
          4    1    3    3  501    0 -0.52564598784E+03  0.23776721492E+03 -0.16251266665E+04  0.17244922833E+04  0.00000000000E+00 0.  1.
         13    1    1    2    0    0  0.19298437280E+03 -0.62221886161E+03 -0.42392585812E+03  0.77724669458E+03  0.10566000000E+00 0. -1.
<mgrwt>
<rscale>  1 0.10252723E+04</rscale>
<asrwt>0</asrwt>
<pdfrwt beam="2">  1       21 0.44389292E+00 0.11925864E+04</pdfrwt>
<pdfrwt beam="1">  1        4 0.51121261E-01 0.11925864E+04</pdfrwt>
<totfact> 0.43940085E-01</totfact>
</mgrwt>
</event>
<event>
 6    1  0.2415530E-005  0.8278833E+03  0.7818608E-02  0.9971996E-01
         21   -1    0    0  501  502  0.00000000000E+00  0.00000000000E+00  0.22133733074E+04  0.22133733074E+04  0.00000000000E+00 0.  1.
          4   -1    0    0  502    0 -0.00000000000E+00 -0.00000000000E+00 -0.23915179740E+03  0.23915179740E+03  0.00000000000E+00 0.  1.
    9000010    2    1    2  501    0 -0.15034622650E+03  0.10723671201E+03  0.20807013797E+04  0.22393545767E+04  0.80702353644E+03 0.  0.
        -13    1    3    3    0    0  0.29189404669E+03 -0.13149359322E+03  0.69061046776E+03  0.76120662694E+03  0.10566000000E+00 0.  1.
          4    1    3    3  501    0 -0.44224027319E+03  0.23873030522E+03  0.13900909119E+04  0.14781479497E+04  0.00000000000E+00 0.  1.
         13    1    1    2    0    0  0.15034622650E+03 -0.10723671201E+03 -0.10647986973E+03  0.21317052809E+03  0.10566000000E+00 0. -1.
<mgrwt>
<rscale>  1 0.56895384E+03</rscale>
<asrwt>0</asrwt>
<pdfrwt beam="1">  1       21 0.34051896E+00 0.82788326E+03</pdfrwt>
<pdfrwt beam="2">  1        4 0.36792586E-01 0.82788326E+03</pdfrwt>
<totfact> 0.44375498E+00</totfact>
</mgrwt>
</event>
<event>
 6    1  0.2415530E-005  0.1036550E+04  0.7818608E-02  0.9658014E-01
         21   -1    0    0  501  502  0.00000000000E+00  0.00000000000E+00  0.33030760554E+03  0.33030760554E+03  0.00000000000E+00 0.  1.
          4   -1    0    0  502    0 -0.00000000000E+00 -0.00000000000E+00 -0.14707241541E+04  0.14707241541E+04  0.00000000000E+00 0.  1.
    9000010    2    1    2  501    0 -0.21295697499E+03 -0.15447470974E+03 -0.59426009639E+03  0.11948139848E+04  0.10026077433E+04 0.  0.
        -13    1    3    3    0    0 -0.50602126334E+03 -0.14616407863E+03 -0.70620061147E+03  0.88098851958E+03  0.10566000000E+00 0.  1.
          4    1    3    3  501    0  0.29306428835E+03 -0.83106311107E+01  0.11194051508E+03  0.31382546521E+03  0.00000000000E+00 0.  1.
         13    1    1    2    0    0  0.21295697499E+03  0.15447470974E+03 -0.54615645219E+03  0.60621777487E+03  0.10566000000E+00 0. -1.
<mgrwt>
<rscale>  1 0.73572611E+03</rscale>
<asrwt>0</asrwt>
<pdfrwt beam="1">  1       21 0.50816554E-01 0.10365498E+04</pdfrwt>
<pdfrwt beam="2">  1        4 0.22626526E+00 0.10365498E+04</pdfrwt>
<totfact> 0.12868513E+01</totfact>
</mgrwt>
</event>
<event>
 6    1  0.2415530E-005  0.1188168E+04  0.7818608E-02  0.9283678E-01
          4   -1    0    0  502    0 -0.00000000000E+00  0.00000000000E+00  0.18585022725E+04  0.18585022725E+04  0.00000000000E+00 0.  1.
         21   -1    0    0  501  502  0.00000000000E+00 -0.00000000000E+00 -0.49022597203E+03  0.49022597203E+03  0.00000000000E+00 0.  1.
    9000010    2    1    2  501    0 -0.63345740742E+03 -0.15822279038E+03  0.57109759209E+03  0.13182930730E+04  0.99269402549E+03 0.  0.
        -13    1    3    3    0    0 -0.37028425995E+03 -0.49965293481E+03  0.62757525072E+03  0.88352373761E+03  0.10566000000E+00 0.  1.
          4    1    3    3  501    0 -0.26317314747E+03  0.34143014444E+03 -0.56477658634E+02  0.43476933540E+03  0.00000000000E+00 0.  1.
         13    1    1    2    0    0  0.63345740742E+03  0.15822279038E+03  0.79717870834E+03  0.10304351715E+04  0.10566000000E+00 0. -1.
<mgrwt>
<rscale>  1 0.10229944E+04</rscale>
<asrwt>0</asrwt>
<pdfrwt beam="2">  1       21 0.75419381E-01 0.11881684E+04</pdfrwt>
<pdfrwt beam="1">  1        4 0.28592342E+00 0.11881684E+04</pdfrwt>
<totfact> 0.22157729E+00</totfact>
</mgrwt>
</event>
<event>
 6    1  0.2415530E-005  0.1019880E+04  0.7818608E-02  0.9714787E-01
          4   -1    0    0  502    0 -0.00000000000E+00  0.00000000000E+00  0.40374319533E+03  0.40374319533E+03  0.00000000000E+00 0.  1.
         21   -1    0    0  501  502  0.00000000000E+00 -0.00000000000E+00 -0.11886786121E+04  0.11886786121E+04  0.00000000000E+00 0.  1.
    9000010    2    1    2  501    0 -0.22489122149E+03 -0.38650879064E+02 -0.87822974411E+03  0.13458983915E+04  0.99402467012E+03 0.  0.
        -13    1    3    3    0    0 -0.56800565019E+03 -0.11195880725E+03 -0.79816873243E+03  0.98602156658E+03  0.10566000000E+00 0.  1.
          4    1    3    3  501    0  0.34311442869E+03  0.73307928189E+02 -0.80061011679E+02  0.35987682491E+03  0.00000000000E+00 0.  1.
         13    1    1    2    0    0  0.22489122149E+03  0.38650879064E+02  0.93294327301E+02  0.24652341598E+03  0.10566000000E+00 0. -1.
<mgrwt>
<rscale>  1 0.70143136E+03</rscale>
<asrwt>0</asrwt>
<pdfrwt beam="2">  1       21 0.18287363E+00 0.10198799E+04</pdfrwt>
<pdfrwt beam="1">  1        4 0.62114338E-01 0.10198799E+04</pdfrwt>
<totfact> 0.14716375E+01</totfact>
</mgrwt>
</event>
<event>
 6    1  0.2415530E-005  0.9962416E+03  0.7818608E-02  0.9889753E-01
          4   -1    0    0  502    0 -0.00000000000E+00  0.00000000000E+00  0.97435108818E+03  0.97435108818E+03  0.00000000000E+00 0.  1.
         21   -1    0    0  501  502  0.00000000000E+00 -0.00000000000E+00 -0.42167553472E+03  0.42167553472E+03  0.00000000000E+00 0. -1.
    9000010    2    1    2  501    0 -0.87338005306E+02  0.10664535167E+03  0.68175460909E+03  0.12071812577E+04  0.98665905136E+03 0.  0.
        -13    1    3    3    0    0 -0.10928464377E+03 -0.28095776803E+03  0.75423394850E+03  0.81224950663E+03  0.10566000000E+00 0.  1.
          4    1    3    3  501    0  0.21946638464E+02  0.38760311969E+03 -0.72479339410E+02  0.39493175104E+03  0.00000000000E+00 0.  1.
         13    1    1    2    0    0  0.87338005306E+02 -0.10664535167E+03 -0.12907905563E+03  0.18884536523E+03  0.10566000000E+00 0. -1.
<mgrwt>
<rscale>  1 0.60760465E+03</rscale>
<asrwt>0</asrwt>
<pdfrwt beam="2">  1       21 0.64873160E-01 0.99624156E+03</pdfrwt>
<pdfrwt beam="1">  1        4 0.14990017E+00 0.99624156E+03</pdfrwt>
<totfact> 0.25308427E+01</totfact>
</mgrwt>
</event>
<event>
 6    1  0.2415530E-005  0.1004626E+04  0.7818608E-02  0.9964797E-01
         21   -1    0    0  501  502  0.00000000000E+00  0.00000000000E+00  0.56274039453E+03  0.56274039453E+03  0.00000000000E+00 0.  1.
          4   -1    0    0  502    0 -0.00000000000E+00 -0.00000000000E+00 -0.62779169588E+03  0.62779169588E+03  0.00000000000E+00 0.  1.
    9000010    2    1    2  501    0 -0.40911067766E+02 -0.97497827748E+02  0.83615888677E+02  0.10080999484E+04  0.99904671926E+03 0.  0.
        -13    1    3    3    0    0  0.34715759666E+03 -0.16738293251E+03 -0.27631157955E+03  0.47421887686E+03  0.10566000000E+00 0.  1.
          4    1    3    3  501    0 -0.38806866442E+03  0.69885104763E+02  0.35992746823E+03  0.53388107155E+03  0.00000000000E+00 0.  1.
         13    1    1    2    0    0  0.40911067766E+02  0.97497827748E+02 -0.14866719003E+03  0.18243214200E+03  0.10566000000E+00 0. -1.
<mgrwt>
<rscale>  1 0.57221132E+03</rscale>
<asrwt>0</asrwt>
<pdfrwt beam="1">  1       21 0.86575445E-01 0.10046262E+04</pdfrwt>
<pdfrwt beam="2">  1        4 0.96583338E-01 0.10046262E+04</pdfrwt>
<totfact> 0.39238183E+01</totfact>
</mgrwt>
</event>
<event>
 6    1  0.2415530E-005  0.1224995E+04  0.7818608E-02  0.9236234E-01
         21   -1    0    0  501  502  0.00000000000E+00  0.00000000000E+00  0.27738111455E+04  0.27738111455E+04  0.00000000000E+00 0.  1.
          4   -1    0    0  502    0 -0.00000000000E+00 -0.00000000000E+00 -0.35171811461E+03  0.35171811461E+03  0.00000000000E+00 0.  1.
    9000010    2    1    2  501    0 -0.65728416728E+03  0.26753737791E+03  0.18255121584E+04  0.21984330010E+04  0.99850603110E+03 0.  0.
        -13    1    3    3    0    0 -0.13096282905E+03  0.53283996055E+03  0.12909598295E+04  0.14027284052E+04  0.10566000000E+00 0.  1.
          4    1    3    3  501    0 -0.52632133823E+03 -0.26530258263E+03  0.53455232890E+03  0.79570459579E+03  0.00000000000E+00 0.  1.
         13    1    1    2    0    0  0.65728416728E+03 -0.26753737791E+03  0.59658087250E+03  0.92709625915E+03  0.10566000000E+00 0. -1.
<mgrwt>
<rscale>  1 0.10687136E+04</rscale>
<asrwt>0</asrwt>
<pdfrwt beam="1">  1       21 0.42674016E+00 0.12249951E+04</pdfrwt>
<pdfrwt beam="2">  1        4 0.54110481E-01 0.12249951E+04</pdfrwt>
<totfact> 0.50578436E-01</totfact>
</mgrwt>
</event>
<event>
 6    1  0.2415530E-005  0.1028339E+04  0.7818608E-02  0.9844471E-01
          4   -1    0    0  502    0 -0.00000000000E+00  0.00000000000E+00  0.20669599405E+04  0.20669599405E+04  0.00000000000E+00 0.  1.
         21   -1    0    0  501  502  0.00000000000E+00 -0.00000000000E+00 -0.21691521425E+03  0.21691521425E+03  0.00000000000E+00 0.  1.
    9000010    2    1    2  501    0 -0.14511348493E+03  0.24521909405E+01  0.10459836427E+04  0.14668205825E+04  0.10180456295E+04 0.  0.
        -13    1    3    3    0    0  0.33468594032E+03 -0.30451646246E+03  0.54405561527E+03  0.70763089124E+03  0.10566000000E+00 0.  1.
          4    1    3    3  501    0 -0.47979942525E+03  0.30696865340E+03  0.50192802742E+03  0.75918969129E+03  0.00000000000E+00 0.  1.
         13    1    1    2    0    0  0.14511348493E+03 -0.24521909405E+01  0.80406108356E+03  0.81705457224E+03  0.10566000000E+00 0. -1.
<mgrwt>
<rscale>  1 0.63029616E+03</rscale>
<asrwt>0</asrwt>
<pdfrwt beam="2">  1       21 0.33371573E-01 0.10283389E+04</pdfrwt>
<pdfrwt beam="1">  1        4 0.31799382E+00 0.10283389E+04</pdfrwt>
<totfact> 0.84177446E+00</totfact>
</mgrwt>
</event>
<event>
 6    1  0.2415530E-005  0.1014076E+04  0.7818608E-02  0.9961582E-01
         21   -1    0    0  501  502  0.00000000000E+00  0.00000000000E+00  0.43031998799E+03  0.43031998799E+03  0.00000000000E+00 0.  1.
          4   -1    0    0  502    0 -0.00000000000E+00 -0.00000000000E+00 -0.81116183357E+03  0.81116183357E+03  0.00000000000E+00 0.  1.
    9000010    2    1    2  501    0 -0.32136099168E+02 -0.98763227285E+02 -0.20099936472E+03  0.10338036257E+04  0.10087429246E+04 0.  0.
        -13    1    3    3    0    0 -0.86560547135E+02 -0.20938636626E+03  0.37861046122E+03  0.44122700643E+03  0.10566000000E+00 0.  1.
          4    1    3    3  501    0  0.54424447966E+02  0.11062313898E+03 -0.57960982594E+03  0.59257661930E+03  0.00000000000E+00 0.  1.
         13    1    1    2    0    0  0.32136099168E+02  0.98763227285E+02 -0.17984248086E+03  0.20767819582E+03  0.10566000000E+00 0. -1.
<mgrwt>
<rscale>  1 0.57367363E+03</rscale>
<asrwt>0</asrwt>
<pdfrwt beam="1">  1       21 0.66203076E-01 0.10140755E+04</pdfrwt>
<pdfrwt beam="2">  1        4 0.12479413E+00 0.10140755E+04</pdfrwt>
<totfact> 0.38942346E+01</totfact>
</mgrwt>
</event>
<event>
 6    1  0.2415530E-005  0.1874552E+04  0.7818608E-02  0.8707925E-01
          4   -1    0    0  502    0 -0.00000000000E+00  0.00000000000E+00  0.17234429216E+04  0.17234429216E+04  0.00000000000E+00 0.  1.
         21   -1    0    0  501  502  0.00000000000E+00 -0.00000000000E+00 -0.17384539135E+04  0.17384539135E+04  0.00000000000E+00 0. -1.
    9000010    2    1    2  501    0 -0.78656837078E+03 -0.13736201140E+04 -0.95350346465E+02  0.18769752464E+04  0.10042023539E+04 0.  0.
        -13    1    3    3    0    0 -0.32747850716E+03 -0.55793232015E+03 -0.53815468549E+03  0.84151121395E+03  0.10566000000E+00 0.  1.
          4    1    3    3  501    0 -0.45908986362E+03 -0.81568779380E+03  0.44280433903E+03  0.10354640325E+04  0.00000000000E+00 0.  1.
         13    1    1    2    0    0  0.78656837078E+03  0.13736201140E+04  0.80339354589E+02  0.15849215887E+04  0.10566000000E+00 0. -1.
<mgrwt>
<rscale>  1 0.17969474E+04</rscale>
<asrwt>0</asrwt>
<pdfrwt beam="2">  1       21 0.26745445E+00 0.18745518E+04</pdfrwt>
<pdfrwt beam="1">  1        4 0.26514506E+00 0.18745518E+04</pdfrwt>
<totfact> 0.71283230E-02</totfact>
</mgrwt>
</event>
<event>
 6    1  0.2415530E-005  0.1039842E+04  0.7818608E-02  0.9691531E-01
         21   -1    0    0  501  502  0.00000000000E+00  0.00000000000E+00  0.10290069614E+04  0.10290069614E+04  0.00000000000E+00 0.  1.
          4   -1    0    0  502    0 -0.00000000000E+00 -0.00000000000E+00 -0.40511516415E+03  0.40511516415E+03  0.00000000000E+00 0.  1.
    9000010    2    1    2  501    0  0.65429232999E+02 -0.22336311963E+03  0.59904024303E+03  0.12000501737E+04  0.10134589971E+04 0.  0.
        -13    1    3    3    0    0 -0.71700482002E+02  0.39723847953E+03  0.25284074377E+03  0.47630643666E+03  0.10566000000E+00 0.  1.
          4    1    3    3  501    0  0.13712971500E+03 -0.62060159916E+03  0.34619949927E+03  0.72374373704E+03  0.00000000000E+00 0.  1.
         13    1    1    2    0    0 -0.65429232999E+02  0.22336311963E+03  0.24851554255E+02  0.23407195188E+03  0.10566000000E+00 0. -1.
<mgrwt>
<rscale>  1 0.71523281E+03</rscale>
<asrwt>0</asrwt>
<pdfrwt beam="1">  1       21 0.15830876E+00 0.10398419E+04</pdfrwt>
<pdfrwt beam="2">  1        4 0.62325410E-01 0.10398419E+04</pdfrwt>
<totfact> 0.22261807E+01</totfact>
</mgrwt>
</event>
<event>
 6    1  0.2415530E-005  0.9829458E+03  0.7818608E-02  0.1013330E+00
         21   -1    0    0  501  502  0.00000000000E+00  0.00000000000E+00  0.58137699621E+03  0.58137699621E+03  0.00000000000E+00 0.  1.
          4   -1    0    0  502    0 -0.00000000000E+00 -0.00000000000E+00 -0.69661337320E+03  0.69661337320E+03  0.00000000000E+00 0.  1.
    9000010    2    1    2  501    0 -0.64128754153E+01 -0.66412342778E+02  0.15902787604E+03  0.99572698904E+03  0.98067866659E+03 0.  0.
        -13    1    3    3    0    0 -0.39613924100E+03 -0.22644787116E+03 -0.14205504609E+03  0.47789599695E+03  0.10566000000E+00 0.  1.
          4    1    3    3  501    0  0.38972636559E+03  0.16003552838E+03  0.30108292212E+03  0.51783099209E+03  0.00000000000E+00 0.  1.
         13    1    1    2    0    0  0.64128754153E+01  0.66412342778E+02 -0.27426425302E+03  0.28226338036E+03  0.10566000000E+00 0. -1.
<mgrwt>
<rscale>  1 0.50172222E+03</rscale>
<asrwt>0</asrwt>
<pdfrwt beam="1">  1       21 0.89442615E-01 0.98294576E+03</pdfrwt>
<pdfrwt beam="2">  1        4 0.10717129E+00 0.98294576E+03</pdfrwt>
<totfact> 0.28257326E+01</totfact>
</mgrwt>
</event>
<event>
 6    1  0.2415530E-005  0.1009703E+04  0.7818608E-02  0.9901310E-01
          4   -1    0    0  502    0 -0.00000000000E+00  0.00000000000E+00  0.29421034491E+03  0.29421034491E+03  0.00000000000E+00 0.  1.
         21   -1    0    0  501  502  0.00000000000E+00 -0.00000000000E+00 -0.11596852364E+04  0.11596852364E+04  0.00000000000E+00 0.  1.
    9000010    2    1    2  501    0  0.12679698298E+03  0.14008069869E+02 -0.85983323035E+03  0.13262024318E+04  0.10016117039E+04 0.  0.
        -13    1    3    3    0    0  0.89516195756E+02 -0.34490273768E+03 -0.89531708743E+03  0.96362012534E+03  0.10566000000E+00 0.  1.
          4    1    3    3  501    0  0.37280787221E+02  0.35891080755E+03  0.35483857077E+02  0.36258230650E+03  0.00000000000E+00 0.  1.
         13    1    1    2    0    0 -0.12679698298E+03 -0.14008069869E+02 -0.56416611246E+01  0.12769314945E+03  0.10566000000E+00 0. -1.
<mgrwt>
<rscale>  1 0.60197852E+03</rscale>
<asrwt>0</asrwt>
<pdfrwt beam="2">  1       21 0.17841311E+00 0.10097028E+04</pdfrwt>
<pdfrwt beam="1">  1        4 0.45263131E-01 0.10097028E+04</pdfrwt>
<totfact> 0.31176711E+01</totfact>
</mgrwt>
</event>
<event>
 6    1  0.2415530E-005  0.1156377E+04  0.7818608E-02  0.9328333E-01
          4   -1    0    0  502    0 -0.00000000000E+00  0.00000000000E+00  0.27298535279E+04  0.27298535279E+04  0.00000000000E+00 0.  1.
         21   -1    0    0  501  502  0.00000000000E+00 -0.00000000000E+00 -0.28823823565E+03  0.28823823565E+03  0.00000000000E+00 0. -1.
    9000010    2    1    2  501    0 -0.53020584697E+03  0.28460788286E+03  0.17907913271E+04  0.21316992252E+04  0.98746550453E+03 0.  0.
        -13    1    3    3    0    0 -0.14706125590E+03  0.51640099112E+03  0.39706659567E+03  0.66780153428E+03  0.10566000000E+00 0.  1.
          4    1    3    3  501    0 -0.38314459107E+03 -0.23179310826E+03  0.13937247314E+04  0.14638976910E+04  0.00000000000E+00 0.  1.
         13    1    1    2    0    0  0.53020584697E+03 -0.28460788286E+03  0.65082396517E+03  0.88639253830E+03  0.10566000000E+00 0. -1.
<mgrwt>
<rscale>  1 0.98215768E+03</rscale>
<asrwt>0</asrwt>
<pdfrwt beam="2">  1       21 0.44344346E-01 0.11563771E+04</pdfrwt>
<pdfrwt beam="1">  1        4 0.41997745E+00 0.11563771E+04</pdfrwt>
<totfact> 0.95515758E-01</totfact>
</mgrwt>
</event>
<event>
 6    1  0.2415530E-005  0.1058125E+04  0.7818608E-02  0.9540666E-01
          4   -1    0    0  502    0 -0.00000000000E+00  0.00000000000E+00  0.79443025376E+03  0.79443025376E+03  0.00000000000E+00 0.  1.
         21   -1    0    0  501  502  0.00000000000E+00 -0.00000000000E+00 -0.78646903401E+03  0.78646903401E+03  0.00000000000E+00 0.  1.
    9000010    2    1    2  501    0 -0.22108299950E+03  0.29629984646E+03 -0.29990316193E+03  0.10998049308E+04  0.99144222600E+03 0.  0.
        -13    1    3    3    0    0  0.31933143201E+03  0.13757650636E+03  0.15024796208E+03  0.37878004151E+03  0.10566000000E+00 0.  1.
          4    1    3    3  501    0 -0.54041443151E+03  0.15872334009E+03 -0.45015112400E+03  0.72102488925E+03  0.00000000000E+00 0.  1.
         13    1    1    2    0    0  0.22108299950E+03 -0.29629984646E+03  0.30786438168E+03  0.48109435701E+03  0.10566000000E+00 0. -1.
<mgrwt>
<rscale>  1 0.81350919E+03</rscale>
<asrwt>0</asrwt>
<pdfrwt beam="2">  1       21 0.12099524E+00 0.10581252E+04</pdfrwt>
<pdfrwt beam="1">  1        4 0.12222004E+00 0.10581252E+04</pdfrwt>
<totfact> 0.94960626E+00</totfact>
</mgrwt>
</event>
<event>
 6    1  0.2415530E-005  0.9975135E+03  0.7818608E-02  0.1007411E+00
         21   -1    0    0  501  502  0.00000000000E+00  0.00000000000E+00  0.10753107074E+04  0.10753107074E+04  0.00000000000E+00 0.  1.
          4   -1    0    0  502    0 -0.00000000000E+00 -0.00000000000E+00 -0.26895254304E+03  0.26895254304E+03  0.00000000000E+00 0.  1.
    9000010    2    1    2  501    0  0.70087557129E+02  0.30995727294E+02  0.76570611151E+03  0.12575130266E+04  0.99456531314E+03 0.  0.
        -13    1    3    3    0    0  0.42631041205E+03  0.93523007886E+02  0.29713675721E+02  0.43745860846E+03  0.10566000000E+00 0.  1.
          4    1    3    3  501    0 -0.35622285492E+03 -0.62527280593E+02  0.73599243578E+03  0.82005441814E+03  0.00000000000E+00 0.  1.
         13    1    1    2    0    0 -0.70087557129E+02 -0.30995727294E+02  0.40652052900E+02  0.86750223883E+02  0.10566000000E+00 0. -1.
<mgrwt>
<rscale>  1 0.52516611E+03</rscale>
<asrwt>0</asrwt>
<pdfrwt beam="1">  1       21 0.16543241E+00 0.99751349E+03</pdfrwt>
<pdfrwt beam="2">  1        4 0.41377315E-01 0.99751349E+03</pdfrwt>
<totfact> 0.46925344E+01</totfact>
</mgrwt>
</event>
<event>
 6    1  0.2415530E-005  0.1068203E+04  0.7818608E-02  0.9669731E-01
         21   -1    0    0  501  502  0.00000000000E+00  0.00000000000E+00  0.32321273084E+03  0.32321273084E+03  0.00000000000E+00 0.  1.
          4   -1    0    0  502    0 -0.00000000000E+00 -0.00000000000E+00 -0.18274811815E+04  0.18274811815E+04  0.00000000000E+00 0.  1.
    9000010    2    1    2  501    0 -0.20252871397E+03 -0.11120556443E+03 -0.61647809869E+03  0.12333301471E+04  0.10429158394E+04 0.  0.
        -13    1    3    3    0    0  0.39043764490E+03  0.14505887630E+03 -0.30460800980E+03  0.51601325850E+03  0.10566000000E+00 0.  1.
          4    1    3    3  501    0 -0.59296635887E+03 -0.25626444073E+03 -0.31187008889E+03  0.71731688861E+03  0.00000000000E+00 0.  1.
         13    1    1    2    0    0  0.20252871397E+03  0.11120556443E+03 -0.88779035195E+03  0.91736376521E+03  0.10566000000E+00 0. -1.
<mgrwt>
<rscale>  1 0.72847955E+03</rscale>
<asrwt>0</asrwt>
<pdfrwt beam="1">  1       21 0.49725036E-01 0.10682032E+04</pdfrwt>
<pdfrwt beam="2">  1        4 0.28115095E+00 0.10682032E+04</pdfrwt>
<totfact> 0.61321642E+00</totfact>
</mgrwt>
</event>
<event>
 6    1  0.2415530E-005  0.1015366E+04  0.7818608E-02  0.9796690E-01
          4   -1    0    0  502    0 -0.00000000000E+00  0.00000000000E+00  0.58583893711E+03  0.58583893711E+03  0.00000000000E+00 0.  1.
         21   -1    0    0  501  502  0.00000000000E+00 -0.00000000000E+00 -0.61282070945E+03  0.61282070945E+03  0.00000000000E+00 0.  1.
    9000010    2    1    2  501    0  0.13344219105E+03 -0.11516591929E+03 -0.68145324615E+02  0.10176500984E+04  0.99994896382E+03 0.  0.
        -13    1    3    3    0    0 -0.36399637195E+03 -0.30428294697E+03 -0.98749692611E+02  0.48459569083E+03  0.10566000000E+00 0.  1.
          4    1    3    3  501    0  0.49743856300E+03  0.18911702768E+03  0.30604367997E+02  0.53305440760E+03  0.00000000000E+00 0.  1.
         13    1    1    2    0    0 -0.13344219105E+03  0.11516591929E+03  0.41163552275E+02  0.18100954814E+03  0.10566000000E+00 0. -1.
<mgrwt>
<rscale>  1 0.65540481E+03</rscale>
<asrwt>0</asrwt>
<pdfrwt beam="2">  1       21 0.94280109E-01 0.10153659E+04</pdfrwt>
<pdfrwt beam="1">  1        4 0.90129067E-01 0.10153659E+04</pdfrwt>
<totfact> 0.37587319E+01</totfact>
</mgrwt>
</event>
<event>
 6    1  0.2415530E-005  0.1059423E+04  0.7818608E-02  0.9543422E-01
         21   -1    0    0  501  502  0.00000000000E+00  0.00000000000E+00  0.10538250807E+04  0.10538250807E+04  0.00000000000E+00 0.  1.
          4   -1    0    0  502    0 -0.00000000000E+00 -0.00000000000E+00 -0.52414676919E+03  0.52414676919E+03  0.00000000000E+00 0.  1.
    9000010    2    1    2  501    0  0.36226929210E+03  0.43159471549E+02  0.58303602111E+03  0.12092594466E+04  0.99462335956E+03 0.  0.
        -13    1    3    3    0    0 -0.15125539402E+03 -0.45115102927E+02 -0.20856648140E+03  0.26155984986E+03  0.10566000000E+00 0.  1.
          4    1    3    3  501    0  0.51352468612E+03  0.88274574475E+02  0.79160250250E+03  0.94769959677E+03  0.00000000000E+00 0.  1.
         13    1    1    2    0    0 -0.36226929210E+03 -0.43159471549E+02 -0.53357709596E+02  0.36871240327E+03  0.10566000000E+00 0. -1.
<mgrwt>
<rscale>  1 0.81156831E+03</rscale>
<asrwt>0</asrwt>
<pdfrwt beam="1">  1       21 0.16212694E+00 0.10594231E+04</pdfrwt>
<pdfrwt beam="2">  1        4 0.80637965E-01 0.10594231E+04</pdfrwt>
<totfact> 0.11628984E+01</totfact>
</mgrwt>
</event>
<event>
 6    1  0.2415530E-005  0.1052866E+04  0.7818608E-02  0.9645582E-01
          4   -1    0    0  502    0 -0.00000000000E+00  0.00000000000E+00  0.26927936057E+03  0.26927936057E+03  0.00000000000E+00 0.  1.
         21   -1    0    0  501  502  0.00000000000E+00 -0.00000000000E+00 -0.17516061098E+04  0.17516061098E+04  0.00000000000E+00 0.  1.
    9000010    2    1    2  501    0 -0.77542417894E+02 -0.25009463607E+03 -0.13889316483E+04  0.17428876114E+04  0.10197872075E+04 0.  0.
        -13    1    3    3    0    0  0.20284582835E+03  0.21824648710E+03 -0.10699473216E+04  0.11106598225E+04  0.10566000000E+00 0.  1.
          4    1    3    3  501    0 -0.28038824624E+03 -0.46834112317E+03 -0.31898432676E+03  0.63222778885E+03  0.00000000000E+00 0.  1.
         13    1    1    2    0    0  0.77542417894E+02  0.25009463607E+03 -0.93395100842E+02  0.27799785896E+03  0.10566000000E+00 0. -1.
<mgrwt>
<rscale>  1 0.74351323E+03</rscale>
<asrwt>0</asrwt>
<pdfrwt beam="2">  1       21 0.26947787E+00 0.10528657E+04</pdfrwt>
<pdfrwt beam="1">  1        4 0.41427593E-01 0.10528657E+04</pdfrwt>
<totfact> 0.92441411E+00</totfact>
</mgrwt>
</event>
<event>
 6    1  0.2415530E-005  0.1004959E+04  0.7818608E-02  0.9842867E-01
          4   -1    0    0  502    0 -0.00000000000E+00  0.00000000000E+00  0.21223107499E+03  0.21223107499E+03  0.00000000000E+00 0.  1.
         21   -1    0    0  501  502  0.00000000000E+00 -0.00000000000E+00 -0.17965390733E+04  0.17965390733E+04  0.00000000000E+00 0.  1.
    9000010    2    1    2  501    0  0.13007179956E+03 -0.86693088090E+02 -0.15523022723E+04  0.18492121895E+04  0.99272806565E+03 0.  0.
        -13    1    3    3    0    0 -0.83303838676E+02 -0.45743331108E+03 -0.37734203028E+03  0.59880863605E+03  0.10566000000E+00 0.  1.
          4    1    3    3  501    0  0.21337563823E+03  0.37074022299E+03 -0.11749602421E+04  0.12504035534E+04  0.00000000000E+00 0.  1.
         13    1    1    2    0    0 -0.13007179956E+03  0.86693088090E+02 -0.32005725935E+02  0.15955795881E+03  0.10566000000E+00 0. -1.
<mgrwt>
<rscale>  1 0.63111942E+03</rscale>
<asrwt>0</asrwt>
<pdfrwt beam="2">  1       21 0.27639061E+00 0.10049594E+04</pdfrwt>
<pdfrwt beam="1">  1        4 0.32650936E-01 0.10049594E+04</pdfrwt>
<totfact> 0.13618024E+01</totfact>
</mgrwt>
</event>
<event>
 6    1  0.2415530E-005  0.1100691E+04  0.7818608E-02  0.9443093E-01
         21   -1    0    0  501  502  0.00000000000E+00  0.00000000000E+00  0.56790684381E+03  0.56790684381E+03  0.00000000000E+00 0.  1.
          4   -1    0    0  502    0 -0.00000000000E+00 -0.00000000000E+00 -0.12950594950E+04  0.12950594950E+04  0.00000000000E+00 0.  1.
    9000010    2    1    2  501    0  0.45670342635E+03 -0.72137732679E+02 -0.13090023601E+03  0.11084474021E+04  0.99886880983E+03 0.  0.
        -13    1    3    3    0    0  0.87455128526E+02 -0.51391372297E+03 -0.10707762763E+03  0.53218544105E+03  0.10566000000E+00 0.  1.
          4    1    3    3  501    0  0.36924829783E+03  0.44177599029E+03 -0.23822608378E+02  0.57626196102E+03  0.00000000000E+00 0.  1.
         13    1    1    2    0    0 -0.45670342635E+03  0.72137732679E+02 -0.59625241522E+03  0.75451893676E+03  0.10566000000E+00 0. -1.
<mgrwt>
<rscale>  1 0.88612591E+03</rscale>
<asrwt>0</asrwt>
<pdfrwt beam="1">  1       21 0.87370285E-01 0.11006910E+04</pdfrwt>
<pdfrwt beam="2">  1        4 0.19923992E+00 0.11006910E+04</pdfrwt>
<totfact> 0.55624230E+00</totfact>
</mgrwt>
</event>
<event>
 6    1  0.2415530E-005  0.8952727E+03  0.7818608E-02  0.9964530E-01
         21   -1    0    0  501  502  0.00000000000E+00  0.00000000000E+00  0.73304327106E+03  0.73304327106E+03  0.00000000000E+00 0.  1.
          4   -1    0    0  502    0 -0.00000000000E+00 -0.00000000000E+00 -0.48364216329E+03  0.48364216329E+03  0.00000000000E+00 0.  1.
    9000010    2    1    2  501    0  0.12074294578E+03  0.88206194809E+02  0.42079426782E+03  0.98923254200E+03  0.88269701175E+03 0.  0.
        -13    1    3    3    0    0  0.23916556531E+03  0.22151166173E+03 -0.17313716270E+03  0.36911254677E+03  0.10566000000E+00 0.  1.
          4    1    3    3  501    0 -0.11842261953E+03 -0.13330546692E+03  0.59393143052E+03  0.62011999523E+03  0.00000000000E+00 0.  1.
         13    1    1    2    0    0 -0.12074294578E+03 -0.88206194809E+02 -0.17139316006E+03  0.22745289235E+03  0.10566000000E+00 0. -1.
<mgrwt>
<rscale>  1 0.57233268E+03</rscale>
<asrwt>0</asrwt>
<pdfrwt beam="1">  1       21 0.11277589E+00 0.89527270E+03</pdfrwt>
<pdfrwt beam="2">  1        4 0.74406486E-01 0.89527270E+03</pdfrwt>
<totfact> 0.37834358E+01</totfact>
</mgrwt>
</event>
<event>
 6    1  0.2415530E-005  0.9899094E+03  0.7818608E-02  0.1011767E+00
         21   -1    0    0  501  502  0.00000000000E+00  0.00000000000E+00  0.12280367309E+04  0.12280367309E+04  0.00000000000E+00 0.  1.
          4   -1    0    0  502    0 -0.00000000000E+00 -0.00000000000E+00 -0.33865736741E+03  0.33865736741E+03  0.00000000000E+00 0.  1.
    9000010    2    1    2  501    0 -0.39635528557E+02  0.55913903468E+02  0.10186294674E+04  0.14203966608E+04  0.98753397026E+03 0.  0.
        -13    1    3    3    0    0 -0.23614211815E+03  0.26513115773E+03 -0.72495289759E+01  0.35511997634E+03  0.10566000000E+00 0.  1.
          4    1    3    3  501    0  0.19650658960E+03 -0.20921725426E+03  0.10258789964E+04  0.10652766844E+04  0.00000000000E+00 0.  1.
         13    1    1    2    0    0  0.39635528557E+02 -0.55913903468E+02 -0.12925010386E+03  0.14629743756E+03  0.10566000000E+00 0. -1.
<mgrwt>
<rscale>  1 0.50778308E+03</rscale>
<asrwt>0</asrwt>
<pdfrwt beam="1">  1       21 0.18892873E+00 0.98990943E+03</pdfrwt>
<pdfrwt beam="2">  1        4 0.52101134E-01 0.98990943E+03</pdfrwt>
<totfact> 0.19542639E+01</totfact>
</mgrwt>
</event>
<event>
 6    1  0.2415530E-005  0.1038758E+04  0.7818608E-02  0.9658573E-01
         21   -1    0    0  501  502  0.00000000000E+00  0.00000000000E+00  0.17719167248E+04  0.17719167248E+04  0.00000000000E+00 0.  1.
          4   -1    0    0  502    0 -0.00000000000E+00 -0.00000000000E+00 -0.28520909359E+03  0.28520909359E+03  0.00000000000E+00 0.  1.
    9000010    2    1    2  501    0  0.24674663689E+03 -0.84811002212E+02  0.14641967862E+04  0.17952411907E+04  0.10054560633E+04 0.  0.
        -13    1    3    3    0    0 -0.68696238959E+01 -0.49666254104E+03  0.44412839951E+03  0.66631142705E+03  0.10566000000E+00 0.  1.
          4    1    3    3  501    0  0.25361626079E+03  0.41185153883E+03  0.10200683867E+04  0.11289297637E+04  0.00000000000E+00 0.  1.
         13    1    1    2    0    0 -0.24674663689E+03  0.84811002212E+02  0.22510845034E+02  0.26188462770E+03  0.10566000000E+00 0. -1.
<mgrwt>
<rscale>  1 0.73537824E+03</rscale>
<asrwt>0</asrwt>
<pdfrwt beam="1">  1       21 0.27260257E+00 0.10387583E+04</pdfrwt>
<pdfrwt beam="2">  1        4 0.43878323E-01 0.10387583E+04</pdfrwt>
<totfact> 0.78667616E+00</totfact>
</mgrwt>
</event>
<event>
 6    1  0.2415530E-005  0.1022346E+04  0.7818608E-02  0.9494762E-01
          4   -1    0    0  502    0 -0.00000000000E+00  0.00000000000E+00  0.26631395000E+04  0.26631395000E+04  0.00000000000E+00 0.  1.
         21   -1    0    0  501  502  0.00000000000E+00 -0.00000000000E+00 -0.31318694469E+03  0.31318694469E+03  0.00000000000E+00 0.  1.
    9000010    2    1    2  501    0  0.43176413544E+02  0.47906019041E+03  0.65435734516E+03  0.12138265166E+04  0.90212438636E+03 0.  0.
        -13    1    3    3    0    0 -0.16377929582E+03  0.57290076372E+03  0.86381371276E+02  0.60208030634E+03  0.10566000000E+00 0.  1.
          4    1    3    3  501    0  0.20695570937E+03 -0.93840573309E+02  0.56797597388E+03  0.61174621024E+03  0.00000000000E+00 0.  1.
         13    1    1    2    0    0 -0.43176413544E+02 -0.47906019041E+03  0.16955952102E+04  0.17624999281E+04  0.10566000000E+00 0. -1.
<mgrwt>
<rscale>  1 0.84671085E+03</rscale>
<asrwt>0</asrwt>
<pdfrwt beam="2">  1       21 0.48182609E-01 0.10223460E+04</pdfrwt>
<pdfrwt beam="1">  1        4 0.40971376E+00 0.10223460E+04</pdfrwt>
<totfact> 0.96671093E-01</totfact>
</mgrwt>
</event>
<event>
 6    1  0.2415530E-005  0.9047030E+03  0.7818608E-02  0.9963412E-01
          4   -1    0    0  502    0 -0.00000000000E+00  0.00000000000E+00  0.82206339196E+03  0.82206339196E+03  0.00000000000E+00 0.  1.
         21   -1    0    0  501  502  0.00000000000E+00 -0.00000000000E+00 -0.36917190053E+03  0.36917190053E+03  0.00000000000E+00 0.  1.
    9000010    2    1    2  501    0 -0.35856986724E+02  0.14092747093E+03  0.24456590994E+03  0.93717656970E+03  0.89293961886E+03 0.  0.
        -13    1    3    3    0    0  0.81531410868E+02  0.37520649107E+03 -0.19101232717E+03  0.42885079246E+03  0.10566000000E+00 0.  1.
          4    1    3    3  501    0 -0.11738839759E+03 -0.23427902014E+03  0.43557823710E+03  0.50832577724E+03  0.00000000000E+00 0.  1.
         13    1    1    2    0    0  0.35856986724E+02 -0.14092747093E+03  0.20832558150E+03  0.25405872280E+03  0.10566000000E+00 0. -1.
<mgrwt>
<rscale>  1 0.57284057E+03</rscale>
<asrwt>0</asrwt>
<pdfrwt beam="2">  1       21 0.56795677E-01 0.90470296E+03</pdfrwt>
<pdfrwt beam="1">  1        4 0.12647129E+00 0.90470296E+03</pdfrwt>
<totfact> 0.53517698E+01</totfact>
</mgrwt>
</event>
<event>
 6    1  0.2415530E-005  0.1018022E+04  0.7818608E-02  0.9764960E-01
          4   -1    0    0  502    0 -0.00000000000E+00  0.00000000000E+00  0.52366166139E+03  0.52366166139E+03  0.00000000000E+00 0.  1.
         21   -1    0    0  501  502  0.00000000000E+00 -0.00000000000E+00 -0.82899788199E+03  0.82899788199E+03  0.00000000000E+00 0.  1.
    9000010    2    1    2  501    0  0.18971644361E+03  0.41396962696E+02 -0.44746458220E+03  0.11120218077E+04  0.99933073154E+03 0.  0.
        -13    1    3    3    0    0  0.13909847960E+03  0.50067883755E+03 -0.38288534157E+03  0.64546795533E+03  0.10566000000E+00 0.  1.
          4    1    3    3  501    0  0.50617964006E+02 -0.45928187486E+03 -0.64579240625E+02  0.46655385238E+03  0.00000000000E+00 0.  1.
         13    1    1    2    0    0 -0.18971644361E+03 -0.41396962696E+02  0.14212836160E+03  0.24063773567E+03  0.10566000000E+00 0. -1.
<mgrwt>
<rscale>  1 0.67277387E+03</rscale>
<asrwt>0</asrwt>
<pdfrwt beam="2">  1       21 0.12753814E+00 0.10180216E+04</pdfrwt>
<pdfrwt beam="1">  1        4 0.80563333E-01 0.10180216E+04</pdfrwt>
<totfact> 0.22662359E+01</totfact>
</mgrwt>
</event>
<event>
 6    1  0.2415530E-005  0.1051278E+04  0.7818608E-02  0.9602303E-01
          4   -1    0    0  502    0 -0.00000000000E+00  0.00000000000E+00  0.58826505619E+03  0.58826505619E+03  0.00000000000E+00 0.  1.
         21   -1    0    0  501  502  0.00000000000E+00 -0.00000000000E+00 -0.78707563136E+03  0.78707563136E+03  0.00000000000E+00 0.  1.
    9000010    2    1    2  501    0  0.21635013330E+03 -0.21473825736E+03 -0.20193849865E+03  0.10704969662E+04  0.10061136606E+04 0.  0.
        -13    1    3    3    0    0 -0.20996452708E+03  0.11755241854E+03 -0.42289187219E+03  0.48656060308E+03  0.10566000000E+00 0.  1.
          4    1    3    3  501    0  0.42631466037E+03 -0.33229067590E+03  0.22095337354E+03  0.58393636316E+03  0.00000000000E+00 0.  1.
         13    1    1    2    0    0 -0.21635013330E+03  0.21473825736E+03  0.31279234824E+01  0.30484372131E+03  0.10566000000E+00 0. -1.
<mgrwt>
<rscale>  1 0.77143912E+03</rscale>
<asrwt>0</asrwt>
<pdfrwt beam="2">  1       21 0.12108856E+00 0.10512776E+04</pdfrwt>
<pdfrwt beam="1">  1        4 0.90502317E-01 0.10512776E+04</pdfrwt>
<totfact> 0.19745331E+01</totfact>
</mgrwt>
</event>
<event>
 6    1  0.2415530E-005  0.1028818E+04  0.7818608E-02  0.9859550E-01
          4   -1    0    0  502    0 -0.00000000000E+00  0.00000000000E+00  0.57163929867E+03  0.57163929867E+03  0.00000000000E+00 0.  1.
         21   -1    0    0  501  502  0.00000000000E+00 -0.00000000000E+00 -0.60208983457E+03  0.60208983457E+03  0.00000000000E+00 0.  1.
    9000010    2    1    2  501    0  0.48786019754E+02 -0.12909152390E+03 -0.66910653023E+02  0.10309914417E+04  0.10195202892E+04 0.  0.
        -13    1    3    3    0    0 -0.37254366957E+03 -0.29054835654E+03 -0.26107205370E+03  0.53978306903E+03  0.10566000000E+00 0.  1.
          4    1    3    3  501    0  0.42132968933E+03  0.16145683263E+03  0.19416140067E+03  0.49120837271E+03  0.00000000000E+00 0.  1.
         13    1    1    2    0    0 -0.48786019754E+02  0.12909152390E+03  0.36460117123E+02  0.14273769149E+03  0.10566000000E+00 0. -1.
<mgrwt>
<rscale>  1 0.62262375E+03</rscale>
<asrwt>0</asrwt>
<pdfrwt beam="2">  1       21 0.92629206E-01 0.10288179E+04</pdfrwt>
<pdfrwt beam="1">  1        4 0.87944507E-01 0.10288179E+04</pdfrwt>
<totfact> 0.41520033E+01</totfact>
</mgrwt>
</event>
<event>
 6    1  0.2415530E-005  0.1135588E+04  0.7818608E-02  0.9389543E-01
          4   -1    0    0  502    0 -0.00000000000E+00  0.00000000000E+00  0.15304531036E+04  0.15304531036E+04  0.00000000000E+00 0.  1.
         21   -1    0    0  501  502  0.00000000000E+00 -0.00000000000E+00 -0.55108787541E+03  0.55108787541E+03  0.00000000000E+00 0.  1.
    9000010    2    1    2  501    0  0.16585827141E+03  0.48178281121E+03  0.20403990981E+03  0.11537732258E+04  0.10148579844E+04 0.  0.
        -13    1    3    3    0    0  0.47020275151E+03  0.58610277837E+03  0.31315358186E+03  0.81404684836E+03  0.10566000000E+00 0.  1.
          4    1    3    3  501    0 -0.30434448010E+03 -0.10431996715E+03 -0.10911367205E+03  0.33972637746E+03  0.00000000000E+00 0.  1.
         13    1    1    2    0    0 -0.16585827141E+03 -0.48178281121E+03  0.77532531838E+03  0.92776775319E+03  0.10566000000E+00 0. -1.
<mgrwt>
<rscale>  1 0.92941283E+03</rscale>
<asrwt>0</asrwt>
<pdfrwt beam="2">  1       21 0.84782751E-01 0.11355881E+04</pdfrwt>
<pdfrwt beam="1">  1        4 0.23545432E+00 0.11355881E+04</pdfrwt>
<totfact> 0.34801046E+00</totfact>
</mgrwt>
</event>
<event>
 6    1  0.2415530E-005  0.9642043E+03  0.7818608E-02  0.1001536E+00
          4   -1    0    0  502    0 -0.00000000000E+00  0.00000000000E+00  0.17463456758E+04  0.17463456758E+04  0.00000000000E+00 0.  1.
         21   -1    0    0  501  502  0.00000000000E+00 -0.00000000000E+00 -0.20182771413E+03  0.20182771413E+03  0.00000000000E+00 0.  1.
    9000010    2    1    2  501    0 -0.82678400626E+02  0.59641253326E+02  0.98103737269E+03  0.13755450791E+04  0.95879984408E+03 0.  0.
        -13    1    3    3    0    0  0.37797304155E+03 -0.14253940853E+03  0.21099903278E+03  0.45574302642E+03  0.10566000000E+00 0.  1.
          4    1    3    3  501    0 -0.46065144218E+03  0.20218066186E+03  0.77003833990E+03  0.91980205269E+03  0.00000000000E+00 0.  1.
         13    1    1    2    0    0  0.82678400626E+02 -0.59641253326E+02  0.56348058902E+03  0.57262831086E+03  0.10566000000E+00 0. -1.
<mgrwt>
<rscale>  1 0.54981732E+03</rscale>
<asrwt>0</asrwt>
<pdfrwt beam="2">  1       21 0.31050419E-01 0.96420430E+03</pdfrwt>
<pdfrwt beam="1">  1        4 0.26866856E+00 0.96420430E+03</pdfrwt>
<totfact> 0.19836862E+01</totfact>
</mgrwt>
</event>
<event>
 6    1  0.2415530E-005  0.1078421E+04  0.7818608E-02  0.9534261E-01
         21   -1    0    0  501  502  0.00000000000E+00  0.00000000000E+00  0.18844653234E+04  0.18844653234E+04  0.00000000000E+00 0.  1.
          4   -1    0    0  502    0 -0.00000000000E+00 -0.00000000000E+00 -0.35887085976E+03  0.35887085976E+03  0.00000000000E+00 0.  1.
    9000010    2    1    2  501    0  0.30639737546E+02  0.35574166539E+03  0.15468263093E+04  0.18856467530E+04  0.10175957547E+04 0.  0.
        -13    1    3    3    0    0 -0.37818512813E+03  0.29495453057E+03  0.13404523025E+04  0.14236693973E+04  0.10566000000E+00 0.  1.
          4    1    3    3  501    0  0.40882486567E+03  0.60787134812E+02  0.20637400676E+03  0.46197735574E+03  0.00000000000E+00 0.  1.
         13    1    1    2    0    0 -0.30639737546E+02 -0.35574166539E+03 -0.21231845639E+02  0.35768943015E+03  0.10566000000E+00 0. -1.
<mgrwt>
<rscale>  1 0.81804311E+03</rscale>
<asrwt>0</asrwt>
<pdfrwt beam="1">  1       21 0.28991774E+00 0.10784211E+04</pdfrwt>
<pdfrwt beam="2">  1        4 0.55210903E-01 0.10784211E+04</pdfrwt>
<totfact> 0.37542832E+00</totfact>
</mgrwt>
</event>
<event>
 6    1  0.2415530E-005  0.1077515E+04  0.7818608E-02  0.9543849E-01
          4   -1    0    0  502    0 -0.00000000000E+00  0.00000000000E+00  0.15339911868E+04  0.15339911868E+04  0.00000000000E+00 0.  1.
         21   -1    0    0  501  502  0.00000000000E+00 -0.00000000000E+00 -0.56061802863E+03  0.56061802863E+03  0.00000000000E+00 0.  1.
    9000010    2    1    2  501    0 -0.33578896875E+03  0.84461692092E+02  0.17175056055E+02  0.10776515808E+04  0.10203675505E+04 0.  0.
        -13    1    3    3    0    0  0.25074621218E+02  0.51455033792E+03  0.30557707872E+02  0.51606644103E+03  0.10566000000E+00 0.  1.
          4    1    3    3  501    0 -0.36086358997E+03 -0.43008864583E+03 -0.13382651816E+02  0.56158513977E+03  0.00000000000E+00 0.  1.
         13    1    1    2    0    0  0.33578896875E+03 -0.84461692092E+02  0.95619810217E+03  0.10169576347E+04  0.10566000000E+00 0. -1.
<mgrwt>
<rscale>  1 0.81126806E+03</rscale>
<asrwt>0</asrwt>
<pdfrwt beam="2">  1       21 0.86248928E-01 0.10775147E+04</pdfrwt>
<pdfrwt beam="1">  1        4 0.23599864E+00 0.10775147E+04</pdfrwt>
<totfact> 0.33386857E+00</totfact>
</mgrwt>
</event>
<event>
 6    1  0.2415530E-005  0.1001022E+04  0.7818608E-02  0.1015930E+00
         21   -1    0    0  501  502  0.00000000000E+00  0.00000000000E+00  0.12320487223E+04  0.12320487223E+04  0.00000000000E+00 0.  1.
          4   -1    0    0  502    0 -0.00000000000E+00 -0.00000000000E+00 -0.33442613157E+03  0.33442613157E+03  0.00000000000E+00 0.  1.
    9000010    2    1    2  501    0  0.51138822248E+01 -0.58116643040E+02  0.10210887920E+04  0.14299186017E+04  0.99932036418E+03 0.  0.
        -13    1    3    3    0    0 -0.24353429962E+03 -0.28636213848E+03  0.10256452783E+04  0.10923646266E+04  0.10566000000E+00 0.  1.
          4    1    3    3  501    0  0.24864818185E+03  0.22824549544E+03 -0.45564862435E+01  0.33755397508E+03  0.00000000000E+00 0.  1.
         13    1    1    2    0    0 -0.51138822248E+01  0.58116643040E+02 -0.12346620129E+03  0.13655625220E+03  0.10566000000E+00 0. -1.
<mgrwt>
<rscale>  1 0.49184325E+03</rscale>
<asrwt>0</asrwt>
<pdfrwt beam="1">  1       21 0.18954596E+00 0.10010219E+04</pdfrwt>
<pdfrwt beam="2">  1        4 0.51450175E-01 0.10010219E+04</pdfrwt>
<totfact> 0.19844108E+01</totfact>
</mgrwt>
</event>
<event>
 6    1  0.2415530E-005  0.1024039E+04  0.7818608E-02  0.9702656E-01
          4   -1    0    0  502    0 -0.00000000000E+00  0.00000000000E+00  0.59157606805E+03  0.59157606805E+03  0.00000000000E+00 0.  1.
         21   -1    0    0  501  502  0.00000000000E+00 -0.00000000000E+00 -0.78336675041E+03  0.78336675041E+03  0.00000000000E+00 0.  1.
    9000010    2    1    2  501    0 -0.23028103123E+03 -0.45650019266E+02 -0.36072562420E+03  0.10857157393E+04  0.99676597702E+03 0.  0.
        -13    1    3    3    0    0 -0.39915797897E+02 -0.43327003634E+03 -0.46977596185E+03  0.64031684408E+03  0.10566000000E+00 0.  1.
          4    1    3    3  501    0 -0.19036523333E+03  0.38762001708E+03  0.10905033765E+03  0.44539889519E+03  0.00000000000E+00 0.  1.
         13    1    1    2    0    0  0.23028103123E+03  0.45650019266E+02  0.16893494183E+03  0.28922707919E+03  0.10566000000E+00 0. -1.
<mgrwt>
<rscale>  1 0.70858897E+03</rscale>
<asrwt>0</asrwt>
<pdfrwt beam="2">  1       21 0.12051796E+00 0.10240389E+04</pdfrwt>
<pdfrwt beam="1">  1        4 0.91011703E-01 0.10240389E+04</pdfrwt>
<totfact> 0.19781194E+01</totfact>
</mgrwt>
</event>
<event>
 6    1  0.2415530E-005  0.9856840E+03  0.7818608E-02  0.1004567E+00
          4   -1    0    0  502    0 -0.00000000000E+00  0.00000000000E+00  0.97988653658E+03  0.97988653658E+03  0.00000000000E+00 0.  1.
         21   -1    0    0  501  502  0.00000000000E+00 -0.00000000000E+00 -0.30258285947E+03  0.30258285947E+03  0.00000000000E+00 0.  1.
    9000010    2    1    2  501    0 -0.18384180361E+02 -0.84813372186E+02  0.55103349549E+03  0.11292523731E+04  0.98185626384E+03 0.  0.
        -13    1    3    3    0    0  0.46498567830E+03 -0.81722114844E+02  0.13379718406E+03  0.49070549488E+03  0.10566000000E+00 0.  1.
          4    1    3    3  501    0 -0.48336985866E+03 -0.30912573420E+01  0.41723631142E+03  0.63854687823E+03  0.00000000000E+00 0.  1.
         13    1    1    2    0    0  0.18384180361E+02  0.84813372186E+02  0.12627018162E+03  0.15321702294E+03  0.10566000000E+00 0. -1.
<mgrwt>
<rscale>  1 0.53692301E+03</rscale>
<asrwt>0</asrwt>
<pdfrwt beam="2">  1       21 0.46551210E-01 0.98568403E+03</pdfrwt>
<pdfrwt beam="1">  1        4 0.15075177E+00 0.98568403E+03</pdfrwt>
<totfact> 0.51716424E+01</totfact>
</mgrwt>
</event>
<event>
 6    1  0.2415530E-005  0.9988559E+03  0.7818608E-02  0.9942218E-01
         21   -1    0    0  501  502  0.00000000000E+00  0.00000000000E+00  0.27120575442E+03  0.27120575442E+03  0.00000000000E+00 0.  1.
          4   -1    0    0  502    0 -0.00000000000E+00 -0.00000000000E+00 -0.11647581439E+04  0.11647581439E+04  0.00000000000E+00 0.  1.
    9000010    2    1    2  501    0  0.28640817023E+01 -0.11555395728E+03 -0.73680997340E+03  0.12412099095E+04  0.99214524262E+03 0.  0.
        -13    1    3    3    0    0  0.18807008521E+03  0.31003510221E+03  0.90435925247E+01  0.36273119425E+03  0.10566000000E+00 0.  1.
          4    1    3    3  501    0 -0.18520600351E+03 -0.42558905949E+03 -0.74585356592E+03  0.87847871522E+03  0.00000000000E+00 0.  1.
         13    1    1    2    0    0 -0.28640817023E+01  0.11555395728E+03 -0.15674241605E+03  0.19475398882E+03  0.10566000000E+00 0. -1.
<mgrwt>
<rscale>  1 0.58258154E+03</rscale>
<asrwt>0</asrwt>
<pdfrwt beam="1">  1       21 0.41723962E-01 0.99885590E+03</pdfrwt>
<pdfrwt beam="2">  1        4 0.17919356E+00 0.99885590E+03</pdfrwt>
<totfact> 0.40292255E+01</totfact>
</mgrwt>
</event>
<event>
 6    1  0.2415530E-005  0.1275255E+04  0.7818608E-02  0.9172256E-01
         21   -1    0    0  501  502  0.00000000000E+00  0.00000000000E+00  0.56533034121E+03  0.56533034121E+03  0.00000000000E+00 0. -1.
          4   -1    0    0  502    0 -0.00000000000E+00 -0.00000000000E+00 -0.20403245133E+04  0.20403245133E+04  0.00000000000E+00 0.  1.
    9000010    2    1    2  501    0  0.24258196739E+03  0.76088799318E+03 -0.56469694639E+03  0.13946892896E+04  0.99422282423E+03 0.  0.
        -13    1    3    3    0    0  0.20537555275E+03 -0.19884297198E+03 -0.26173945240E+03  0.38758895402E+03  0.10566000000E+00 0.  1.
          4    1    3    3  501    0  0.37206414642E+02  0.95973096516E+03 -0.30295749398E+03  0.10071003356E+04  0.00000000000E+00 0.  1.
         13    1    1    2    0    0 -0.24258196739E+03 -0.76088799318E+03 -0.91029722566E+03  0.12109655649E+04  0.10566000000E+00 0. -1.
<mgrwt>
<rscale>  1 0.11344440E+04</rscale>
<asrwt>0</asrwt>
<pdfrwt beam="1">  1       21 0.86973900E-01 0.12752551E+04</pdfrwt>
<pdfrwt beam="2">  1        4 0.31389607E+00 0.12752551E+04</pdfrwt>
<totfact> 0.10457574E+00</totfact>
</mgrwt>
</event>
<event>
 6    1  0.2415530E-005  0.1011693E+04  0.7818608E-02  0.9948002E-01
          4   -1    0    0  502    0 -0.00000000000E+00  0.00000000000E+00  0.27451527331E+04  0.27451527331E+04  0.00000000000E+00 0.  1.
         21   -1    0    0  501  502  0.00000000000E+00 -0.00000000000E+00 -0.12066017114E+03  0.12066017114E+03  0.00000000000E+00 0. -1.
    9000010    2    1    2  501    0 -0.10903773703E+03  0.61786245177E+01  0.25163838823E+04  0.27121414974E+04  0.10057814153E+04 0.  0.
        -13    1    3    3    0    0 -0.53354821844E+03 -0.13308498729E+03  0.16161886058E+04  0.17071763049E+04  0.10566000000E+00 0.  1.
          4    1    3    3  501    0  0.42451048141E+03  0.13926361181E+03  0.90019527646E+03  0.10049651925E+04  0.00000000000E+00 0.  1.
         13    1    1    2    0    0  0.10903773703E+03 -0.61786245177E+01  0.10810867971E+03  0.15367140687E+03  0.10566000000E+00 0. -1.
<mgrwt>
<rscale>  1 0.57990259E+03</rscale>
<asrwt>0</asrwt>
<pdfrwt beam="2">  1       21 0.18563105E-01 0.10116935E+04</pdfrwt>
<pdfrwt beam="1">  1        4 0.42233114E+00 0.10116935E+04</pdfrwt>
<totfact> 0.54312526E+00</totfact>
</mgrwt>
</event>
<event>
 6    1  0.2415530E-005  0.1052115E+04  0.7818608E-02  0.9564764E-01
          4   -1    0    0  502    0 -0.00000000000E+00  0.00000000000E+00  0.78786285681E+03  0.78786285681E+03  0.00000000000E+00 0.  1.
         21   -1    0    0  501  502  0.00000000000E+00 -0.00000000000E+00 -0.63104460235E+03  0.63104460235E+03  0.00000000000E+00 0.  1.
    9000010    2    1    2  501    0 -0.97822985498E+02  0.33186382449E+03  0.19766936096E+03  0.10705229610E+04  0.99360117717E+03 0.  0.
        -13    1    3    3    0    0 -0.50452550268E+03  0.22910613774E+03 -0.90699552700E+02  0.56148199012E+03  0.10566000000E+00 0.  1.
          4    1    3    3  501    0  0.40670251718E+03  0.10275768674E+03  0.28836891366E+03  0.50904097088E+03  0.00000000000E+00 0.  1.
         13    1    1    2    0    0  0.97822985498E+02 -0.33186382449E+03 -0.40851106503E+02  0.34838449816E+03  0.10566000000E+00 0. -1.
<mgrwt>
<rscale>  1 0.79672897E+03</rscale>
<asrwt>0</asrwt>
<pdfrwt beam="2">  1       21 0.97083785E-01 0.10521151E+04</pdfrwt>
<pdfrwt beam="1">  1        4 0.12120967E+00 0.10521151E+04</pdfrwt>
<totfact> 0.16940360E+01</totfact>
</mgrwt>
</event>
<event>
 6    1  0.2415530E-005  0.9964016E+03  0.7818608E-02  0.9840456E-01
         21   -1    0    0  501  502  0.00000000000E+00  0.00000000000E+00  0.14213232615E+04  0.14213232615E+04  0.00000000000E+00 0.  1.
          4   -1    0    0  502    0 -0.00000000000E+00 -0.00000000000E+00 -0.41583960777E+03  0.41583960777E+03  0.00000000000E+00 0.  1.
    9000010    2    1    2  501    0  0.91012318137E+02 -0.13358389250E+03  0.12157806229E+04  0.15719219887E+04  0.98320309050E+03 0.  0.
        -13    1    3    3    0    0  0.33551392019E+03 -0.36664691040E+03  0.26564928571E+03  0.56353269800E+03  0.10566000000E+00 0.  1.
          4    1    3    3  501    0 -0.24450160206E+03  0.23306301790E+03  0.95013133714E+03  0.10083892907E+04  0.00000000000E+00 0.  1.
         13    1    1    2    0    0 -0.91012318137E+02  0.13358389250E+03 -0.21029696909E+03  0.26524088063E+03  0.10566000000E+00 0. -1.
<mgrwt>
<rscale>  1 0.63235929E+03</rscale>
<asrwt>0</asrwt>
<pdfrwt beam="1">  1       21 0.21866511E+00 0.99640163E+03</pdfrwt>
<pdfrwt beam="2">  1        4 0.63975325E-01 0.99640163E+03</pdfrwt>
<totfact> 0.78471387E+00</totfact>
</mgrwt>
</event>
<event>
 6    1  0.2415530E-005  0.1425489E+04  0.7818608E-02  0.9057513E-01
          4   -1    0    0  502    0 -0.00000000000E+00  0.00000000000E+00  0.16352670689E+04  0.16352670689E+04  0.00000000000E+00 0.  1.
         21   -1    0    0  501  502  0.00000000000E+00 -0.00000000000E+00 -0.97239108668E+03  0.97239108668E+03  0.00000000000E+00 0. -1.
    9000010    2    1    2  501    0  0.88395720417E+03 -0.42562818492E+02  0.90705776595E+03  0.16896076738E+04  0.11175098963E+04 0.  0.
        -13    1    3    3    0    0  0.53555993891E+03 -0.57486531692E+03  0.56086844584E+03  0.96533310596E+03  0.10566000000E+00 0.  1.
          4    1    3    3  501    0  0.34839726526E+03  0.53230249843E+03  0.34618932012E+03  0.72427456785E+03  0.00000000000E+00 0.  1.
         13    1    1    2    0    0 -0.88395720417E+03  0.42562818492E+02 -0.24418178378E+03  0.91805048173E+03  0.10566000000E+00 0. -1.
<mgrwt>
<rscale>  1 0.12653381E+04</rscale>
<asrwt>0</asrwt>
<pdfrwt beam="2">  1       21 0.14959863E+00 0.14254895E+04</pdfrwt>
<pdfrwt beam="1">  1        4 0.25157955E+00 0.14254895E+04</pdfrwt>
<totfact> 0.61523721E-01</totfact>
</mgrwt>
</event>
<event>
 6    1  0.2415530E-005  0.9968677E+03  0.7818608E-02  0.9928568E-01
         21   -1    0    0  501  502  0.00000000000E+00  0.00000000000E+00  0.53676990616E+03  0.53676990616E+03  0.00000000000E+00 0.  1.
          4   -1    0    0  502    0 -0.00000000000E+00 -0.00000000000E+00 -0.72847283663E+03  0.72847283663E+03  0.00000000000E+00 0.  1.
    9000010    2    1    2  501    0 -0.10862713379E+03 -0.54346008733E+02  0.46401324334E+02  0.99794704477E+03  0.98944018435E+03 0.  0.
        -13    1    3    3    0    0  0.41216659169E+03  0.10027576865E+03  0.13996989081E+03  0.44668569552E+03  0.10566000000E+00 0.  1.
          4    1    3    3  501    0 -0.52079372548E+03 -0.15462177738E+03 -0.93568566471E+02  0.55126134925E+03  0.00000000000E+00 0.  1.
         13    1    1    2    0    0  0.10862713379E+03  0.54346008733E+02 -0.23810425481E+03  0.26729569803E+03  0.10566000000E+00 0. -1.
<mgrwt>
<rscale>  1 0.58896500E+03</rscale>
<asrwt>0</asrwt>
<pdfrwt beam="1">  1       21 0.82579986E-01 0.99686770E+03</pdfrwt>
<pdfrwt beam="2">  1        4 0.11207274E+00 0.99686770E+03</pdfrwt>
<totfact> 0.30595451E+01</totfact>
</mgrwt>
</event>
<event>
 6    1  0.2415530E-005  0.1428079E+04  0.7818608E-02  0.9038923E-01
          4   -1    0    0  502    0 -0.00000000000E+00  0.00000000000E+00  0.76057882523E+03  0.76057882523E+03  0.00000000000E+00 0.  1.
         21   -1    0    0  501  502  0.00000000000E+00 -0.00000000000E+00 -0.21716626819E+04  0.21716626819E+04  0.00000000000E+00 0.  1.
    9000010    2    1    2  501    0  0.21198632028E+03  0.92165885361E+03 -0.13801578424E+04  0.19860123214E+04  0.10700542175E+04 0.  0.
        -13    1    3    3    0    0  0.55547035405E+03  0.78039991072E+03 -0.12847696649E+04  0.16025618359E+04  0.10566000000E+00 0.  1.
          4    1    3    3  501    0 -0.34348403377E+03  0.14125894290E+03 -0.95388177437E+02  0.38345048546E+03  0.00000000000E+00 0.  1.
         13    1    1    2    0    0 -0.21198632028E+03 -0.92165885361E+03 -0.30926014291E+02  0.94622918574E+03  0.10566000000E+00 0. -1.
<mgrwt>
<rscale>  1 0.12882650E+04</rscale>
<asrwt>0</asrwt>
<pdfrwt beam="2">  1       21 0.33410195E+00 0.14280789E+04</pdfrwt>
<pdfrwt beam="1">  1        4 0.11701213E+00 0.14280789E+04</pdfrwt>
<totfact> 0.32898478E-01</totfact>
</mgrwt>
</event>
<event>
 6    1  0.2415530E-005  0.1010563E+04  0.7818608E-02  0.9783048E-01
          4   -1    0    0  502    0 -0.00000000000E+00  0.00000000000E+00  0.46109369928E+03  0.46109369928E+03  0.00000000000E+00 0.  1.
         21   -1    0    0  501  502  0.00000000000E+00 -0.00000000000E+00 -0.81635217154E+03  0.81635217154E+03  0.00000000000E+00 0.  1.
    9000010    2    1    2  501    0  0.80429142528E+02  0.16882257297E+03 -0.39716234672E+03  0.10858059638E+04  0.99310963807E+03 0.  0.
        -13    1    3    3    0    0 -0.30678276572E+03  0.26993920730E+03 -0.52536475854E+03  0.66557567689E+03  0.10566000000E+00 0.  1.
          4    1    3    3  501    0  0.38721190825E+03 -0.10111663433E+03  0.12820241182E+03  0.42023028690E+03  0.00000000000E+00 0.  1.
         13    1    1    2    0    0 -0.80429142528E+02 -0.16882257297E+03  0.41903874461E+02  0.19163990704E+03  0.10566000000E+00 0. -1.
<mgrwt>
<rscale>  1 0.66280264E+03</rscale>
<asrwt>0</asrwt>
<pdfrwt beam="2">  1       21 0.12559264E+00 0.10105625E+04</pdfrwt>
<pdfrwt beam="1">  1        4 0.70937492E-01 0.10105625E+04</pdfrwt>
<totfact> 0.31539449E+01</totfact>
</mgrwt>
</event>
<event>
 6    1  0.2415530E-005  0.8892910E+03  0.7818608E-02  0.9979323E-01
         21   -1    0    0  501  502  0.00000000000E+00  0.00000000000E+00  0.29738022314E+03  0.29738022314E+03  0.00000000000E+00 0.  1.
          4   -1    0    0  502    0 -0.00000000000E+00 -0.00000000000E+00 -0.90762626081E+03  0.90762626081E+03  0.00000000000E+00 0.  1.
    9000010    2    1    2  501    0  0.12695850141E+03 -0.71236615117E+02 -0.48489793312E+03  0.10128990273E+04  0.87729431640E+03 0.  0.
        -13    1    3    3    0    0 -0.28314873036E+03 -0.25649017432E+03 -0.46880431564E+02  0.38491323575E+03  0.10566000000E+00 0.  1.
          4    1    3    3  501    0  0.41010723177E+03  0.18525355920E+03 -0.43801750156E+03  0.62798579157E+03  0.00000000000E+00 0.  1.
         13    1    1    2    0    0 -0.12695850141E+03  0.71236615117E+02 -0.12534810455E+03  0.19210745662E+03  0.10566000000E+00 0. -1.
<mgrwt>
<rscale>  1 0.56566238E+03</rscale>
<asrwt>0</asrwt>
<pdfrwt beam="1">  1       21 0.45750804E-01 0.88929097E+03</pdfrwt>
<pdfrwt beam="2">  1        4 0.13963481E+00 0.88929097E+03</pdfrwt>
<totfact> 0.66292732E+01</totfact>
</mgrwt>
</event>
<event>
 6    1  0.2415530E-005  0.9962522E+03  0.7818608E-02  0.9793814E-01
          4   -1    0    0  502    0 -0.00000000000E+00  0.00000000000E+00  0.13338064391E+04  0.13338064391E+04  0.00000000000E+00 0.  1.
         21   -1    0    0  501  502  0.00000000000E+00 -0.00000000000E+00 -0.38716049337E+03  0.38716049337E+03  0.00000000000E+00 0.  1.
    9000010    2    1    2  501    0 -0.14048881811E+03 -0.12549989902E+03  0.28966079755E+03  0.10375074759E+04  0.97827963909E+03 0.  0.
        -13    1    3    3    0    0 -0.28139019076E+03  0.35885692630E+03  0.27568289455E+03  0.53287878783E+03  0.10566000000E+00 0.  1.
          4    1    3    3  501    0  0.14090137266E+03 -0.48435682532E+03  0.13977902998E+02  0.50462868807E+03  0.00000000000E+00 0.  1.
         13    1    1    2    0    0  0.14048881811E+03  0.12549989902E+03  0.65698514820E+03  0.68345945658E+03  0.10566000000E+00 0. -1.
<mgrwt>
<rscale>  1 0.65695579E+03</rscale>
<asrwt>0</asrwt>
<pdfrwt beam="2">  1       21 0.59563153E-01 0.99625217E+03</pdfrwt>
<pdfrwt beam="1">  1        4 0.20520099E+00 0.99625217E+03</pdfrwt>
<totfact> 0.12456572E+01</totfact>
</mgrwt>
</event>
<event>
 6    1  0.2415530E-005  0.1007132E+04  0.7818608E-02  0.9987193E-01
          4   -1    0    0  502    0 -0.00000000000E+00  0.00000000000E+00  0.44627489535E+03  0.44627489535E+03  0.00000000000E+00 0.  1.
         21   -1    0    0  501  502  0.00000000000E+00 -0.00000000000E+00 -0.68840922339E+03  0.68840922339E+03  0.00000000000E+00 0.  1.
    9000010    2    1    2  501    0  0.46868126272E+02  0.85792993581E+02 -0.24638453758E+03  0.10368315028E+04  0.10023757608E+04 0.  0.
        -13    1    3    3    0    0 -0.13239125747E+03 -0.32628906420E+03 -0.42616657391E+03  0.55282000539E+03  0.10566000000E+00 0.  1.
          4    1    3    3  501    0  0.17925938375E+03  0.41208205778E+03  0.17978203634E+03  0.48401149738E+03  0.00000000000E+00 0.  1.
         13    1    1    2    0    0 -0.46868126272E+02 -0.85792993581E+02  0.42502095364E+01  0.97852615974E+02  0.10566000000E+00 0. -1.
<mgrwt>
<rscale>  1 0.56215398E+03</rscale>
<asrwt>0</asrwt>
<pdfrwt beam="2">  1       21 0.10590911E+00 0.10071317E+04</pdfrwt>
<pdfrwt beam="1">  1        4 0.68657676E-01 0.10071317E+04</pdfrwt>
<totfact> 0.52582050E+01</totfact>
</mgrwt>
</event>
<event>
 6    1  0.2415530E-005  0.9860461E+03  0.7818608E-02  0.9856148E-01
         21   -1    0    0  501  502  0.00000000000E+00  0.00000000000E+00  0.33536253109E+03  0.33536253109E+03  0.00000000000E+00 0.  1.
          4   -1    0    0  502    0 -0.00000000000E+00 -0.00000000000E+00 -0.98215562139E+03  0.98215562139E+03  0.00000000000E+00 0.  1.
    9000010    2    1    2  501    0 -0.76543825201E+02  0.13878211833E+03 -0.52133752447E+03  0.11153831884E+04  0.97322526118E+03 0.  0.
        -13    1    3    3    0    0 -0.30387165121E+02 -0.17431178825E+03  0.23577668701E+03  0.29478574699E+03  0.10566000000E+00 0.  1.
          4    1    3    3  501    0 -0.46156660080E+02  0.31309390658E+03 -0.75711421149E+03  0.82059744141E+03  0.00000000000E+00 0.  1.
         13    1    1    2    0    0  0.76543825201E+02 -0.13878211833E+03 -0.12545556583E+03  0.20213496409E+03  0.10566000000E+00 0. -1.
<mgrwt>
<rscale>  1 0.62434431E+03</rscale>
<asrwt>0</asrwt>
<pdfrwt beam="1">  1       21 0.51594236E-01 0.98604607E+03</pdfrwt>
<pdfrwt beam="2">  1        4 0.15110086E+00 0.98604607E+03</pdfrwt>
<totfact> 0.41175201E+01</totfact>
</mgrwt>
</event>
<event>
 6    1  0.2415530E-005  0.1072758E+04  0.7818608E-02  0.9483547E-01
          4   -1    0    0  502    0 -0.00000000000E+00  0.00000000000E+00  0.11981940213E+04  0.11981940213E+04  0.00000000000E+00 0.  1.
         21   -1    0    0  501  502  0.00000000000E+00 -0.00000000000E+00 -0.47759256174E+03  0.47759256174E+03  0.00000000000E+00 0.  1.
    9000010    2    1    2  501    0  0.25257156568E+03 -0.35173984740E+03  0.58569116616E+03  0.12222294042E+04  0.98147707988E+03 0.  0.
        -13    1    3    3    0    0 -0.34997694067E+03 -0.19988749852E+02  0.34939196832E+03  0.49493248813E+03  0.10566000000E+00 0.  1.
          4    1    3    3  501    0  0.60254850635E+03 -0.33175109754E+03  0.23629919785E+03  0.72729691607E+03  0.00000000000E+00 0.  1.
         13    1    1    2    0    0 -0.25257156568E+03  0.35173984740E+03  0.13491029339E+03  0.45355717882E+03  0.10566000000E+00 0. -1.
<mgrwt>
<rscale>  1 0.85507757E+03</rscale>
<asrwt>0</asrwt>
<pdfrwt beam="2">  1       21 0.73475779E-01 0.10727584E+04</pdfrwt>
<pdfrwt beam="1">  1        4 0.18433754E+00 0.10727584E+04</pdfrwt>
<totfact> 0.10588713E+01</totfact>
</mgrwt>
</event>
<event>
 6    1  0.2415530E-005  0.9982984E+03  0.7818608E-02  0.1033066E+00
         21   -1    0    0  501  502  0.00000000000E+00  0.00000000000E+00  0.11043563262E+04  0.11043563262E+04  0.00000000000E+00 0.  1.
          4   -1    0    0  502    0 -0.00000000000E+00 -0.00000000000E+00 -0.34513972404E+03  0.34513972404E+03  0.00000000000E+00 0.  1.
    9000010    2    1    2  501    0  0.32804477240E+02 -0.12697802415E+02  0.87561805645E+03  0.13278955666E+04  0.99767844877E+03 0.  0.
        -13    1    3    3    0    0  0.33832923397E+03 -0.22840441320E+03  0.86185972958E+03  0.95364430013E+03  0.10566000000E+00 0.  1.
          4    1    3    3  501    0 -0.30552475673E+03  0.21570661078E+03  0.13758326866E+02  0.37425126649E+03  0.00000000000E+00 0.  1.
         13    1    1    2    0    0 -0.32804477240E+02  0.12697802415E+02 -0.11640145425E+03  0.12160048367E+03  0.10566000000E+00 0. -1.
<mgrwt>
<rscale>  1 0.43252192E+03</rscale>
<asrwt>0</asrwt>
<pdfrwt beam="1">  1       21 0.16990097E+00 0.99829838E+03</pdfrwt>
<pdfrwt beam="2">  1        4 0.53098420E-01 0.99829838E+03</pdfrwt>
<totfact> 0.25782484E+01</totfact>
</mgrwt>
</event>
<event>
 6    1  0.2415530E-005  0.1102391E+04  0.7818608E-02  0.9493990E-01
          4   -1    0    0  502    0 -0.00000000000E+00  0.00000000000E+00  0.13801350736E+04  0.13801350736E+04  0.00000000000E+00 0.  1.
         21   -1    0    0  501  502  0.00000000000E+00 -0.00000000000E+00 -0.42624111439E+03  0.42624111439E+03  0.00000000000E+00 0.  1.
    9000010    2    1    2  501    0 -0.36996771673E+03  0.10539798820E+03  0.49740802512E+03  0.12094136544E+04  0.10330933146E+04 0.  0.
        -13    1    3    3    0    0 -0.26601179439E+03  0.12096293204E+03  0.81979621072E+03  0.87032186228E+03  0.10566000000E+00 0.  1.
          4    1    3    3  501    0 -0.10395592234E+03 -0.15564943845E+02 -0.32238818560E+03  0.33909179212E+03  0.00000000000E+00 0.  1.
         13    1    1    2    0    0  0.36996771673E+03 -0.10539798820E+03  0.45648593412E+03  0.59696253363E+03  0.10566000000E+00 0. -1.
<mgrwt>
<rscale>  1 0.84728399E+03</rscale>
<asrwt>0</asrwt>
<pdfrwt beam="2">  1       21 0.65575557E-01 0.11023913E+04</pdfrwt>
<pdfrwt beam="1">  1        4 0.21232847E+00 0.11023913E+04</pdfrwt>
<totfact> 0.89139848E+00</totfact>
</mgrwt>
</event>
<event>
 6    1  0.2415530E-005  0.9205514E+03  0.7818608E-02  0.9835426E-01
          4   -1    0    0  502    0 -0.00000000000E+00  0.00000000000E+00  0.22897996585E+04  0.22897996585E+04  0.00000000000E+00 0.  1.
         21   -1    0    0  501  502  0.00000000000E+00 -0.00000000000E+00 -0.18467706071E+03  0.18467706071E+03  0.00000000000E+00 0.  1.
    9000010    2    1    2  501    0  0.15329597330E+03 -0.14112847643E+03  0.10388208012E+04  0.13880070073E+04  0.89665929595E+03 0.  0.
        -13    1    3    3    0    0 -0.14734946183E+03 -0.26570282572E+03  0.46711601663E+01  0.30386129467E+03  0.10566000000E+00 0.  1.
          4    1    3    3  501    0  0.30064543513E+03  0.12457434929E+03  0.10341496410E+04  0.10841457126E+04  0.00000000000E+00 0.  1.
         13    1    1    2    0    0 -0.15329597330E+03  0.14112847643E+03  0.10663017966E+04  0.10864697119E+04  0.10566000000E+00 0. -1.
<mgrwt>
<rscale>  1 0.63495564E+03</rscale>
<asrwt>0</asrwt>
<pdfrwt beam="2">  1       21 0.28411857E-01 0.92055135E+03</pdfrwt>
<pdfrwt beam="1">  1        4 0.35227685E+00 0.92055135E+03</pdfrwt>
<totfact> 0.71621022E+00</totfact>
</mgrwt>
</event>
<event>
 6    1  0.2415530E-005  0.1063003E+04  0.7818608E-02  0.9490446E-01
          4   -1    0    0  502    0 -0.00000000000E+00  0.00000000000E+00  0.12757696527E+04  0.12757696527E+04  0.00000000000E+00 0.  1.
         21   -1    0    0  501  502  0.00000000000E+00 -0.00000000000E+00 -0.45276761711E+03  0.45276761711E+03  0.00000000000E+00 0. -1.
    9000010    2    1    2  501    0  0.42793408006E+03 -0.74767249335E+02  0.44390051745E+03  0.11519649060E+04  0.97018439322E+03 0.  0.
        -13    1    3    3    0    0  0.71202384878E+03  0.11338380765E+03  0.27504851288E+03  0.77167709871E+03  0.10566000000E+00 0.  1.
          4    1    3    3  501    0 -0.28408976872E+03 -0.18815105699E+03  0.16885200457E+03  0.38028780731E+03  0.00000000000E+00 0.  1.
         13    1    1    2    0    0 -0.42793408006E+03  0.74767249335E+02  0.37910151809E+03  0.57657236375E+03  0.10566000000E+00 0. -1.
<mgrwt>
<rscale>  1 0.84991887E+03</rscale>
<asrwt>0</asrwt>
<pdfrwt beam="2">  1       21 0.69656557E-01 0.10630030E+04</pdfrwt>
<pdfrwt beam="1">  1        4 0.19627225E+00 0.10630030E+04</pdfrwt>
<totfact> 0.99471577E+00</totfact>
</mgrwt>
</event>
<event>
 6    1  0.2415530E-005  0.7591501E+03  0.7818608E-02  0.9941718E-01
          4   -1    0    0  502    0 -0.00000000000E+00  0.00000000000E+00  0.58386740812E+03  0.58386740812E+03  0.00000000000E+00 0.  1.
         21   -1    0    0  501  502  0.00000000000E+00 -0.00000000000E+00 -0.66173530767E+03  0.66173530767E+03  0.00000000000E+00 0.  1.
    9000010    2    1    2  501    0 -0.19740694550E+03 -0.17486170881E+03 -0.37634243608E+03  0.84731490596E+03  0.71187274236E+03 0.  0.
        -13    1    3    3    0    0 -0.30076472784E+03 -0.11476325917E+03 -0.54952325257E+03  0.63687192076E+03  0.10566000000E+00 0.  1.
          4    1    3    3  501    0  0.10335778234E+03 -0.60098449637E+02  0.17318081649E+03  0.21044298520E+03  0.00000000000E+00 0.  1.
         13    1    1    2    0    0  0.19740694550E+03  0.17486170881E+03  0.29847453653E+03  0.39828780983E+03  0.10566000000E+00 0. -1.
<mgrwt>
<rscale>  1 0.58281386E+03</rscale>
<asrwt>0</asrwt>
<pdfrwt beam="2">  1       21 0.10180543E+00 0.75915013E+03</pdfrwt>
<pdfrwt beam="1">  1        4 0.89825756E-01 0.75915013E+03</pdfrwt>
<totfact> 0.32194057E+01</totfact>
</mgrwt>
</event>
<event>
 6    1  0.2415530E-005  0.1006770E+04  0.7818608E-02  0.9665694E-01
          4   -1    0    0  502    0 -0.00000000000E+00  0.00000000000E+00  0.86680956008E+03  0.86680956008E+03  0.00000000000E+00 0.  1.
         21   -1    0    0  501  502  0.00000000000E+00 -0.00000000000E+00 -0.48710551906E+03  0.48710551906E+03  0.00000000000E+00 0.  1.
    9000010    2    1    2  501    0  0.19787515244E+03  0.19777662992E+03  0.21569433724E+03  0.10296168130E+04  0.96711765742E+03 0.  0.
        -13    1    3    3    0    0  0.47088134514E+03  0.39609760666E+03 -0.23872573698E+02  0.61578605550E+03  0.10566000000E+00 0.  1.
          4    1    3    3  501    0 -0.27300619270E+03 -0.19832097674E+03  0.23956691094E+03  0.41383075754E+03  0.00000000000E+00 0.  1.
         13    1    1    2    0    0 -0.19787515244E+03 -0.19777662992E+03  0.16400970378E+03  0.32429826610E+03  0.10566000000E+00 0. -1.
<mgrwt>
<rscale>  1 0.73096635E+03</rscale>
<asrwt>0</asrwt>
<pdfrwt beam="2">  1       21 0.74939311E-01 0.10067704E+04</pdfrwt>
<pdfrwt beam="1">  1        4 0.13335532E+00 0.10067704E+04</pdfrwt>
<totfact> 0.24733249E+01</totfact>
</mgrwt>
</event>
<event>
 6    1  0.2415530E-005  0.1029781E+04  0.7818608E-02  0.9680500E-01
         21   -1    0    0  501  502  0.00000000000E+00  0.00000000000E+00  0.82380909179E+03  0.82380909179E+03  0.00000000000E+00 0.  1.
          4   -1    0    0  502    0 -0.00000000000E+00 -0.00000000000E+00 -0.67967177315E+03  0.67967177315E+03  0.00000000000E+00 0.  1.
    9000010    2    1    2  501    0  0.10966300617E+03 -0.22321214390E+03  0.43752170504E+03  0.11188719136E+04  0.99929949492E+03 0.  0.
        -13    1    3    3    0    0 -0.23127739751E+03  0.15897417593E+03 -0.16699090869E+03  0.32657005062E+03  0.10566000000E+00 0.  1.
          4    1    3    3  501    0  0.34094040368E+03 -0.38218631983E+03  0.60451261373E+03  0.79230186298E+03  0.00000000000E+00 0.  1.
         13    1    1    2    0    0 -0.10966300617E+03  0.22321214390E+03 -0.29338438641E+03  0.38460895135E+03  0.10566000000E+00 0. -1.
<mgrwt>
<rscale>  1 0.72189800E+03</rscale>
<asrwt>0</asrwt>
<pdfrwt beam="1">  1       21 0.12673986E+00 0.10297811E+04</pdfrwt>
<pdfrwt beam="2">  1        4 0.10456489E+00 0.10297811E+04</pdfrwt>
<totfact> 0.12416173E+01</totfact>
</mgrwt>
</event>
<event>
 6    1  0.2415530E-005  0.1030503E+04  0.7818608E-02  0.9646401E-01
          4   -1    0    0  502    0 -0.00000000000E+00  0.00000000000E+00  0.10825087882E+04  0.10825087882E+04  0.00000000000E+00 0.  1.
         21   -1    0    0  501  502  0.00000000000E+00 -0.00000000000E+00 -0.46550009158E+03  0.46550009158E+03  0.00000000000E+00 0. -1.
    9000010    2    1    2  501    0  0.20078401807E+02  0.27775977316E+03  0.71336446837E+03  0.12533258641E+04  0.99216088572E+03 0.  0.
        -13    1    3    3    0    0  0.39467443620E+03 -0.13889561693E+03  0.11570327716E+03  0.43410501322E+03  0.10566000000E+00 0.  1.
          4    1    3    3  501    0 -0.37459603440E+03  0.41665539009E+03  0.59766119122E+03  0.81922085091E+03  0.00000000000E+00 0.  1.
         13    1    1    2    0    0 -0.20078401807E+02 -0.27775977316E+03 -0.96355771750E+02  0.29468301566E+03  0.10566000000E+00 0. -1.
<mgrwt>
<rscale>  1 0.74299748E+03</rscale>
<asrwt>0</asrwt>
<pdfrwt beam="2">  1       21 0.71615399E-01 0.10305032E+04</pdfrwt>
<pdfrwt beam="1">  1        4 0.16653981E+00 0.10305032E+04</pdfrwt>
<totfact> 0.15086670E+01</totfact>
</mgrwt>
</event>
<event>
 6    1  0.2415530E-005  0.1004019E+04  0.7818608E-02  0.1019413E+00
         21   -1    0    0  501  502  0.00000000000E+00  0.00000000000E+00  0.91585042964E+03  0.91585042964E+03  0.00000000000E+00 0.  1.
          4   -1    0    0  502    0 -0.00000000000E+00 -0.00000000000E+00 -0.31952508587E+03  0.31952508587E+03  0.00000000000E+00 0.  1.
    9000010    2    1    2  501    0 -0.23139702931E+02 -0.46578814180E+02  0.61806211313E+03  0.11790059307E+04  0.10026710214E+04 0.  0.
        -13    1    3    3    0    0 -0.17354253164E+03 -0.13668400838E+02  0.86809247581E+03  0.88537471908E+03  0.10566000000E+00 0.  1.
          4    1    3    3  501    0  0.15040282870E+03 -0.32910413342E+02 -0.25003036268E+03  0.29363121164E+03  0.00000000000E+00 0.  1.
         13    1    1    2    0    0  0.23139702931E+02  0.46578814180E+02 -0.21736769361E+02  0.56369584782E+02  0.10566000000E+00 0. -1.
<mgrwt>
<rscale>  1 0.47899197E+03</rscale>
<asrwt>0</asrwt>
<pdfrwt beam="1">  1       21 0.14090006E+00 0.10040190E+04</pdfrwt>
<pdfrwt beam="2">  1        4 0.49157706E-01 0.10040190E+04</pdfrwt>
<totfact> 0.51470178E+01</totfact>
</mgrwt>
</event>
<event>
 6    1  0.2415530E-005  0.1160167E+04  0.7818608E-02  0.9328017E-01
         21   -1    0    0  501  502  0.00000000000E+00  0.00000000000E+00  0.15533829519E+04  0.15533829519E+04  0.00000000000E+00 0. -1.
          4   -1    0    0  502    0 -0.00000000000E+00 -0.00000000000E+00 -0.54673451491E+03  0.54673451491E+03  0.00000000000E+00 0.  1.
    9000010    2    1    2  501    0  0.19797651906E+03  0.56276264423E+03  0.34750792807E+03  0.12110940040E+04  0.99503287913E+03 0.  0.
        -13    1    3    3    0    0 -0.21959300837E+03  0.65676762542E+03  0.59205517405E+02  0.69503245074E+03  0.10566000000E+00 0.  1.
          4    1    3    3  501    0  0.41756952743E+03 -0.94004981189E+02  0.28830241067E+03  0.51606155323E+03  0.00000000000E+00 0.  1.
         13    1    1    2    0    0 -0.19797651906E+03 -0.56276264423E+03  0.65914050894E+03  0.88902346287E+03  0.10566000000E+00 0. -1.
<mgrwt>
<rscale>  1 0.98243955E+03</rscale>
<asrwt>0</asrwt>
<pdfrwt beam="1">  1       21 0.23898199E+00 0.11601668E+04</pdfrwt>
<pdfrwt beam="2">  1        4 0.84113003E-01 0.11601668E+04</pdfrwt>
<totfact> 0.30392293E+00</totfact>
</mgrwt>
</event>
<event>
 6    1  0.2415530E-005  0.1007849E+04  0.7818608E-02  0.9776498E-01
         21   -1    0    0  501  502  0.00000000000E+00  0.00000000000E+00  0.35699899177E+03  0.35699899177E+03  0.00000000000E+00 0.  1.
          4   -1    0    0  502    0 -0.00000000000E+00 -0.00000000000E+00 -0.10278574043E+04  0.10278574043E+04  0.00000000000E+00 0.  1.
    9000010    2    1    2  501    0  0.91241902302E+01 -0.19241793250E+03 -0.49010190900E+03  0.11206957701E+04  0.98926802045E+03 0.  0.
        -13    1    3    3    0    0 -0.40085662418E+03  0.12605211437E+03 -0.20558404706E+02  0.42071109785E+03  0.10566000000E+00 0.  1.
          4    1    3    3  501    0  0.40998081441E+03 -0.31847004687E+03 -0.46954350429E+03  0.69998467223E+03  0.00000000000E+00 0.  1.
         13    1    1    2    0    0 -0.91241902302E+01  0.19241793250E+03 -0.18075650358E+03  0.26416062603E+03  0.10566000000E+00 0. -1.
<mgrwt>
<rscale>  1 0.66639212E+03</rscale>
<asrwt>0</asrwt>
<pdfrwt beam="1">  1       21 0.54922922E-01 0.10078488E+04</pdfrwt>
<pdfrwt beam="2">  1        4 0.15813191E+00 0.10078488E+04</pdfrwt>
<totfact> 0.31689021E+01</totfact>
</mgrwt>
</event>
<event>
 6    1  0.2415530E-005  0.1051550E+04  0.7818608E-02  0.9590862E-01
          4   -1    0    0  502    0 -0.00000000000E+00  0.00000000000E+00  0.90684100927E+03  0.90684100927E+03  0.00000000000E+00 0.  1.
         21   -1    0    0  501  502  0.00000000000E+00 -0.00000000000E+00 -0.51626006526E+03  0.51626006526E+03  0.00000000000E+00 0.  1.
    9000010    2    1    2  501    0  0.31116641156E+03 -0.59334814380E+02  0.29187405006E+03  0.10913056286E+04  0.10027025272E+04 0.  0.
        -13    1    3    3    0    0 -0.17494659285E+02  0.44399483528E+03  0.18223700988E+03  0.48025807207E+03  0.10566000000E+00 0.  1.
          4    1    3    3  501    0  0.32866107085E+03 -0.50332964966E+03  0.10963704018E+03  0.61104755649E+03  0.00000000000E+00 0.  1.
         13    1    1    2    0    0 -0.31116641156E+03  0.59334814380E+02  0.98706893947E+02  0.33179544596E+03  0.10566000000E+00 0. -1.
<mgrwt>
<rscale>  1 0.77903957E+03</rscale>
<asrwt>0</asrwt>
<pdfrwt beam="2">  1       21 0.79424626E-01 0.10515501E+04</pdfrwt>
<pdfrwt beam="1">  1        4 0.13951400E+00 0.10515501E+04</pdfrwt>
<totfact> 0.19114817E+01</totfact>
</mgrwt>
</event>
<event>
 6    1  0.2415530E-005  0.1179672E+04  0.7818608E-02  0.9294356E-01
         21   -1    0    0  501  502  0.00000000000E+00  0.00000000000E+00  0.90257092369E+03  0.90257092369E+03  0.00000000000E+00 0.  1.
          4   -1    0    0  502    0 -0.00000000000E+00 -0.00000000000E+00 -0.10578499278E+04  0.10578499278E+04  0.00000000000E+00 0.  1.
    9000010    2    1    2  501    0 -0.62771661266E+03 -0.13247078747E+03  0.24418297496E+03  0.12046784753E+04  0.98997386237E+03 0.  0.
        -13    1    3    3    0    0 -0.40633558281E+03 -0.18275824616E+02  0.62734321393E+03  0.74766445071E+03  0.10566000000E+00 0.  1.
          4    1    3    3  501    0 -0.22138102985E+03 -0.11419496285E+03 -0.38316023897E+03  0.45701402456E+03  0.00000000000E+00 0.  1.
         13    1    1    2    0    0  0.62771661266E+03  0.13247078747E+03 -0.39946197905E+03  0.75574237621E+03  0.10566000000E+00 0. -1.
<mgrwt>
<rscale>  1 0.10130413E+04</rscale>
<asrwt>0</asrwt>
<pdfrwt beam="1">  1       21 0.13885707E+00 0.11796715E+04</pdfrwt>
<pdfrwt beam="2">  1        4 0.16274614E+00 0.11796715E+04</pdfrwt>
<totfact> 0.30424997E+00</totfact>
</mgrwt>
</event>
<event>
 6    1  0.2415530E-005  0.1015360E+04  0.7818608E-02  0.1007266E+00
         21   -1    0    0  501  502  0.00000000000E+00  0.00000000000E+00  0.10040515988E+04  0.10040515988E+04  0.00000000000E+00 0.  1.
          4   -1    0    0  502    0 -0.00000000000E+00 -0.00000000000E+00 -0.29536210330E+03  0.29536210330E+03  0.00000000000E+00 0.  1.
    9000010    2    1    2  501    0 -0.69676139579E+02  0.21756202250E+02  0.67312051876E+03  0.12182148103E+04  0.10127329334E+04 0.  0.
        -13    1    3    3    0    0 -0.13105908785E+03  0.37500146967E+02 -0.25435262629E+03  0.28857930487E+03  0.10566000000E+00 0.  1.
          4    1    3    3  501    0  0.61382948275E+02 -0.15743944716E+02  0.92747314505E+03  0.92963550541E+03  0.00000000000E+00 0.  1.
         13    1    1    2    0    0  0.69676139579E+02 -0.21756202250E+02  0.35568976770E+02  0.81198891837E+02  0.10566000000E+00 0. -1.
<mgrwt>
<rscale>  1 0.52575897E+03</rscale>
<asrwt>0</asrwt>
<pdfrwt beam="1">  1       21 0.15446948E+00 0.10153601E+04</pdfrwt>
<pdfrwt beam="2">  1        4 0.45440324E-01 0.10153601E+04</pdfrwt>
<totfact> 0.46973838E+01</totfact>
</mgrwt>
</event>
<event>
 6    1  0.2415530E-005  0.1173109E+04  0.7818608E-02  0.9491810E-01
          4   -1    0    0  502    0 -0.00000000000E+00  0.00000000000E+00  0.10820346662E+04  0.10820346662E+04  0.00000000000E+00 0.  1.
         21   -1    0    0  501  502  0.00000000000E+00 -0.00000000000E+00 -0.93378491457E+03  0.93378491457E+03  0.00000000000E+00 0.  1.
    9000010    2    1    2  501    0 -0.34222349739E+02  0.31984893696E+03 -0.51308161480E+03  0.12804056163E+04  0.11281450648E+04 0.  0.
        -13    1    3    3    0    0 -0.11602394161E+03  0.48522403569E+03  0.20471978286E+03  0.53927184285E+03  0.10566000000E+00 0.  1.
          4    1    3    3  501    0  0.81801591874E+02 -0.16537509872E+03 -0.71780139766E+03  0.74113377348E+03  0.00000000000E+00 0.  1.
         13    1    1    2    0    0  0.34222349739E+02 -0.31984893696E+03  0.66133136643E+03  0.73541396443E+03  0.10566000000E+00 0. -1.
<mgrwt>
<rscale>  1 0.84890302E+03</rscale>
<asrwt>0</asrwt>
<pdfrwt beam="2">  1       21 0.14365922E+00 0.11731095E+04</pdfrwt>
<pdfrwt beam="1">  1        4 0.16646687E+00 0.11731095E+04</pdfrwt>
<totfact> 0.26036945E+00</totfact>
</mgrwt>
</event>
<event>
 6    1  0.2415530E-005  0.1055962E+04  0.7818608E-02  0.9576513E-01
          4   -1    0    0  502    0 -0.00000000000E+00  0.00000000000E+00  0.67815648222E+03  0.67815648222E+03  0.00000000000E+00 0.  1.
         21   -1    0    0  501  502  0.00000000000E+00 -0.00000000000E+00 -0.93600451620E+03  0.93600451620E+03  0.00000000000E+00 0.  1.
    9000010    2    1    2  501    0  0.30548835538E+03  0.12114881891E+03 -0.53546007172E+03  0.11839649661E+04  0.10035214900E+04 0.  0.
        -13    1    3    3    0    0  0.62054001137E+03  0.29039534214E+03 -0.26101390282E+03  0.73316275756E+03  0.10566000000E+00 0.  1.
          4    1    3    3  501    0 -0.31505165598E+03 -0.16924652323E+03 -0.27444616890E+03  0.45080220850E+03  0.00000000000E+00 0.  1.
         13    1    1    2    0    0 -0.30548835538E+03 -0.12114881891E+03  0.27761203773E+03  0.43019603236E+03  0.10566000000E+00 0. -1.
<mgrwt>
<rscale>  1 0.78870438E+03</rscale>
<asrwt>0</asrwt>
<pdfrwt beam="2">  1       21 0.14400069E+00 0.10559619E+04</pdfrwt>
<pdfrwt beam="1">  1        4 0.10433177E+00 0.10559619E+04</pdfrwt>
<totfact> 0.88251809E+00</totfact>
</mgrwt>
</event>
<event>
 6    1  0.2415530E-005  0.1058418E+04  0.7818608E-02  0.9582769E-01
          4   -1    0    0  502    0 -0.00000000000E+00  0.00000000000E+00  0.52877532013E+03  0.52877532013E+03  0.00000000000E+00 0.  1.
         21   -1    0    0  501  502  0.00000000000E+00 -0.00000000000E+00 -0.95272995156E+03  0.95272995156E+03  0.00000000000E+00 0. -1.
    9000010    2    1    2  501    0  0.22995444276E+03  0.22167348147E+03 -0.47130779693E+03  0.11586113083E+04  0.10090743016E+04 0.  0.
        -13    1    3    3    0    0 -0.22900749222E+03 -0.27964298187E+03 -0.66498869363E+02  0.36751427128E+03  0.10566000000E+00 0.  1.
          4    1    3    3  501    0  0.45896193499E+03  0.50131646334E+03 -0.40480892757E+03  0.79109703704E+03  0.00000000000E+00 0.  1.
         13    1    1    2    0    0 -0.22995444276E+03 -0.22167348147E+03  0.47353165494E+02  0.32289396337E+03  0.10566000000E+00 0. -1.
<mgrwt>
<rscale>  1 0.78447242E+03</rscale>
<asrwt>0</asrwt>
<pdfrwt beam="2">  1       21 0.14657384E+00 0.10584182E+04</pdfrwt>
<pdfrwt beam="1">  1        4 0.81350049E-01 0.10584182E+04</pdfrwt>
<totfact> 0.15149445E+01</totfact>
</mgrwt>
</event>
<event>
 6    1  0.2415530E-005  0.1030929E+04  0.7818608E-02  0.9869253E-01
          4   -1    0    0  502    0 -0.00000000000E+00  0.00000000000E+00  0.52165437258E+03  0.52165437258E+03  0.00000000000E+00 0.  1.
         21   -1    0    0  501  502  0.00000000000E+00 -0.00000000000E+00 -0.82624625026E+03  0.82624625026E+03  0.00000000000E+00 0.  1.
    9000010    2    1    2  501    0  0.92899863600E+02  0.95051762411E+02 -0.47225372214E+03  0.11339479939E+04  0.10223254142E+04 0.  0.
        -13    1    3    3    0    0  0.47367782032E+03  0.74888580861E+02 -0.56543658696E+03  0.74141589007E+03  0.10566000000E+00 0.  1.
          4    1    3    3  501    0 -0.38077795672E+03  0.20163181551E+02  0.93182864828E+02  0.39253210380E+03  0.00000000000E+00 0.  1.
         13    1    1    2    0    0 -0.92899863600E+02 -0.95051762411E+02  0.16766184446E+03  0.21395262898E+03  0.10566000000E+00 0. -1.
<mgrwt>
<rscale>  1 0.61774817E+03</rscale>
<asrwt>0</asrwt>
<pdfrwt beam="2">  1       21 0.12711481E+00 0.10309289E+04</pdfrwt>
<pdfrwt beam="1">  1        4 0.80254520E-01 0.10309289E+04</pdfrwt>
<totfact> 0.23035577E+01</totfact>
</mgrwt>
</event>
<event>
 6    1  0.2415530E-005  0.1036261E+04  0.7818608E-02  0.9631256E-01
          4   -1    0    0  502    0 -0.00000000000E+00  0.00000000000E+00  0.62669257713E+03  0.62669257713E+03  0.00000000000E+00 0.  1.
         21   -1    0    0  501  502  0.00000000000E+00 -0.00000000000E+00 -0.70554179772E+03  0.70554179772E+03  0.00000000000E+00 0. -1.
    9000010    2    1    2  501    0  0.15647548042E+03  0.24217269834E+03 -0.11068552267E+03  0.10421555010E+04  0.99534145470E+03 0.  0.
        -13    1    3    3    0    0 -0.12703025160E+03  0.39758207160E+03  0.30398119784E+03  0.51634558997E+03  0.10566000000E+00 0.  1.
          4    1    3    3  501    0  0.28350573202E+03 -0.15540937326E+03 -0.41466672051E+03  0.52580991098E+03  0.00000000000E+00 0.  1.
         13    1    1    2    0    0 -0.15647548042E+03 -0.24217269834E+03  0.31836302077E+02  0.29007887391E+03  0.10566000000E+00 0. -1.
<mgrwt>
<rscale>  1 0.75261526E+03</rscale>
<asrwt>0</asrwt>
<pdfrwt beam="2">  1       21 0.10854489E+00 0.10362610E+04</pdfrwt>
<pdfrwt beam="1">  1        4 0.96414243E-01 0.10362610E+04</pdfrwt>
<totfact> 0.22518977E+01</totfact>
</mgrwt>
</event>
<event>
 6    1  0.2415530E-005  0.9962704E+03  0.7818608E-02  0.1011263E+00
         21   -1    0    0  501  502  0.00000000000E+00  0.00000000000E+00  0.11184245887E+04  0.11184245887E+04  0.00000000000E+00 0.  1.
          4   -1    0    0  502    0 -0.00000000000E+00 -0.00000000000E+00 -0.25397711833E+03  0.25397711833E+03  0.00000000000E+00 0.  1.
    9000010    2    1    2  501    0  0.68188123940E+02 -0.36352396637E+01  0.79085305169E+03  0.12720075596E+04  0.99392748583E+03 0.  0.
        -13    1    3    3    0    0  0.30768856804E+03  0.31142378165E+03  0.61343135719E+02  0.44206336440E+03  0.10566000000E+00 0.  1.
          4    1    3    3  501    0 -0.23950044410E+03 -0.31505902131E+03  0.72950991598E+03  0.82994419520E+03  0.00000000000E+00 0.  1.
         13    1    1    2    0    0 -0.68188123940E+02  0.36352396637E+01  0.73594418644E+02  0.10039414741E+03  0.10566000000E+00 0. -1.
<mgrwt>
<rscale>  1 0.50975836E+03</rscale>
<asrwt>0</asrwt>
<pdfrwt beam="1">  1       21 0.17206532E+00 0.99627039E+03</pdfrwt>
<pdfrwt beam="2">  1        4 0.39073404E-01 0.99627039E+03</pdfrwt>
<totfact> 0.47034194E+01</totfact>
</mgrwt>
</event>
<event>
 6    1  0.2415530E-005  0.1277448E+04  0.7818608E-02  0.9171876E-01
          4   -1    0    0  502    0 -0.00000000000E+00  0.00000000000E+00  0.49408487793E+03  0.49408487793E+03  0.00000000000E+00 0.  1.
         21   -1    0    0  501  502  0.00000000000E+00 -0.00000000000E+00 -0.22069849932E+04  0.22069849932E+04  0.00000000000E+00 0. -1.
    9000010    2    1    2  501    0 -0.38747937457E+03  0.69492229767E+03 -0.89336782460E+03  0.15588393987E+04  0.99940829263E+03 0.  0.
        -13    1    3    3    0    0  0.31463018394E+03  0.15023792357E+03 -0.43956633141E+03  0.56105450466E+03  0.10566000000E+00 0.  1.
          4    1    3    3  501    0 -0.70210955851E+03  0.54468437410E+03 -0.45380149319E+03  0.99778489403E+03  0.00000000000E+00 0.  1.
         13    1    1    2    0    0  0.38747937457E+03 -0.69492229767E+03 -0.81953229065E+03  0.11422304724E+04  0.10566000000E+00 0. -1.
<mgrwt>
<rscale>  1 0.11348486E+04</rscale>
<asrwt>0</asrwt>
<pdfrwt beam="2">  1       21 0.33953615E+00 0.12774483E+04</pdfrwt>
<pdfrwt beam="1">  1        4 0.76013059E-01 0.12774483E+04</pdfrwt>
<totfact> 0.87407456E-01</totfact>
</mgrwt>
</event>
<event>
 6    1  0.2415530E-005  0.1003361E+04  0.7818608E-02  0.9943950E-01
          4   -1    0    0  502    0 -0.00000000000E+00  0.00000000000E+00  0.45355498205E+03  0.45355498205E+03  0.00000000000E+00 0.  1.
         21   -1    0    0  501  502  0.00000000000E+00 -0.00000000000E+00 -0.10521209427E+04  0.10521209427E+04  0.00000000000E+00 0.  1.
    9000010    2    1    2  501    0  0.43684767006E+02  0.10466018268E+03 -0.79413443750E+03  0.12796025893E+04  0.99693087471E+03 0.  0.
        -13    1    3    3    0    0 -0.18676558824E+03  0.32206591426E+03  0.52172800221E+02  0.37593862575E+03  0.10566000000E+00 0.  1.
          4    1    3    3  501    0  0.23045035525E+03 -0.21740573158E+03 -0.84630723772E+03  0.90366396353E+03  0.00000000000E+00 0.  1.
         13    1    1    2    0    0 -0.43684767006E+02 -0.10466018268E+03  0.19556847685E+03  0.22607333547E+03  0.10566000000E+00 0. -1.
<mgrwt>
<rscale>  1 0.58177760E+03</rscale>
<asrwt>0</asrwt>
<pdfrwt beam="2">  1       21 0.16186476E+00 0.10033610E+04</pdfrwt>
<pdfrwt beam="1">  1        4 0.69777690E-01 0.10033610E+04</pdfrwt>
<totfact> 0.16330567E+01</totfact>
</mgrwt>
</event>
<event>
 6    1  0.2415530E-005  0.1019572E+04  0.7818608E-02  0.9714947E-01
          4   -1    0    0  502    0 -0.00000000000E+00  0.00000000000E+00  0.38870383872E+03  0.38870383872E+03  0.00000000000E+00 0.  1.
         21   -1    0    0  501  502  0.00000000000E+00 -0.00000000000E+00 -0.15488081707E+04  0.15488081707E+04  0.00000000000E+00 0.  1.
    9000010    2    1    2  501    0 -0.21840528575E+03  0.66391269005E+02 -0.13132883867E+04  0.16626046883E+04  0.99368973700E+03 0.  0.
        -13    1    3    3    0    0 -0.20432895408E+03  0.24516934726E+03  0.17648881149E+02  0.31964014842E+03  0.10566000000E+00 0.  1.
          4    1    3    3  501    0 -0.14076331665E+02 -0.17877807826E+03 -0.13309372679E+04  0.13429645399E+04  0.00000000000E+00 0.  1.
         13    1    1    2    0    0  0.21840528575E+03 -0.66391269005E+02  0.15318405470E+03  0.27490732115E+03  0.10566000000E+00 0. -1.
<mgrwt>
<rscale>  1 0.70133793E+03</rscale>
<asrwt>0</asrwt>
<pdfrwt beam="2">  1       21 0.23827817E+00 0.10195724E+04</pdfrwt>
<pdfrwt beam="1">  1        4 0.59800592E-01 0.10195724E+04</pdfrwt>
<totfact> 0.67519154E+00</totfact>
</mgrwt>
</event>
<event>
 6    1  0.2415530E-005  0.1090394E+04  0.7818608E-02  0.9446548E-01
         21   -1    0    0  501  502  0.00000000000E+00  0.00000000000E+00  0.29974576265E+03  0.29974576265E+03  0.00000000000E+00 0.  1.
          4   -1    0    0  502    0 -0.00000000000E+00 -0.00000000000E+00 -0.20370692666E+04  0.20370692666E+04  0.00000000000E+00 0.  1.
    9000010    2    1    2  501    0 -0.41156709888E+03 -0.22655911228E+03 -0.12751204713E+04  0.16777640731E+04  0.98399367905E+03 0.  0.
        -13    1    3    3    0    0 -0.12865288315E+03 -0.60150831764E+03 -0.80608352099E+03  0.10139696615E+04  0.10566000000E+00 0.  1.
          4    1    3    3  501    0 -0.28291421574E+03  0.37494920536E+03 -0.46903695028E+03  0.66379441154E+03  0.00000000000E+00 0.  1.
         13    1    1    2    0    0  0.41156709888E+03  0.22655911228E+03 -0.46220303266E+03  0.65905095615E+03  0.10566000000E+00 0. -1.
<mgrwt>
<rscale>  1 0.88341981E+03</rscale>
<asrwt>0</asrwt>
<pdfrwt beam="1">  1       21 0.46114733E-01 0.10903945E+04</pdfrwt>
<pdfrwt beam="2">  1        4 0.31339527E+00 0.10903945E+04</pdfrwt>
<totfact> 0.45371539E+00</totfact>
</mgrwt>
</event>
<event>
 6    1  0.2415530E-005  0.1041222E+04  0.7818608E-02  0.9933222E-01
         21   -1    0    0  501  502  0.00000000000E+00  0.00000000000E+00  0.51442416411E+03  0.51442416411E+03  0.00000000000E+00 0.  1.
          4   -1    0    0  502    0 -0.00000000000E+00 -0.00000000000E+00 -0.64829376311E+03  0.64829376311E+03  0.00000000000E+00 0.  1.
    9000010    2    1    2  501    0  0.88489373426E+02  0.56556258877E+02 -0.78963423969E+02  0.10442118985E+04  0.10359122970E+04 0.  0.
        -13    1    3    3    0    0 -0.46926673294E+03  0.63954065747E+02 -0.10759348262E+03  0.48567248001E+03  0.10566000000E+00 0.  1.
          4    1    3    3  501    0  0.55775610636E+03 -0.73978068707E+01  0.28630058654E+02  0.55853941848E+03  0.00000000000E+00 0.  1.
         13    1    1    2    0    0 -0.88489373426E+02 -0.56556258877E+02 -0.54906175023E+02  0.11850602874E+03  0.10566000000E+00 0. -1.
<mgrwt>
<rscale>  1 0.58677888E+03</rscale>
<asrwt>0</asrwt>
<pdfrwt beam="1">  1       21 0.79142179E-01 0.10412220E+04</pdfrwt>
<pdfrwt beam="2">  1        4 0.99737502E-01 0.10412220E+04</pdfrwt>
<totfact> 0.44810222E+01</totfact>
</mgrwt>
</event>
<event>
 6    1  0.2415530E-005  0.8600386E+03  0.7818608E-02  0.9679186E-01
          4   -1    0    0  502    0 -0.00000000000E+00  0.00000000000E+00  0.40149642289E+03  0.40149642289E+03  0.00000000000E+00 0.  1.
         21   -1    0    0  501  502  0.00000000000E+00 -0.00000000000E+00 -0.10374504168E+04  0.10374504168E+04  0.00000000000E+00 0.  1.
    9000010    2    1    2  501    0 -0.13701329242E+03  0.40633694820E+03 -0.46114686734E+03  0.97587027968E+03  0.74550922981E+03 0.  0.
        -13    1    3    3    0    0 -0.31028502092E+03  0.51080887517E+03 -0.17008906087E+03  0.62139584883E+03  0.10566000000E+00 0.  1.
          4    1    3    3  501    0  0.17327172850E+03 -0.10447192696E+03 -0.29105780647E+03  0.35447443085E+03  0.00000000000E+00 0.  1.
         13    1    1    2    0    0  0.13701329242E+03 -0.40633694820E+03 -0.17480712659E+03  0.46307656003E+03  0.10566000000E+00 0. -1.
<mgrwt>
<rscale>  1 0.72269652E+03</rscale>
<asrwt>0</asrwt>
<pdfrwt beam="2">  1       21 0.15960776E+00 0.86003859E+03</pdfrwt>
<pdfrwt beam="1">  1        4 0.61768680E-01 0.86003859E+03</pdfrwt>
<totfact> 0.22647981E+01</totfact>
</mgrwt>
</event>
<event>
 6    1  0.2415530E-005  0.1065764E+04  0.7818608E-02  0.9535168E-01
         21   -1    0    0  501  502  0.00000000000E+00  0.00000000000E+00  0.84344883314E+03  0.84344883314E+03  0.00000000000E+00 0. -1.
          4   -1    0    0  502    0 -0.00000000000E+00 -0.00000000000E+00 -0.62259856602E+03  0.62259856602E+03  0.00000000000E+00 0.  1.
    9000010    2    1    2  501    0 -0.32895926381E+03  0.16666284561E+03  0.25455208776E+03  0.10957414105E+04  0.99993088359E+03 0.  0.
        -13    1    3    3    0    0 -0.16956518750E+03  0.58888928647E+03  0.17653905295E+03  0.63773740121E+03  0.10566000000E+00 0.  1.
          4    1    3    3  501    0 -0.15939407632E+03 -0.42222644086E+03  0.78013034809E+02  0.45800400929E+03  0.00000000000E+00 0.  1.
         13    1    1    2    0    0  0.32895926381E+03 -0.16666284561E+03 -0.33701820634E+02  0.37030598865E+03  0.10566000000E+00 0. -1.
<mgrwt>
<rscale>  1 0.81739952E+03</rscale>
<asrwt>0</asrwt>
<pdfrwt beam="1">  1       21 0.12976136E+00 0.10657638E+04</pdfrwt>
<pdfrwt beam="2">  1        4 0.95784395E-01 0.10657638E+04</pdfrwt>
<totfact> 0.14361663E+01</totfact>
</mgrwt>
</event>
<event>
 6    1  0.2415530E-005  0.9774933E+03  0.7818608E-02  0.9947476E-01
          4   -1    0    0  502    0 -0.00000000000E+00  0.00000000000E+00  0.11702458161E+04  0.11702458161E+04  0.00000000000E+00 0.  1.
         21   -1    0    0  501  502  0.00000000000E+00 -0.00000000000E+00 -0.29461732259E+03  0.29461732259E+03  0.00000000000E+00 0.  1.
    9000010    2    1    2  501    0  0.65704350453E+02  0.10194570570E+03  0.55955659196E+03  0.11263200149E+04  0.96993979591E+03 0.  0.
        -13    1    3    3    0    0  0.71737936111E+02  0.42583850763E+03 -0.51305170780E+02  0.43487584179E+03  0.10566000000E+00 0.  1.
          4    1    3    3  501    0 -0.60335856588E+01 -0.32389280193E+03  0.61086176274E+03  0.69144417307E+03  0.00000000000E+00 0.  1.
         13    1    1    2    0    0 -0.65704350453E+02 -0.10194570570E+03  0.31607190160E+03  0.33854312387E+03  0.10566000000E+00 0. -1.
<mgrwt>
<rscale>  1 0.58014551E+03</rscale>
<asrwt>0</asrwt>
<pdfrwt beam="2">  1       21 0.45325742E-01 0.97749332E+03</pdfrwt>
<pdfrwt beam="1">  1        4 0.18003782E+00 0.97749332E+03</pdfrwt>
<totfact> 0.33418195E+01</totfact>
</mgrwt>
</event>
<event>
 6    1  0.2415530E-005  0.1005453E+04  0.7818608E-02  0.9811236E-01
         21   -1    0    0  501  502  0.00000000000E+00  0.00000000000E+00  0.56132551579E+03  0.56132551579E+03  0.00000000000E+00 0.  1.
          4   -1    0    0  502    0 -0.00000000000E+00 -0.00000000000E+00 -0.76923359314E+03  0.76923359314E+03  0.00000000000E+00 0.  1.
    9000010    2    1    2  501    0 -0.98792587058E+02 -0.14210398420E+03  0.64832390720E+02  0.10075407013E+04  0.99044510615E+03 0.  0.
        -13    1    3    3    0    0  0.16065766291E+03 -0.48802249260E+03  0.20472073205E+03  0.55307090615E+03  0.10566000000E+00 0.  1.
          4    1    3    3  501    0 -0.25945024997E+03  0.34591850840E+03 -0.13988834133E+03  0.45446979514E+03  0.00000000000E+00 0.  1.
         13    1    1    2    0    0  0.98792587058E+02  0.14210398420E+03 -0.27274046807E+03  0.32301840764E+03  0.10566000000E+00 0. -1.
<mgrwt>
<rscale>  1 0.64763038E+03</rscale>
<asrwt>0</asrwt>
<pdfrwt beam="1">  1       21 0.86357772E-01 0.10054526E+04</pdfrwt>
<pdfrwt beam="2">  1        4 0.11834363E+00 0.10054526E+04</pdfrwt>
<totfact> 0.24011576E+01</totfact>
</mgrwt>
</event>
<event>
 6    1  0.2415530E-005  0.8996678E+03  0.7818608E-02  0.1006193E+00
         21   -1    0    0  501  502  0.00000000000E+00  0.00000000000E+00  0.56557994020E+03  0.56557994020E+03  0.00000000000E+00 0.  1.
          4   -1    0    0  502    0 -0.00000000000E+00 -0.00000000000E+00 -0.52859722713E+03  0.52859722713E+03  0.00000000000E+00 0.  1.
    9000010    2    1    2  501    0  0.11168822332E+02 -0.10791410719E+03  0.17713544806E+03  0.91694004534E+03  0.89310239204E+03 0.  0.
        -13    1    3    3    0    0  0.22227128307E+03 -0.40845546726E+03  0.27052245225E+03  0.53798029736E+03  0.10566000000E+00 0.  1.
          4    1    3    3  501    0 -0.21110246073E+03  0.30054136007E+03 -0.93387004191E+02  0.37895974798E+03  0.00000000000E+00 0.  1.
         13    1    1    2    0    0 -0.11168822332E+02  0.10791410719E+03 -0.14015273499E+03  0.17723712199E+03  0.10566000000E+00 0. -1.
<mgrwt>
<rscale>  1 0.53016327E+03</rscale>
<asrwt>0</asrwt>
<pdfrwt beam="1">  1       21 0.87012298E-01 0.89966776E+03</pdfrwt>
<pdfrwt beam="2">  1        4 0.81322650E-01 0.89966776E+03</pdfrwt>
<totfact> 0.58539524E+01</totfact>
</mgrwt>
</event>
<event>
 6    1  0.2415530E-005  0.1028668E+04  0.7818608E-02  0.9641330E-01
          4   -1    0    0  502    0 -0.00000000000E+00  0.00000000000E+00  0.25209127660E+03  0.25209127660E+03  0.00000000000E+00 0.  1.
         21   -1    0    0  501  502  0.00000000000E+00 -0.00000000000E+00 -0.18325705083E+04  0.18325705083E+04  0.00000000000E+00 0.  1.
    9000010    2    1    2  501    0 -0.28295742336E+03 -0.32668280832E+02 -0.14327815125E+04  0.17638086294E+04  0.98844620411E+03 0.  0.
        -13    1    3    3    0    0  0.36517253392E+03  0.16458892957E+02 -0.65583333727E+03  0.75082571355E+03  0.10566000000E+00 0.  1.
          4    1    3    3  501    0 -0.64812995728E+03 -0.49127173789E+02 -0.77694817523E+03  0.10129829158E+04  0.00000000000E+00 0.  1.
         13    1    1    2    0    0  0.28295742336E+03  0.32668280832E+02 -0.14769771920E+03  0.32085315556E+03  0.10566000000E+00 0. -1.
<mgrwt>
<rscale>  1 0.74620054E+03</rscale>
<asrwt>0</asrwt>
<pdfrwt beam="2">  1       21 0.28193393E+00 0.10286681E+04</pdfrwt>
<pdfrwt beam="1">  1        4 0.38783272E-01 0.10286681E+04</pdfrwt>
<totfact> 0.88723968E+00</totfact>
</mgrwt>
</event>
<event>
 6    1  0.2415530E-005  0.1139004E+04  0.7818608E-02  0.9373469E-01
          4   -1    0    0  502    0 -0.00000000000E+00  0.00000000000E+00  0.15996542901E+04  0.15996542901E+04  0.00000000000E+00 0.  1.
         21   -1    0    0  501  502  0.00000000000E+00 -0.00000000000E+00 -0.62642664933E+03  0.62642664933E+03  0.00000000000E+00 0.  1.
    9000010    2    1    2  501    0  0.45119928594E+03  0.28739285778E+03  0.27261592893E+02  0.11393301744E+04  0.10055618338E+04 0.  0.
        -13    1    3    3    0    0  0.34441413369E+03 -0.15502829770E+03  0.40066795491E+03  0.55062663378E+03  0.10566000000E+00 0.  1.
          4    1    3    3  501    0  0.10678515225E+03  0.44242115548E+03 -0.37340636202E+03  0.58870354063E+03  0.00000000000E+00 0.  1.
         13    1    1    2    0    0 -0.45119928594E+03 -0.28739285778E+03  0.94596604788E+03  0.10867507650E+04  0.10566000000E+00 0. -1.
<mgrwt>
<rscale>  1 0.94291594E+03</rscale>
<asrwt>0</asrwt>
<pdfrwt beam="2">  1       21 0.96373331E-01 0.11390040E+04</pdfrwt>
<pdfrwt beam="1">  1        4 0.24610066E+00 0.11390040E+04</pdfrwt>
<totfact> 0.21875362E+00</totfact>
</mgrwt>
</event>
<event>
 6    1  0.2415530E-005  0.1048782E+04  0.7818608E-02  0.9568557E-01
         21   -1    0    0  501  502  0.00000000000E+00  0.00000000000E+00  0.20019603924E+04  0.20019603924E+04  0.00000000000E+00 0.  1.
          4   -1    0    0  502    0 -0.00000000000E+00 -0.00000000000E+00 -0.25576016047E+03  0.25576016047E+03  0.00000000000E+00 0.  1.
    9000010    2    1    2  501    0 -0.34456340505E+03 -0.11334836862E+02  0.15150934623E+04  0.18426750508E+04  0.99050023971E+03 0.  0.
        -13    1    3    3    0    0 -0.61911360815E+03  0.17514676712E+03  0.64330009684E+03  0.90984233556E+03  0.10566000000E+00 0.  1.
          4    1    3    3  501    0  0.27455020310E+03 -0.18648160398E+03  0.87179336543E+03  0.93283271526E+03  0.00000000000E+00 0.  1.
         13    1    1    2    0    0  0.34456340505E+03  0.11334836862E+02  0.23110676968E+03  0.41504550206E+03  0.10566000000E+00 0. -1.
<mgrwt>
<rscale>  1 0.79412679E+03</rscale>
<asrwt>0</asrwt>
<pdfrwt beam="1">  1       21 0.30799390E+00 0.10487817E+04</pdfrwt>
<pdfrwt beam="2">  1        4 0.39347718E-01 0.10487817E+04</pdfrwt>
<totfact> 0.59084966E+00</totfact>
</mgrwt>
</event>
<event>
 6    1  0.2415530E-005  0.1041780E+04  0.7818608E-02  0.9626026E-01
         21   -1    0    0  501  502  0.00000000000E+00  0.00000000000E+00  0.19060299881E+04  0.19060299881E+04  0.00000000000E+00 0.  1.
          4   -1    0    0  502    0 -0.00000000000E+00 -0.00000000000E+00 -0.52104784153E+03  0.52104784153E+03  0.00000000000E+00 0.  1.
    9000010    2    1    2  501    0 -0.79557172397E+02  0.27769450594E+03  0.17036751693E+04  0.19969512945E+04  0.10009304710E+04 0.  0.
        -13    1    3    3    0    0  0.24081021608E+03  0.28205381287E+03  0.16253420460E+04  0.16671174797E+04  0.10566000000E+00 0.  1.
          4    1    3    3  501    0 -0.32036738848E+03 -0.43593069232E+01  0.78333123313E+02  0.32983381477E+03  0.00000000000E+00 0.  1.
         13    1    1    2    0    0  0.79557172397E+02 -0.27769450594E+03 -0.31869302275E+03  0.43012653513E+03  0.10566000000E+00 0. -1.
<mgrwt>
<rscale>  1 0.75597270E+03</rscale>
<asrwt>0</asrwt>
<pdfrwt beam="1">  1       21 0.29323538E+00 0.10417799E+04</pdfrwt>
<pdfrwt beam="2">  1        4 0.80161207E-01 0.10417799E+04</pdfrwt>
<totfact> 0.15732608E+00</totfact>
</mgrwt>
</event>
<event>
 6    1  0.2415530E-005  0.1235494E+04  0.7818608E-02  0.9237487E-01
         21   -1    0    0  501  502  0.00000000000E+00  0.00000000000E+00  0.13101823982E+04  0.13101823982E+04  0.00000000000E+00 0. -1.
          4   -1    0    0  502    0 -0.00000000000E+00 -0.00000000000E+00 -0.73446475366E+03  0.73446475366E+03  0.00000000000E+00 0.  1.
    9000010    2    1    2  501    0  0.64519692738E+03 -0.24033286365E+03  0.17446475816E+03  0.12477513930E+04  0.10258687179E+04 0.  0.
        -13    1    3    3    0    0 -0.17989790105E+03 -0.34781657163E+03 -0.24077644649E+02  0.39232558728E+03  0.10566000000E+00 0.  1.
          4    1    3    3  501    0  0.82509482843E+03  0.10748370798E+03  0.19854240281E+03  0.85542580572E+03  0.00000000000E+00 0.  1.
         13    1    1    2    0    0 -0.64519692738E+03  0.24033286365E+03  0.40125288633E+03  0.79689575880E+03  0.10566000000E+00 0. -1.
<mgrwt>
<rscale>  1 0.10674740E+04</rscale>
<asrwt>0</asrwt>
<pdfrwt beam="1">  1       21 0.20156652E+00 0.12354941E+04</pdfrwt>
<pdfrwt beam="2">  1        4 0.11299458E+00 0.12354941E+04</pdfrwt>
<totfact> 0.26257197E+00</totfact>
</mgrwt>
</event>
<event>
 6    1  0.2415530E-005  0.1041859E+04  0.7818608E-02  0.9636390E-01
         21   -1    0    0  501  502  0.00000000000E+00  0.00000000000E+00  0.57362282841E+03  0.57362282841E+03  0.00000000000E+00 0.  1.
          4   -1    0    0  502    0 -0.00000000000E+00 -0.00000000000E+00 -0.82646372185E+03  0.82646372185E+03  0.00000000000E+00 0.  1.
    9000010    2    1    2  501    0 -0.42356680344E+02 -0.27555709704E+03 -0.28516050155E+02  0.10422493686E+04  0.10038649208E+04 0.  0.
        -13    1    3    3    0    0 -0.34433288961E+03  0.23873520368E+03  0.10311808694E+03  0.43150085441E+03  0.10566000000E+00 0.  1.
          4    1    3    3  501    0  0.30197620926E+03 -0.51429230071E+03 -0.13163413709E+03  0.61074851419E+03  0.00000000000E+00 0.  1.
         13    1    1    2    0    0  0.42356680344E+02  0.27555709704E+03 -0.22432484329E+03  0.35783718166E+03  0.10566000000E+00 0. -1.
<mgrwt>
<rscale>  1 0.74933744E+03</rscale>
<asrwt>0</asrwt>
<pdfrwt beam="1">  1       21 0.88249665E-01 0.10418592E+04</pdfrwt>
<pdfrwt beam="2">  1        4 0.12714827E+00 0.10418592E+04</pdfrwt>
<totfact> 0.18935268E+01</totfact>
</mgrwt>
</event>
<event>
 6    1  0.2415530E-005  0.1130999E+04  0.7818608E-02  0.9397057E-01
          4   -1    0    0  502    0 -0.00000000000E+00  0.00000000000E+00  0.28516794625E+03  0.28516794625E+03  0.00000000000E+00 0.  1.
         21   -1    0    0  501  502  0.00000000000E+00 -0.00000000000E+00 -0.24552863528E+04  0.24552863528E+04  0.00000000000E+00 0.  1.
    9000010    2    1    2  501    0 -0.50198495786E+03 -0.92207718108E+01 -0.17604817621E+04  0.20924758178E+04  0.10134520674E+04 0.  0.
        -13    1    3    3    0    0 -0.58244774361E+03 -0.22422487722E+03 -0.46885575467E+03  0.78060739137E+03  0.10566000000E+00 0.  1.
          4    1    3    3  501    0  0.80462785757E+02  0.21500410541E+03 -0.12916260074E+04  0.13118684264E+04  0.00000000000E+00 0.  1.
         13    1    1    2    0    0  0.50198495786E+03  0.92207718108E+01 -0.40963664452E+03  0.64797848131E+03  0.10566000000E+00 0. -1.
<mgrwt>
<rscale>  1 0.92318277E+03</rscale>
<asrwt>0</asrwt>
<pdfrwt beam="2">  1       21 0.37773638E+00 0.11309991E+04</pdfrwt>
<pdfrwt beam="1">  1        4 0.43871989E-01 0.11309991E+04</pdfrwt>
<totfact> 0.16874832E+00</totfact>
</mgrwt>
</event>
<event>
 6    1  0.2415530E-005  0.1055566E+04  0.7818608E-02  0.9736884E-01
          4   -1    0    0  502    0 -0.00000000000E+00  0.00000000000E+00  0.30575991751E+04  0.30575991751E+04  0.00000000000E+00 0.  1.
         21   -1    0    0  501  502  0.00000000000E+00 -0.00000000000E+00 -0.14381642178E+03  0.14381642178E+03  0.00000000000E+00 0.  1.
    9000010    2    1    2  501    0  0.11836662923E+03  0.15014969749E+03  0.19355227517E+04  0.22046467006E+04  0.10381055639E+04 0.  0.
        -13    1    3    3    0    0 -0.35839328483E+03  0.24050389590E+03  0.14705735105E+04  0.15326037751E+04  0.10566000000E+00 0.  1.
          4    1    3    3  501    0  0.47675991407E+03 -0.90354198402E+02  0.46494924114E+03  0.67204292546E+03  0.00000000000E+00 0.  1.
         13    1    1    2    0    0 -0.11836662923E+03 -0.15014969749E+03  0.97826000168E+03  0.99676889630E+03  0.10566000000E+00 0. -1.
<mgrwt>
<rscale>  1 0.68862560E+03</rscale>
<asrwt>0</asrwt>
<pdfrwt beam="2">  1       21 0.22125606E-01 0.10555656E+04</pdfrwt>
<pdfrwt beam="1">  1        4 0.47039983E+00 0.10555656E+04</pdfrwt>
<totfact> 0.16886695E+00</totfact>
</mgrwt>
</event>
<event>
 6    1  0.2415530E-005  0.1101472E+04  0.7818608E-02  0.9445890E-01
         21   -1    0    0  501  502  0.00000000000E+00  0.00000000000E+00  0.11429815488E+04  0.11429815488E+04  0.00000000000E+00 0.  1.
          4   -1    0    0  502    0 -0.00000000000E+00 -0.00000000000E+00 -0.74028369059E+03  0.74028369059E+03  0.00000000000E+00 0.  1.
    9000010    2    1    2  501    0 -0.34285499793E+03 -0.30190750506E+03  0.72988217931E+03  0.13213512937E+04  0.10022692026E+04 0.  0.
        -13    1    3    3    0    0  0.89074509916E+02  0.11488264325E+03  0.70582396450E+03  0.72063844615E+03  0.10566000000E+00 0.  1.
          4    1    3    3  501    0 -0.43192950785E+03 -0.41679014831E+03  0.24058214811E+02  0.60071284752E+03  0.00000000000E+00 0.  1.
         13    1    1    2    0    0  0.34285499793E+03  0.30190750506E+03 -0.32718432113E+03  0.56191394570E+03  0.10566000000E+00 0. -1.
<mgrwt>
<rscale>  1 0.88393412E+03</rscale>
<asrwt>0</asrwt>
<pdfrwt beam="1">  1       21 0.17584332E+00 0.11014723E+04</pdfrwt>
<pdfrwt beam="2">  1        4 0.11388980E+00 0.11014723E+04</pdfrwt>
<totfact> 0.39941214E+00</totfact>
</mgrwt>
</event>
<event>
 6    1  0.2415530E-005  0.1104058E+04  0.7818608E-02  0.9453069E-01
          4   -1    0    0  502    0 -0.00000000000E+00  0.00000000000E+00  0.16614278501E+04  0.16614278501E+04  0.00000000000E+00 0.  1.
         21   -1    0    0  501  502  0.00000000000E+00 -0.00000000000E+00 -0.37209984061E+03  0.37209984061E+03  0.00000000000E+00 0.  1.
    9000010    2    1    2  501    0 -0.32031674359E+03 -0.30494300362E+03  0.74372436941E+03  0.13311913077E+04  0.10116082781E+04 0.  0.
        -13    1    3    3    0    0  0.14239385350E+03 -0.15529303779E+03 -0.18658980747E+03  0.28143863366E+03  0.10566000000E+00 0.  1.
          4    1    3    3  501    0 -0.46271059709E+03 -0.14964996583E+03  0.93031417689E+03  0.10497526740E+04  0.00000000000E+00 0.  1.
         13    1    1    2    0    0  0.32031674359E+03  0.30494300362E+03  0.54560364009E+03  0.70233638303E+03  0.10566000000E+00 0. -1.
<mgrwt>
<rscale>  1 0.87834096E+03</rscale>
<asrwt>0</asrwt>
<pdfrwt beam="2">  1       21 0.57246130E-01 0.11040581E+04</pdfrwt>
<pdfrwt beam="1">  1        4 0.25560428E+00 0.11040581E+04</pdfrwt>
<totfact> 0.64493232E+00</totfact>
</mgrwt>
</event>
<event>
 6    1  0.2415530E-005  0.1270038E+04  0.7818608E-02  0.9183207E-01
          4   -1    0    0  502    0 -0.00000000000E+00  0.00000000000E+00  0.30690181348E+04  0.30690181348E+04  0.00000000000E+00 0.  1.
         21   -1    0    0  501  502  0.00000000000E+00 -0.00000000000E+00 -0.43826694950E+03  0.43826694950E+03  0.00000000000E+00 0. -1.
    9000010    2    1    2  501    0  0.16390556160E+03  0.75843342151E+03  0.23697435953E+04  0.26886207690E+04  0.10054405222E+04 0.  0.
        -13    1    3    3    0    0 -0.26957612604E+03  0.74503249689E+03  0.11711545986E+04  0.14139829611E+04  0.10566000000E+00 0.  1.
          4    1    3    3  501    0  0.43348168765E+03  0.13400924627E+02  0.11985889967E+04  0.12746378079E+04  0.00000000000E+00 0.  1.
         13    1    1    2    0    0 -0.16390556160E+03 -0.75843342151E+03  0.26100758994E+03  0.81866431531E+03  0.10566000000E+00 0. -1.
<mgrwt>
<rscale>  1 0.11228454E+04</rscale>
<asrwt>0</asrwt>
<pdfrwt beam="2">  1       21 0.67425686E-01 0.12700382E+04</pdfrwt>
<pdfrwt beam="1">  1        4 0.47215662E+00 0.12700382E+04</pdfrwt>
<totfact> 0.15233276E-01</totfact>
</mgrwt>
</event>
<event>
 6    1  0.2415530E-005  0.1098346E+04  0.7818608E-02  0.9471976E-01
         21   -1    0    0  501  502  0.00000000000E+00  0.00000000000E+00  0.79280758220E+03  0.79280758220E+03  0.00000000000E+00 0.  1.
          4   -1    0    0  502    0 -0.00000000000E+00 -0.00000000000E+00 -0.73949646625E+03  0.73949646625E+03  0.00000000000E+00 0.  1.
    9000010    2    1    2  501    0 -0.34597788580E+03 -0.23849646424E+03  0.12704122144E+03  0.11056690750E+04  0.10147824253E+04 0.  0.
        -13    1    3    3    0    0 -0.47507085268E+03  0.18083295004E+03  0.34640748672E+03  0.61513496804E+03  0.10566000000E+00 0.  1.
          4    1    3    3  501    0  0.12909296688E+03 -0.41932941428E+03 -0.21936626528E+03  0.49053410699E+03  0.00000000000E+00 0.  1.
         13    1    1    2    0    0  0.34597788580E+03  0.23849646424E+03 -0.73730105491E+02  0.42663497341E+03  0.10566000000E+00 0. -1.
<mgrwt>
<rscale>  1 0.86381860E+03</rscale>
<asrwt>0</asrwt>
<pdfrwt beam="1">  1       21 0.12197040E+00 0.10983463E+04</pdfrwt>
<pdfrwt beam="2">  1        4 0.11376869E+00 0.10983463E+04</pdfrwt>
<totfact> 0.11079935E+01</totfact>
</mgrwt>
</event>
<event>
 6    1  0.2415530E-005  0.1101769E+04  0.7818608E-02  0.9814935E-01
          4   -1    0    0  502    0 -0.00000000000E+00  0.00000000000E+00  0.41231676676E+03  0.41231676676E+03  0.00000000000E+00 0.  1.
         21   -1    0    0  501  502  0.00000000000E+00 -0.00000000000E+00 -0.96239972949E+03  0.96239972949E+03  0.00000000000E+00 0.  1.
    9000010    2    1    2  501    0  0.11912217369E+03 -0.51930622230E+02 -0.57440194684E+03  0.12425109520E+04  0.10940790590E+04 0.  0.
        -13    1    3    3    0    0  0.30719002100E+03  0.12108268023E+03 -0.82252449770E+03  0.88632572169E+03  0.10566000000E+00 0.  1.
          4    1    3    3  501    0 -0.18806784731E+03 -0.17301330246E+03  0.24812255085E+03  0.35618523027E+03  0.00000000000E+00 0.  1.
         13    1    1    2    0    0 -0.11912217369E+03  0.51930622230E+02  0.24318984114E+02  0.13220554429E+03  0.10566000000E+00 0. -1.
<mgrwt>
<rscale>  1 0.64567171E+03</rscale>
<asrwt>0</asrwt>
<pdfrwt beam="2">  1       21 0.14806149E+00 0.11017694E+04</pdfrwt>
<pdfrwt beam="1">  1        4 0.63433350E-01 0.11017694E+04</pdfrwt>
<totfact> 0.25694532E+01</totfact>
</mgrwt>
</event>
<event>
 6    1  0.2415530E-005  0.1038832E+04  0.7818608E-02  0.9900102E-01
          4   -1    0    0  502    0 -0.00000000000E+00  0.00000000000E+00  0.38008213522E+03  0.38008213522E+03  0.00000000000E+00 0.  1.
         21   -1    0    0  501  502  0.00000000000E+00 -0.00000000000E+00 -0.99307823282E+03  0.99307823282E+03  0.00000000000E+00 0.  1.
    9000010    2    1    2  501    0  0.11753747943E+03 -0.35628810917E+01 -0.67633374036E+03  0.12395960714E+04  0.10321547067E+04 0.  0.
        -13    1    3    3    0    0  0.37232373815E+03 -0.39532463150E+03 -0.50582569319E+03  0.74213622288E+03  0.10566000000E+00 0.  1.
          4    1    3    3  501    0 -0.25478625872E+03  0.39176175041E+03 -0.17050804717E+03  0.49745984849E+03  0.00000000000E+00 0.  1.
         13    1    1    2    0    0 -0.11753747943E+03  0.35628810917E+01  0.63337642758E+02  0.13356429667E+03  0.10566000000E+00 0. -1.
<mgrwt>
<rscale>  1 0.60256355E+03</rscale>
<asrwt>0</asrwt>
<pdfrwt beam="2">  1       21 0.15278126E+00 0.10388316E+04</pdfrwt>
<pdfrwt beam="1">  1        4 0.58474176E-01 0.10388316E+04</pdfrwt>
<totfact> 0.28295478E+01</totfact>
</mgrwt>
</event>
<event>
 6    1  0.2415530E-005  0.1012072E+04  0.7818608E-02  0.9798709E-01
          4   -1    0    0  502    0 -0.00000000000E+00  0.00000000000E+00  0.38911214554E+03  0.38911214554E+03  0.00000000000E+00 0.  1.
         21   -1    0    0  501  502  0.00000000000E+00 -0.00000000000E+00 -0.16359396582E+04  0.16359396582E+04  0.00000000000E+00 0.  1.
    9000010    2    1    2  501    0  0.24999302714E+01 -0.17679894656E+03 -0.14419850996E+04  0.17617067600E+04  0.99650668028E+03 0.  0.
        -13    1    3    3    0    0 -0.27884264566E+03 -0.48862597767E+03 -0.10286148240E+04  0.11724150436E+04  0.10566000000E+00 0.  1.
          4    1    3    3  501    0  0.28134257593E+03  0.31182703111E+03 -0.41337027555E+03  0.58929171645E+03  0.00000000000E+00 0.  1.
         13    1    1    2    0    0 -0.24999302714E+01  0.17679894656E+03  0.19515758691E+03  0.26334504371E+03  0.10566000000E+00 0. -1.
<mgrwt>
<rscale>  1 0.65431871E+03</rscale>
<asrwt>0</asrwt>
<pdfrwt beam="2">  1       21 0.25168302E+00 0.10120720E+04</pdfrwt>
<pdfrwt beam="1">  1        4 0.59863408E-01 0.10120720E+04</pdfrwt>
<totfact> 0.55371387E+00</totfact>
</mgrwt>
</event>
<event>
 6    1  0.2415530E-005  0.9988103E+03  0.7818608E-02  0.1011105E+00
         21   -1    0    0  501  502  0.00000000000E+00  0.00000000000E+00  0.14635641948E+03  0.14635641948E+03  0.00000000000E+00 0.  1.
          4   -1    0    0  502    0 -0.00000000000E+00 -0.00000000000E+00 -0.21330723614E+04  0.21330723614E+04  0.00000000000E+00 0.  1.
    9000010    2    1    2  501    0 -0.42618952179E+02  0.53110076449E+02 -0.15956426906E+04  0.18824711580E+04  0.99648633173E+03 0.  0.
        -13    1    3    3    0    0 -0.41192345418E+02 -0.15773690177E+03 -0.16553264681E+04  0.16633350434E+04  0.10566000000E+00 0.  1.
          4    1    3    3  501    0 -0.14266067609E+01  0.21084697822E+03  0.59683777473E+02  0.21913611461E+03  0.00000000000E+00 0.  1.
         13    1    1    2    0    0  0.42618952179E+02 -0.53110076449E+02 -0.39107325132E+03  0.39695762289E+03  0.10566000000E+00 0. -1.
<mgrwt>
<rscale>  1 0.51037887E+03</rscale>
<asrwt>0</asrwt>
<pdfrwt beam="1">  1       21 0.22516371E-01 0.99881032E+03</pdfrwt>
<pdfrwt beam="2">  1        4 0.32816499E+00 0.99881032E+03</pdfrwt>
<totfact> 0.16005589E+01</totfact>
</mgrwt>
</event>
<event>
 6    1  0.2415530E-005  0.1023468E+04  0.7818608E-02  0.9753391E-01
         21   -1    0    0  501  502  0.00000000000E+00  0.00000000000E+00  0.24727052565E+03  0.24727052565E+03  0.00000000000E+00 0.  1.
          4   -1    0    0  502    0 -0.00000000000E+00 -0.00000000000E+00 -0.15113965549E+04  0.15113965549E+04  0.00000000000E+00 0.  1.
    9000010    2    1    2  501    0 -0.19443961281E+03  0.40248908162E+02 -0.10374560506E+04  0.14573266949E+04  0.10040215641E+04 0.  0.
        -13    1    3    3    0    0 -0.22670114595E+03 -0.45059165124E+03 -0.69164125593E+03  0.85603380997E+03  0.10566000000E+00 0.  1.
          4    1    3    3  501    0  0.32261533135E+02  0.49084055940E+03 -0.34581479467E+03  0.60129288495E+03  0.00000000000E+00 0.  1.
         13    1    1    2    0    0  0.19443961281E+03 -0.40248908162E+02 -0.22666997867E+03  0.30134038567E+03  0.10566000000E+00 0. -1.
<mgrwt>
<rscale>  1 0.67924971E+03</rscale>
<asrwt>0</asrwt>
<pdfrwt beam="1">  1       21 0.38041619E-01 0.10234677E+04</pdfrwt>
<pdfrwt beam="2">  1        4 0.23252255E+00 0.10234677E+04</pdfrwt>
<totfact> 0.21762250E+01</totfact>
</mgrwt>
</event>
<event>
 6    1  0.2415530E-005  0.1030449E+04  0.7818608E-02  0.9612270E-01
         21   -1    0    0  501  502  0.00000000000E+00  0.00000000000E+00  0.12107335043E+04  0.12107335043E+04  0.00000000000E+00 0.  1.
          4   -1    0    0  502    0 -0.00000000000E+00 -0.00000000000E+00 -0.38910071796E+03  0.38910071796E+03  0.00000000000E+00 0.  1.
    9000010    2    1    2  501    0 -0.23934833346E+03 -0.20144969502E+03  0.48050054775E+03  0.11369726666E+04  0.98181284562E+03 0.  0.
        -13    1    3    3    0    0  0.20879393222E+03  0.15108066487E+02 -0.20290114140E+03  0.29153395025E+03  0.10566000000E+00 0.  1.
          4    1    3    3  501    0 -0.44814226568E+03 -0.21655776151E+03  0.68340168914E+03  0.84543871634E+03  0.00000000000E+00 0.  1.
         13    1    1    2    0    0  0.23934833346E+03  0.20144969502E+03  0.34113223861E+03  0.46286155569E+03  0.10566000000E+00 0. -1.
<mgrwt>
<rscale>  1 0.76489365E+03</rscale>
<asrwt>0</asrwt>
<pdfrwt beam="1">  1       21 0.18626669E+00 0.10304494E+04</pdfrwt>
<pdfrwt beam="2">  1        4 0.59861649E-01 0.10304494E+04</pdfrwt>
<totfact> 0.15065963E+01</totfact>
</mgrwt>
</event>
<event>
 6    1  0.2415530E-005  0.1288501E+04  0.7818608E-02  0.9160362E-01
         21   -1    0    0  501  502  0.00000000000E+00  0.00000000000E+00  0.73606928095E+03  0.73606928095E+03  0.00000000000E+00 0. -1.
          4   -1    0    0  502    0 -0.00000000000E+00 -0.00000000000E+00 -0.16611994557E+04  0.16611994557E+04  0.00000000000E+00 0.  1.
    9000010    2    1    2  501    0 -0.30223918402E+03  0.75116101310E+03 -0.18770134342E+03  0.13021008571E+04  0.10023190389E+04 0.  0.
        -13    1    3    3    0    0 -0.36007835387E+03  0.95566985630E+03 -0.29638474236E+03  0.10633932583E+04  0.10566000000E+00 0.  1.
          4    1    3    3  501    0  0.57839169855E+02 -0.20450884320E+03  0.10868339894E+03  0.23870759880E+03  0.00000000000E+00 0.  1.
         13    1    1    2    0    0  0.30223918402E+03 -0.75116101310E+03 -0.73742883134E+03  0.10951678796E+04  0.10566000000E+00 0. -1.
<mgrwt>
<rscale>  1 0.11472095E+04</rscale>
<asrwt>0</asrwt>
<pdfrwt beam="1">  1       21 0.11324143E+00 0.12885010E+04</pdfrwt>
<pdfrwt beam="2">  1        4 0.25556914E+00 0.12885010E+04</pdfrwt>
<totfact> 0.12480202E+00</totfact>
</mgrwt>
</event>
<event>
 6    1  0.2415530E-005  0.1007872E+04  0.7818608E-02  0.1006891E+00
          4   -1    0    0  502    0 -0.00000000000E+00  0.00000000000E+00  0.38215538443E+03  0.38215538443E+03  0.00000000000E+00 0.  1.
         21   -1    0    0  501  502  0.00000000000E+00 -0.00000000000E+00 -0.78238107117E+03  0.78238107117E+03  0.00000000000E+00 0.  1.
    9000010    2    1    2  501    0  0.71468204469E+02  0.24361675196E+02 -0.41063839599E+03  0.10883155192E+04  0.10050400895E+04 0.  0.
        -13    1    3    3    0    0  0.16202851183E+03 -0.32984352704E+03 -0.57902813881E+03  0.68580142000E+03  0.10566000000E+00 0.  1.
          4    1    3    3  501    0 -0.90560307359E+02  0.35420520223E+03  0.16838974283E+03  0.40251409919E+03  0.00000000000E+00 0.  1.
         13    1    1    2    0    0 -0.71468204469E+02 -0.24361675196E+02  0.10412709246E+02  0.76220936404E+02  0.10566000000E+00 0. -1.
<mgrwt>
<rscale>  1 0.52729058E+03</rscale>
<asrwt>0</asrwt>
<pdfrwt beam="2">  1       21 0.12036632E+00 0.10078724E+04</pdfrwt>
<pdfrwt beam="1">  1        4 0.58793138E-01 0.10078724E+04</pdfrwt>
<totfact> 0.53374382E+01</totfact>
</mgrwt>
</event>
<event>
 6    1  0.2415530E-005  0.1014906E+04  0.7818608E-02  0.9728785E-01
         21   -1    0    0  501  502  0.00000000000E+00  0.00000000000E+00  0.60039482228E+03  0.60039482228E+03  0.00000000000E+00 0.  1.
          4   -1    0    0  502    0 -0.00000000000E+00 -0.00000000000E+00 -0.99945817273E+03  0.99945817273E+03  0.00000000000E+00 0.  1.
    9000010    2    1    2  501    0  0.21539230141E+03  0.49418431806E+02  0.13313132945E+03  0.10236002611E+04  0.99055414726E+03 0.  0.
        -13    1    3    3    0    0  0.49728918307E+03 -0.27199862616E+03 -0.26029547332E+02  0.56741284152E+03  0.10566000000E+00 0.  1.
          4    1    3    3  501    0 -0.28189688166E+03  0.32141705797E+03  0.15916087678E+03  0.45618741953E+03  0.00000000000E+00 0.  1.
         13    1    1    2    0    0 -0.21539230141E+03 -0.49418431806E+02 -0.53219467991E+03  0.57625273396E+03  0.10566000000E+00 0. -1.
<mgrwt>
<rscale>  1 0.69328502E+03</rscale>
<asrwt>0</asrwt>
<pdfrwt beam="1">  1       21 0.92368435E-01 0.10149057E+04</pdfrwt>
<pdfrwt beam="2">  1        4 0.15376279E+00 0.10149057E+04</pdfrwt>
<totfact> 0.10318667E+01</totfact>
</mgrwt>
</event>
<event>
 6    1  0.2415530E-005  0.9303867E+03  0.7818608E-02  0.9911682E-01
          4   -1    0    0  502    0 -0.00000000000E+00  0.00000000000E+00  0.36147153970E+03  0.36147153970E+03  0.00000000000E+00 0.  1.
         21   -1    0    0  501  502  0.00000000000E+00 -0.00000000000E+00 -0.90481063849E+03  0.90481063849E+03  0.00000000000E+00 0.  1.
    9000010    2    1    2  501    0  0.98910945346E+02 -0.12283877104E+03 -0.59015134575E+03  0.11017703658E+04  0.91692234640E+03 0.  0.
        -13    1    3    3    0    0 -0.14408967822E+03 -0.28042509243E+03 -0.71876582914E+03  0.78487221644E+03  0.10566000000E+00 0.  1.
          4    1    3    3  501    0  0.24300062356E+03  0.15758632139E+03  0.12861448339E+03  0.31689814938E+03  0.00000000000E+00 0.  1.
         13    1    1    2    0    0 -0.98910945346E+02  0.12283877104E+03  0.46812246960E+02  0.16451181237E+03  0.10566000000E+00 0. -1.
<mgrwt>
<rscale>  1 0.59698453E+03</rscale>
<asrwt>0</asrwt>
<pdfrwt beam="2">  1       21 0.13920164E+00 0.93038666E+03</pdfrwt>
<pdfrwt beam="1">  1        4 0.55611006E-01 0.93038666E+03</pdfrwt>
<totfact> 0.41223029E+01</totfact>
</mgrwt>
</event>
<event>
 6    1  0.2415530E-005  0.1054263E+04  0.7818608E-02  0.9729107E-01
          4   -1    0    0  502    0 -0.00000000000E+00  0.00000000000E+00  0.18574806726E+04  0.18574806726E+04  0.00000000000E+00 0.  1.
         21   -1    0    0  501  502  0.00000000000E+00 -0.00000000000E+00 -0.26127197676E+03  0.26127197676E+03  0.00000000000E+00 0.  1.
    9000010    2    1    2  501    0 -0.16990372169E+02 -0.19620638558E+03  0.87173593314E+03  0.13679887627E+04  0.10357046390E+04 0.  0.
        -13    1    3    3    0    0 -0.46067557878E+03  0.10316248362E+03  0.61238605786E+03  0.77322776847E+03  0.10566000000E+00 0.  1.
          4    1    3    3  501    0  0.44368520661E+03 -0.29936886920E+03  0.25934987528E+03  0.59476099420E+03  0.00000000000E+00 0.  1.
         13    1    1    2    0    0  0.16990372169E+02  0.19620638558E+03  0.72447276267E+03  0.75076388665E+03  0.10566000000E+00 0. -1.
<mgrwt>
<rscale>  1 0.69309931E+03</rscale>
<asrwt>0</asrwt>
<pdfrwt beam="2">  1       21 0.40195690E-01 0.10542626E+04</pdfrwt>
<pdfrwt beam="1">  1        4 0.28576625E+00 0.10542626E+04</pdfrwt>
<totfact> 0.90508700E+00</totfact>
</mgrwt>
</event>
<event>
 6    1  0.2415530E-005  0.1095795E+04  0.7818608E-02  0.9388419E-01
         21   -1    0    0  501  502  0.00000000000E+00  0.00000000000E+00  0.47860139292E+03  0.47860139292E+03  0.00000000000E+00 0. -1.
          4   -1    0    0  502    0 -0.00000000000E+00 -0.00000000000E+00 -0.15608530005E+04  0.15608530005E+04  0.00000000000E+00 0.  1.
    9000010    2    1    2  501    0  0.39059282100E+03 -0.41427219629E+03 -0.43913368876E+03  0.11805103480E+04  0.93625962252E+03 0.  0.
        -13    1    3    3    0    0 -0.73698292384E+02  0.13365057735E+03  0.17738025207E+03  0.23400358996E+03  0.10566000000E+00 0.  1.
          4    1    3    3  501    0  0.46429111338E+03 -0.54792277364E+03 -0.61651394082E+03  0.94650675807E+03  0.00000000000E+00 0.  1.
         13    1    1    2    0    0 -0.39059282100E+03  0.41427219629E+03 -0.64311791880E+03  0.85894404537E+03  0.10566000000E+00 0. -1.
<mgrwt>
<rscale>  1 0.93034904E+03</rscale>
<asrwt>0</asrwt>
<pdfrwt beam="1">  1       21 0.73630984E-01 0.10957948E+04</pdfrwt>
<pdfrwt beam="2">  1        4 0.24013123E+00 0.10957948E+04</pdfrwt>
<totfact> 0.45551639E+00</totfact>
</mgrwt>
</event>
<event>
 6    1  0.2415530E-005  0.9699831E+03  0.7818608E-02  0.9794492E-01
          4   -1    0    0  502    0 -0.00000000000E+00  0.00000000000E+00  0.12862035965E+04  0.12862035965E+04  0.00000000000E+00 0.  1.
         21   -1    0    0  501  502  0.00000000000E+00 -0.00000000000E+00 -0.26903568567E+03  0.26903568567E+03  0.00000000000E+00 0.  1.
    9000010    2    1    2  501    0  0.19512541967E+03 -0.58303890798E+02  0.79792982188E+03  0.12560092304E+04  0.94836380838E+03 0.  0.
        -13    1    3    3    0    0  0.35430737388E+03 -0.79833886106E+02  0.96086091821E+03  0.10272102413E+04  0.10566000000E+00 0.  1.
          4    1    3    3  501    0 -0.15918195421E+03  0.21529995307E+02 -0.16293109633E+03  0.22879898906E+03  0.00000000000E+00 0.  1.
         13    1    1    2    0    0 -0.19512541967E+03  0.58303890798E+02  0.21923808892E+03  0.29923005177E+03  0.10566000000E+00 0. -1.
<mgrwt>
<rscale>  1 0.65658986E+03</rscale>
<asrwt>0</asrwt>
<pdfrwt beam="2">  1       21 0.41390106E-01 0.96998309E+03</pdfrwt>
<pdfrwt beam="1">  1        4 0.19787747E+00 0.96998309E+03</pdfrwt>
<totfact> 0.30654405E+01</totfact>
</mgrwt>
</event>
<event>
 6    1  0.2415530E-005  0.1041943E+04  0.7818608E-02  0.9567937E-01
          4   -1    0    0  502    0 -0.00000000000E+00  0.00000000000E+00  0.16460571343E+04  0.16460571343E+04  0.00000000000E+00 0.  1.
         21   -1    0    0  501  502  0.00000000000E+00 -0.00000000000E+00 -0.30039214975E+03  0.30039214975E+03  0.00000000000E+00 0.  1.
    9000010    2    1    2  501    0 -0.21202645457E+03 -0.28139840534E+03  0.88897643884E+03  0.13696436678E+04  0.98056330137E+03 0.  0.
        -13    1    3    3    0    0  0.23177189503E+03  0.24365708467E+03  0.17739475476E+03  0.38020507153E+03  0.10566000000E+00 0.  1.
          4    1    3    3  501    0 -0.44379834960E+03 -0.52505549001E+03  0.71158168408E+03  0.98943859628E+03  0.00000000000E+00 0.  1.
         13    1    1    2    0    0  0.21202645457E+03  0.28139840534E+03  0.45668854571E+03  0.57680561623E+03  0.10566000000E+00 0. -1.
<mgrwt>
<rscale>  1 0.79455138E+03</rscale>
<asrwt>0</asrwt>
<pdfrwt beam="2">  1       21 0.46214178E-01 0.10419427E+04</pdfrwt>
<pdfrwt beam="1">  1        4 0.25323955E+00 0.10419427E+04</pdfrwt>
<totfact> 0.10703672E+01</totfact>
</mgrwt>
</event>
<event>
 6    1  0.2415530E-005  0.1065022E+04  0.7818608E-02  0.9520361E-01
          4   -1    0    0  502    0 -0.00000000000E+00  0.00000000000E+00  0.12136187437E+04  0.12136187437E+04  0.00000000000E+00 0.  1.
         21   -1    0    0  501  502  0.00000000000E+00 -0.00000000000E+00 -0.43557758967E+03  0.43557758967E+03  0.00000000000E+00 0. -1.
    9000010    2    1    2  501    0  0.18073594340E+03  0.34454451366E+03  0.56450596975E+03  0.12053791534E+04  0.99141086866E+03 0.  0.
        -13    1    3    3    0    0 -0.24304550030E+02  0.56754032816E+03  0.67563157717E+03  0.88270650529E+03  0.10566000000E+00 0.  1.
          4    1    3    3  501    0  0.20504049343E+03 -0.22299581450E+03 -0.11112560742E+03  0.32267264813E+03  0.00000000000E+00 0.  1.
         13    1    1    2    0    0 -0.18073594340E+03 -0.34454451366E+03  0.21353518428E+03  0.44381717995E+03  0.10566000000E+00 0. -1.
<mgrwt>
<rscale>  1 0.82799215E+03</rscale>
<asrwt>0</asrwt>
<pdfrwt beam="2">  1       21 0.67011938E-01 0.10650220E+04</pdfrwt>
<pdfrwt beam="1">  1        4 0.18671057E+00 0.10650220E+04</pdfrwt>
<totfact> 0.12609541E+01</totfact>
</mgrwt>
</event>
<event>
 6    1  0.2415530E-005  0.9988972E+03  0.7818608E-02  0.1021603E+00
         21   -1    0    0  501  502  0.00000000000E+00  0.00000000000E+00  0.18547657702E+03  0.18547657702E+03  0.00000000000E+00 0.  1.
          4   -1    0    0  502    0 -0.00000000000E+00 -0.00000000000E+00 -0.15300604003E+04  0.15300604003E+04  0.00000000000E+00 0.  1.
    9000010    2    1    2  501    0 -0.39243329173E+02 -0.30054107677E+02 -0.13312538063E+04  0.16643413838E+04  0.99767342199E+03 0.  0.
        -13    1    3    3    0    0 -0.17479399508E+03 -0.38964804701E+03 -0.11737437297E+04  0.12490207746E+04  0.10566000000E+00 0.  1.
          4    1    3    3  501    0  0.13555066590E+03  0.35959393933E+03 -0.15751007661E+03  0.41532060925E+03  0.00000000000E+00 0.  1.
         13    1    1    2    0    0  0.39243329173E+02  0.30054107677E+02 -0.13330016985E+02  0.51195593459E+02  0.10566000000E+00 0. -1.
<mgrwt>
<rscale>  1 0.47112671E+03</rscale>
<asrwt>0</asrwt>
<pdfrwt beam="1">  1       21 0.28534858E-01 0.99889716E+03</pdfrwt>
<pdfrwt beam="2">  1        4 0.23539391E+00 0.99889716E+03</pdfrwt>
<totfact> 0.37647126E+01</totfact>
</mgrwt>
</event>
<event>
 6    1  0.2415530E-005  0.1044751E+04  0.7818608E-02  0.9625238E-01
          4   -1    0    0  502    0 -0.00000000000E+00  0.00000000000E+00  0.14301976632E+04  0.14301976632E+04  0.00000000000E+00 0.  1.
         21   -1    0    0  501  502  0.00000000000E+00 -0.00000000000E+00 -0.41440629831E+03  0.41440629831E+03  0.00000000000E+00 0.  1.
    9000010    2    1    2  501    0  0.19130618694E+03 -0.21418112808E+03  0.32123997324E+03  0.10930234538E+04  0.10045066139E+04 0.  0.
        -13    1    3    3    0    0  0.37608825586E+03 -0.40488441899E+03 -0.13160893457E+03  0.56806222526E+03  0.10566000000E+00 0.  1.
          4    1    3    3  501    0 -0.18478206892E+03  0.19070329091E+03  0.45284890780E+03  0.52496122853E+03  0.00000000000E+00 0.  1.
         13    1    1    2    0    0 -0.19130618694E+03  0.21418112808E+03  0.69455139165E+03  0.75158050772E+03  0.10566000000E+00 0. -1.
<mgrwt>
<rscale>  1 0.75648050E+03</rscale>
<asrwt>0</asrwt>
<pdfrwt beam="2">  1       21 0.63754816E-01 0.10447512E+04</pdfrwt>
<pdfrwt beam="1">  1        4 0.22003041E+00 0.10447512E+04</pdfrwt>
<totfact> 0.85305892E+00</totfact>
</mgrwt>
</event>
<event>
 6    1  0.2415530E-005  0.9293352E+03  0.7818608E-02  0.1015752E+00
          4   -1    0    0  502    0 -0.00000000000E+00  0.00000000000E+00  0.10470864525E+04  0.10470864525E+04  0.00000000000E+00 0.  1.
         21   -1    0    0  501  502  0.00000000000E+00 -0.00000000000E+00 -0.30264528922E+03  0.30264528922E+03  0.00000000000E+00 0.  1.
    9000010    2    1    2  501    0  0.64966888795E+00 -0.73304403841E+02  0.42485251556E+03  0.10218432353E+04  0.92643940976E+03 0.  0.
        -13    1    3    3    0    0  0.26726393478E+03 -0.39511015920E+03  0.87955425221E+02  0.48505485950E+03  0.10566000000E+00 0.  1.
          4    1    3    3  501    0 -0.26661426589E+03  0.32180575536E+03  0.33689709034E+03  0.53678837584E+03  0.00000000000E+00 0.  1.
         13    1    1    2    0    0 -0.64966888795E+00  0.73304403841E+02  0.31958864776E+03  0.32788850641E+03  0.10566000000E+00 0. -1.
<mgrwt>
<rscale>  1 0.49251129E+03</rscale>
<asrwt>0</asrwt>
<pdfrwt beam="2">  1       21 0.46560814E-01 0.92933521E+03</pdfrwt>
<pdfrwt beam="1">  1        4 0.16109022E+00 0.92933521E+03</pdfrwt>
<totfact> 0.43363003E+01</totfact>
</mgrwt>
</event>
<event>
 6    1  0.2415530E-005  0.1039302E+04  0.7818608E-02  0.9684800E-01
         21   -1    0    0  501  502  0.00000000000E+00  0.00000000000E+00  0.89812155202E+03  0.89812155202E+03  0.00000000000E+00 0.  1.
          4   -1    0    0  502    0 -0.00000000000E+00 -0.00000000000E+00 -0.48442225227E+03  0.48442225227E+03  0.00000000000E+00 0.  1.
    9000010    2    1    2  501    0  0.23558279602E+03 -0.36845721077E+02  0.46509170672E+03  0.11386215798E+04  0.10115789368E+04 0.  0.
        -13    1    3    3    0    0  0.29860486648E+03 -0.13553250726E+03  0.75652831988E+03  0.82454171317E+03  0.10566000000E+00 0.  1.
          4    1    3    3  501    0 -0.63022070461E+02  0.98686786186E+02 -0.29143661316E+03  0.31407986663E+03  0.00000000000E+00 0.  1.
         13    1    1    2    0    0 -0.23558279602E+03  0.36845721077E+02 -0.51392406965E+02  0.24392222449E+03  0.10566000000E+00 0. -1.
<mgrwt>
<rscale>  1 0.71929032E+03</rscale>
<asrwt>0</asrwt>
<pdfrwt beam="1">  1       21 0.13817255E+00 0.10393021E+04</pdfrwt>
<pdfrwt beam="2">  1        4 0.74526500E-01 0.10393021E+04</pdfrwt>
<totfact> 0.21809762E+01</totfact>
</mgrwt>
</event>
<event>
 6    1  0.2415530E-005  0.1080557E+04  0.7818608E-02  0.9505029E-01
         21   -1    0    0  501  502  0.00000000000E+00  0.00000000000E+00  0.15015072214E+04  0.15015072214E+04  0.00000000000E+00 0.  1.
          4   -1    0    0  502    0 -0.00000000000E+00 -0.00000000000E+00 -0.36426829391E+03  0.36426829391E+03  0.00000000000E+00 0.  1.
    9000010    2    1    2  501    0 -0.16800577656E+03  0.35528181970E+03  0.90351545630E+03  0.14085252725E+04  0.10065545943E+04 0.  0.
        -13    1    3    3    0    0 -0.56300484556E+03  0.15732266297E+03  0.72667625179E+03  0.93262171457E+03  0.10566000000E+00 0.  1.
          4    1    3    3  501    0  0.39499906900E+03  0.19795915673E+03  0.17683920451E+03  0.47590355798E+03  0.00000000000E+00 0.  1.
         13    1    1    2    0    0  0.16800577656E+03 -0.35528181970E+03  0.23372347119E+03  0.45725024278E+03  0.10566000000E+00 0. -1.
<mgrwt>
<rscale>  1 0.83914038E+03</rscale>
<asrwt>0</asrwt>
<pdfrwt beam="1">  1       21 0.23100111E+00 0.10805569E+04</pdfrwt>
<pdfrwt beam="2">  1        4 0.56041277E-01 0.10805569E+04</pdfrwt>
<totfact> 0.85873996E+00</totfact>
</mgrwt>
</event>
<event>
 6    1  0.2415530E-005  0.1022631E+04  0.7818608E-02  0.9780149E-01
         21   -1    0    0  501  502  0.00000000000E+00  0.00000000000E+00  0.71621190639E+03  0.71621190639E+03  0.00000000000E+00 0.  1.
          4   -1    0    0  502    0 -0.00000000000E+00 -0.00000000000E+00 -0.65404089043E+03  0.65404089043E+03  0.00000000000E+00 0.  1.
    9000010    2    1    2  501    0  0.17991886653E+03  0.28692440994E+02 -0.20879660304E+03  0.10437294188E+04  0.10062708499E+04 0.  0.
        -13    1    3    3    0    0 -0.20600609972E+01 -0.46458084734E+03 -0.22819129454E+03  0.51760108736E+03  0.10566000000E+00 0.  1.
          4    1    3    3  501    0  0.18197892753E+03  0.49327328833E+03  0.19394691502E+02  0.52612833140E+03  0.00000000000E+00 0.  1.
         13    1    1    2    0    0 -0.17991886653E+03 -0.28692440994E+02  0.27096761900E+03  0.32652337806E+03  0.10566000000E+00 0. -1.
<mgrwt>
<rscale>  1 0.66438829E+03</rscale>
<asrwt>0</asrwt>
<pdfrwt beam="1">  1       21 0.11018645E+00 0.10226314E+04</pdfrwt>
<pdfrwt beam="2">  1        4 0.10062168E+00 0.10226314E+04</pdfrwt>
<totfact> 0.19591074E+01</totfact>
</mgrwt>
</event>
<event>
 6    1  0.2415530E-005  0.1035011E+04  0.7818608E-02  0.9659383E-01
         21   -1    0    0  501  502  0.00000000000E+00  0.00000000000E+00  0.91804101667E+03  0.91804101667E+03  0.00000000000E+00 0.  1.
          4   -1    0    0  502    0 -0.00000000000E+00 -0.00000000000E+00 -0.66573396816E+03  0.66573396816E+03  0.00000000000E+00 0.  1.
    9000010    2    1    2  501    0 -0.78270596703E+02  0.25112233921E+03  0.56176020984E+03  0.11776346325E+04  0.10010295094E+04 0.  0.
        -13    1    3    3    0    0 -0.48962268238E+03  0.19243351455E+03  0.65119992147E+02  0.53009589053E+03  0.10566000000E+00 0.  1.
          4    1    3    3  501    0  0.41135208567E+03  0.58688824669E+02  0.49664021769E+03  0.64753874197E+03  0.00000000000E+00 0.  1.
         13    1    1    2    0    0  0.78270596703E+02 -0.25112233921E+03 -0.30945316134E+03  0.40614035232E+03  0.10566000000E+00 0. -1.
<mgrwt>
<rscale>  1 0.73487470E+03</rscale>
<asrwt>0</asrwt>
<pdfrwt beam="1">  1       21 0.14123708E+00 0.10350115E+04</pdfrwt>
<pdfrwt beam="2">  1        4 0.10242061E+00 0.10350115E+04</pdfrwt>
<totfact> 0.97601048E+00</totfact>
</mgrwt>
</event>
<event>
 6    1  0.2415530E-005  0.1117907E+04  0.7818608E-02  0.9458375E-01
         21   -1    0    0  501  502  0.00000000000E+00  0.00000000000E+00  0.15584275074E+04  0.15584275074E+04  0.00000000000E+00 0. -1.
          4   -1    0    0  502    0 -0.00000000000E+00 -0.00000000000E+00 -0.57320798760E+03  0.57320798760E+03  0.00000000000E+00 0.  1.
    9000010    2    1    2  501    0  0.13363633570E+03  0.39618321422E+03  0.63726482779E+02  0.11197218436E+04  0.10367719773E+04 0.  0.
        -13    1    3    3    0    0  0.51264982124E+03  0.16125054207E+03 -0.23126384970E+03  0.58505944645E+03  0.10566000000E+00 0.  1.
          4    1    3    3  501    0 -0.37901348554E+03  0.23493267216E+03  0.29499033248E+03  0.53466239715E+03  0.00000000000E+00 0.  1.
         13    1    1    2    0    0 -0.13363633570E+03 -0.39618321422E+03  0.92149303706E+03  0.10119136514E+04  0.10566000000E+00 0. -1.
<mgrwt>
<rscale>  1 0.87423488E+03</rscale>
<asrwt>0</asrwt>
<pdfrwt beam="1">  1       21 0.23975808E+00 0.11179069E+04</pdfrwt>
<pdfrwt beam="2">  1        4 0.88185845E-01 0.11179069E+04</pdfrwt>
<totfact> 0.27067406E+00</totfact>
</mgrwt>
</event>
<event>
 6    1  0.2415530E-005  0.1056469E+04  0.7818608E-02  0.9563763E-01
          4   -1    0    0  502    0 -0.00000000000E+00  0.00000000000E+00  0.97542593716E+03  0.97542593716E+03  0.00000000000E+00 0.  1.
         21   -1    0    0  501  502  0.00000000000E+00 -0.00000000000E+00 -0.56495440931E+03  0.56495440931E+03  0.00000000000E+00 0.  1.
    9000010    2    1    2  501    0 -0.18060160181E+03 -0.29148926829E+03  0.72558701237E+02  0.10589574330E+04  0.99927130830E+03 0.  0.
        -13    1    3    3    0    0 -0.33048560718E+03 -0.34465836537E+03  0.44579207855E+03  0.65325394284E+03  0.10566000000E+00 0.  1.
          4    1    3    3  501    0  0.14988400537E+03  0.53169097077E+02 -0.37323337732E+03  0.40570349012E+03  0.00000000000E+00 0.  1.
         13    1    1    2    0    0  0.18060160181E+03  0.29148926829E+03  0.33791282661E+03  0.48142291351E+03  0.10566000000E+00 0. -1.
<mgrwt>
<rscale>  1 0.79741704E+03</rscale>
<asrwt>0</asrwt>
<pdfrwt beam="2">  1       21 0.86916063E-01 0.10564687E+04</pdfrwt>
<pdfrwt beam="1">  1        4 0.15006553E+00 0.10564687E+04</pdfrwt>
<totfact> 0.12705016E+01</totfact>
</mgrwt>
</event>
<event>
 6    1  0.2415530E-005  0.9947138E+03  0.7818608E-02  0.1022275E+00
         21   -1    0    0  501  502  0.00000000000E+00  0.00000000000E+00  0.10190203840E+04  0.10190203840E+04  0.00000000000E+00 0.  1.
          4   -1    0    0  502    0 -0.00000000000E+00 -0.00000000000E+00 -0.36216315941E+03  0.36216315941E+03  0.00000000000E+00 0.  1.
    9000010    2    1    2  501    0 -0.18016005003E+01 -0.49018027222E+02  0.76996633034E+03  0.12578965055E+04  0.99350362649E+03 0.  0.
        -13    1    3    3    0    0  0.15501696577E+03 -0.44706626643E+03  0.13466124827E+03  0.49196765057E+03  0.10566000000E+00 0.  1.
          4    1    3    3  501    0 -0.15681856627E+03  0.39804823921E+03  0.63530508207E+03  0.76592885490E+03  0.00000000000E+00 0.  1.
         13    1    1    2    0    0  0.18016005003E+01  0.49018027222E+02 -0.11310910575E+03  0.12328703794E+03  0.10566000000E+00 0. -1.
<mgrwt>
<rscale>  1 0.46874439E+03</rscale>
<asrwt>0</asrwt>
<pdfrwt beam="1">  1       21 0.15677237E+00 0.99471376E+03</pdfrwt>
<pdfrwt beam="2">  1        4 0.55717409E-01 0.99471376E+03</pdfrwt>
<totfact> 0.29336239E+01</totfact>
</mgrwt>
</event>
<event>
 6    1  0.2415530E-005  0.1044304E+04  0.7818608E-02  0.9720932E-01
          4   -1    0    0  502    0 -0.00000000000E+00  0.00000000000E+00  0.99811041951E+03  0.99811041951E+03  0.00000000000E+00 0.  1.
         21   -1    0    0  501  502  0.00000000000E+00 -0.00000000000E+00 -0.45756756792E+03  0.45756756792E+03  0.00000000000E+00 0.  1.
    9000010    2    1    2  501    0  0.13408251606E+03  0.15931659476E+03  0.21030172182E+03  0.10652690820E+04  0.10233335255E+04 0.  0.
        -13    1    3    3    0    0 -0.91768460281E+02 -0.26845818066E+03 -0.26418942749E+03  0.38766907257E+03  0.10566000000E+00 0.  1.
          4    1    3    3  501    0  0.22585097634E+03  0.42777477543E+03  0.47449114931E+03  0.67760000943E+03  0.00000000000E+00 0.  1.
         13    1    1    2    0    0 -0.13408251606E+03 -0.15931659476E+03  0.33024112977E+03  0.39040890543E+03  0.10566000000E+00 0. -1.
<mgrwt>
<rscale>  1 0.69784077E+03</rscale>
<asrwt>0</asrwt>
<pdfrwt beam="2">  1       21 0.70395011E-01 0.10443043E+04</pdfrwt>
<pdfrwt beam="1">  1        4 0.15355545E+00 0.10443043E+04</pdfrwt>
<totfact> 0.19601830E+01</totfact>
</mgrwt>
</event>
<event>
 6    1  0.2415530E-005  0.1018305E+04  0.7818608E-02  0.9783579E-01
          4   -1    0    0  502    0 -0.00000000000E+00  0.00000000000E+00  0.64641333141E+03  0.64641333141E+03  0.00000000000E+00 0.  1.
         21   -1    0    0  501  502  0.00000000000E+00 -0.00000000000E+00 -0.64426215145E+03  0.64426215145E+03  0.00000000000E+00 0.  1.
    9000010    2    1    2  501    0 -0.15953456659E+03 -0.88524919791E+02 -0.17860284450E+03  0.10338487555E+04  0.10018264989E+04 0.  0.
        -13    1    3    3    0    0  0.23330568353E+03  0.95561041030E+02 -0.45448171151E+03  0.51972790168E+03  0.10566000000E+00 0.  1.
          4    1    3    3  501    0 -0.39284025012E+03 -0.18408596082E+03  0.27587886701E+03  0.51412085383E+03  0.00000000000E+00 0.  1.
         13    1    1    2    0    0  0.15953456659E+03  0.88524919791E+02  0.18075402446E+03  0.25682672735E+03  0.10566000000E+00 0. -1.
<mgrwt>
<rscale>  1 0.66251263E+03</rscale>
<asrwt>0</asrwt>
<pdfrwt beam="2">  1       21 0.99117254E-01 0.10183046E+04</pdfrwt>
<pdfrwt beam="1">  1        4 0.99448205E-01 0.10183046E+04</pdfrwt>
<totfact> 0.26297446E+01</totfact>
</mgrwt>
</event>
<event>
 6    1  0.2415530E-005  0.1064800E+04  0.7818608E-02  0.9517098E-01
         21   -1    0    0  501  502  0.00000000000E+00  0.00000000000E+00  0.10443600141E+04  0.10443600141E+04  0.00000000000E+00 0.  1.
          4   -1    0    0  502    0 -0.00000000000E+00 -0.00000000000E+00 -0.11894291528E+04  0.11894291528E+04  0.00000000000E+00 0.  1.
    9000010    2    1    2  501    0  0.13547021003E+02  0.39353342706E+03  0.71859729527E+03  0.12845938233E+04  0.98931650044E+03 0.  0.
        -13    1    3    3    0    0  0.89921528399E+02  0.66470472309E+03  0.74400461482E+03  0.10017290693E+04  0.10566000000E+00 0.  1.
          4    1    3    3  501    0 -0.76374507396E+02 -0.27117129604E+03 -0.25407319555E+02  0.28286475401E+03  0.00000000000E+00 0.  1.
         13    1    1    2    0    0 -0.13547021003E+02 -0.39353342706E+03 -0.86366643403E+03  0.94919534366E+03  0.10566000000E+00 0. -1.
<mgrwt>
<rscale>  1 0.83034918E+03</rscale>
<asrwt>0</asrwt>
<pdfrwt beam="1">  1       21 0.16067077E+00 0.10648001E+04</pdfrwt>
<pdfrwt beam="2">  1        4 0.18298910E+00 0.10648001E+04</pdfrwt>
<totfact> 0.14719593E+00</totfact>
</mgrwt>
</event>
<event>
 6    1  0.2415530E-005  0.9869007E+03  0.7818608E-02  0.1011471E+00
         21   -1    0    0  501  502  0.00000000000E+00  0.00000000000E+00  0.31619489446E+03  0.31619489446E+03  0.00000000000E+00 0.  1.
          4   -1    0    0  502    0 -0.00000000000E+00 -0.00000000000E+00 -0.11284540261E+04  0.11284540261E+04  0.00000000000E+00 0.  1.
    9000010    2    1    2  501    0  0.50362839391E+02 -0.48327628959E+02 -0.46593479390E+03  0.10913607473E+04  0.98442931346E+03 0.  0.
        -13    1    3    3    0    0 -0.29861664026E+03 -0.39486677274E+03 -0.22989782077E+03  0.54584309579E+03  0.10566000000E+00 0.  1.
          4    1    3    3  501    0  0.34897947966E+03  0.34653914378E+03 -0.23603697312E+03  0.54551765148E+03  0.00000000000E+00 0.  1.
         13    1    1    2    0    0 -0.50362839391E+02  0.48327628959E+02 -0.34632433775E+03  0.35328817330E+03  0.10566000000E+00 0. -1.
<mgrwt>
<rscale>  1 0.50894208E+03</rscale>
<asrwt>0</asrwt>
<pdfrwt beam="1">  1       21 0.48645368E-01 0.98690073E+03</pdfrwt>
<pdfrwt beam="2">  1        4 0.17360831E+00 0.98690073E+03</pdfrwt>
<totfact> 0.31855329E+01</totfact>
</mgrwt>
</event>
<event>
 6    1  0.2415530E-005  0.1019722E+04  0.7818608E-02  0.9676508E-01
         21   -1    0    0  501  502  0.00000000000E+00  0.00000000000E+00  0.18616667396E+04  0.18616667396E+04  0.00000000000E+00 0.  1.
          4   -1    0    0  502    0 -0.00000000000E+00 -0.00000000000E+00 -0.25675974251E+03  0.25675974251E+03  0.00000000000E+00 0.  1.
    9000010    2    1    2  501    0  0.52031380071E+02  0.25432778113E+03  0.15463567639E+04  0.18523099179E+04  0.98612519804E+03 0.  0.
        -13    1    3    3    0    0  0.66031431920E+02  0.63483255613E+03  0.93503073038E+03  0.11321020282E+04  0.10566000000E+00 0.  1.
          4    1    3    3  501    0 -0.14000051850E+02 -0.38050477500E+03  0.61132603348E+03  0.72020788975E+03  0.00000000000E+00 0.  1.
         13    1    1    2    0    0 -0.52031380071E+02 -0.25432778113E+03  0.58550233281E+02  0.26611656421E+03  0.10566000000E+00 0. -1.
<mgrwt>
<rscale>  1 0.72432865E+03</rscale>
<asrwt>0</asrwt>
<pdfrwt beam="1">  1       21 0.28641026E+00 0.10197219E+04</pdfrwt>
<pdfrwt beam="2">  1        4 0.39501500E-01 0.10197219E+04</pdfrwt>
<totfact> 0.80274318E+00</totfact>
</mgrwt>
</event>
<event>
 6    1  0.2415530E-005  0.1102884E+04  0.7818608E-02  0.9445663E-01
         21   -1    0    0  501  502  0.00000000000E+00  0.00000000000E+00  0.19409122997E+04  0.19409122997E+04  0.00000000000E+00 0.  1.
          4   -1    0    0  502    0 -0.00000000000E+00 -0.00000000000E+00 -0.57133420667E+03  0.57133420667E+03  0.00000000000E+00 0.  1.
    9000010    2    1    2  501    0  0.32150203281E+03 -0.32259898280E+03  0.16446263968E+04  0.19801889519E+04  0.10044494210E+04 0.  0.
        -13    1    3    3    0    0  0.33748891988E+03 -0.58484444499E+03  0.60086976485E+03  0.90387293430E+03  0.10566000000E+00 0.  1.
          4    1    3    3  501    0 -0.15986887064E+02  0.26224546219E+03  0.10437566319E+04  0.10763160176E+04  0.00000000000E+00 0.  1.
         13    1    1    2    0    0 -0.32150203281E+03  0.32259898280E+03 -0.27504830370E+03  0.53205755454E+03  0.10566000000E+00 0. -1.
<mgrwt>
<rscale>  1 0.88411177E+03</rscale>
<asrwt>0</asrwt>
<pdfrwt beam="1">  1       21 0.29860189E+00 0.11028836E+04</pdfrwt>
<pdfrwt beam="2">  1        4 0.87897572E-01 0.11028836E+04</pdfrwt>
<totfact> 0.11631530E+00</totfact>
</mgrwt>
</event>
<event>
 6    1  0.2415530E-005  0.9725757E+03  0.7818608E-02  0.9688164E-01
          4   -1    0    0  502    0 -0.00000000000E+00  0.00000000000E+00  0.17000990814E+04  0.17000990814E+04  0.00000000000E+00 0.  1.
         21   -1    0    0  501  502  0.00000000000E+00 -0.00000000000E+00 -0.23498980180E+03  0.23498980180E+03  0.00000000000E+00 0. -1.
    9000010    2    1    2  501    0  0.12237124593E+03 -0.26037277499E+03  0.11917179635E+04  0.15382116646E+04  0.92905043821E+03 0.  0.
        -13    1    3    3    0    0  0.74793336428E+02 -0.11260893331E+03 -0.14166910469E+03  0.19581869529E+03  0.10566000000E+00 0.  1.
          4    1    3    3  501    0  0.47577909499E+02 -0.14776384167E+03  0.13333870682E+04  0.13423929693E+04  0.00000000000E+00 0.  1.
         13    1    1    2    0    0 -0.12237124593E+03  0.26037277499E+03  0.27339131610E+03  0.39687721863E+03  0.10566000000E+00 0. -1.
<mgrwt>
<rscale>  1 0.71725879E+03</rscale>
<asrwt>0</asrwt>
<pdfrwt beam="2">  1       21 0.36152278E-01 0.97257566E+03</pdfrwt>
<pdfrwt beam="1">  1        4 0.26155370E+00 0.97257566E+03</pdfrwt>
<totfact> 0.16060632E+01</totfact>
</mgrwt>
</event>
<event>
 6    1  0.2415530E-005  0.1064711E+04  0.7818608E-02  0.9548296E-01
          4   -1    0    0  502    0 -0.00000000000E+00  0.00000000000E+00  0.65171888029E+03  0.65171888029E+03  0.00000000000E+00 0.  1.
         21   -1    0    0  501  502  0.00000000000E+00 -0.00000000000E+00 -0.17832154542E+04  0.17832154542E+04  0.00000000000E+00 0.  1.
    9000010    2    1    2  501    0 -0.30250125158E+03 -0.18272047633E+03 -0.15542267079E+04  0.18839401811E+04  0.10043486282E+04 0.  0.
        -13    1    3    3    0    0 -0.93550440391E+02 -0.20535001403E+03 -0.16410850749E+04  0.16565266516E+04  0.10566000000E+00 0.  1.
          4    1    3    3  501    0 -0.20895081118E+03  0.22629537702E+02  0.86858367077E+02  0.22741352951E+03  0.00000000000E+00 0.  1.
         13    1    1    2    0    0  0.30250125158E+03  0.18272047633E+03  0.42273013398E+03  0.55099415334E+03  0.10566000000E+00 0. -1.
<mgrwt>
<rscale>  1 0.80814906E+03</rscale>
<asrwt>0</asrwt>
<pdfrwt beam="2">  1       21 0.27434083E+00 0.10647112E+04</pdfrwt>
<pdfrwt beam="1">  1        4 0.10026445E+00 0.10647112E+04</pdfrwt>
<totfact> 0.12139518E+00</totfact>
</mgrwt>
</event>
<event>
 6    1  0.2415530E-005  0.1088866E+04  0.7818608E-02  0.9477624E-01
          4   -1    0    0  502    0 -0.00000000000E+00  0.00000000000E+00  0.10728372900E+04  0.10728372900E+04  0.00000000000E+00 0.  1.
         21   -1    0    0  501  502  0.00000000000E+00 -0.00000000000E+00 -0.76666692813E+03  0.76666692813E+03  0.00000000000E+00 0.  1.
    9000010    2    1    2  501    0  0.26034720249E+01  0.42279375765E+03 -0.27286578558E+03  0.11225354526E+04  0.10034285056E+04 0.  0.
        -13    1    3    3    0    0  0.74638985534E+02  0.71427138370E+03 -0.36881693601E+03  0.80732925822E+03  0.10566000000E+00 0.  1.
          4    1    3    3  501    0 -0.72035513509E+02 -0.29147762605E+03  0.95951150432E+02  0.31520619436E+03  0.00000000000E+00 0.  1.
         13    1    1    2    0    0 -0.26034720249E+01 -0.42279375765E+03  0.57903614748E+03  0.71696876559E+03  0.10566000000E+00 0. -1.
<mgrwt>
<rscale>  1 0.85953816E+03</rscale>
<asrwt>0</asrwt>
<pdfrwt beam="2">  1       21 0.11794876E+00 0.10888664E+04</pdfrwt>
<pdfrwt beam="1">  1        4 0.16505189E+00 0.10888664E+04</pdfrwt>
<totfact> 0.45623073E+00</totfact>
</mgrwt>
</event>
<event>
 6    1  0.2415530E-005  0.1016331E+04  0.7818608E-02  0.9816868E-01
         21   -1    0    0  501  502  0.00000000000E+00  0.00000000000E+00  0.15281227318E+04  0.15281227318E+04  0.00000000000E+00 0.  1.
          4   -1    0    0  502    0 -0.00000000000E+00 -0.00000000000E+00 -0.29515047890E+03  0.29515047890E+03  0.00000000000E+00 0.  1.
    9000010    2    1    2  501    0  0.55592797746E+02  0.15483275027E+03  0.12961062966E+04  0.16470640783E+04  0.10029281162E+04 0.  0.
        -13    1    3    3    0    0  0.30873754239E+03  0.28286378746E+03  0.11764255757E+03  0.43493743786E+03  0.10566000000E+00 0.  1.
          4    1    3    3  501    0 -0.25314474465E+03 -0.12803103719E+03  0.11784637390E+04  0.12121266404E+04  0.00000000000E+00 0.  1.
         13    1    1    2    0    0 -0.55592797746E+02 -0.15483275027E+03 -0.63134043679E+02  0.17620913243E+03  0.10566000000E+00 0. -1.
<mgrwt>
<rscale>  1 0.64465129E+03</rscale>
<asrwt>0</asrwt>
<pdfrwt beam="1">  1       21 0.23509580E+00 0.10163309E+04</pdfrwt>
<pdfrwt beam="2">  1        4 0.45407767E-01 0.10163309E+04</pdfrwt>
<totfact> 0.12719872E+01</totfact>
</mgrwt>
</event>
<event>
 6    1  0.2415530E-005  0.1080114E+04  0.7818608E-02  0.9520559E-01
          4   -1    0    0  502    0 -0.00000000000E+00  0.00000000000E+00  0.14612583564E+04  0.14612583564E+04  0.00000000000E+00 0.  1.
         21   -1    0    0  501  502  0.00000000000E+00 -0.00000000000E+00 -0.44665814089E+03  0.44665814089E+03  0.00000000000E+00 0.  1.
    9000010    2    1    2  501    0 -0.20627657448E+03  0.31044830663E+03  0.33166675192E+03  0.11298893107E+04  0.10137646886E+04 0.  0.
        -13    1    3    3    0    0  0.15307412939E+03  0.83595667170E+02 -0.31267318551E+03  0.35802856975E+03  0.10566000000E+00 0.  1.
          4    1    3    3  501    0 -0.35935070387E+03  0.22685263946E+03  0.64433993743E+03  0.77186074092E+03  0.00000000000E+00 0.  1.
         13    1    1    2    0    0  0.20627657448E+03 -0.31044830663E+03  0.68293346360E+03  0.77802718664E+03  0.10566000000E+00 0. -1.
<mgrwt>
<rscale>  1 0.82784895E+03</rscale>
<asrwt>0</asrwt>
<pdfrwt beam="2">  1       21 0.68716638E-01 0.10801144E+04</pdfrwt>
<pdfrwt beam="1">  1        4 0.22480898E+00 0.10801144E+04</pdfrwt>
<totfact> 0.66813161E+00</totfact>
</mgrwt>
</event>
<event>
 6    1  0.2415530E-005  0.1083549E+04  0.7818608E-02  0.9519821E-01
          4   -1    0    0  502    0 -0.00000000000E+00  0.00000000000E+00  0.12296499409E+04  0.12296499409E+04  0.00000000000E+00 0.  1.
         21   -1    0    0  501  502  0.00000000000E+00 -0.00000000000E+00 -0.57618808257E+03  0.57618808257E+03  0.00000000000E+00 0.  1.
    9000010    2    1    2  501    0  0.36953290593E+03 -0.21327591355E+02  0.33842206011E+02  0.10840777035E+04  0.10183662100E+04 0.  0.
        -13    1    3    3    0    0  0.24288700329E+03  0.48573153872E+03 -0.80701025091E+02  0.54903723980E+03  0.10566000000E+00 0.  1.
          4    1    3    3  501    0  0.12664590264E+03 -0.50705913008E+03  0.11454323110E+03  0.53504046374E+03  0.00000000000E+00 0.  1.
         13    1    1    2    0    0 -0.36953290593E+03  0.21327591355E+02  0.61961965231E+03  0.72176031992E+03  0.10566000000E+00 0. -1.
<mgrwt>
<rscale>  1 0.82838139E+03</rscale>
<asrwt>0</asrwt>
<pdfrwt beam="2">  1       21 0.88644321E-01 0.10835493E+04</pdfrwt>
<pdfrwt beam="1">  1        4 0.18917691E+00 0.10835493E+04</pdfrwt>
<totfact> 0.62906004E+00</totfact>
</mgrwt>
</event>
<event>
 6    1  0.2415530E-005  0.1082673E+04  0.7818608E-02  0.9451704E-01
         21   -1    0    0  501  502  0.00000000000E+00  0.00000000000E+00  0.36953824909E+03  0.36953824909E+03  0.00000000000E+00 0.  1.
          4   -1    0    0  502    0 -0.00000000000E+00 -0.00000000000E+00 -0.28777978340E+04  0.28777978340E+04  0.00000000000E+00 0.  1.
    9000010    2    1    2  501    0  0.36523075730E+03 -0.29780439738E+03 -0.51461907221E+03  0.11987552401E+04  0.97473092238E+03 0.  0.
        -13    1    3    3    0    0 -0.16585715091E+03 -0.30554421617E+03 -0.56693337335E+03  0.66504084351E+03  0.10566000000E+00 0.  1.
          4    1    3    3  501    0  0.53108790821E+03  0.77398187889E+01  0.52314301143E+02  0.53371439661E+03  0.00000000000E+00 0.  1.
         13    1    1    2    0    0 -0.36523075730E+03  0.29780439738E+03 -0.19936405127E+04  0.20485808430E+04  0.10566000000E+00 0. -1.
<mgrwt>
<rscale>  1 0.87940103E+03</rscale>
<asrwt>0</asrwt>
<pdfrwt beam="1">  1       21 0.56852039E-01 0.10826732E+04</pdfrwt>
<pdfrwt beam="2">  1        4 0.44273813E+00 0.10826732E+04</pdfrwt>
<totfact> 0.38553619E-01</totfact>
</mgrwt>
</event>
<event>
 6    1  0.2415530E-005  0.1024191E+04  0.7818608E-02  0.9803669E-01
          4   -1    0    0  502    0 -0.00000000000E+00  0.00000000000E+00  0.70679265974E+03  0.70679265974E+03  0.00000000000E+00 0.  1.
         21   -1    0    0  501  502  0.00000000000E+00 -0.00000000000E+00 -0.50334137314E+03  0.50334137314E+03  0.00000000000E+00 0.  1.
    9000010    2    1    2  501    0 -0.32052873941E+02 -0.16476898194E+03  0.15870010924E+03  0.10364133284E+04  0.10103418523E+04 0.  0.
        -13    1    3    3    0    0 -0.26863478240E+03 -0.37116418156E+03  0.42483796654E+03  0.62483182135E+03  0.10566000000E+00 0.  1.
          4    1    3    3  501    0  0.23658190845E+03  0.20639519962E+03 -0.26613785730E+03  0.41158150703E+03  0.00000000000E+00 0.  1.
         13    1    1    2    0    0  0.32052873941E+02  0.16476898194E+03  0.44751177356E+02  0.17372070451E+03  0.10566000000E+00 0. -1.
<mgrwt>
<rscale>  1 0.65165990E+03</rscale>
<asrwt>0</asrwt>
<pdfrwt beam="2">  1       21 0.77437135E-01 0.10241908E+04</pdfrwt>
<pdfrwt beam="1">  1        4 0.10873733E+00 0.10241908E+04</pdfrwt>
<totfact> 0.38251199E+01</totfact>
</mgrwt>
</event>
<event>
 6    1  0.2415530E-005  0.1135194E+04  0.7818608E-02  0.9370281E-01
         21   -1    0    0  501  502  0.00000000000E+00  0.00000000000E+00  0.13635980465E+04  0.13635980465E+04  0.00000000000E+00 0.  1.
          4   -1    0    0  502    0 -0.00000000000E+00 -0.00000000000E+00 -0.83162536720E+03  0.83162536720E+03  0.00000000000E+00 0.  1.
    9000010    2    1    2  501    0  0.47566560261E+03 -0.26926627636E+03  0.97125483772E+03  0.14939881329E+04  0.99493843443E+03 0.  0.
        -13    1    3    3    0    0  0.64085614233E+03 -0.91827222554E+02  0.18810781457E+03  0.67417608607E+03  0.10566000000E+00 0.  1.
          4    1    3    3  501    0 -0.16519053972E+03 -0.17743905380E+03  0.78314702315E+03  0.81981204681E+03  0.00000000000E+00 0.  1.
         13    1    1    2    0    0 -0.47566560261E+03  0.26926627636E+03 -0.43928215847E+03  0.70123528077E+03  0.10566000000E+00 0. -1.
<mgrwt>
<rscale>  1 0.94562326E+03</rscale>
<asrwt>0</asrwt>
<pdfrwt beam="1">  1       21 0.20978431E+00 0.11351936E+04</pdfrwt>
<pdfrwt beam="2">  1        4 0.12794236E+00 0.11351936E+04</pdfrwt>
<totfact> 0.17095206E+00</totfact>
</mgrwt>
</event>
<event>
 6    1  0.2415530E-005  0.1025825E+04  0.7818608E-02  0.9701631E-01
         21   -1    0    0  501  502  0.00000000000E+00  0.00000000000E+00  0.92855424059E+03  0.92855424059E+03  0.00000000000E+00 0.  1.
          4   -1    0    0  502    0 -0.00000000000E+00 -0.00000000000E+00 -0.69547881328E+03  0.69547881328E+03  0.00000000000E+00 0.  1.
    9000010    2    1    2  501    0  0.14062822675E+03 -0.18745615778E+03  0.60018584517E+03  0.11885032853E+04  0.99869960507E+03 0.  0.
        -13    1    3    3    0    0  0.43941405798E+03 -0.25540330535E+02  0.70652646296E+03  0.83241616807E+03  0.10566000000E+00 0.  1.
          4    1    3    3  501    0 -0.29878583123E+03 -0.16191582724E+03 -0.10634061779E+03  0.35608711722E+03  0.00000000000E+00 0.  1.
         13    1    1    2    0    0 -0.14062822675E+03  0.18745615778E+03 -0.36711041786E+03  0.43552976858E+03  0.10566000000E+00 0. -1.
<mgrwt>
<rscale>  1 0.70919792E+03</rscale>
<asrwt>0</asrwt>
<pdfrwt beam="1">  1       21 0.14285450E+00 0.10258250E+04</pdfrwt>
<pdfrwt beam="2">  1        4 0.10699674E+00 0.10258250E+04</pdfrwt>
<totfact> 0.85116859E+00</totfact>
</mgrwt>
</event>
<event>
 6    1  0.2415530E-005  0.1149976E+04  0.7818608E-02  0.9395525E-01
          4   -1    0    0  502    0 -0.00000000000E+00  0.00000000000E+00  0.17011641307E+04  0.17011641307E+04  0.00000000000E+00 0.  1.
         21   -1    0    0  501  502  0.00000000000E+00 -0.00000000000E+00 -0.13947749167E+04  0.13947749167E+04  0.00000000000E+00 0.  1.
    9000010    2    1    2  501    0 -0.45822685202E+03 -0.14375506452E+03 -0.11112503945E+04  0.15991626990E+04  0.10448954647E+04 0.  0.
        -13    1    3    3    0    0 -0.65190159949E+03 -0.44212009423E+03 -0.68399180358E+03  0.10432117099E+04  0.10566000000E+00 0.  1.
          4    1    3    3  501    0  0.19367474746E+03  0.29836502972E+03 -0.42725859094E+03  0.55595098911E+03  0.00000000000E+00 0.  1.
         13    1    1    2    0    0  0.45822685202E+03  0.14375506452E+03  0.14176396085E+04  0.14967763484E+04  0.10566000000E+00 0. -1.
<mgrwt>
<rscale>  1 0.92444842E+03</rscale>
<asrwt>0</asrwt>
<pdfrwt beam="2">  1       21 0.21458076E+00 0.11499756E+04</pdfrwt>
<pdfrwt beam="1">  1        4 0.26171756E+00 0.11499756E+04</pdfrwt>
<totfact> 0.18581726E-01</totfact>
</mgrwt>
</event>
<event>
 6    1  0.2415530E-005  0.1036489E+04  0.7818608E-02  0.9633565E-01
         21   -1    0    0  501  502  0.00000000000E+00  0.00000000000E+00  0.19312593453E+04  0.19312593453E+04  0.00000000000E+00 0. -1.
          4   -1    0    0  502    0 -0.00000000000E+00 -0.00000000000E+00 -0.23493081761E+03  0.23493081761E+03  0.00000000000E+00 0.  1.
    9000010    2    1    2  501    0  0.24165947329E+03  0.15274042917E+03  0.11402900576E+04  0.15409640190E+04  0.99628296807E+03 0.  0.
        -13    1    3    3    0    0 -0.16881530825E+03 -0.25563890525E+03  0.55527548715E+02  0.31134093532E+03  0.10566000000E+00 0.  1.
          4    1    3    3  501    0  0.41047478154E+03  0.40837933442E+03  0.10847625089E+04  0.12296230836E+04  0.00000000000E+00 0.  1.
         13    1    1    2    0    0 -0.24165947329E+03 -0.15274042917E+03  0.55603847002E+03  0.62522614391E+03  0.10566000000E+00 0. -1.
<mgrwt>
<rscale>  1 0.75113925E+03</rscale>
<asrwt>0</asrwt>
<pdfrwt beam="1">  1       21 0.29711681E+00 0.10364886E+04</pdfrwt>
<pdfrwt beam="2">  1        4 0.36143204E-01 0.10364886E+04</pdfrwt>
<totfact> 0.82168632E+00</totfact>
</mgrwt>
</event>
<event>
 6    1  0.2415530E-005  0.9931406E+03  0.7818608E-02  0.1019570E+00
          4   -1    0    0  502    0 -0.00000000000E+00  0.00000000000E+00  0.71823441962E+03  0.71823441962E+03  0.00000000000E+00 0.  1.
         21   -1    0    0  501  502  0.00000000000E+00 -0.00000000000E+00 -0.40788083523E+03  0.40788083523E+03  0.00000000000E+00 0.  1.
    9000010    2    1    2  501    0  0.33724725210E+01 -0.53374854034E+02  0.21403162859E+03  0.10159418509E+04  0.99169958037E+03 0.  0.
        -13    1    3    3    0    0 -0.28136381291E+02  0.92224065096E+02  0.59714793107E+03  0.60488230002E+03  0.10566000000E+00 0.  1.
          4    1    3    3  501    0  0.31508853812E+02 -0.14559891913E+03 -0.38311630248E+03  0.41105955085E+03  0.00000000000E+00 0.  1.
         13    1    1    2    0    0 -0.33724725210E+01  0.53374854034E+02  0.96321955793E+02  0.11017340399E+03  0.10566000000E+00 0. -1.
<mgrwt>
<rscale>  1 0.47841936E+03</rscale>
<asrwt>0</asrwt>
<pdfrwt beam="2">  1       21 0.62750898E-01 0.99314063E+03</pdfrwt>
<pdfrwt beam="1">  1        4 0.11049760E+00 0.99314063E+03</pdfrwt>
<totfact> 0.59673805E+01</totfact>
</mgrwt>
</event>
<event>
 6    1  0.2415530E-005  0.1050581E+04  0.7818608E-02  0.9515258E-01
          4   -1    0    0  502    0 -0.00000000000E+00  0.00000000000E+00  0.46165302507E+03  0.46165302507E+03  0.00000000000E+00 0.  1.
         21   -1    0    0  501  502  0.00000000000E+00 -0.00000000000E+00 -0.11969327474E+04  0.11969327474E+04  0.00000000000E+00 0.  1.
    9000010    2    1    2  501    0  0.28588941977E+03  0.29751317665E+03 -0.65558269625E+03  0.12383495559E+04  0.96616463417E+03 0.  0.
        -13    1    3    3    0    0 -0.71240142868E+02 -0.10596930474E+03 -0.68684332957E+03  0.69861178206E+03  0.10566000000E+00 0.  1.
          4    1    3    3  501    0  0.35712956264E+03  0.40348248139E+03  0.31260633314E+02  0.53973777382E+03  0.00000000000E+00 0.  1.
         13    1    1    2    0    0 -0.28588941977E+03 -0.29751317665E+03 -0.79697026106E+02  0.42023621661E+03  0.10566000000E+00 0. -1.
<mgrwt>
<rscale>  1 0.83168165E+03</rscale>
<asrwt>0</asrwt>
<pdfrwt beam="2">  1       21 0.18414350E+00 0.10505812E+04</pdfrwt>
<pdfrwt beam="1">  1        4 0.71023543E-01 0.10505812E+04</pdfrwt>
<totfact> 0.10662321E+01</totfact>
</mgrwt>
</event>
<event>
 6    1  0.2415530E-005  0.1020240E+04  0.7818608E-02  0.9892290E-01
          4   -1    0    0  502    0 -0.00000000000E+00  0.00000000000E+00  0.30409065549E+03  0.30409065549E+03  0.00000000000E+00 0.  1.
         21   -1    0    0  501  502  0.00000000000E+00 -0.00000000000E+00 -0.13565898187E+04  0.13565898187E+04  0.00000000000E+00 0.  1.
    9000010    2    1    2  501    0  0.42339044784E+02  0.12005239213E+03 -0.11212966214E+04  0.15159798420E+04  0.10122665640E+04 0.  0.
        -13    1    3    3    0    0 -0.46003134500E+03 -0.10137394567E+03 -0.53149556075E+03  0.71020634854E+03  0.10566000000E+00 0.  1.
          4    1    3    3  501    0  0.50237038979E+03  0.22142633779E+03 -0.58980106061E+03  0.80577349342E+03  0.00000000000E+00 0.  1.
         13    1    1    2    0    0 -0.42339044784E+02 -0.12005239213E+03  0.68797458118E+02  0.14470063226E+03  0.10566000000E+00 0. -1.
<mgrwt>
<rscale>  1 0.60636393E+03</rscale>
<asrwt>0</asrwt>
<pdfrwt beam="2">  1       21 0.20870612E+00 0.10202396E+04</pdfrwt>
<pdfrwt beam="1">  1        4 0.46783179E-01 0.10202396E+04</pdfrwt>
<totfact> 0.17838136E+01</totfact>
</mgrwt>
</event>
<event>
 6    1  0.2415530E-005  0.9999471E+03  0.7818608E-02  0.9921395E-01
          4   -1    0    0  502    0 -0.00000000000E+00  0.00000000000E+00  0.24281759991E+04  0.24281759991E+04  0.00000000000E+00 0.  1.
         21   -1    0    0  501  502  0.00000000000E+00 -0.00000000000E+00 -0.14624269465E+03  0.14624269465E+03  0.00000000000E+00 0.  1.
    9000010    2    1    2  501    0  0.10132644998E+03  0.69973514579E+02  0.16401889294E+04  0.19209669386E+04  0.99233608870E+03 0.  0.
        -13    1    3    3    0    0  0.41618097468E+03 -0.30041451488E+03  0.87389165204E+03  0.10134801997E+04  0.10566000000E+00 0.  1.
          4    1    3    3  501    0 -0.31485452471E+03  0.37038802946E+03  0.76629727732E+03  0.90748673893E+03  0.00000000000E+00 0.  1.
         13    1    1    2    0    0 -0.10132644998E+03 -0.69973514579E+02  0.64174437510E+03  0.65345175518E+03  0.10566000000E+00 0. -1.
<mgrwt>
<rscale>  1 0.59235517E+03</rscale>
<asrwt>0</asrwt>
<pdfrwt beam="2">  1       21 0.22498878E-01 0.99994713E+03</pdfrwt>
<pdfrwt beam="1">  1        4 0.37356551E+00 0.99994713E+03</pdfrwt>
<totfact> 0.81379217E+00</totfact>
</mgrwt>
</event>
<event>
 6    1  0.2415530E-005  0.1030505E+04  0.7818608E-02  0.9579252E-01
          4   -1    0    0  502    0 -0.00000000000E+00  0.00000000000E+00  0.44438313041E+03  0.44438313041E+03  0.00000000000E+00 0.  1.
         21   -1    0    0  501  502  0.00000000000E+00 -0.00000000000E+00 -0.11459129521E+04  0.11459129521E+04  0.00000000000E+00 0.  1.
    9000010    2    1    2  501    0  0.23063623873E+03 -0.26363028873E+03 -0.68933259771E+03  0.12398067286E+04  0.96914771332E+03 0.  0.
        -13    1    3    3    0    0 -0.90818814919E+02  0.58844353272E+01  0.22016254859E+03  0.23823148971E+03  0.10566000000E+00 0.  1.
          4    1    3    3  501    0  0.32145505365E+03 -0.26951472406E+03 -0.90949514630E+03  0.10015752389E+04  0.00000000000E+00 0.  1.
         13    1    1    2    0    0 -0.23063623873E+03  0.26363028873E+03 -0.12197223952E+02  0.35048935389E+03  0.10566000000E+00 0. -1.
<mgrwt>
<rscale>  1 0.78684758E+03</rscale>
<asrwt>0</asrwt>
<pdfrwt beam="2">  1       21 0.17629430E+00 0.10305054E+04</pdfrwt>
<pdfrwt beam="1">  1        4 0.68366637E-01 0.10305054E+04</pdfrwt>
<totfact> 0.13273866E+01</totfact>
</mgrwt>
</event>
<event>
 6    1  0.2415530E-005  0.1077512E+04  0.7818608E-02  0.9465617E-01
         21   -1    0    0  501  502  0.00000000000E+00  0.00000000000E+00  0.14261771797E+04  0.14261771797E+04  0.00000000000E+00 0.  1.
          4   -1    0    0  502    0 -0.00000000000E+00 -0.00000000000E+00 -0.44078442769E+03  0.44078442769E+03  0.00000000000E+00 0.  1.
    9000010    2    1    2  501    0 -0.30207457840E+03 -0.34045367909E+03  0.45932460005E+03  0.11713284640E+04  0.97666448888E+03 0.  0.
        -13    1    3    3    0    0  0.31055802094E+03  0.73251746192E+02  0.24304645843E+03  0.40110309748E+03  0.10566000000E+00 0.  1.
          4    1    3    3  501    0 -0.61263259934E+03 -0.41370542528E+03  0.21627814162E+03  0.77022536651E+03  0.00000000000E+00 0.  1.
         13    1    1    2    0    0  0.30207457840E+03  0.34045367909E+03  0.52606815197E+03  0.69563314340E+03  0.10566000000E+00 0. -1.
<mgrwt>
<rscale>  1 0.86866871E+03</rscale>
<asrwt>0</asrwt>
<pdfrwt beam="1">  1       21 0.21941187E+00 0.10775116E+04</pdfrwt>
<pdfrwt beam="2">  1        4 0.67812990E-01 0.10775116E+04</pdfrwt>
<totfact> 0.67412153E+00</totfact>
</mgrwt>
</event>
<event>
 6    1  0.2415530E-005  0.1052802E+04  0.7818608E-02  0.9794530E-01
         21   -1    0    0  501  502  0.00000000000E+00  0.00000000000E+00  0.69926095564E+03  0.69926095564E+03  0.00000000000E+00 0.  1.
          4   -1    0    0  502    0 -0.00000000000E+00 -0.00000000000E+00 -0.58458342359E+03  0.58458342359E+03  0.00000000000E+00 0.  1.
    9000010    2    1    2  501    0  0.23391366474E+02 -0.15752393181E+03  0.24164064031E+03  0.10801765439E+04  0.10406873795E+04 0.  0.
        -13    1    3    3    0    0  0.13740266115E+03 -0.55207611209E+03  0.33332399223E+03  0.65937274724E+03  0.10566000000E+00 0.  1.
          4    1    3    3  501    0 -0.11401129468E+03  0.39455218028E+03 -0.91683351925E+02  0.42080379668E+03  0.00000000000E+00 0.  1.
         13    1    1    2    0    0 -0.23391366474E+02  0.15752393181E+03 -0.12696310826E+03  0.20366783531E+03  0.10566000000E+00 0. -1.
<mgrwt>
<rscale>  1 0.65656934E+03</rscale>
<asrwt>0</asrwt>
<pdfrwt beam="1">  1       21 0.10757861E+00 0.10528016E+04</pdfrwt>
<pdfrwt beam="2">  1        4 0.89935912E-01 0.10528016E+04</pdfrwt>
<totfact> 0.27123176E+01</totfact>
</mgrwt>
</event>
<event>
 6    1  0.2415530E-005  0.9730873E+03  0.7818608E-02  0.9906843E-01
         21   -1    0    0  501  502  0.00000000000E+00  0.00000000000E+00  0.76834223927E+03  0.76834223927E+03  0.00000000000E+00 0.  1.
          4   -1    0    0  502    0 -0.00000000000E+00 -0.00000000000E+00 -0.41870133147E+03  0.41870133147E+03  0.00000000000E+00 0.  1.
    9000010    2    1    2  501    0 -0.57920574148E+02 -0.12746251711E+03  0.37847700752E+03  0.10440994628E+04  0.96296280138E+03 0.  0.
        -13    1    3    3    0    0 -0.96804235335E+02  0.12999245471E+03  0.64882102875E+03  0.66875842930E+03  0.10566000000E+00 0.  1.
          4    1    3    3  501    0  0.38883661187E+02 -0.25745497182E+03 -0.27034402122E+03  0.37534103351E+03  0.00000000000E+00 0.  1.
         13    1    1    2    0    0  0.57920574148E+02  0.12746251711E+03 -0.28836099728E+02  0.14294410793E+03  0.10566000000E+00 0. -1.
<mgrwt>
<rscale>  1 0.59930790E+03</rscale>
<asrwt>0</asrwt>
<pdfrwt beam="1">  1       21 0.11820650E+00 0.97308727E+03</pdfrwt>
<pdfrwt beam="2">  1        4 0.64415589E-01 0.97308727E+03</pdfrwt>
<totfact> 0.45955918E+01</totfact>
</mgrwt>
</event>
<event>
 6    1  0.2415530E-005  0.1029662E+04  0.7818608E-02  0.9712674E-01
         21   -1    0    0  501  502  0.00000000000E+00  0.00000000000E+00  0.20141071305E+03  0.20141071305E+03  0.00000000000E+00 0.  1.
          4   -1    0    0  502    0 -0.00000000000E+00 -0.00000000000E+00 -0.19680492413E+04  0.19680492413E+04  0.00000000000E+00 0.  1.
    9000010    2    1    2  501    0 -0.12094727981E+03  0.18773182274E+03 -0.15287770701E+04  0.18431938571E+04  0.10051531143E+04 0.  0.
        -13    1    3    3    0    0 -0.34708791481E+03  0.24143087655E+03 -0.15565835764E+03  0.45054236674E+03  0.10566000000E+00 0.  1.
          4    1    3    3  501    0  0.22614063501E+03 -0.53699053803E+02 -0.13731187125E+04  0.13926514904E+04  0.00000000000E+00 0.  1.
         13    1    1    2    0    0  0.12094727981E+03 -0.18773182274E+03 -0.23786145815E+03  0.32626609723E+03  0.10566000000E+00 0. -1.
<mgrwt>
<rscale>  1 0.70267205E+03</rscale>
<asrwt>0</asrwt>
<pdfrwt beam="1">  1       21 0.30986262E-01 0.10296622E+04</pdfrwt>
<pdfrwt beam="2">  1        4 0.30277683E+00 0.10296622E+04</pdfrwt>
<totfact> 0.12179222E+01</totfact>
</mgrwt>
</event>
<event>
 6    1  0.2415530E-005  0.1014324E+04  0.7818608E-02  0.9826288E-01
          4   -1    0    0  502    0 -0.00000000000E+00  0.00000000000E+00  0.37804374908E+03  0.37804374908E+03  0.00000000000E+00 0.  1.
         21   -1    0    0  501  502  0.00000000000E+00 -0.00000000000E+00 -0.98793348533E+03  0.98793348533E+03  0.00000000000E+00 0.  1.
    9000010    2    1    2  501    0 -0.10450449770E+03 -0.12177628411E+03 -0.64457344435E+03  0.12018016449E+04  0.10015496069E+04 0.  0.
        -13    1    3    3    0    0 -0.35964294398E+03  0.31865343713E+03 -0.18137173800E+03  0.51359398231E+03  0.10566000000E+00 0.  1.
          4    1    3    3  501    0  0.25513844628E+03 -0.44042972124E+03 -0.46320170635E+03  0.68820766262E+03  0.00000000000E+00 0.  1.
         13    1    1    2    0    0  0.10450449770E+03  0.12177628411E+03  0.34683708101E+02  0.16417558949E+03  0.10566000000E+00 0. -1.
<mgrwt>
<rscale>  1 0.63970676E+03</rscale>
<asrwt>0</asrwt>
<pdfrwt beam="2">  1       21 0.15198976E+00 0.10143236E+04</pdfrwt>
<pdfrwt beam="1">  1        4 0.58160578E-01 0.10143236E+04</pdfrwt>
<totfact> 0.29119815E+01</totfact>
</mgrwt>
</event>
<event>
 6    1  0.2415530E-005  0.1076621E+04  0.7818608E-02  0.9501465E-01
         21   -1    0    0  501  502  0.00000000000E+00  0.00000000000E+00  0.68845759868E+03  0.68845759868E+03  0.00000000000E+00 0.  1.
          4   -1    0    0  502    0 -0.00000000000E+00 -0.00000000000E+00 -0.10166011950E+04  0.10166011950E+04  0.00000000000E+00 0.  1.
    9000010    2    1    2  501    0 -0.17487144261E+03  0.36231922309E+03  0.14237354167E+03  0.10859936685E+04  0.99862744899E+03 0.  0.
        -13    1    3    3    0    0 -0.57177943091E+03  0.26851980910E+03  0.22368414595E+03  0.67012626706E+03  0.10566000000E+00 0.  1.
          4    1    3    3  501    0  0.39690798830E+03  0.93799413986E+02 -0.81310604277E+02  0.41586740147E+03  0.00000000000E+00 0.  1.
         13    1    1    2    0    0  0.17487144261E+03 -0.36231922309E+03 -0.47051713800E+03  0.61906512515E+03  0.10566000000E+00 0. -1.
<mgrwt>
<rscale>  1 0.84175921E+03</rscale>
<asrwt>0</asrwt>
<pdfrwt beam="1">  1       21 0.10591655E+00 0.10766206E+04</pdfrwt>
<pdfrwt beam="2">  1        4 0.15640018E+00 0.10766206E+04</pdfrwt>
<totfact> 0.69728559E+00</totfact>
</mgrwt>
</event>
<event>
 6    1  0.2415530E-005  0.1019876E+04  0.7818608E-02  0.9737214E-01
          4   -1    0    0  502    0 -0.00000000000E+00  0.00000000000E+00  0.28879113324E+03  0.28879113324E+03  0.00000000000E+00 0.  1.
         21   -1    0    0  501  502  0.00000000000E+00 -0.00000000000E+00 -0.16773226250E+04  0.16773226250E+04  0.00000000000E+00 0.  1.
    9000010    2    1    2  501    0  0.51429173938E+02 -0.20540456904E+03 -0.14238668901E+04  0.17514405218E+04  0.99765273700E+03 0.  0.
        -13    1    3    3    0    0 -0.12492814139E+02 -0.60886214398E+03 -0.79274776582E+03  0.99965904795E+03  0.10566000000E+00 0.  1.
          4    1    3    3  501    0  0.63921988078E+02  0.40345757494E+03 -0.63111912431E+03  0.75178147384E+03  0.00000000000E+00 0.  1.
         13    1    1    2    0    0 -0.51429173938E+02  0.20540456904E+03  0.35335398360E+02  0.21467323647E+03  0.10566000000E+00 0. -1.
<mgrwt>
<rscale>  1 0.68843649E+03</rscale>
<asrwt>0</asrwt>
<pdfrwt beam="2">  1       21 0.25804963E+00 0.10198760E+04</pdfrwt>
<pdfrwt beam="1">  1        4 0.44429406E-01 0.10198760E+04</pdfrwt>
<totfact> 0.94922397E+00</totfact>
</mgrwt>
</event>
<event>
 6    1  0.2415530E-005  0.9749738E+03  0.7818608E-02  0.9770168E-01
          4   -1    0    0  502    0 -0.00000000000E+00  0.00000000000E+00  0.60553530573E+03  0.60553530573E+03  0.00000000000E+00 0.  1.
         21   -1    0    0  501  502  0.00000000000E+00 -0.00000000000E+00 -0.58688175336E+03  0.58688175336E+03  0.00000000000E+00 0.  1.
    9000010    2    1    2  501    0  0.19931403741E+02 -0.21636316719E+03  0.12721916089E+02  0.97505681331E+03  0.95045444976E+03 0.  0.
        -13    1    3    3    0    0 -0.21719447064E+03  0.30094205036E+03 -0.12124741055E+03  0.39043629632E+03  0.10566000000E+00 0.  1.
          4    1    3    3  501    0  0.23712587438E+03 -0.51730521756E+03  0.13396932663E+03  0.58462051700E+03  0.00000000000E+00 0.  1.
         13    1    1    2    0    0 -0.19931403741E+02  0.21636316719E+03  0.59316362825E+01  0.21736024578E+03  0.10566000000E+00 0. -1.
<mgrwt>
<rscale>  1 0.66988353E+03</rscale>
<asrwt>0</asrwt>
<pdfrwt beam="2">  1       21 0.90289500E-01 0.97497382E+03</pdfrwt>
<pdfrwt beam="1">  1        4 0.93159278E-01 0.97497382E+03</pdfrwt>
<totfact> 0.38748977E+01</totfact>
</mgrwt>
</event>
<event>
 6    1  0.2415530E-005  0.1239761E+04  0.7818608E-02  0.9215589E-01
          4   -1    0    0  502    0 -0.00000000000E+00  0.00000000000E+00  0.71658167700E+03  0.71658167700E+03  0.00000000000E+00 0.  1.
         21   -1    0    0  501  502  0.00000000000E+00 -0.00000000000E+00 -0.16851835574E+04  0.16851835574E+04  0.00000000000E+00 0. -1.
    9000010    2    1    2  501    0  0.59060969568E+03  0.44442509324E+03 -0.74919307907E+02  0.12420230097E+04  0.99532646799E+03 0.  0.
        -13    1    3    3    0    0  0.37834459072E+03 -0.14130862349E+02  0.39844098873E+03  0.54963582786E+03  0.10566000000E+00 0.  1.
          4    1    3    3  501    0  0.21226510495E+03  0.45855595559E+03 -0.47336029664E+03  0.69238718187E+03  0.00000000000E+00 0.  1.
         13    1    1    2    0    0 -0.59060969568E+03 -0.44442509324E+03 -0.89368257252E+03  0.11597422247E+04  0.10566000000E+00 0. -1.
<mgrwt>
<rscale>  1 0.10893962E+04</rscale>
<asrwt>0</asrwt>
<pdfrwt beam="2">  1       21 0.25925901E+00 0.12397614E+04</pdfrwt>
<pdfrwt beam="1">  1        4 0.11024334E+00 0.12397614E+04</pdfrwt>
<totfact> 0.11639897E+00</totfact>
</mgrwt>
</event>
<event>
 6    1  0.2415530E-005  0.1301430E+04  0.7818608E-02  0.9141548E-01
          4   -1    0    0  502    0 -0.00000000000E+00  0.00000000000E+00  0.10288028399E+04  0.10288028399E+04  0.00000000000E+00 0.  1.
         21   -1    0    0  501  502  0.00000000000E+00 -0.00000000000E+00 -0.11189190359E+04  0.11189190359E+04  0.00000000000E+00 0. -1.
    9000010    2    1    2  501    0  0.50681369363E+03 -0.67444862360E+03 -0.82449364197E+02  0.13040395556E+04  0.99094914048E+03 0.  0.
        -13    1    3    3    0    0 -0.13560773705E+03  0.13514282490E+03  0.15178413842E+03  0.24431839331E+03  0.10566000000E+00 0.  1.
          4    1    3    3  501    0  0.64242143069E+03 -0.80959144850E+03 -0.23423350262E+03  0.10597211623E+04  0.00000000000E+00 0.  1.
         13    1    1    2    0    0 -0.50681369363E+03  0.67444862360E+03 -0.76668318268E+01  0.84368232020E+03  0.10566000000E+00 0. -1.
<mgrwt>
<rscale>  1 0.11677664E+04</rscale>
<asrwt>0</asrwt>
<pdfrwt beam="2">  1       21 0.17214139E+00 0.13014305E+04</pdfrwt>
<pdfrwt beam="1">  1        4 0.15827736E+00 0.13014305E+04</pdfrwt>
<totfact> 0.17584300E+00</totfact>
</mgrwt>
</event>
<event>
 6    1  0.2415530E-005  0.1040017E+04  0.7818608E-02  0.9626007E-01
         21   -1    0    0  501  502  0.00000000000E+00  0.00000000000E+00  0.76418389571E+03  0.76418389571E+03  0.00000000000E+00 0.  1.
          4   -1    0    0  502    0 -0.00000000000E+00 -0.00000000000E+00 -0.61848811066E+03  0.61848811066E+03  0.00000000000E+00 0.  1.
    9000010    2    1    2  501    0 -0.19086510032E+03 -0.21880981595E+03  0.25768803785E+03  0.10714654866E+04  0.99866307739E+03 0.  0.
        -13    1    3    3    0    0  0.72003294409E+02 -0.12651655331E+03  0.60725469991E+03  0.62445912147E+03  0.10566000000E+00 0.  1.
          4    1    3    3  501    0 -0.26286839473E+03 -0.92293262635E+02 -0.34956666206E+03  0.44700636517E+03  0.00000000000E+00 0.  1.
         13    1    1    2    0    0  0.19086510032E+03  0.21880981595E+03 -0.11199225280E+03  0.31120651973E+03  0.10566000000E+00 0. -1.
<mgrwt>
<rscale>  1 0.75598539E+03</rscale>
<asrwt>0</asrwt>
<pdfrwt beam="1">  1       21 0.11756675E+00 0.10400169E+04</pdfrwt>
<pdfrwt beam="2">  1        4 0.95152018E-01 0.10400169E+04</pdfrwt>
<totfact> 0.18953177E+01</totfact>
</mgrwt>
</event>
<event>
 6    1  0.2415530E-005  0.1019866E+04  0.7818608E-02  0.9685980E-01
          4   -1    0    0  502    0 -0.00000000000E+00  0.00000000000E+00  0.63917093818E+03  0.63917093818E+03  0.00000000000E+00 0.  1.
         21   -1    0    0  501  502  0.00000000000E+00 -0.00000000000E+00 -0.86184603021E+03  0.86184603021E+03  0.00000000000E+00 0.  1.
    9000010    2    1    2  501    0  0.19911076911E+03  0.15338684106E+03 -0.49225037840E+03  0.11324474803E+04  0.98840995501E+03 0.  0.
        -13    1    3    3    0    0 -0.20364807646E+03 -0.81839957731E+02  0.20052740230E+03  0.29729037651E+03  0.10566000000E+00 0.  1.
          4    1    3    3  501    0  0.40275884556E+03  0.23522679879E+03 -0.69277778070E+03  0.83515710377E+03  0.00000000000E+00 0.  1.
         13    1    1    2    0    0 -0.19911076911E+03 -0.15338684106E+03  0.26957528637E+03  0.36856948811E+03  0.10566000000E+00 0. -1.
<mgrwt>
<rscale>  1 0.71857729E+03</rscale>
<asrwt>0</asrwt>
<pdfrwt beam="2">  1       21 0.13259170E+00 0.10198661E+04</pdfrwt>
<pdfrwt beam="1">  1        4 0.98333990E-01 0.10198661E+04</pdfrwt>
<totfact> 0.12796103E+01</totfact>
</mgrwt>
</event>
<event>
 6    1  0.2415530E-005  0.1008057E+04  0.7818608E-02  0.9968632E-01
         21   -1    0    0  501  502  0.00000000000E+00  0.00000000000E+00  0.25610647250E+03  0.25610647250E+03  0.00000000000E+00 0.  1.
          4   -1    0    0  502    0 -0.00000000000E+00 -0.00000000000E+00 -0.15950708627E+04  0.15950708627E+04  0.00000000000E+00 0.  1.
    9000010    2    1    2  501    0  0.18165582288E+02  0.10178351564E+03 -0.75842165795E+03  0.12614996711E+04  0.10027403136E+04 0.  0.
        -13    1    3    3    0    0  0.35846222145E+03 -0.17257319544E+03 -0.72011587748E+03  0.82270502622E+03  0.10566000000E+00 0.  1.
          4    1    3    3  501    0 -0.34029663916E+03  0.27435671108E+03 -0.38305780465E+02  0.43879464486E+03  0.00000000000E+00 0.  1.
         13    1    1    2    0    0 -0.18165582288E+02 -0.10178351564E+03 -0.58054273228E+03  0.58967766416E+03  0.10566000000E+00 0. -1.
<mgrwt>
<rscale>  1 0.57047326E+03</rscale>
<asrwt>0</asrwt>
<pdfrwt beam="1">  1       21 0.39400995E-01 0.10080566E+04</pdfrwt>
<pdfrwt beam="2">  1        4 0.24539552E+00 0.10080566E+04</pdfrwt>
<totfact> 0.16837938E+01</totfact>
</mgrwt>
</event>
<event>
 6    1  0.2415530E-005  0.1276676E+04  0.7818608E-02  0.9169621E-01
         21   -1    0    0  501  502  0.00000000000E+00  0.00000000000E+00  0.12917289729E+04  0.12917289729E+04  0.00000000000E+00 0.  1.
          4   -1    0    0  502    0 -0.00000000000E+00 -0.00000000000E+00 -0.12924823048E+04  0.12924823048E+04  0.00000000000E+00 0.  1.
    9000010    2    1    2  501    0  0.22624304536E+03  0.77138629988E+03  0.75302510649E+03  0.14822109670E+04  0.99180633220E+03 0.  0.
        -13    1    3    3    0    0  0.54063665029E+03  0.32415567488E+03  0.68566421301E+03  0.93139696874E+03  0.10566000000E+00 0.  1.
          4    1    3    3  501    0 -0.31439360493E+03  0.44723062499E+03  0.67360893479E+02  0.55081399830E+03  0.00000000000E+00 0.  1.
         13    1    1    2    0    0 -0.22624304536E+03 -0.77138629988E+03 -0.75377843844E+03  0.11020003106E+04  0.10566000000E+00 0. -1.
<mgrwt>
<rscale>  1 0.11372564E+04</rscale>
<asrwt>0</asrwt>
<pdfrwt beam="1">  1       21 0.19872753E+00 0.12766764E+04</pdfrwt>
<pdfrwt beam="2">  1        4 0.19884343E+00 0.12766764E+04</pdfrwt>
<totfact> 0.58602411E-01</totfact>
</mgrwt>
</event>
<event>
 6    1  0.2415530E-005  0.1017647E+04  0.7818608E-02  0.9786819E-01
          4   -1    0    0  502    0 -0.00000000000E+00  0.00000000000E+00  0.81766510349E+03  0.81766510349E+03  0.00000000000E+00 0.  1.
         21   -1    0    0  501  502  0.00000000000E+00 -0.00000000000E+00 -0.64522844146E+03  0.64522844146E+03  0.00000000000E+00 0.  1.
    9000010    2    1    2  501    0  0.89573830236E+02  0.15712469721E+03 -0.21068441420E+03  0.10392269169E+04  0.10014454657E+04 0.  0.
        -13    1    3    3    0    0  0.49457648771E+02 -0.10062255649E+03  0.37856628699E+03  0.39482072223E+03  0.10566000000E+00 0.  1.
          4    1    3    3  501    0  0.40116181466E+02  0.25774725371E+03 -0.58925070119E+03  0.64440619462E+03  0.00000000000E+00 0.  1.
         13    1    1    2    0    0 -0.89573830236E+02 -0.15712469721E+03  0.38312107623E+03  0.42366662809E+03  0.10566000000E+00 0. -1.
<mgrwt>
<rscale>  1 0.66074755E+03</rscale>
<asrwt>0</asrwt>
<pdfrwt beam="2">  1       21 0.99265914E-01 0.10176466E+04</pdfrwt>
<pdfrwt beam="1">  1        4 0.12579463E+00 0.10176466E+04</pdfrwt>
<totfact> 0.14643954E+01</totfact>
</mgrwt>
</event>
<event>
 6    1  0.2415530E-005  0.1035179E+04  0.7818608E-02  0.1002125E+00
          4   -1    0    0  502    0 -0.00000000000E+00  0.00000000000E+00  0.65535586360E+03  0.65535586360E+03  0.00000000000E+00 0.  1.
         21   -1    0    0  501  502  0.00000000000E+00 -0.00000000000E+00 -0.47631409957E+03  0.47631409957E+03  0.00000000000E+00 0.  1.
    9000010    2    1    2  501    0  0.63458986630E+02 -0.50132384868E+02  0.15133216654E+03  0.10461823503E+04  0.10320154003E+04 0.  0.
        -13    1    3    3    0    0 -0.24605663573E+02 -0.53479809813E+03  0.17175649353E+02  0.53563929891E+03  0.10566000000E+00 0.  1.
          4    1    3    3  501    0  0.88064650203E+02  0.48466571326E+03  0.13415651718E+03  0.51054305140E+03  0.00000000000E+00 0.  1.
         13    1    1    2    0    0 -0.63458986630E+02  0.50132384868E+02  0.27709597495E+02  0.85487612869E+02  0.10566000000E+00 0. -1.
<mgrwt>
<rscale>  1 0.54728238E+03</rscale>
<asrwt>0</asrwt>
<pdfrwt beam="2">  1       21 0.73279092E-01 0.10351793E+04</pdfrwt>
<pdfrwt beam="1">  1        4 0.10082398E+00 0.10351793E+04</pdfrwt>
<totfact> 0.52253986E+01</totfact>
</mgrwt>
</event>
<event>
 6    1  0.2415530E-005  0.1047622E+04  0.7818608E-02  0.9584767E-01
         21   -1    0    0  501  502  0.00000000000E+00  0.00000000000E+00  0.69621705991E+03  0.69621705991E+03  0.00000000000E+00 0.  1.
          4   -1    0    0  502    0 -0.00000000000E+00 -0.00000000000E+00 -0.71581785785E+03  0.71581785785E+03  0.00000000000E+00 0.  1.
    9000010    2    1    2  501    0 -0.12021273202E+03  0.30423645635E+03  0.12369787492E+03  0.10548998689E+04  0.99523949221E+03 0.  0.
        -13    1    3    3    0    0 -0.33795939464E+03 -0.17201727893E+03 -0.21045253015E+03  0.43370125119E+03  0.10566000000E+00 0.  1.
          4    1    3    3  501    0  0.21774666262E+03  0.47625373528E+03  0.33415040507E+03  0.62119861772E+03  0.00000000000E+00 0.  1.
         13    1    1    2    0    0  0.12021273202E+03 -0.30423645635E+03 -0.14329867285E+03  0.35713504885E+03  0.10566000000E+00 0. -1.
<mgrwt>
<rscale>  1 0.78312679E+03</rscale>
<asrwt>0</asrwt>
<pdfrwt beam="1">  1       21 0.10711032E+00 0.10476223E+04</pdfrwt>
<pdfrwt beam="2">  1        4 0.11012582E+00 0.10476223E+04</pdfrwt>
<totfact> 0.16838059E+01</totfact>
</mgrwt>
</event>
<event>
 6    1  0.2415530E-005  0.1009010E+04  0.7818608E-02  0.9929862E-01
         21   -1    0    0  501  502  0.00000000000E+00  0.00000000000E+00  0.57394596066E+03  0.57394596066E+03  0.00000000000E+00 0.  1.
          4   -1    0    0  502    0 -0.00000000000E+00 -0.00000000000E+00 -0.57721069486E+03  0.57721069486E+03  0.00000000000E+00 0.  1.
    9000010    2    1    2  501    0 -0.34228590624E+02  0.11151249217E+03  0.73231346586E+02  0.10116636669E+04  0.10022444375E+04 0.  0.
        -13    1    3    3    0    0 -0.18599709458E+03  0.50859369772E+03  0.18474686575E+03  0.57218343573E+03  0.10566000000E+00 0.  1.
          4    1    3    3  501    0  0.15176850396E+03 -0.39708120556E+03 -0.11151551917E+03  0.43948023120E+03  0.00000000000E+00 0.  1.
         13    1    1    2    0    0  0.34228590624E+02 -0.11151249217E+03 -0.76496080793E+02  0.13949298859E+03  0.10566000000E+00 0. -1.
<mgrwt>
<rscale>  1 0.58835626E+03</rscale>
<asrwt>0</asrwt>
<pdfrwt beam="1">  1       21 0.88299379E-01 0.10090097E+04</pdfrwt>
<pdfrwt beam="2">  1        4 0.88801645E-01 0.10090097E+04</pdfrwt>
<totfact> 0.45642291E+01</totfact>
</mgrwt>
</event>
<event>
 6    1  0.2415530E-005  0.1028562E+04  0.7818608E-02  0.9634164E-01
         21   -1    0    0  501  502  0.00000000000E+00  0.00000000000E+00  0.42913219227E+03  0.42913219227E+03  0.00000000000E+00 0.  1.
          4   -1    0    0  502    0 -0.00000000000E+00 -0.00000000000E+00 -0.10417637181E+04  0.10417637181E+04  0.00000000000E+00 0.  1.
    9000010    2    1    2  501    0  0.27960153521E+03  0.84004864525E+02 -0.37613973727E+03  0.10951803092E+04  0.98625806558E+03 0.  0.
        -13    1    3    3    0    0 -0.13114102869E+03 -0.27843390431E+03  0.14399584743E+03  0.33979144150E+03  0.10566000000E+00 0.  1.
          4    1    3    3  501    0  0.41074256390E+03  0.36243876884E+03 -0.52013558470E+03  0.75538886769E+03  0.00000000000E+00 0.  1.
         13    1    1    2    0    0 -0.27960153521E+03 -0.84004864525E+02 -0.23649178860E+03  0.37571560122E+03  0.10566000000E+00 0. -1.
<mgrwt>
<rscale>  1 0.75075670E+03</rscale>
<asrwt>0</asrwt>
<pdfrwt beam="1">  1       21 0.66020338E-01 0.10285615E+04</pdfrwt>
<pdfrwt beam="2">  1        4 0.16027134E+00 0.10285615E+04</pdfrwt>
<totfact> 0.20215634E+01</totfact>
</mgrwt>
</event>
<event>
 6    1  0.2415530E-005  0.1000457E+04  0.7818608E-02  0.9829522E-01
          4   -1    0    0  502    0 -0.00000000000E+00  0.00000000000E+00  0.18639461650E+04  0.18639461650E+04  0.00000000000E+00 0.  1.
         21   -1    0    0  501  502  0.00000000000E+00 -0.00000000000E+00 -0.29894316095E+03  0.29894316095E+03  0.00000000000E+00 0.  1.
    9000010    2    1    2  501    0 -0.10789403865E+03 -0.12546775215E+03  0.56436500050E+03  0.11486607000E+04  0.98667637527E+03 0.  0.
        -13    1    3    3    0    0 -0.85509827466E+02  0.31656485098E+03 -0.10665437287E+03  0.34481937574E+03  0.10566000000E+00 0.  1.
          4    1    3    3  501    0 -0.22384211179E+02 -0.44203260313E+03  0.67101937337E+03  0.80384132425E+03  0.00000000000E+00 0.  1.
         13    1    1    2    0    0  0.10789403865E+03  0.12546775215E+03  0.10006380035E+04  0.10142286259E+04  0.10566000000E+00 0. -1.
<mgrwt>
<rscale>  1 0.63802019E+03</rscale>
<asrwt>0</asrwt>
<pdfrwt beam="2">  1       21 0.45991257E-01 0.10004567E+04</pdfrwt>
<pdfrwt beam="1">  1        4 0.28676094E+00 0.10004567E+04</pdfrwt>
<totfact> 0.67570266E+00</totfact>
</mgrwt>
</event>
<event>
 6    1  0.2415530E-005  0.9968838E+03  0.7818608E-02  0.1008342E+00
         21   -1    0    0  501  502  0.00000000000E+00  0.00000000000E+00  0.80425710100E+03  0.80425710100E+03  0.00000000000E+00 0.  1.
          4   -1    0    0  502    0 -0.00000000000E+00 -0.00000000000E+00 -0.53134935658E+03  0.53134935658E+03  0.00000000000E+00 0.  1.
    9000010    2    1    2  501    0  0.37579958753E+02 -0.64438344031E+02  0.48657372174E+03  0.11092931471E+04  0.99408890246E+03 0.  0.
        -13    1    3    3    0    0  0.33918024985E+01 -0.20562901319E+03  0.76666534948E+03  0.79376984363E+03  0.10566000000E+00 0.  1.
          4    1    3    3  501    0  0.34188156255E+02  0.14119066916E+03 -0.28009162775E+03  0.31552330345E+03  0.00000000000E+00 0.  1.
         13    1    1    2    0    0 -0.37579958753E+02  0.64438344031E+02 -0.21366597731E+03  0.22631331049E+03  0.10566000000E+00 0. -1.
<mgrwt>
<rscale>  1 0.52138952E+03</rscale>
<asrwt>0</asrwt>
<pdfrwt beam="1">  1       21 0.12373186E+00 0.99688379E+03</pdfrwt>
<pdfrwt beam="2">  1        4 0.81746055E-01 0.99688379E+03</pdfrwt>
<totfact> 0.23785214E+01</totfact>
</mgrwt>
</event>
<event>
 6    1  0.2415530E-005  0.1050861E+04  0.7818608E-02  0.9658050E-01
         21   -1    0    0  501  502  0.00000000000E+00  0.00000000000E+00  0.64595167746E+03  0.64595167746E+03  0.00000000000E+00 0.  1.
          4   -1    0    0  502    0 -0.00000000000E+00 -0.00000000000E+00 -0.70411983683E+03  0.70411983683E+03  0.00000000000E+00 0.  1.
    9000010    2    1    2  501    0 -0.15770141907E+03  0.19713304841E+03  0.94411783428E+02  0.10550938432E+04  0.10200873770E+04 0.  0.
        -13    1    3    3    0    0 -0.42868990300E+03  0.49042399220E+03  0.49371836641E+02  0.65324445231E+03  0.10566000000E+00 0.  1.
          4    1    3    3  501    0  0.27098848393E+03 -0.29329094379E+03  0.45039946787E+02  0.40184939086E+03  0.00000000000E+00 0.  1.
         13    1    1    2    0    0  0.15770141907E+03 -0.19713304841E+03 -0.15257994279E+03  0.29497767112E+03  0.10566000000E+00 0. -1.
<mgrwt>
<rscale>  1 0.73570388E+03</rscale>
<asrwt>0</asrwt>
<pdfrwt beam="1">  1       21 0.99377181E-01 0.10508613E+04</pdfrwt>
<pdfrwt beam="2">  1        4 0.10832613E+00 0.10508613E+04</pdfrwt>
<totfact> 0.21148600E+01</totfact>
</mgrwt>
</event>
<event>
 6    1  0.2415530E-005  0.1070551E+04  0.7818608E-02  0.9515249E-01
          4   -1    0    0  502    0 -0.00000000000E+00  0.00000000000E+00  0.10610105438E+04  0.10610105438E+04  0.00000000000E+00 0.  1.
         21   -1    0    0  501  502  0.00000000000E+00 -0.00000000000E+00 -0.60549242996E+03  0.60549242996E+03  0.00000000000E+00 0.  1.
    9000010    2    1    2  501    0  0.19202227938E+03  0.33940615456E+03  0.48782814128E+01  0.10705622357E+04  0.99700080709E+03 0.  0.
        -13    1    3    3    0    0 -0.16119100642E+03  0.32963811652E+03 -0.39351306012E+03  0.53804866700E+03  0.10566000000E+00 0.  1.
          4    1    3    3  501    0  0.35321328580E+03  0.97680380364E+01  0.39839134153E+03  0.53251356869E+03  0.00000000000E+00 0.  1.
         13    1    1    2    0    0 -0.19202227938E+03 -0.33940615456E+03  0.45063983239E+03  0.59594073802E+03  0.10566000000E+00 0. -1.
<mgrwt>
<rscale>  1 0.83168847E+03</rscale>
<asrwt>0</asrwt>
<pdfrwt beam="2">  1       21 0.93152681E-01 0.10705511E+04</pdfrwt>
<pdfrwt beam="1">  1        4 0.16323239E+00 0.10705511E+04</pdfrwt>
<totfact> 0.85260012E+00</totfact>
</mgrwt>
</event>
<event>
 6    1  0.2415530E-005  0.1094569E+04  0.7818608E-02  0.9485992E-01
          4   -1    0    0  502    0 -0.00000000000E+00  0.00000000000E+00  0.46148239785E+03  0.46148239785E+03  0.00000000000E+00 0.  1.
         21   -1    0    0  501  502  0.00000000000E+00 -0.00000000000E+00 -0.14900746445E+04  0.14900746445E+04  0.00000000000E+00 0.  1.
    9000010    2    1    2  501    0  0.14348677342E+03  0.37784384400E+03 -0.10876783008E+04  0.15430896660E+04  0.10172154180E+04 0.  0.
        -13    1    3    3    0    0  0.43789140323E+02 -0.13990322904E+03 -0.99745167461E+03  0.10081667802E+04  0.10566000000E+00 0.  1.
          4    1    3    3  501    0  0.99697633097E+02  0.51774707304E+03 -0.90226626163E+02  0.53492288580E+03  0.00000000000E+00 0.  1.
         13    1    1    2    0    0 -0.14348677342E+03 -0.37784384400E+03  0.59086054130E+02  0.40846737636E+03  0.10566000000E+00 0. -1.
<mgrwt>
<rscale>  1 0.85324504E+03</rscale>
<asrwt>0</asrwt>
<pdfrwt beam="2">  1       21 0.22924225E+00 0.10945692E+04</pdfrwt>
<pdfrwt beam="1">  1        4 0.70997292E-01 0.10945692E+04</pdfrwt>
<totfact> 0.52292988E+00</totfact>
</mgrwt>
</event>
<event>
 6    1  0.2415530E-005  0.9673679E+03  0.7818608E-02  0.9718384E-01
         21   -1    0    0  501  502  0.00000000000E+00  0.00000000000E+00  0.58181031651E+03  0.58181031651E+03  0.00000000000E+00 0. -1.
          4   -1    0    0  502    0 -0.00000000000E+00 -0.00000000000E+00 -0.65973932311E+03  0.65973932311E+03  0.00000000000E+00 0.  1.
    9000010    2    1    2  501    0  0.84759442703E+01 -0.26407149754E+03 -0.11719221006E+03  0.97444065858E+03  0.93058851570E+03 0.  0.
        -13    1    3    3    0    0  0.41318448284E+03  0.87164042543E+01 -0.23076747061E+03  0.47334028903E+03  0.10566000000E+00 0.  1.
          4    1    3    3  501    0 -0.40470853857E+03 -0.27278790179E+03  0.11357526055E+03  0.50110036955E+03  0.00000000000E+00 0.  1.
         13    1    1    2    0    0 -0.84759442703E+01  0.26407149754E+03  0.39263203456E+02  0.26710898104E+03  0.10566000000E+00 0. -1.
<mgrwt>
<rscale>  1 0.69932666E+03</rscale>
<asrwt>0</asrwt>
<pdfrwt beam="1">  1       21 0.89509280E-01 0.96736786E+03</pdfrwt>
<pdfrwt beam="2">  1        4 0.10149836E+00 0.96736786E+03</pdfrwt>
<totfact> 0.32251608E+01</totfact>
</mgrwt>
</event>
<event>
 6    1  0.2415530E-005  0.8633227E+03  0.7818608E-02  0.1013194E+00
          4   -1    0    0  502    0 -0.00000000000E+00  0.00000000000E+00  0.71390334608E+03  0.71390334608E+03  0.00000000000E+00 0.  1.
         21   -1    0    0  501  502  0.00000000000E+00 -0.00000000000E+00 -0.77331508025E+03  0.77331508025E+03  0.00000000000E+00 0.  1.
    9000010    2    1    2  501    0 -0.98611705912E+02  0.74077354001E+01 -0.52554928915E+03  0.10107067534E+04  0.85764033428E+03 0.  0.
        -13    1    3    3    0    0  0.37839720876E+03  0.60682021363E+02 -0.22509852458E+03  0.44445034846E+03  0.10566000000E+00 0.  1.
          4    1    3    3  501    0 -0.47700891467E+03 -0.53274285962E+02 -0.30045076457E+03  0.56625640495E+03  0.00000000000E+00 0.  1.
         13    1    1    2    0    0  0.98611705912E+02 -0.74077354001E+01  0.46613755499E+03  0.47651167291E+03  0.10566000000E+00 0. -1.
<mgrwt>
<rscale>  1 0.50224721E+03</rscale>
<asrwt>0</asrwt>
<pdfrwt beam="2">  1       21 0.11897155E+00 0.86332270E+03</pdfrwt>
<pdfrwt beam="1">  1        4 0.10983128E+00 0.86332270E+03</pdfrwt>
<totfact> 0.13246307E+01</totfact>
</mgrwt>
</event>
<event>
 6    1  0.2415530E-005  0.1368061E+04  0.7818608E-02  0.9074038E-01
          4   -1    0    0  502    0 -0.00000000000E+00  0.00000000000E+00  0.19684121811E+04  0.19684121811E+04  0.00000000000E+00 0.  1.
         21   -1    0    0  501  502  0.00000000000E+00 -0.00000000000E+00 -0.69567613396E+03  0.69567613396E+03  0.00000000000E+00 0. -1.
    9000010    2    1    2  501    0  0.42779661418E+02 -0.93851022915E+03  0.96993806100E+03  0.16770127449E+04  0.99446485847E+03 0.  0.
        -13    1    3    3    0    0 -0.37005890321E+03 -0.24999428913E+03  0.69946194934E+03  0.82987213846E+03  0.10566000000E+00 0.  1.
          4    1    3    3  501    0  0.41283856463E+03 -0.68851594001E+03  0.27047611166E+03  0.84714060644E+03  0.00000000000E+00 0.  1.
         13    1    1    2    0    0 -0.42779661418E+02  0.93851022915E+03  0.30279798613E+03  0.98707557016E+03  0.10566000000E+00 0. -1.
<mgrwt>
<rscale>  1 0.12453794E+04</rscale>
<asrwt>0</asrwt>
<pdfrwt beam="2">  1       21 0.10702710E+00 0.13680614E+04</pdfrwt>
<pdfrwt beam="1">  1        4 0.30283264E+00 0.13680614E+04</pdfrwt>
<totfact> 0.72555728E-01</totfact>
</mgrwt>
</event>
<event>
 6    1  0.2415530E-005  0.1012674E+04  0.7818608E-02  0.1021058E+00
         21   -1    0    0  501  502  0.00000000000E+00  0.00000000000E+00  0.19751488296E+03  0.19751488296E+03  0.00000000000E+00 0.  1.
          4   -1    0    0  502    0 -0.00000000000E+00 -0.00000000000E+00 -0.16010159053E+04  0.16010159053E+04  0.00000000000E+00 0.  1.
    9000010    2    1    2  501    0 -0.47858777440E+02 -0.59417649317E+01 -0.11158323909E+04  0.15068477071E+04  0.10115247504E+04 0.  0.
        -13    1    3    3    0    0  0.17929008789E+02  0.48144091421E+03 -0.34528822218E+03  0.59273161782E+03  0.10566000000E+00 0.  1.
          4    1    3    3  501    0 -0.65787786229E+02 -0.48738267914E+03 -0.77054416872E+03  0.91411608929E+03  0.00000000000E+00 0.  1.
         13    1    1    2    0    0  0.47858777440E+02  0.59417649317E+01 -0.28766863148E+03  0.29168308118E+03  0.10566000000E+00 0. -1.
<mgrwt>
<rscale>  1 0.47306759E+03</rscale>
<asrwt>0</asrwt>
<pdfrwt beam="1">  1       21 0.30386905E-01 0.10126737E+04</pdfrwt>
<pdfrwt beam="2">  1        4 0.24631014E+00 0.10126737E+04</pdfrwt>
<totfact> 0.28322246E+01</totfact>
</mgrwt>
</event>
<event>
 6    1  0.2415530E-005  0.1003859E+04  0.7818608E-02  0.1012914E+00
          4   -1    0    0  502    0 -0.00000000000E+00  0.00000000000E+00  0.78203669035E+03  0.78203669035E+03  0.00000000000E+00 0.  1.
         21   -1    0    0  501  502  0.00000000000E+00 -0.00000000000E+00 -0.38135397928E+03  0.38135397928E+03  0.00000000000E+00 0.  1.
    9000010    2    1    2  501    0 -0.29464764535E+02  0.56186027588E+02  0.43172772462E+03  0.10927589057E+04  0.10018523622E+04 0.  0.
        -13    1    3    3    0    0 -0.19907337465E+03  0.10470692406E+03 -0.28019241345E+03  0.35930703884E+03  0.10566000000E+00 0.  1.
          4    1    3    3  501    0  0.16960861011E+03 -0.48520896472E+02  0.71192013807E+03  0.73345186686E+03  0.00000000000E+00 0.  1.
         13    1    1    2    0    0  0.29464764535E+02 -0.56186027588E+02 -0.31045013546E+02  0.70631763926E+02  0.10566000000E+00 0. -1.
<mgrwt>
<rscale>  1 0.50332800E+03</rscale>
<asrwt>0</asrwt>
<pdfrwt beam="2">  1       21 0.58669843E-01 0.10038592E+04</pdfrwt>
<pdfrwt beam="1">  1        4 0.12031334E+00 0.10038592E+04</pdfrwt>
<totfact> 0.56078952E+01</totfact>
</mgrwt>
</event>
<event>
 6    1  0.2415530E-005  0.1019228E+04  0.7818608E-02  0.1004201E+00
         21   -1    0    0  501  502  0.00000000000E+00  0.00000000000E+00  0.99942909662E+03  0.99942909662E+03  0.00000000000E+00 0.  1.
          4   -1    0    0  502    0 -0.00000000000E+00 -0.00000000000E+00 -0.30210797292E+03  0.30210797292E+03  0.00000000000E+00 0.  1.
    9000010    2    1    2  501    0 -0.75825445676E+02  0.23539394502E+02  0.63822946729E+03  0.12025651729E+04  0.10161311632E+04 0.  0.
        -13    1    3    3    0    0  0.31973887823E+03  0.17390424756E+03  0.68612176488E+03  0.77668444363E+03  0.10566000000E+00 0.  1.
          4    1    3    3  501    0 -0.39556432391E+03 -0.15036485306E+03 -0.47892297587E+02  0.42588072926E+03  0.00000000000E+00 0.  1.
         13    1    1    2    0    0  0.75825445676E+02 -0.23539394502E+02  0.59091656410E+02  0.98971896651E+02  0.10566000000E+00 0. -1.
<mgrwt>
<rscale>  1 0.53845860E+03</rscale>
<asrwt>0</asrwt>
<pdfrwt beam="1">  1       21 0.15375832E+00 0.10192282E+04</pdfrwt>
<pdfrwt beam="2">  1        4 0.46478150E-01 0.10192282E+04</pdfrwt>
<totfact> 0.45383092E+01</totfact>
</mgrwt>
</event>
<event>
 6    1  0.2415530E-005  0.1016806E+04  0.7818608E-02  0.9753643E-01
          4   -1    0    0  502    0 -0.00000000000E+00  0.00000000000E+00  0.16569184129E+04  0.16569184129E+04  0.00000000000E+00 0.  1.
         21   -1    0    0  501  502  0.00000000000E+00 -0.00000000000E+00 -0.26662715490E+03  0.26662715490E+03  0.00000000000E+00 0.  1.
    9000010    2    1    2  501    0 -0.72691357854E+02 -0.18881153384E+03  0.78273282883E+03  0.12831854466E+04  0.99647397366E+03 0.  0.
        -13    1    3    3    0    0 -0.50390846272E+03 -0.17597305650E+03  0.62961053592E+03  0.82540880388E+03  0.10566000000E+00 0.  1.
          4    1    3    3  501    0  0.43121710486E+03 -0.12838477339E+02  0.15312229291E+03  0.45777664271E+03  0.00000000000E+00 0.  1.
         13    1    1    2    0    0  0.72691357854E+02  0.18881153384E+03  0.60755842914E+03  0.64036012118E+03  0.10566000000E+00 0. -1.
<mgrwt>
<rscale>  1 0.67910800E+03</rscale>
<asrwt>0</asrwt>
<pdfrwt beam="2">  1       21 0.41019563E-01 0.10168059E+04</pdfrwt>
<pdfrwt beam="1">  1        4 0.25491052E+00 0.10168059E+04</pdfrwt>
<totfact> 0.13498070E+01</totfact>
</mgrwt>
</event>
<event>
 6    1  0.2415530E-005  0.1134188E+04  0.7818608E-02  0.1012420E+00
          4   -1    0    0  502    0 -0.00000000000E+00  0.00000000000E+00  0.84665400503E+03  0.84665400503E+03  0.00000000000E+00 0.  1.
         21   -1    0    0  501  502  0.00000000000E+00 -0.00000000000E+00 -0.41206946661E+03  0.41206946661E+03  0.00000000000E+00 0.  1.
    9000010    2    1    2  501    0 -0.35353602113E+01  0.44521480896E+02  0.40155296855E+03  0.12031738829E+04  0.11333084068E+04 0.  0.
        -13    1    3    3    0    0 -0.40926102790E+03 -0.31912067224E+03  0.40504103775E+03  0.65832427103E+03  0.10566000000E+00 0.  1.
          4    1    3    3  501    0  0.40572566769E+03  0.36364215313E+03 -0.34880691968E+01  0.54484961190E+03  0.00000000000E+00 0.  1.
         13    1    1    2    0    0  0.35353602113E+01 -0.44521480896E+02  0.33031569872E+02  0.55549588705E+02  0.10566000000E+00 0. -1.
<mgrwt>
<rscale>  1 0.50524003E+03</rscale>
<asrwt>0</asrwt>
<pdfrwt beam="2">  1       21 0.63395303E-01 0.11341881E+04</pdfrwt>
<pdfrwt beam="1">  1        4 0.13025446E+00 0.11341881E+04</pdfrwt>
<totfact> 0.38129916E+01</totfact>
</mgrwt>
</event>
<event>
 6    1  0.2415530E-005  0.1123077E+04  0.7818608E-02  0.9393127E-01
         21   -1    0    0  501  502  0.00000000000E+00  0.00000000000E+00  0.67244761918E+03  0.67244761918E+03  0.00000000000E+00 0.  1.
          4   -1    0    0  502    0 -0.00000000000E+00 -0.00000000000E+00 -0.11835079225E+04  0.11835079225E+04  0.00000000000E+00 0.  1.
    9000010    2    1    2  501    0  0.16227636022E+03  0.49406511843E+03  0.53300046533E+01  0.11230893058E+04  0.99542313694E+03 0.  0.
        -13    1    3    3    0    0 -0.33029212202E+02 -0.29845081592E+03  0.55349282936E+02  0.30533157824E+03  0.10566000000E+00 0.  1.
          4    1    3    3  501    0  0.19530557243E+03  0.79251593435E+03 -0.50019278283E+02  0.81775772758E+03  0.00000000000E+00 0.  1.
         13    1    1    2    0    0 -0.16227636022E+03 -0.49406511843E+03 -0.51639030794E+03  0.73286623584E+03  0.10566000000E+00 0. -1.
<mgrwt>
<rscale>  1 0.92643447E+03</rscale>
<asrwt>0</asrwt>
<pdfrwt beam="1">  1       21 0.10345348E+00 0.11230767E+04</pdfrwt>
<pdfrwt beam="2">  1        4 0.18207814E+00 0.11230767E+04</pdfrwt>
<totfact> 0.47934906E+00</totfact>
</mgrwt>
</event>
<event>
 6    1  0.2415530E-005  0.1104606E+04  0.7818608E-02  0.9512983E-01
          4   -1    0    0  502    0 -0.00000000000E+00  0.00000000000E+00  0.13329383599E+04  0.13329383599E+04  0.00000000000E+00 0.  1.
         21   -1    0    0  501  502  0.00000000000E+00 -0.00000000000E+00 -0.43703853573E+03  0.43703853573E+03  0.00000000000E+00 0.  1.
    9000010    2    1    2  501    0  0.32776103995E+03  0.14352888636E+03  0.87918049042E+03  0.14117766893E+04  0.10450489200E+04 0.  0.
        -13    1    3    3    0    0  0.58033885593E+02 -0.40598457208E+03  0.10224874263E+03  0.42266561390E+03  0.10566000000E+00 0.  1.
          4    1    3    3  501    0  0.26972715436E+03  0.54951345844E+03  0.77693174779E+03  0.98911107543E+03  0.00000000000E+00 0.  1.
         13    1    1    2    0    0 -0.32776103995E+03 -0.14352888636E+03  0.16719333786E+02  0.35820020633E+03  0.10566000000E+00 0. -1.
<mgrwt>
<rscale>  1 0.83333332E+03</rscale>
<asrwt>0</asrwt>
<pdfrwt beam="2">  1       21 0.67236698E-01 0.11046063E+04</pdfrwt>
<pdfrwt beam="1">  1        4 0.20506744E+00 0.11046063E+04</pdfrwt>
<totfact> 0.93882923E+00</totfact>
</mgrwt>
</event>
<event>
 6    1  0.2415530E-005  0.9624979E+03  0.7818608E-02  0.9730337E-01
         21   -1    0    0  501  502  0.00000000000E+00  0.00000000000E+00  0.22175219059E+04  0.22175219059E+04  0.00000000000E+00 0.  1.
          4   -1    0    0  502    0 -0.00000000000E+00 -0.00000000000E+00 -0.18926348992E+03  0.18926348992E+03  0.00000000000E+00 0.  1.
    9000010    2    1    2  501    0 -0.76831534071E+02  0.24603450033E+03  0.18731391716E+04  0.21059564558E+04  0.92734361372E+03 0.  0.
        -13    1    3    3    0    0  0.15838462515E+03  0.49153383028E+03  0.61690709624E+03  0.80452816754E+03  0.10566000000E+00 0.  1.
          4    1    3    3  501    0 -0.23521615922E+03 -0.24549932995E+03  0.12562320753E+04  0.13014282883E+04  0.00000000000E+00 0.  1.
         13    1    1    2    0    0  0.76831534071E+02 -0.24603450033E+03  0.15511924445E+03  0.30082894000E+03  0.10566000000E+00 0. -1.
<mgrwt>
<rscale>  1 0.69238929E+03</rscale>
<asrwt>0</asrwt>
<pdfrwt beam="1">  1       21 0.34115720E+00 0.96249792E+03</pdfrwt>
<pdfrwt beam="2">  1        4 0.29117462E-01 0.96249792E+03</pdfrwt>
<totfact> 0.67852501E+00</totfact>
</mgrwt>
</event>
<event>
 6    1  0.2415530E-005  0.1054743E+04  0.7818608E-02  0.9589705E-01
          4   -1    0    0  502    0 -0.00000000000E+00  0.00000000000E+00  0.14448940195E+04  0.14448940195E+04  0.00000000000E+00 0.  1.
         21   -1    0    0  501  502  0.00000000000E+00 -0.00000000000E+00 -0.47813779892E+03  0.47813779892E+03  0.00000000000E+00 0.  1.
    9000010    2    1    2  501    0  0.16597873389E+03  0.26790420473E+03  0.17278764830E+03  0.10688025120E+04  0.10065593054E+04 0.  0.
        -13    1    3    3    0    0 -0.30436410172E+03 -0.22108214519E+03  0.55236337323E+02  0.38021820770E+03  0.10566000000E+00 0.  1.
          4    1    3    3  501    0  0.47034283562E+03  0.48898634992E+03  0.11755131098E+03  0.68858430431E+03  0.00000000000E+00 0.  1.
         13    1    1    2    0    0 -0.16597873389E+03 -0.26790420473E+03  0.79396857228E+03  0.85422930643E+03  0.10566000000E+00 0. -1.
<mgrwt>
<rscale>  1 0.77981310E+03</rscale>
<asrwt>0</asrwt>
<pdfrwt beam="2">  1       21 0.73559662E-01 0.10547432E+04</pdfrwt>
<pdfrwt beam="1">  1        4 0.22229139E+00 0.10547432E+04</pdfrwt>
<totfact> 0.59443182E+00</totfact>
</mgrwt>
</event>
<event>
 6    1  0.2415530E-005  0.1224669E+04  0.7818608E-02  0.9238889E-01
         21   -1    0    0  501  502  0.00000000000E+00  0.00000000000E+00  0.13398260443E+04  0.13398260443E+04  0.00000000000E+00 0. -1.
          4   -1    0    0  502    0 -0.00000000000E+00 -0.00000000000E+00 -0.11183484916E+04  0.11183484916E+04  0.00000000000E+00 0.  1.
    9000010    2    1    2  501    0  0.69751836343E+03  0.89694405573E+02  0.86944219368E+03  0.15019135146E+04  0.10026153418E+04 0.  0.
        -13    1    3    3    0    0  0.56652650192E+03  0.49676014291E+03  0.73764757971E+03  0.10544415014E+04  0.10566000000E+00 0.  1.
          4    1    3    3  501    0  0.13099186151E+03 -0.40706573734E+03  0.13179461397E+03  0.44747201317E+03  0.00000000000E+00 0.  1.
         13    1    1    2    0    0 -0.69751836343E+03 -0.89694405573E+02 -0.64796464098E+03  0.95626102129E+03  0.10566000000E+00 0. -1.
<mgrwt>
<rscale>  1 0.10660886E+04</rscale>
<asrwt>0</asrwt>
<pdfrwt beam="1">  1       21 0.20612709E+00 0.12246691E+04</pdfrwt>
<pdfrwt beam="2">  1        4 0.17205361E+00 0.12246691E+04</pdfrwt>
<totfact> 0.80449252E-01</totfact>
</mgrwt>
</event>
<event>
 6    1  0.2415530E-005  0.1097748E+04  0.7818608E-02  0.9443822E-01
         21   -1    0    0  501  502  0.00000000000E+00  0.00000000000E+00  0.84652788137E+03  0.84652788137E+03  0.00000000000E+00 0.  1.
          4   -1    0    0  502    0 -0.00000000000E+00 -0.00000000000E+00 -0.72176391606E+03  0.72176391606E+03  0.00000000000E+00 0.  1.
    9000010    2    1    2  501    0  0.38161500418E+03 -0.26550869929E+03  0.66468921345E+02  0.10997587632E+04  0.99444775580E+03 0.  0.
        -13    1    3    3    0    0  0.46620389020E+03 -0.18658739653E+03  0.46523691244E+03  0.68454825954E+03  0.10566000000E+00 0.  1.
          4    1    3    3  501    0 -0.84588886018E+02 -0.78921302753E+02 -0.39876799109E+03  0.41521050371E+03  0.00000000000E+00 0.  1.
         13    1    1    2    0    0 -0.38161500418E+03  0.26550869929E+03  0.58295043958E+02  0.46853303419E+03  0.10566000000E+00 0. -1.
<mgrwt>
<rscale>  1 0.88555434E+03</rscale>
<asrwt>0</asrwt>
<pdfrwt beam="1">  1       21 0.13023506E+00 0.10977482E+04</pdfrwt>
<pdfrwt beam="2">  1        4 0.11104060E+00 0.10977482E+04</pdfrwt>
<totfact> 0.98949314E+00</totfact>
</mgrwt>
</event>
<event>
 6    1  0.2415530E-005  0.1360672E+04  0.7818608E-02  0.9059950E-01
          4   -1    0    0  502    0 -0.00000000000E+00  0.00000000000E+00  0.70242294270E+03  0.70242294270E+03  0.00000000000E+00 0.  1.
         21   -1    0    0  501  502  0.00000000000E+00 -0.00000000000E+00 -0.19977902894E+04  0.19977902894E+04  0.00000000000E+00 0. -1.
    9000010    2    1    2  501    0  0.54235583352E+03  0.84972638065E+03 -0.77098345373E+03  0.15639195858E+04  0.91391696171E+03 0.  0.
        -13    1    3    3    0    0 -0.25627300409E+03  0.23876800016E+03 -0.25852284931E+03  0.43533904638E+03  0.10566000000E+00 0.  1.
          4    1    3    3  501    0  0.79862883761E+03  0.61095838049E+03 -0.51246060442E+03  0.11285805394E+04  0.00000000000E+00 0.  1.
         13    1    1    2    0    0 -0.54235583352E+03 -0.84972638065E+03 -0.52438389292E+03  0.11362936462E+04  0.10566000000E+00 0. -1.
<mgrwt>
<rscale>  1 0.12623702E+04</rscale>
<asrwt>0</asrwt>
<pdfrwt beam="2">  1       21 0.30735235E+00 0.13606723E+04</pdfrwt>
<pdfrwt beam="1">  1        4 0.10806507E+00 0.13606723E+04</pdfrwt>
<totfact> 0.59749302E-01</totfact>
</mgrwt>
</event>
<event>
 6    1  0.2415530E-005  0.1004954E+04  0.7818608E-02  0.1007491E+00
          4   -1    0    0  502    0 -0.00000000000E+00  0.00000000000E+00  0.42914029293E+03  0.42914029293E+03  0.00000000000E+00 0.  1.
         21   -1    0    0  501  502  0.00000000000E+00 -0.00000000000E+00 -0.18270122464E+04  0.18270122464E+04  0.00000000000E+00 0.  1.
    9000010    2    1    2  501    0  0.39281159457E+02  0.63608116145E+02 -0.16836446621E+04  0.19607628744E+04  0.10021689974E+04 0.  0.
        -13    1    3    3    0    0  0.29159147590E+03  0.45426099998E+03 -0.88996361350E+03  0.10408716969E+04  0.10566000000E+00 0.  1.
          4    1    3    3  501    0 -0.25231031644E+03 -0.39065288384E+03 -0.79368104864E+03  0.91989117748E+03  0.00000000000E+00 0.  1.
         13    1    1    2    0    0 -0.39281159457E+02 -0.63608116145E+02  0.28577270871E+03  0.29538966491E+03  0.10566000000E+00 0. -1.
<mgrwt>
<rscale>  1 0.52483935E+03</rscale>
<asrwt>0</asrwt>
<pdfrwt beam="2">  1       21 0.28107881E+00 0.10049536E+04</pdfrwt>
<pdfrwt beam="1">  1        4 0.66021583E-01 0.10049536E+04</pdfrwt>
<totfact> 0.29224927E+00</totfact>
</mgrwt>
</event>
<event>
 6    1  0.2415530E-005  0.1062445E+04  0.7818608E-02  0.9543917E-01
          4   -1    0    0  502    0 -0.00000000000E+00  0.00000000000E+00  0.13908370526E+04  0.13908370526E+04  0.00000000000E+00 0.  1.
         21   -1    0    0  501  502  0.00000000000E+00 -0.00000000000E+00 -0.37754243792E+03  0.37754243792E+03  0.00000000000E+00 0.  1.
    9000010    2    1    2  501    0  0.36026612909E+03  0.24617637443E+02  0.60233434044E+03  0.12213090472E+04  0.99919538588E+03 0.  0.
        -13    1    3    3    0    0  0.70733353397E+03  0.68939278344E+02  0.43735821986E+03  0.83447922444E+03  0.10566000000E+00 0.  1.
          4    1    3    3  501    0 -0.34706740488E+03 -0.44321640901E+02  0.16497612058E+03  0.38682982272E+03  0.00000000000E+00 0.  1.
         13    1    1    2    0    0 -0.36026612909E+03 -0.24617637443E+02  0.41096027428E+03  0.54707044340E+03  0.10566000000E+00 0. -1.
<mgrwt>
<rscale>  1 0.81121983E+03</rscale>
<asrwt>0</asrwt>
<pdfrwt beam="2">  1       21 0.58083453E-01 0.10624449E+04</pdfrwt>
<pdfrwt beam="1">  1        4 0.21397493E+00 0.10624449E+04</pdfrwt>
<totfact> 0.11468742E+01</totfact>
</mgrwt>
</event>
<event>
 6    1  0.2415530E-005  0.1017102E+04  0.7818608E-02  0.9894888E-01
         21   -1    0    0  501  502  0.00000000000E+00  0.00000000000E+00  0.96598989112E+03  0.96598989112E+03  0.00000000000E+00 0.  1.
          4   -1    0    0  502    0 -0.00000000000E+00 -0.00000000000E+00 -0.49151634098E+03  0.49151634098E+03  0.00000000000E+00 0.  1.
    9000010    2    1    2  501    0  0.91758636902E+01 -0.12707981079E+03  0.67444227260E+03  0.12203966036E+04  0.10090896969E+04 0.  0.
        -13    1    3    3    0    0 -0.26103626080E+03 -0.24326297804E+02  0.84500573728E+03  0.88474086908E+03  0.10566000000E+00 0.  1.
          4    1    3    3  501    0  0.27021212450E+03 -0.10275351299E+03 -0.17056346468E+03  0.33565573455E+03  0.00000000000E+00 0.  1.
         13    1    1    2    0    0 -0.91758636902E+01  0.12707981079E+03 -0.19996872246E+03  0.23710962847E+03  0.10566000000E+00 0. -1.
<mgrwt>
<rscale>  1 0.60509658E+03</rscale>
<asrwt>0</asrwt>
<pdfrwt beam="1">  1       21 0.14861383E+00 0.10171015E+04</pdfrwt>
<pdfrwt beam="2">  1        4 0.75617899E-01 0.10171015E+04</pdfrwt>
<totfact> 0.17312551E+01</totfact>
</mgrwt>
</event>
<event>
 6    1  0.2415530E-005  0.1104413E+04  0.7818608E-02  0.9403913E-01
          4   -1    0    0  502    0 -0.00000000000E+00  0.00000000000E+00  0.25529485797E+04  0.25529485797E+04  0.00000000000E+00 0.  1.
         21   -1    0    0  501  502  0.00000000000E+00 -0.00000000000E+00 -0.34231058965E+03  0.34231058965E+03  0.00000000000E+00 0.  1.
    9000010    2    1    2  501    0 -0.52574109526E+03 -0.20795430261E+02  0.72988379918E+03  0.13238047048E+04  0.97102646051E+03 0.  0.
        -13    1    3    3    0    0 -0.49622947052E+03 -0.45245962720E+03  0.45625674212E+03  0.81187044998E+03  0.10566000000E+00 0.  1.
          4    1    3    3  501    0 -0.29511624742E+02  0.43166419694E+03  0.27362705706E+03  0.51193425483E+03  0.00000000000E+00 0.  1.
         13    1    1    2    0    0  0.52574109526E+03  0.20795430261E+02  0.14807541909E+04  0.15714544645E+04  0.10566000000E+00 0. -1.
<mgrwt>
<rscale>  1 0.91754325E+03</rscale>
<asrwt>0</asrwt>
<pdfrwt beam="2">  1       21 0.52663169E-01 0.11044132E+04</pdfrwt>
<pdfrwt beam="1">  1        4 0.39276131E+00 0.11044132E+04</pdfrwt>
<totfact> 0.10309197E+00</totfact>
</mgrwt>
</event>
<event>
 6    1  0.2415530E-005  0.9696414E+03  0.7818608E-02  0.9914924E-01
          4   -1    0    0  502    0 -0.00000000000E+00  0.00000000000E+00  0.20997752478E+04  0.20997752478E+04  0.00000000000E+00 0.  1.
         21   -1    0    0  501  502  0.00000000000E+00 -0.00000000000E+00 -0.16806411303E+03  0.16806411303E+03  0.00000000000E+00 0.  1.
    9000010    2    1    2  501    0 -0.13412441961E+03  0.31961640104E+02  0.13030539135E+04  0.16242394701E+04  0.95978823094E+03 0.  0.
        -13    1    3    3    0    0 -0.35528838087E+03 -0.31736247216E+03  0.10122892698E+04  0.11187843175E+04  0.10566000000E+00 0.  1.
          4    1    3    3  501    0  0.22116396126E+03  0.34932411226E+03  0.29076464371E+03  0.50545515251E+03  0.00000000000E+00 0.  1.
         13    1    1    2    0    0  0.13412441961E+03 -0.31961640104E+02  0.62865722130E+03  0.64359989079E+03  0.10566000000E+00 0. -1.
<mgrwt>
<rscale>  1 0.59543414E+03</rscale>
<asrwt>0</asrwt>
<pdfrwt beam="2">  1       21 0.25856019E-01 0.96964135E+03</pdfrwt>
<pdfrwt beam="1">  1        4 0.32304233E+00 0.96964135E+03</pdfrwt>
<totfact> 0.13181478E+01</totfact>
</mgrwt>
</event>
<event>
 6    1  0.2415530E-005  0.9906637E+03  0.7818608E-02  0.9890771E-01
          4   -1    0    0  502    0 -0.00000000000E+00  0.00000000000E+00  0.32540844457E+03  0.32540844457E+03  0.00000000000E+00 0.  1.
         21   -1    0    0  501  502  0.00000000000E+00 -0.00000000000E+00 -0.99953208047E+03  0.99953208047E+03  0.00000000000E+00 0.  1.
    9000010    2    1    2  501    0 -0.10825478908E+03  0.88343572143E+02 -0.64522466258E+03  0.11822560903E+04  0.98076037427E+03 0.  0.
        -13    1    3    3    0    0  0.36562120076E+03 -0.17548837056E+03 -0.10987258424E+03  0.42017499519E+03  0.10566000000E+00 0.  1.
          4    1    3    3  501    0 -0.47387598984E+03  0.26383194270E+03 -0.53535207834E+03  0.76208109511E+03  0.00000000000E+00 0.  1.
         13    1    1    2    0    0  0.10825478908E+03 -0.88343572143E+02 -0.28898973316E+02  0.14268443475E+03  0.10566000000E+00 0. -1.
<mgrwt>
<rscale>  1 0.60710660E+03</rscale>
<asrwt>0</asrwt>
<pdfrwt beam="2">  1       21 0.15377417E+00 0.99066372E+03</pdfrwt>
<pdfrwt beam="1">  1        4 0.50062838E-01 0.99066372E+03</pdfrwt>
<totfact> 0.38928317E+01</totfact>
</mgrwt>
</event>
<event>
 6    1  0.2415530E-005  0.1222471E+04  0.7818608E-02  0.9717954E-01
          4   -1    0    0  502    0 -0.00000000000E+00  0.00000000000E+00  0.72242117894E+03  0.72242117894E+03  0.00000000000E+00 0.  1.
         21   -1    0    0  501  502  0.00000000000E+00 -0.00000000000E+00 -0.65057943413E+03  0.65057943413E+03  0.00000000000E+00 0.  1.
    9000010    2    1    2  501    0 -0.13081114006E+03 -0.88123804477E+01  0.13040717028E+03  0.12294069759E+04  0.12154202030E+04 0.  0.
        -13    1    3    3    0    0  0.27841478610E+03 -0.46075878808E+02 -0.44222362022E+03  0.52459462556E+03  0.10566000000E+00 0.  1.
          4    1    3    3  501    0 -0.40922592616E+03  0.37263498360E+02  0.57263079050E+03  0.70481235033E+03  0.00000000000E+00 0.  1.
         13    1    1    2    0    0  0.13081114006E+03  0.88123804477E+01 -0.58565425477E+02  0.14359363718E+03  0.10566000000E+00 0. -1.
<mgrwt>
<rscale>  1 0.69957781E+03</rscale>
<asrwt>0</asrwt>
<pdfrwt beam="2">  1       21 0.10008914E+00 0.12224711E+04</pdfrwt>
<pdfrwt beam="1">  1        4 0.11114172E+00 0.12224711E+04</pdfrwt>
<totfact> 0.19212790E+01</totfact>
</mgrwt>
</event>
<event>
 6    1  0.2415530E-005  0.1031814E+04  0.7818608E-02  0.9878261E-01
          4   -1    0    0  502    0 -0.00000000000E+00  0.00000000000E+00  0.19561425394E+04  0.19561425394E+04  0.00000000000E+00 0.  1.
         21   -1    0    0  501  502  0.00000000000E+00 -0.00000000000E+00 -0.22668059610E+03  0.22668059610E+03  0.00000000000E+00 0.  1.
    9000010    2    1    2  501    0  0.10784006017E+03 -0.70358316940E+02  0.98222147043E+03  0.14245698092E+04  0.10237481883E+04 0.  0.
        -13    1    3    3    0    0  0.54684652482E+03 -0.11795205792E+03  0.71716364909E+03  0.90954797587E+03  0.10566000000E+00 0.  1.
          4    1    3    3  501    0 -0.43900646466E+03  0.47593740981E+02  0.26505782134E+03  0.51502183337E+03  0.00000000000E+00 0.  1.
         13    1    1    2    0    0 -0.10784006017E+03  0.70358316940E+02  0.74724047283E+03  0.75825332623E+03  0.10566000000E+00 0. -1.
<mgrwt>
<rscale>  1 0.61326533E+03</rscale>
<asrwt>0</asrwt>
<pdfrwt beam="2">  1       21 0.34873939E-01 0.10318140E+04</pdfrwt>
<pdfrwt beam="1">  1        4 0.30094500E+00 0.10318140E+04</pdfrwt>
<totfact> 0.98191118E+00</totfact>
</mgrwt>
</event>
<event>
 6    1  0.2415530E-005  0.9811658E+03  0.7818608E-02  0.1015075E+00
         21   -1    0    0  501  502  0.00000000000E+00  0.00000000000E+00  0.17721071344E+04  0.17721071344E+04  0.00000000000E+00 0.  1.
          4   -1    0    0  502    0 -0.00000000000E+00 -0.00000000000E+00 -0.32769032412E+03  0.32769032412E+03  0.00000000000E+00 0.  1.
    9000010    2    1    2  501    0  0.54509039391E+02 -0.32759084514E+02  0.16306096353E+04  0.19030433677E+04  0.97910259110E+03 0.  0.
        -13    1    3    3    0    0 -0.20950959903E+03  0.39072118409E+03  0.10352898160E+04  0.11262248133E+04  0.10566000000E+00 0.  1.
          4    1    3    3  501    0  0.26401863842E+03 -0.42348026861E+03  0.59531981924E+03  0.77681855443E+03  0.00000000000E+00 0.  1.
         13    1    1    2    0    0 -0.54509039391E+02  0.32759084514E+02 -0.18619282499E+03  0.19675409077E+03  0.10566000000E+00 0. -1.
<mgrwt>
<rscale>  1 0.49506658E+03</rscale>
<asrwt>0</asrwt>
<pdfrwt beam="1">  1       21 0.27263186E+00 0.98116577E+03</pdfrwt>
<pdfrwt beam="2">  1        4 0.50413897E-01 0.98116577E+03</pdfrwt>
<totfact> 0.59385887E+00</totfact>
</mgrwt>
</event>
<event>
 6    1  0.2415530E-005  0.1064539E+04  0.7818608E-02  0.9524914E-01
         21   -1    0    0  501  502  0.00000000000E+00  0.00000000000E+00  0.17632875156E+04  0.17632875156E+04  0.00000000000E+00 0.  1.
          4   -1    0    0  502    0 -0.00000000000E+00 -0.00000000000E+00 -0.31025487728E+03  0.31025487728E+03  0.00000000000E+00 0.  1.
    9000010    2    1    2  501    0 -0.25319162839E+03 -0.28800100643E+03  0.12421728800E+04  0.16359210621E+04  0.99307284575E+03 0.  0.
        -13    1    3    3    0    0 -0.48289798934E+03  0.75537195303E+02  0.10631398154E+04  0.11701122229E+04  0.10566000000E+00 0.  1.
          4    1    3    3  501    0  0.22970636094E+03 -0.36353820174E+03  0.17903306465E+03  0.46580883914E+03  0.00000000000E+00 0.  1.
         13    1    1    2    0    0  0.25319162839E+03  0.28800100643E+03  0.21085975831E+03  0.43762133087E+03  0.10566000000E+00 0. -1.
<mgrwt>
<rscale>  1 0.82471647E+03</rscale>
<asrwt>0</asrwt>
<pdfrwt beam="1">  1       21 0.27127500E+00 0.10645395E+04</pdfrwt>
<pdfrwt beam="2">  1        4 0.47731521E-01 0.10645395E+04</pdfrwt>
<totfact> 0.67026388E+00</totfact>
</mgrwt>
</event>
<event>
 6    1  0.2415530E-005  0.1012663E+04  0.7818608E-02  0.9756394E-01
          4   -1    0    0  502    0 -0.00000000000E+00  0.00000000000E+00  0.75104211819E+03  0.75104211819E+03  0.00000000000E+00 0.  1.
         21   -1    0    0  501  502  0.00000000000E+00 -0.00000000000E+00 -0.50726791832E+03  0.50726791832E+03  0.00000000000E+00 0. -1.
    9000010    2    1    2  501    0  0.64202175568E+02 -0.19253214541E+03  0.28329526451E+03  0.10515433272E+04  0.99211723890E+03 0.  0.
        -13    1    3    3    0    0 -0.39758072414E+03 -0.84322072268E+02  0.39231616702E+03  0.56488284639E+03  0.10566000000E+00 0.  1.
          4    1    3    3  501    0  0.46178289971E+03 -0.10821007315E+03 -0.10902090251E+03  0.48666048081E+03  0.00000000000E+00 0.  1.
         13    1    1    2    0    0 -0.64202175568E+02  0.19253214541E+03 -0.39521064645E+02  0.20676670931E+03  0.10566000000E+00 0. -1.
<mgrwt>
<rscale>  1 0.67756131E+03</rscale>
<asrwt>0</asrwt>
<pdfrwt beam="2">  1       21 0.78041218E-01 0.10126634E+04</pdfrwt>
<pdfrwt beam="1">  1        4 0.11554494E+00 0.10126634E+04</pdfrwt>
<totfact> 0.32363289E+01</totfact>
</mgrwt>
</event>
<event>
 6    1  0.2415530E-005  0.1018371E+04  0.7818608E-02  0.9926295E-01
         21   -1    0    0  501  502  0.00000000000E+00  0.00000000000E+00  0.28655789493E+03  0.28655789493E+03  0.00000000000E+00 0.  1.
          4   -1    0    0  502    0 -0.00000000000E+00 -0.00000000000E+00 -0.15995619002E+04  0.15995619002E+04  0.00000000000E+00 0.  1.
    9000010    2    1    2  501    0  0.10503903865E+02 -0.11428045087E+03 -0.63863175981E+03  0.12020523350E+04  0.10118838559E+04 0.  0.
        -13    1    3    3    0    0  0.49485386223E+02  0.32993301620E+03  0.92014364113E+02  0.34607983616E+03  0.10566000000E+00 0.  1.
          4    1    3    3  501    0 -0.38981482357E+02 -0.44421346707E+03 -0.73064612393E+03  0.85597249880E+03  0.00000000000E+00 0.  1.
         13    1    1    2    0    0 -0.10503903865E+02  0.11428045087E+03 -0.67437224546E+03  0.68406746017E+03  0.10566000000E+00 0. -1.
<mgrwt>
<rscale>  1 0.59003695E+03</rscale>
<asrwt>0</asrwt>
<pdfrwt beam="1">  1       21 0.44085830E-01 0.10183709E+04</pdfrwt>
<pdfrwt beam="2">  1        4 0.24608644E+00 0.10183709E+04</pdfrwt>
<totfact> 0.13143291E+01</totfact>
</mgrwt>
</event>
<event>
 6    1  0.2415530E-005  0.1072994E+04  0.7818608E-02  0.9679868E-01
         21   -1    0    0  501  502  0.00000000000E+00  0.00000000000E+00  0.86463517347E+03  0.86463517347E+03  0.00000000000E+00 0.  1.
          4   -1    0    0  502    0 -0.00000000000E+00 -0.00000000000E+00 -0.54430927896E+03  0.54430927896E+03  0.00000000000E+00 0.  1.
    9000010    2    1    2  501    0  0.14926784239E+03 -0.16203625763E+03  0.43826929858E+03  0.11590498841E+04  0.10501333335E+04 0.  0.
        -13    1    3    3    0    0  0.53166952677E+03 -0.20266825693E+03  0.51438798847E+03  0.76703449851E+03  0.10566000000E+00 0.  1.
          4    1    3    3  501    0 -0.38240168438E+03  0.40631999300E+02 -0.76118689892E+02  0.39201538559E+03  0.00000000000E+00 0.  1.
         13    1    1    2    0    0 -0.14926784239E+03  0.16203625763E+03 -0.11794340406E+03  0.24989456833E+03  0.10566000000E+00 0. -1.
<mgrwt>
<rscale>  1 0.72228196E+03</rscale>
<asrwt>0</asrwt>
<pdfrwt beam="1">  1       21 0.13302080E+00 0.10729942E+04</pdfrwt>
<pdfrwt beam="2">  1        4 0.83739889E-01 0.10729942E+04</pdfrwt>
<totfact> 0.18428856E+01</totfact>
</mgrwt>
</event>
<event>
 6    1  0.2415530E-005  0.1092524E+04  0.7818608E-02  0.9857538E-01
          4   -1    0    0  502    0 -0.00000000000E+00  0.00000000000E+00  0.24498078119E+03  0.24498078119E+03  0.00000000000E+00 0.  1.
         21   -1    0    0  501  502  0.00000000000E+00 -0.00000000000E+00 -0.18310276906E+04  0.18310276906E+04  0.00000000000E+00 0.  1.
    9000010    2    1    2  501    0  0.90335629482E+02 -0.72764290419E+02 -0.16210523985E+04  0.19548450972E+04  0.10863486123E+04 0.  0.
        -13    1    3    3    0    0 -0.36054638618E+02 -0.52793602690E+03 -0.12390770449E+04  0.13473412040E+04  0.10566000000E+00 0.  1.
          4    1    3    3  501    0  0.12639026810E+03  0.45517173648E+03 -0.38197535360E+03  0.60750389325E+03  0.00000000000E+00 0.  1.
         13    1    1    2    0    0 -0.90335629482E+02  0.72764290419E+02  0.35005489098E+02  0.12116337460E+03  0.10566000000E+00 0. -1.
<mgrwt>
<rscale>  1 0.62364062E+03</rscale>
<asrwt>0</asrwt>
<pdfrwt beam="2">  1       21 0.28169657E+00 0.10925239E+04</pdfrwt>
<pdfrwt beam="1">  1        4 0.37689350E-01 0.10925239E+04</pdfrwt>
<totfact> 0.93424640E+00</totfact>
</mgrwt>
</event>
<event>
 6    1  0.2415530E-005  0.9960912E+03  0.7818608E-02  0.1050062E+00
          4   -1    0    0  502    0 -0.00000000000E+00  0.00000000000E+00  0.58327593824E+03  0.58327593824E+03  0.00000000000E+00 0.  1.
         21   -1    0    0  501  502  0.00000000000E+00 -0.00000000000E+00 -0.45851921286E+03  0.45851921286E+03  0.00000000000E+00 0.  1.
    9000010    2    1    2  501    0 -0.21415957805E+02  0.30252530644E+01  0.89069919645E+02  0.10000656091E+04  0.99585640360E+03 0.  0.
        -13    1    3    3    0    0  0.20244646452E+03 -0.26227601696E+03 -0.32201367165E+03  0.46202391276E+03  0.10566000000E+00 0.  1.
          4    1    3    3  501    0 -0.22386242232E+03  0.26530127003E+03  0.41108359130E+03  0.53804169638E+03  0.00000000000E+00 0.  1.
         13    1    1    2    0    0  0.21415957805E+02 -0.30252530644E+01  0.35686805732E+02  0.41729541960E+02  0.10566000000E+00 0. -1.
<mgrwt>
<rscale>  1 0.38236896E+03</rscale>
<asrwt>0</asrwt>
<pdfrwt beam="2">  1       21 0.70541417E-01 0.99609125E+03</pdfrwt>
<pdfrwt beam="1">  1        4 0.89734760E-01 0.99609125E+03</pdfrwt>
<totfact> 0.75515789E+01</totfact>
</mgrwt>
</event>
<event>
 6    1  0.2415530E-005  0.1004392E+04  0.7818608E-02  0.9717958E-01
         21   -1    0    0  501  502  0.00000000000E+00  0.00000000000E+00  0.35513339017E+03  0.35513339017E+03  0.00000000000E+00 0.  1.
          4   -1    0    0  502    0 -0.00000000000E+00 -0.00000000000E+00 -0.11752245762E+04  0.11752245762E+04  0.00000000000E+00 0.  1.
    9000010    2    1    2  501    0  0.16754159635E+03  0.16676410039E+03 -0.47245166609E+03  0.11099608937E+04  0.97617731850E+03 0.  0.
        -13    1    3    3    0    0 -0.34598007762E+03  0.45755229203E+02 -0.46617652047E+03  0.58233694243E+03  0.10566000000E+00 0.  1.
          4    1    3    3  501    0  0.51352167397E+03  0.12100887119E+03 -0.62751456185E+01  0.52762395131E+03  0.00000000000E+00 0.  1.
         13    1    1    2    0    0 -0.16754159635E+03 -0.16676410039E+03 -0.34763951995E+03  0.42039707264E+03  0.10566000000E+00 0. -1.
<mgrwt>
<rscale>  1 0.69957587E+03</rscale>
<asrwt>0</asrwt>
<pdfrwt beam="1">  1       21 0.54635906E-01 0.10043917E+04</pdfrwt>
<pdfrwt beam="2">  1        4 0.18080378E+00 0.10043917E+04</pdfrwt>
<totfact> 0.21989880E+01</totfact>
</mgrwt>
</event>
<event>
 6    1  0.2415530E-005  0.1053474E+04  0.7818608E-02  0.9574841E-01
          4   -1    0    0  502    0 -0.00000000000E+00  0.00000000000E+00  0.54169908874E+03  0.54169908874E+03  0.00000000000E+00 0.  1.
         21   -1    0    0  501  502  0.00000000000E+00 -0.00000000000E+00 -0.89496698729E+03  0.89496698729E+03  0.00000000000E+00 0.  1.
    9000010    2    1    2  501    0  0.85436962987E+02 -0.32172686537E+03 -0.20967185536E+03  0.10741367871E+04  0.99949982488E+03 0.  0.
        -13    1    3    3    0    0  0.27434877788E+03 -0.54125142388E+03  0.13732588776E+03  0.62215654492E+03  0.10566000000E+00 0.  1.
          4    1    3    3  501    0 -0.18891181490E+03  0.21952455851E+03 -0.34699774312E+03  0.45198024219E+03  0.00000000000E+00 0.  1.
         13    1    1    2    0    0 -0.85436962987E+02  0.32172686537E+03 -0.14359604319E+03  0.36252928893E+03  0.10566000000E+00 0. -1.
<mgrwt>
<rscale>  1 0.78984006E+03</rscale>
<asrwt>0</asrwt>
<pdfrwt beam="2">  1       21 0.13768723E+00 0.10534740E+04</pdfrwt>
<pdfrwt beam="1">  1        4 0.83338322E-01 0.10534740E+04</pdfrwt>
<totfact> 0.17017951E+01</totfact>
</mgrwt>
</event>
<event>
 6    1  0.2415530E-005  0.1082221E+04  0.7818608E-02  0.9489376E-01
          4   -1    0    0  502    0 -0.00000000000E+00  0.00000000000E+00  0.52274076177E+03  0.52274076177E+03  0.00000000000E+00 0.  1.
         21   -1    0    0  501  502  0.00000000000E+00 -0.00000000000E+00 -0.10736330889E+04  0.10736330889E+04  0.00000000000E+00 0.  1.
    9000010    2    1    2  501    0  0.31007768303E+03  0.27315016270E+03 -0.44228266707E+03  0.11691090027E+04  0.10002213364E+04 0.  0.
        -13    1    3    3    0    0  0.35123483138E+03  0.44174096176E+03  0.12315418551E+03  0.57763998186E+03  0.10566000000E+00 0.  1.
          4    1    3    3  501    0 -0.41157148351E+02 -0.16859079906E+03 -0.56543685258E+03  0.59146902087E+03  0.00000000000E+00 0.  1.
         13    1    1    2    0    0 -0.31007768303E+03 -0.27315016270E+03 -0.10860966009E+03  0.42726484799E+03  0.10566000000E+00 0. -1.
<mgrwt>
<rscale>  1 0.85071663E+03</rscale>
<asrwt>0</asrwt>
<pdfrwt beam="2">  1       21 0.16517432E+00 0.10822208E+04</pdfrwt>
<pdfrwt beam="1">  1        4 0.80421657E-01 0.10822208E+04</pdfrwt>
<totfact> 0.11059351E+01</totfact>
</mgrwt>
</event>
<event>
 6    1  0.2415530E-005  0.1003374E+04  0.7818608E-02  0.9883235E-01
         21   -1    0    0  501  502  0.00000000000E+00  0.00000000000E+00  0.24659398063E+03  0.24659398063E+03  0.00000000000E+00 0.  1.
          4   -1    0    0  502    0 -0.00000000000E+00 -0.00000000000E+00 -0.13423234239E+04  0.13423234239E+04  0.00000000000E+00 0.  1.
    9000010    2    1    2  501    0 -0.10377889754E+03  0.90647140045E+02 -0.88946372302E+03  0.13408599070E+04  0.99386750224E+03 0.  0.
        -13    1    3    3    0    0 -0.20989827974E+03 -0.38832471769E+03 -0.67251529979E+03  0.80444404021E+03  0.10566000000E+00 0.  1.
          4    1    3    3  501    0  0.10611938221E+03  0.47897185773E+03 -0.21694842323E+03  0.53641586677E+03  0.00000000000E+00 0.  1.
         13    1    1    2    0    0  0.10377889754E+03 -0.90647140045E+02 -0.20626572020E+03  0.24805749750E+03  0.10566000000E+00 0. -1.
<mgrwt>
<rscale>  1 0.61080718E+03</rscale>
<asrwt>0</asrwt>
<pdfrwt beam="1">  1       21 0.37937536E-01 0.10033741E+04</pdfrwt>
<pdfrwt beam="2">  1        4 0.20651129E+00 0.10033741E+04</pdfrwt>
<totfact> 0.32159756E+01</totfact>
</mgrwt>
</event>
<event>
 6    1  0.2415530E-005  0.1069465E+04  0.7818608E-02  0.9522386E-01
          4   -1    0    0  502    0 -0.00000000000E+00  0.00000000000E+00  0.73557462071E+03  0.73557462071E+03  0.00000000000E+00 0.  1.
         21   -1    0    0  501  502  0.00000000000E+00 -0.00000000000E+00 -0.81236586577E+03  0.81236586577E+03  0.00000000000E+00 0.  1.
    9000010    2    1    2  501    0  0.38012205917E+03  0.32875602751E+02  0.18482954150E+03  0.10853185758E+04  0.99909001917E+03 0.  0.
        -13    1    3    3    0    0 -0.80221137870E+02 -0.10217388586E+03  0.49650723840E+03  0.51321962439E+03  0.10566000000E+00 0.  1.
          4    1    3    3  501    0  0.46034319704E+03  0.13504948861E+03 -0.31167769690E+03  0.57209895139E+03  0.00000000000E+00 0.  1.
         13    1    1    2    0    0 -0.38012205917E+03 -0.32875602751E+02 -0.26162078657E+03  0.46262191069E+03  0.10566000000E+00 0. -1.
<mgrwt>
<rscale>  1 0.82653297E+03</rscale>
<asrwt>0</asrwt>
<pdfrwt beam="2">  1       21 0.12497936E+00 0.10694646E+04</pdfrwt>
<pdfrwt beam="1">  1        4 0.11316533E+00 0.10694646E+04</pdfrwt>
<totfact> 0.10562177E+01</totfact>
</mgrwt>
</event>
<event>
 6    1  0.2415530E-005  0.1070942E+04  0.7818608E-02  0.9524870E-01
         21   -1    0    0  501  502  0.00000000000E+00  0.00000000000E+00  0.92266789529E+03  0.92266789529E+03  0.00000000000E+00 0.  1.
          4   -1    0    0  502    0 -0.00000000000E+00 -0.00000000000E+00 -0.58549123315E+03  0.58549123315E+03  0.00000000000E+00 0.  1.
    9000010    2    1    2  501    0  0.28862495853E+03 -0.24205966128E+03  0.36246508384E+03  0.11306187177E+04  0.10025071080E+04 0.  0.
        -13    1    3    3    0    0 -0.12233629449E+03  0.22052148613E+03  0.43986863615E+03  0.50703088961E+03  0.10566000000E+00 0.  1.
          4    1    3    3  501    0  0.41096125302E+03 -0.46258114741E+03 -0.77403552310E+02  0.62358782809E+03  0.00000000000E+00 0.  1.
         13    1    1    2    0    0 -0.28862495853E+03  0.24205966128E+03 -0.25288421688E+02  0.37754041074E+03  0.10566000000E+00 0. -1.
<mgrwt>
<rscale>  1 0.82474815E+03</rscale>
<asrwt>0</asrwt>
<pdfrwt beam="1">  1       21 0.14194891E+00 0.10709425E+04</pdfrwt>
<pdfrwt beam="2">  1        4 0.90075575E-01 0.10709425E+04</pdfrwt>
<totfact> 0.13033811E+01</totfact>
</mgrwt>
</event>
<event>
 6    1  0.2415530E-005  0.1015569E+04  0.7818608E-02  0.9806810E-01
          4   -1    0    0  502    0 -0.00000000000E+00  0.00000000000E+00  0.73219554840E+03  0.73219554840E+03  0.00000000000E+00 0.  1.
         21   -1    0    0  501  502  0.00000000000E+00 -0.00000000000E+00 -0.13488229314E+04  0.13488229314E+04  0.00000000000E+00 0.  1.
    9000010    2    1    2  501    0 -0.12954429739E+03 -0.11070726726E+03 -0.11422666127E+04  0.15284477287E+04  0.10011701259E+04 0.  0.
        -13    1    3    3    0    0  0.27279562275E+03  0.17221489976E+03 -0.94492769383E+03  0.99848073653E+03  0.10566000000E+00 0.  1.
          4    1    3    3  501    0 -0.40233992014E+03 -0.28292216703E+03 -0.19733891890E+03  0.52996699222E+03  0.00000000000E+00 0.  1.
         13    1    1    2    0    0  0.12954429739E+03  0.11070726726E+03  0.52563922969E+03  0.55257075109E+03  0.10566000000E+00 0. -1.
<mgrwt>
<rscale>  1 0.64998369E+03</rscale>
<asrwt>0</asrwt>
<pdfrwt beam="2">  1       21 0.20751122E+00 0.10155685E+04</pdfrwt>
<pdfrwt beam="1">  1        4 0.11264547E+00 0.10155685E+04</pdfrwt>
<totfact> 0.24856927E+00</totfact>
</mgrwt>
</event>
<event>
 6    1  0.2415530E-005  0.1212183E+04  0.7818608E-02  0.9251271E-01
         21   -1    0    0  501  502  0.00000000000E+00  0.00000000000E+00  0.13313251396E+04  0.13313251396E+04  0.00000000000E+00 0. -1.
          4   -1    0    0  502    0 -0.00000000000E+00 -0.00000000000E+00 -0.68301396339E+03  0.68301396339E+03  0.00000000000E+00 0.  1.
    9000010    2    1    2  501    0 -0.59731752769E+03 -0.35089186676E+03  0.45905930717E+03  0.12961959333E+04  0.99472363951E+03 0.  0.
        -13    1    3    3    0    0 -0.45846910108E+02  0.18597738343E+03  0.48981941818E+03  0.52593973030E+03  0.10566000000E+00 0.  1.
          4    1    3    3  501    0 -0.55147061758E+03 -0.53686925019E+03 -0.30760111013E+02  0.77025620302E+03  0.00000000000E+00 0.  1.
         13    1    1    2    0    0  0.59731752769E+03  0.35089186676E+03  0.18925186905E+03  0.71814316967E+03  0.10566000000E+00 0. -1.
<mgrwt>
<rscale>  1 0.10539538E+04</rscale>
<asrwt>0</asrwt>
<pdfrwt beam="1">  1       21 0.20481925E+00 0.12121833E+04</pdfrwt>
<pdfrwt beam="2">  1        4 0.10507907E+00 0.12121833E+04</pdfrwt>
<totfact> 0.29920856E+00</totfact>
</mgrwt>
</event>
<event>
 6    1  0.2415530E-005  0.1082361E+04  0.7818608E-02  0.9504021E-01
          4   -1    0    0  502    0 -0.00000000000E+00  0.00000000000E+00  0.32916007442E+03  0.32916007442E+03  0.00000000000E+00 0.  1.
         21   -1    0    0  501  502  0.00000000000E+00 -0.00000000000E+00 -0.28374582325E+04  0.28374582325E+04  0.00000000000E+00 0.  1.
    9000010    2    1    2  501    0 -0.39122969194E+03  0.30568491051E+02 -0.25517377757E+04  0.27717992141E+04  0.10087170580E+04 0.  0.
        -13    1    3    3    0    0 -0.56572368945E+03 -0.30506365431E+03 -0.20159401402E+04  0.21159210255E+04  0.10566000000E+00 0.  1.
          4    1    3    3  501    0  0.17449399752E+03  0.33563214537E+03 -0.53579763551E+03  0.65587818868E+03  0.00000000000E+00 0.  1.
         13    1    1    2    0    0  0.39122969194E+03 -0.30568491051E+02  0.43439617596E+02  0.39481909280E+03  0.10566000000E+00 0. -1.
<mgrwt>
<rscale>  1 0.83988041E+03</rscale>
<asrwt>0</asrwt>
<pdfrwt beam="2">  1       21 0.43653206E+00 0.10823609E+04</pdfrwt>
<pdfrwt beam="1">  1        4 0.50640009E-01 0.10823609E+04</pdfrwt>
<totfact> 0.51496739E-01</totfact>
</mgrwt>
</event>
<event>
 6    1  0.2415530E-005  0.9274022E+03  0.7818608E-02  0.9748003E-01
          4   -1    0    0  502    0 -0.00000000000E+00  0.00000000000E+00  0.96605190436E+03  0.96605190436E+03  0.00000000000E+00 0.  1.
         21   -1    0    0  501  502  0.00000000000E+00 -0.00000000000E+00 -0.67788312938E+03  0.67788312938E+03  0.00000000000E+00 0.  1.
    9000010    2    1    2  501    0 -0.25212686169E+03 -0.10123683295E+03 -0.31739784731E+03  0.98021235376E+03  0.88671191164E+03 0.  0.
        -13    1    3    3    0    0  0.17559270752E+03  0.24616618512E+03 -0.30436075025E+03  0.42902921473E+03  0.10566000000E+00 0.  1.
          4    1    3    3  501    0 -0.42771956921E+03 -0.34740301807E+03 -0.13037097053E+02  0.55118313903E+03  0.00000000000E+00 0.  1.
         13    1    1    2    0    0  0.25212686169E+03  0.10123683295E+03  0.60556662229E+03  0.66372267998E+03  0.10566000000E+00 0. -1.
<mgrwt>
<rscale>  1 0.68229242E+03</rscale>
<asrwt>0</asrwt>
<pdfrwt beam="2">  1       21 0.10428971E+00 0.92740221E+03</pdfrwt>
<pdfrwt beam="1">  1        4 0.14862337E+00 0.92740221E+03</pdfrwt>
<totfact> 0.84695442E+00</totfact>
</mgrwt>
</event>
<event>
 6    1  0.2415530E-005  0.1012601E+04  0.7818608E-02  0.9868211E-01
         21   -1    0    0  501  502  0.00000000000E+00  0.00000000000E+00  0.48573066917E+03  0.48573066917E+03  0.00000000000E+00 0.  1.
          4   -1    0    0  502    0 -0.00000000000E+00 -0.00000000000E+00 -0.10024984004E+04  0.10024984004E+04  0.00000000000E+00 0.  1.
    9000010    2    1    2  501    0 -0.14029775088E+02  0.14003213227E+03 -0.64592425590E+02  0.10146592745E+04  0.10027738674E+04 0.  0.
        -13    1    3    3    0    0  0.19552404747E+03 -0.19265039773E+03 -0.40859535951E+03  0.49223369233E+03  0.10566000000E+00 0.  1.
          4    1    3    3  501    0 -0.20955382256E+03  0.33268253000E+03  0.34400293392E+03  0.52242558213E+03  0.00000000000E+00 0.  1.
         13    1    1    2    0    0  0.14029775088E+02 -0.14003213227E+03 -0.45217530561E+03  0.47356979509E+03  0.10566000000E+00 0. -1.
<mgrwt>
<rscale>  1 0.61826976E+03</rscale>
<asrwt>0</asrwt>
<pdfrwt beam="1">  1       21 0.74727796E-01 0.10126012E+04</pdfrwt>
<pdfrwt beam="2">  1        4 0.15423052E+00 0.10126012E+04</pdfrwt>
<totfact> 0.16928195E+01</totfact>
</mgrwt>
</event>
<event>
 6    1  0.2415530E-005  0.1077656E+04  0.7818608E-02  0.9529461E-01
          4   -1    0    0  502    0 -0.00000000000E+00  0.00000000000E+00  0.15920239699E+04  0.15920239699E+04  0.00000000000E+00 0.  1.
         21   -1    0    0  501  502  0.00000000000E+00 -0.00000000000E+00 -0.34397768678E+03  0.34397768678E+03  0.00000000000E+00 0.  1.
    9000010    2    1    2  501    0  0.79859631105E+02 -0.35496585354E+03  0.72491745364E+03  0.12987873275E+04  0.10143790661E+04 0.  0.
        -13    1    3    3    0    0  0.52794101542E+03 -0.84692767342E+02  0.48976659419E+03  0.72509717180E+03  0.10566000000E+00 0.  1.
          4    1    3    3  501    0 -0.44808138431E+03 -0.27027308620E+03  0.23515085945E+03  0.57369015574E+03  0.00000000000E+00 0.  1.
         13    1    1    2    0    0 -0.79859631105E+02  0.35496585354E+03  0.52312882945E+03  0.63721432911E+03  0.10566000000E+00 0. -1.
<mgrwt>
<rscale>  1 0.82146172E+03</rscale>
<asrwt>0</asrwt>
<pdfrwt beam="2">  1       21 0.52919645E-01 0.10776563E+04</pdfrwt>
<pdfrwt beam="1">  1        4 0.24492676E+00 0.10776563E+04</pdfrwt>
<totfact> 0.89569041E+00</totfact>
</mgrwt>
</event>
<event>
 6    1  0.2415530E-005  0.1125328E+04  0.7818608E-02  0.9379084E-01
         21   -1    0    0  501  502  0.00000000000E+00  0.00000000000E+00  0.14351205538E+04  0.14351205538E+04  0.00000000000E+00 0.  1.
          4   -1    0    0  502    0 -0.00000000000E+00 -0.00000000000E+00 -0.58700330490E+03  0.58700330490E+03  0.00000000000E+00 0.  1.
    9000010    2    1    2  501    0  0.92841624771E+02 -0.53562786242E+03  0.94555863610E+03  0.14698452973E+04  0.98531583235E+03 0.  0.
        -13    1    3    3    0    0 -0.45071395691E+02  0.75045718950E+02  0.82829112935E+03  0.83290425426E+03  0.10566000000E+00 0.  1.
          4    1    3    3  501    0  0.13791302046E+03 -0.61067358137E+03  0.11726750675E+03  0.63694104306E+03  0.00000000000E+00 0.  1.
         13    1    1    2    0    0 -0.92841624771E+02  0.53562786242E+03 -0.97441387175E+02  0.55227856141E+03  0.10566000000E+00 0. -1.
<mgrwt>
<rscale>  1 0.93817150E+03</rscale>
<asrwt>0</asrwt>
<pdfrwt beam="1">  1       21 0.22078778E+00 0.11253284E+04</pdfrwt>
<pdfrwt beam="2">  1        4 0.90308201E-01 0.11253284E+04</pdfrwt>
<totfact> 0.34010492E+00</totfact>
</mgrwt>
</event>
<event>
 6    1  0.2415530E-005  0.9424902E+03  0.7818608E-02  0.9659838E-01
          4   -1    0    0  502    0 -0.00000000000E+00  0.00000000000E+00  0.10566759026E+04  0.10566759026E+04  0.00000000000E+00 0.  1.
         21   -1    0    0  501  502  0.00000000000E+00 -0.00000000000E+00 -0.53707284176E+03  0.53707284176E+03  0.00000000000E+00 0. -1.
    9000010    2    1    2  501    0 -0.27994095416E+03 -0.20642510019E+03 -0.30415634040E+02  0.94298086279E+03  0.87596206368E+03 0.  0.
        -13    1    3    3    0    0 -0.16518557629E+03  0.33590088210E+03 -0.91355905251E+02  0.38530713697E+03  0.10566000000E+00 0.  1.
          4    1    3    3  501    0 -0.11475537787E+03 -0.54232598229E+03  0.60940271211E+02  0.55767372582E+03  0.00000000000E+00 0.  1.
         13    1    1    2    0    0  0.27994095416E+03  0.20642510019E+03  0.55001869493E+03  0.65076788161E+03  0.10566000000E+00 0. -1.
<mgrwt>
<rscale>  1 0.73459177E+03</rscale>
<asrwt>0</asrwt>
<pdfrwt beam="2">  1       21 0.82626591E-01 0.94249021E+03</pdfrwt>
<pdfrwt beam="1">  1        4 0.16256552E+00 0.94249021E+03</pdfrwt>
<totfact> 0.11668466E+01</totfact>
</mgrwt>
</event>
<event>
 6    1  0.2415530E-005  0.1002460E+04  0.7818608E-02  0.1001971E+00
         21   -1    0    0  501  502  0.00000000000E+00  0.00000000000E+00  0.32350741982E+03  0.32350741982E+03  0.00000000000E+00 0.  1.
          4   -1    0    0  502    0 -0.00000000000E+00 -0.00000000000E+00 -0.93204173332E+03  0.93204173332E+03  0.00000000000E+00 0.  1.
    9000010    2    1    2  501    0  0.87842382530E+02  0.17056300005E+02 -0.59302062418E+03  0.11647312735E+04  0.99845794967E+03 0.  0.
        -13    1    3    3    0    0 -0.32908341586E+03  0.34141842917E+03 -0.28443766116E+03  0.55296223436E+03  0.10566000000E+00 0.  1.
          4    1    3    3  501    0  0.41692579839E+03 -0.32436212917E+03 -0.30858296301E+03  0.61176903915E+03  0.00000000000E+00 0.  1.
         13    1    1    2    0    0 -0.87842382530E+02 -0.17056300005E+02 -0.15513689323E+02  0.90817879621E+02  0.10566000000E+00 0. -1.
<mgrwt>
<rscale>  1 0.54794305E+03</rscale>
<asrwt>0</asrwt>
<pdfrwt beam="1">  1       21 0.49770373E-01 0.10024597E+04</pdfrwt>
<pdfrwt beam="2">  1        4 0.14339103E+00 0.10024597E+04</pdfrwt>
<totfact> 0.51124062E+01</totfact>
</mgrwt>
</event>
<event>
 6    1  0.2415530E-005  0.1009551E+04  0.7818608E-02  0.9865206E-01
          4   -1    0    0  502    0 -0.00000000000E+00  0.00000000000E+00  0.14006172452E+04  0.14006172452E+04  0.00000000000E+00 0.  1.
         21   -1    0    0  501  502  0.00000000000E+00 -0.00000000000E+00 -0.34564709020E+03  0.34564709020E+03  0.00000000000E+00 0.  1.
    9000010    2    1    2  501    0 -0.13381786985E+03 -0.51544298007E+02  0.41684330996E+03  0.10922231146E+04  0.99931423993E+03 0.  0.
        -13    1    3    3    0    0  0.14738628481E+03 -0.18554752089E+02 -0.29272056291E+03  0.32825650776E+03  0.10566000000E+00 0.  1.
          4    1    3    3  501    0 -0.28120415465E+03 -0.32989545918E+02  0.70956387287E+03  0.76396660687E+03  0.00000000000E+00 0.  1.
         13    1    1    2    0    0  0.13381786985E+03  0.51544298007E+02  0.63812684502E+03  0.65404122075E+03  0.10566000000E+00 0. -1.
<mgrwt>
<rscale>  1 0.61977597E+03</rscale>
<asrwt>0</asrwt>
<pdfrwt beam="2">  1       21 0.53176476E-01 0.10095509E+04</pdfrwt>
<pdfrwt beam="1">  1        4 0.21547957E+00 0.10095509E+04</pdfrwt>
<totfact> 0.13698769E+01</totfact>
</mgrwt>
</event>
<event>
 6    1  0.2415530E-005  0.1231635E+04  0.7818608E-02  0.9232470E-01
         21   -1    0    0  501  502  0.00000000000E+00  0.00000000000E+00  0.12765975349E+04  0.12765975349E+04  0.00000000000E+00 0. -1.
          4   -1    0    0  502    0 -0.00000000000E+00 -0.00000000000E+00 -0.89086685864E+03  0.89086685864E+03  0.00000000000E+00 0.  1.
    9000010    2    1    2  501    0  0.46912413511E+03  0.53032300055E+03 -0.20098134927E+03  0.12479259489E+04  0.10077726590E+04 0.  0.
        -13    1    3    3    0    0  0.21435944312E+03  0.44054091295E+03  0.37154525743E+03  0.61487572429E+03  0.10566000000E+00 0.  1.
          4    1    3    3  501    0  0.25476469199E+03  0.89782087605E+02 -0.57252660670E+03  0.63305022464E+03  0.00000000000E+00 0.  1.
         13    1    1    2    0    0 -0.46912413511E+03 -0.53032300055E+03  0.58671202555E+03  0.91953844463E+03  0.10566000000E+00 0. -1.
<mgrwt>
<rscale>  1 0.10724475E+04</rscale>
<asrwt>0</asrwt>
<pdfrwt beam="1">  1       21 0.19639962E+00 0.12316354E+04</pdfrwt>
<pdfrwt beam="2">  1        4 0.13705644E+00 0.12316354E+04</pdfrwt>
<totfact> 0.17443141E+00</totfact>
</mgrwt>
</event>
<event>
 6    1  0.2415530E-005  0.1112517E+04  0.7818608E-02  0.9429456E-01
          4   -1    0    0  502    0 -0.00000000000E+00  0.00000000000E+00  0.89273081579E+03  0.89273081579E+03  0.00000000000E+00 0.  1.
         21   -1    0    0  501  502  0.00000000000E+00 -0.00000000000E+00 -0.70857862748E+03  0.70857862748E+03  0.00000000000E+00 0.  1.
    9000010    2    1    2  501    0 -0.29267067555E+03 -0.36771626463E+03  0.20334784524E+03  0.11309480290E+04  0.10083757844E+04 0.  0.
        -13    1    3    3    0    0 -0.55667511010E+03 -0.49606882009E+03  0.32474596637E+03  0.81328433300E+03  0.10566000000E+00 0.  1.
          4    1    3    3  501    0  0.26400443455E+03  0.12835255546E+03 -0.12139812114E+03  0.31766369602E+03  0.00000000000E+00 0.  1.
         13    1    1    2    0    0  0.29267067555E+03  0.36771626463E+03 -0.19195656931E+02  0.47036141424E+03  0.10566000000E+00 0. -1.
<mgrwt>
<rscale>  1 0.89690687E+03</rscale>
<asrwt>0</asrwt>
<pdfrwt beam="2">  1       21 0.10901210E+00 0.11125166E+04</pdfrwt>
<pdfrwt beam="1">  1        4 0.13734320E+00 0.11125166E+04</pdfrwt>
<totfact> 0.91400608E+00</totfact>
</mgrwt>
</event>
<event>
 6    1  0.2415530E-005  0.1058927E+04  0.7818608E-02  0.9600354E-01
          4   -1    0    0  502    0 -0.00000000000E+00  0.00000000000E+00  0.74438428911E+03  0.74438428911E+03  0.00000000000E+00 0.  1.
         21   -1    0    0  501  502  0.00000000000E+00 -0.00000000000E+00 -0.14580021410E+04  0.14580021410E+04  0.00000000000E+00 0.  1.
    9000010    2    1    2  501    0  0.12182275563E+03 -0.27444411591E+03 -0.12188908349E+04  0.16146269937E+04  0.10154630003E+04 0.  0.
        -13    1    3    3    0    0 -0.80599042456E+02  0.37125276543E+03 -0.49054107121E+03  0.62044772156E+03  0.10566000000E+00 0.  1.
          4    1    3    3  501    0  0.20242179809E+03 -0.64569688134E+03 -0.72834976373E+03  0.99417927219E+03  0.00000000000E+00 0.  1.
         13    1    1    2    0    0 -0.12182275563E+03  0.27444411591E+03  0.50527298302E+03  0.58775943640E+03  0.10566000000E+00 0. -1.
<mgrwt>
<rscale>  1 0.77272745E+03</rscale>
<asrwt>0</asrwt>
<pdfrwt beam="2">  1       21 0.22430802E+00 0.10589266E+04</pdfrwt>
<pdfrwt beam="1">  1        4 0.11452066E+00 0.10589266E+04</pdfrwt>
<totfact> 0.18309585E+00</totfact>
</mgrwt>
</event>
<event>
 6    1  0.2415530E-005  0.1009757E+04  0.7818608E-02  0.9772167E-01
          4   -1    0    0  502    0 -0.00000000000E+00  0.00000000000E+00  0.24721679612E+03  0.24721679612E+03  0.00000000000E+00 0.  1.
         21   -1    0    0  501  502  0.00000000000E+00 -0.00000000000E+00 -0.15539089797E+04  0.15539089797E+04  0.00000000000E+00 0.  1.
    9000010    2    1    2  501    0 -0.19425845037E+03  0.41291650322E+01 -0.12320701403E+04  0.15929867453E+04  0.99088674647E+03 0.  0.
        -13    1    3    3    0    0 -0.31206210312E+03  0.25768524645E+03 -0.86567456315E+02  0.41385792018E+03  0.10566000000E+00 0.  1.
          4    1    3    3  501    0  0.11780365275E+03 -0.25355608141E+03 -0.11455026840E+04  0.11791288251E+04  0.00000000000E+00 0.  1.
         13    1    1    2    0    0  0.19425845037E+03 -0.41291650322E+01 -0.74622043241E+02  0.20813903057E+03  0.10566000000E+00 0. -1.
<mgrwt>
<rscale>  1 0.66877848E+03</rscale>
<asrwt>0</asrwt>
<pdfrwt beam="2">  1       21 0.23906292E+00 0.10097574E+04</pdfrwt>
<pdfrwt beam="1">  1        4 0.38033353E-01 0.10097574E+04</pdfrwt>
<totfact> 0.17265034E+01</totfact>
</mgrwt>
</event>
<event>
 6    1  0.2415530E-005  0.1021420E+04  0.7818608E-02  0.9736133E-01
         21   -1    0    0  501  502  0.00000000000E+00  0.00000000000E+00  0.37538577470E+03  0.37538577470E+03  0.00000000000E+00 0.  1.
          4   -1    0    0  502    0 -0.00000000000E+00 -0.00000000000E+00 -0.10718773322E+04  0.10718773322E+04  0.00000000000E+00 0.  1.
    9000010    2    1    2  501    0 -0.20947398081E+03 -0.29533109842E+02 -0.43312935890E+03  0.11094595959E+04  0.99927373638E+03 0.  0.
        -13    1    3    3    0    0 -0.15683032553E+03 -0.55456060636E+02 -0.75967969129E+03  0.77767883487E+03  0.10566000000E+00 0.  1.
          4    1    3    3  501    0 -0.52643655275E+02  0.25922950794E+02  0.32655033239E+03  0.33178076105E+03  0.00000000000E+00 0.  1.
         13    1    1    2    0    0  0.20947398081E+03  0.29533109842E+02 -0.26336219859E+03  0.33780351097E+03  0.10566000000E+00 0. -1.
<mgrwt>
<rscale>  1 0.68905583E+03</rscale>
<asrwt>0</asrwt>
<pdfrwt beam="1">  1       21 0.57751659E-01 0.10214204E+04</pdfrwt>
<pdfrwt beam="2">  1        4 0.16490420E+00 0.10214204E+04</pdfrwt>
<totfact> 0.25231658E+01</totfact>
</mgrwt>
</event>
<event>
 6    1  0.2415530E-005  0.1156498E+04  0.7818608E-02  0.9346917E-01
          4   -1    0    0  502    0 -0.00000000000E+00  0.00000000000E+00  0.46832711752E+03  0.46832711752E+03  0.00000000000E+00 0.  1.
         21   -1    0    0  501  502  0.00000000000E+00 -0.00000000000E+00 -0.15791314216E+04  0.15791314216E+04  0.00000000000E+00 0. -1.
    9000010    2    1    2  501    0 -0.55006891831E+03 -0.11710370614E+03 -0.78066538889E+03  0.13953229647E+04  0.10105437316E+04 0.  0.
        -13    1    3    3    0    0  0.85960845578E+02  0.35325639606E+03 -0.20937973139E+03  0.41954645918E+03  0.10566000000E+00 0.  1.
          4    1    3    3  501    0 -0.63602976389E+03 -0.47036010220E+03 -0.57128565750E+03  0.97577650554E+03  0.00000000000E+00 0.  1.
         13    1    1    2    0    0  0.55006891831E+03  0.11710370614E+03 -0.33013891514E+03  0.65213557435E+03  0.10566000000E+00 0. -1.
<mgrwt>
<rscale>  1 0.96575998E+03</rscale>
<asrwt>0</asrwt>
<pdfrwt beam="2">  1       21 0.24294329E+00 0.11564980E+04</pdfrwt>
<pdfrwt beam="1">  1        4 0.72050327E-01 0.11564980E+04</pdfrwt>
<totfact> 0.40875281E+00</totfact>
</mgrwt>
</event>
<event>
 6    1  0.2415530E-005  0.1140727E+04  0.7818608E-02  0.9356149E-01
         21   -1    0    0  501  502  0.00000000000E+00  0.00000000000E+00  0.46630144851E+03  0.46630144851E+03  0.00000000000E+00 0.  1.
          4   -1    0    0  502    0 -0.00000000000E+00 -0.00000000000E+00 -0.15638613573E+04  0.15638613573E+04  0.00000000000E+00 0.  1.
    9000010    2    1    2  501    0 -0.37985170720E+03  0.42071015491E+03 -0.75260385645E+03  0.13666275444E+04  0.98993632447E+03 0.  0.
        -13    1    3    3    0    0 -0.71432913385E+03  0.32739698856E+03 -0.59313086332E+03  0.98450958948E+03  0.10566000000E+00 0.  1.
          4    1    3    3  501    0  0.33447742664E+03  0.93313166345E+02 -0.15947299313E+03  0.38211795494E+03  0.00000000000E+00 0.  1.
         13    1    1    2    0    0  0.37985170720E+03 -0.42071015491E+03 -0.34495605237E+03  0.66353526141E+03  0.10566000000E+00 0. -1.
<mgrwt>
<rscale>  1 0.95773987E+03</rscale>
<asrwt>0</asrwt>
<pdfrwt beam="1">  1       21 0.71738683E-01 0.11407271E+04</pdfrwt>
<pdfrwt beam="2">  1        4 0.24059406E+00 0.11407271E+04</pdfrwt>
<totfact> 0.47797864E+00</totfact>
</mgrwt>
</event>
<event>
 6    1  0.2415530E-005  0.1154307E+04  0.7818608E-02  0.9345699E-01
          4   -1    0    0  502    0 -0.00000000000E+00  0.00000000000E+00  0.84597453871E+03  0.84597453871E+03  0.00000000000E+00 0.  1.
         21   -1    0    0  501  502  0.00000000000E+00 -0.00000000000E+00 -0.87855134766E+03  0.87855134766E+03  0.00000000000E+00 0. -1.
    9000010    2    1    2  501    0  0.49033712390E+03 -0.28689504906E+03 -0.58961421908E+02  0.11558120539E+04  0.10048312249E+04 0.  0.
        -13    1    3    3    0    0  0.58555049858E+03  0.56272273700E+02 -0.35985365867E+03  0.68958728381E+03  0.10566000000E+00 0.  1.
          4    1    3    3  501    0 -0.95213374678E+02 -0.34316732276E+03  0.30089223676E+03  0.46622477012E+03  0.00000000000E+00 0.  1.
         13    1    1    2    0    0 -0.49033712390E+03  0.28689504906E+03  0.26384612956E+02  0.56871383245E+03  0.10566000000E+00 0. -1.
<mgrwt>
<rscale>  1 0.96682423E+03</rscale>
<asrwt>0</asrwt>
<pdfrwt beam="2">  1       21 0.13516175E+00 0.11543072E+04</pdfrwt>
<pdfrwt beam="1">  1        4 0.13014993E+00 0.11543072E+04</pdfrwt>
<totfact> 0.59656785E+00</totfact>
</mgrwt>
</event>
<event>
 6    1  0.2415530E-005  0.1394808E+04  0.7818608E-02  0.9043734E-01
          4   -1    0    0  502    0 -0.00000000000E+00  0.00000000000E+00  0.11077843023E+04  0.11077843023E+04  0.00000000000E+00 0.  1.
         21   -1    0    0  501  502  0.00000000000E+00 -0.00000000000E+00 -0.13422143699E+04  0.13422143699E+04  0.00000000000E+00 0. -1.
    9000010    2    1    2  501    0  0.13828547490E+03 -0.98666013018E+03 -0.37371502832E+03  0.14440059304E+04  0.97615015223E+03 0.  0.
        -13    1    3    3    0    0  0.32544448784E+03 -0.55560171786E+03 -0.63666073046E+03  0.90550774731E+03  0.10566000000E+00 0.  1.
          4    1    3    3  501    0 -0.18715901294E+03 -0.43105841232E+03  0.26294570215E+03  0.53849818313E+03  0.00000000000E+00 0.  1.
         13    1    1    2    0    0 -0.13828547490E+03  0.98666013018E+03  0.13928496073E+03  0.10059927418E+04  0.10566000000E+00 0. -1.
<mgrwt>
<rscale>  1 0.12822828E+04</rscale>
<asrwt>0</asrwt>
<pdfrwt beam="2">  1       21 0.20649452E+00 0.13948083E+04</pdfrwt>
<pdfrwt beam="1">  1        4 0.17042835E+00 0.13948083E+04</pdfrwt>
<totfact> 0.80260130E-01</totfact>
</mgrwt>
</event>
<event>
 6    1  0.2415530E-005  0.1053198E+04  0.7818608E-02  0.9558487E-01
         21   -1    0    0  501  502  0.00000000000E+00  0.00000000000E+00  0.44545301464E+03  0.44545301464E+03  0.00000000000E+00 0.  1.
          4   -1    0    0  502    0 -0.00000000000E+00 -0.00000000000E+00 -0.14089982726E+04  0.14089982726E+04  0.00000000000E+00 0.  1.
    9000010    2    1    2  501    0 -0.85879780422E+02 -0.34185096016E+03 -0.28701203673E+03  0.10916048897E+04  0.99246557137E+03 0.  0.
        -13    1    3    3    0    0 -0.46941191689E+02  0.32116703692E+03 -0.27803810921E+03  0.42738383500E+03  0.10566000000E+00 0.  1.
          4    1    3    3  501    0 -0.38938588733E+02 -0.66301799708E+03 -0.89739275286E+01  0.66422105471E+03  0.00000000000E+00 0.  1.
         13    1    1    2    0    0  0.85879780422E+02  0.34185096016E+03 -0.67653322127E+03  0.76284639757E+03  0.10566000000E+00 0. -1.
<mgrwt>
<rscale>  1 0.80105802E+03</rscale>
<asrwt>0</asrwt>
<pdfrwt beam="1">  1       21 0.68531235E-01 0.10531977E+04</pdfrwt>
<pdfrwt beam="2">  1        4 0.21676896E+00 0.10531977E+04</pdfrwt>
<totfact> 0.75896735E+00</totfact>
</mgrwt>
</event>
<event>
 6    1  0.2415530E-005  0.1077485E+04  0.7818608E-02  0.9628637E-01
         21   -1    0    0  501  502  0.00000000000E+00  0.00000000000E+00  0.14246992284E+04  0.14246992284E+04  0.00000000000E+00 0.  1.
          4   -1    0    0  502    0 -0.00000000000E+00 -0.00000000000E+00 -0.33717795359E+03  0.33717795359E+03  0.00000000000E+00 0.  1.
    9000010    2    1    2  501    0  0.14177045215E+03 -0.21649004009E+03  0.66429258226E+03  0.12658032602E+04  0.10459476373E+04 0.  0.
        -13    1    3    3    0    0 -0.13176120936E+03  0.30388744828E+03 -0.56138559117E+02  0.33594664233E+03  0.10566000000E+00 0.  1.
          4    1    3    3  501    0  0.27353166151E+03 -0.52037748837E+03  0.72043114138E+03  0.92985661783E+03  0.00000000000E+00 0.  1.
         13    1    1    2    0    0 -0.14177045215E+03  0.21649004009E+03  0.42322869254E+03  0.49607392182E+03  0.10566000000E+00 0. -1.
<mgrwt>
<rscale>  1 0.75429432E+03</rscale>
<asrwt>0</asrwt>
<pdfrwt beam="1">  1       21 0.21918449E+00 0.10774847E+04</pdfrwt>
<pdfrwt beam="2">  1        4 0.51873532E-01 0.10774847E+04</pdfrwt>
<totfact> 0.12120097E+01</totfact>
</mgrwt>
</event>
<event>
 6    1  0.2415530E-005  0.1074934E+04  0.7818608E-02  0.9543526E-01
          4   -1    0    0  502    0 -0.00000000000E+00  0.00000000000E+00  0.22062027727E+04  0.22062027727E+04  0.00000000000E+00 0.  1.
         21   -1    0    0  501  502  0.00000000000E+00 -0.00000000000E+00 -0.31621939825E+03  0.31621939825E+03  0.00000000000E+00 0.  1.
    9000010    2    1    2  501    0  0.22938936130E+03  0.26320813078E+03  0.70117577859E+03  0.12834058231E+04  0.10166538423E+04 0.  0.
        -13    1    3    3    0    0  0.35201729278E+03  0.51221455155E+03  0.77764979959E+03  0.99549944410E+03  0.10566000000E+00 0.  1.
          4    1    3    3  501    0 -0.12262793148E+03 -0.24900642076E+03 -0.76474020998E+02  0.28790637897E+03  0.00000000000E+00 0.  1.
         13    1    1    2    0    0 -0.22938936130E+03 -0.26320813078E+03  0.11888075959E+04  0.12390163479E+04  0.10566000000E+00 0. -1.
<mgrwt>
<rscale>  1 0.81149513E+03</rscale>
<asrwt>0</asrwt>
<pdfrwt beam="2">  1       21 0.48649140E-01 0.10749340E+04</pdfrwt>
<pdfrwt beam="1">  1        4 0.33941580E+00 0.10749340E+04</pdfrwt>
<totfact> 0.27743145E+00</totfact>
</mgrwt>
</event>
<event>
 6    1  0.2415530E-005  0.1009378E+04  0.7818608E-02  0.1030309E+00
          4   -1    0    0  502    0 -0.00000000000E+00  0.00000000000E+00  0.75905182964E+03  0.75905182964E+03  0.00000000000E+00 0.  1.
         21   -1    0    0  501  502  0.00000000000E+00 -0.00000000000E+00 -0.47679196523E+03  0.47679196523E+03  0.00000000000E+00 0.  1.
    9000010    2    1    2  501    0  0.15264736462E+02 -0.33618549143E+02  0.60671222863E+02  0.10112001743E+04  0.10087029177E+04 0.  0.
        -13    1    3    3    0    0  0.45736712136E+03  0.33653276078E+02 -0.19244392131E+03  0.49734485089E+03  0.10566000000E+00 0.  1.
          4    1    3    3  501    0 -0.44210238490E+03 -0.67271825220E+02  0.25311514418E+03  0.51385532343E+03  0.00000000000E+00 0.  1.
         13    1    1    2    0    0 -0.15264736462E+02  0.33618549143E+02  0.22158864155E+03  0.22464362055E+03  0.10566000000E+00 0. -1.
<mgrwt>
<rscale>  1 0.44142981E+03</rscale>
<asrwt>0</asrwt>
<pdfrwt beam="2">  1       21 0.73352610E-01 0.10093784E+04</pdfrwt>
<pdfrwt beam="1">  1        4 0.11677720E+00 0.10093784E+04</pdfrwt>
<totfact> 0.36419700E+01</totfact>
</mgrwt>
</event>
<event>
 6    1  0.2415530E-005  0.1048979E+04  0.7818608E-02  0.9562161E-01
         21   -1    0    0  501  502  0.00000000000E+00  0.00000000000E+00  0.18922469681E+04  0.18922469681E+04  0.00000000000E+00 0.  1.
          4   -1    0    0  502    0 -0.00000000000E+00 -0.00000000000E+00 -0.26684192108E+03  0.26684192108E+03  0.00000000000E+00 0.  1.
    9000010    2    1    2  501    0  0.26368762305E+02  0.35125548477E+03  0.13626306722E+04  0.17196277300E+04  0.98806955913E+03 0.  0.
        -13    1    3    3    0    0  0.42583299095E+03  0.42455928248E+03  0.56772573699E+03  0.82698055849E+03  0.10566000000E+00 0.  1.
          4    1    3    3  501    0 -0.39946422865E+03 -0.73303797713E+02  0.79490493524E+03  0.89264717150E+03  0.00000000000E+00 0.  1.
         13    1    1    2    0    0 -0.26368762305E+02 -0.35125548477E+03  0.26277437474E+03  0.43946115914E+03  0.10566000000E+00 0. -1.
<mgrwt>
<rscale>  1 0.79852035E+03</rscale>
<asrwt>0</asrwt>
<pdfrwt beam="1">  1       21 0.29111491E+00 0.10489791E+04</pdfrwt>
<pdfrwt beam="2">  1        4 0.41052604E-01 0.10489791E+04</pdfrwt>
<totfact> 0.69020476E+00</totfact>
</mgrwt>
</event>
<event>
 6    1  0.2415530E-005  0.9989457E+03  0.7818608E-02  0.9697607E-01
          4   -1    0    0  502    0 -0.00000000000E+00  0.00000000000E+00  0.53959418060E+03  0.53959418060E+03  0.00000000000E+00 0.  1.
         21   -1    0    0  501  502  0.00000000000E+00 -0.00000000000E+00 -0.80043203502E+03  0.80043203502E+03  0.00000000000E+00 0. -1.
    9000010    2    1    2  501    0 -0.25311674736E+03 -0.45761658228E+02 -0.36356905337E+03  0.10630498131E+04  0.96526174242E+03 0.  0.
        -13    1    3    3    0    0 -0.45211002026E+03  0.28031640532E+03 -0.41885610902E+03  0.67706809757E+03  0.10566000000E+00 0.  1.
          4    1    3    3  501    0  0.19899327291E+03 -0.32607806355E+03  0.55287055654E+02  0.38598171552E+03  0.00000000000E+00 0.  1.
         13    1    1    2    0    0  0.25311674736E+03  0.45761658228E+02  0.10273119895E+03  0.27697640253E+03  0.10566000000E+00 0. -1.
<mgrwt>
<rscale>  1 0.71159464E+03</rscale>
<asrwt>0</asrwt>
<pdfrwt beam="2">  1       21 0.12314339E+00 0.99894567E+03</pdfrwt>
<pdfrwt beam="1">  1        4 0.83014490E-01 0.99894567E+03</pdfrwt>
<totfact> 0.23237727E+01</totfact>
</mgrwt>
</event>
<event>
 6    1  0.2415530E-005  0.1031078E+04  0.7818608E-02  0.9602600E-01
          4   -1    0    0  502    0 -0.00000000000E+00  0.00000000000E+00  0.53279463461E+03  0.53279463461E+03  0.00000000000E+00 0.  1.
         21   -1    0    0  501  502  0.00000000000E+00 -0.00000000000E+00 -0.87584919267E+03  0.87584919267E+03  0.00000000000E+00 0.  1.
    9000010    2    1    2  501    0 -0.27155808060E+03  0.17445766293E+03 -0.34056300408E+03  0.10858660612E+04  0.97925618493E+03 0.  0.
        -13    1    3    3    0    0 -0.51688447073E+03  0.42964598249E+03 -0.17199023243E+03  0.69379094658E+03  0.10566000000E+00 0.  1.
          4    1    3    3  501    0  0.24532639012E+03 -0.25518831955E+03 -0.16857277165E+03  0.39207511457E+03  0.00000000000E+00 0.  1.
         13    1    1    2    0    0  0.27155808060E+03 -0.17445766293E+03 -0.24915539789E+01  0.32277776612E+03  0.10566000000E+00 0. -1.
<mgrwt>
<rscale>  1 0.77124316E+03</rscale>
<asrwt>0</asrwt>
<pdfrwt beam="2">  1       21 0.13474603E+00 0.10310780E+04</pdfrwt>
<pdfrwt beam="1">  1        4 0.81968406E-01 0.10310780E+04</pdfrwt>
<totfact> 0.18786780E+01</totfact>
</mgrwt>
</event>
<event>
 6    1  0.2415530E-005  0.1057580E+04  0.7818608E-02  0.9482208E-01
         21   -1    0    0  501  502  0.00000000000E+00  0.00000000000E+00  0.91185947056E+03  0.91185947056E+03  0.00000000000E+00 0. -1.
          4   -1    0    0  502    0 -0.00000000000E+00 -0.00000000000E+00 -0.63891810323E+03  0.63891810323E+03  0.00000000000E+00 0.  1.
    9000010    2    1    2  501    0  0.45167833943E+03 -0.46569477787E+02  0.90571630942E+02  0.10614507193E+04  0.95513997440E+03 0.  0.
        -13    1    3    3    0    0  0.57038073102E+02 -0.47146705657E+03  0.79062173401E+02  0.48144092643E+03  0.10566000000E+00 0.  1.
          4    1    3    3  501    0  0.39464026632E+03  0.42489757878E+03  0.11509457541E+02  0.58000979291E+03  0.00000000000E+00 0.  1.
         13    1    1    2    0    0 -0.45167833943E+03  0.46569477787E+02  0.18236973639E+03  0.48932685445E+03  0.10566000000E+00 0. -1.
<mgrwt>
<rscale>  1 0.85608361E+03</rscale>
<asrwt>0</asrwt>
<pdfrwt beam="1">  1       21 0.14028607E+00 0.10575795E+04</pdfrwt>
<pdfrwt beam="2">  1        4 0.98295093E-01 0.10575795E+04</pdfrwt>
<totfact> 0.10953098E+01</totfact>
</mgrwt>
</event>
<event>
 6    1  0.2415530E-005  0.9559388E+03  0.7818608E-02  0.1020004E+00
          4   -1    0    0  502    0 -0.00000000000E+00  0.00000000000E+00  0.19189330061E+03  0.19189330061E+03  0.00000000000E+00 0.  1.
         21   -1    0    0  501  502  0.00000000000E+00 -0.00000000000E+00 -0.13443971760E+04  0.13443971760E+04  0.00000000000E+00 0.  1.
    9000010    2    1    2  501    0 -0.49075568409E+02 -0.33090590761E+02 -0.10980649424E+04  0.14558727721E+04  0.95410456041E+03 0.  0.
        -13    1    3    3    0    0 -0.41590135135E+03 -0.29010941213E+03 -0.55068252454E+03  0.74859111607E+03  0.10566000000E+00 0.  1.
          4    1    3    3  501    0  0.36682578294E+03  0.25701882137E+03 -0.54738241782E+03  0.70728165600E+03  0.00000000000E+00 0.  1.
         13    1    1    2    0    0  0.49075568409E+02  0.33090590761E+02 -0.54438933019E+02  0.80417704542E+02  0.10566000000E+00 0. -1.
<mgrwt>
<rscale>  1 0.47685234E+03</rscale>
<asrwt>0</asrwt>
<pdfrwt beam="2">  1       21 0.20683033E+00 0.95593876E+03</pdfrwt>
<pdfrwt beam="1">  1        4 0.29522046E-01 0.95593876E+03</pdfrwt>
<totfact> 0.46867535E+01</totfact>
</mgrwt>
</event>
<event>
 6    1  0.2415530E-005  0.1019077E+04  0.7818608E-02  0.9774721E-01
         21   -1    0    0  501  502  0.00000000000E+00  0.00000000000E+00  0.17997392269E+04  0.17997392269E+04  0.00000000000E+00 0.  1.
          4   -1    0    0  502    0 -0.00000000000E+00 -0.00000000000E+00 -0.20364965398E+03  0.20364965398E+03  0.00000000000E+00 0.  1.
    9000010    2    1    2  501    0 -0.16683854137E+03 -0.85415395596E+02  0.14055498733E+04  0.17361132236E+04  0.10016924628E+04 0.  0.
        -13    1    3    3    0    0 -0.20289377503E+03 -0.32372767345E+03  0.81946390207E+02  0.39074379398E+03  0.10566000000E+00 0.  1.
          4    1    3    3  501    0  0.36055233665E+02  0.23831227785E+03  0.13236034831E+04  0.13453694296E+04  0.00000000000E+00 0.  1.
         13    1    1    2    0    0  0.16683854137E+03  0.85415395596E+02  0.19053969966E+03  0.26727565733E+03  0.10566000000E+00 0. -1.
<mgrwt>
<rscale>  1 0.66736976E+03</rscale>
<asrwt>0</asrwt>
<pdfrwt beam="1">  1       21 0.27688295E+00 0.10190774E+04</pdfrwt>
<pdfrwt beam="2">  1        4 0.31330717E-01 0.10190774E+04</pdfrwt>
<totfact> 0.14637910E+01</totfact>
</mgrwt>
</event>
<event>
 6    1  0.2415530E-005  0.1144033E+04  0.7818608E-02  0.9358241E-01
         21   -1    0    0  501  502  0.00000000000E+00  0.00000000000E+00  0.25329904360E+04  0.25329904360E+04  0.00000000000E+00 0.  1.
          4   -1    0    0  502    0 -0.00000000000E+00 -0.00000000000E+00 -0.34981413890E+03  0.34981413890E+03  0.00000000000E+00 0.  1.
    9000010    2    1    2  501    0  0.55076865458E+03  0.87615532274E+02  0.19847522794E+04  0.22908631130E+04  0.99889418830E+03 0.  0.
        -13    1    3    3    0    0 -0.97500026871E+01  0.30923721022E+03  0.12123890051E+03  0.33229745245E+03  0.10566000000E+00 0.  1.
          4    1    3    3  501    0  0.56051865727E+03 -0.22162167795E+03  0.18635133789E+04  0.19585656606E+04  0.00000000000E+00 0.  1.
         13    1    1    2    0    0 -0.55076865458E+03 -0.87615532274E+02  0.19842401766E+03  0.59194146190E+03  0.10566000000E+00 0. -1.
<mgrwt>
<rscale>  1 0.95593419E+03</rscale>
<asrwt>0</asrwt>
<pdfrwt beam="1">  1       21 0.38969083E+00 0.11440333E+04</pdfrwt>
<pdfrwt beam="2">  1        4 0.53817561E-01 0.11440333E+04</pdfrwt>
<totfact> 0.91553781E-01</totfact>
</mgrwt>
</event>
<event>
 6    1  0.2415530E-005  0.1184612E+04  0.7818608E-02  0.9282126E-01
         21   -1    0    0  501  502  0.00000000000E+00  0.00000000000E+00  0.89287609280E+03  0.89287609280E+03  0.00000000000E+00 0.  1.
          4   -1    0    0  502    0 -0.00000000000E+00 -0.00000000000E+00 -0.98592332292E+03  0.98592332292E+03  0.00000000000E+00 0.  1.
    9000010    2    1    2  501    0  0.62359709986E+03  0.22391408730E+03  0.99574660373E+02  0.11887892235E+04  0.98198464529E+03 0.  0.
        -13    1    3    3    0    0 -0.18283780563E+03  0.10046807480E+03  0.28398421089E+03  0.35237840515E+03  0.10566000000E+00 0.  1.
          4    1    3    3  501    0  0.80643490549E+03  0.12344601250E+03 -0.18440955051E+03  0.83641081839E+03  0.00000000000E+00 0.  1.
         13    1    1    2    0    0 -0.62359709986E+03 -0.22391408730E+03 -0.19262189049E+03  0.69001019218E+03  0.10566000000E+00 0. -1.
<mgrwt>
<rscale>  1 0.10244515E+04</rscale>
<asrwt>0</asrwt>
<pdfrwt beam="1">  1       21 0.13736555E+00 0.11846116E+04</pdfrwt>
<pdfrwt beam="2">  1        4 0.15168051E+00 0.11846116E+04</pdfrwt>
<totfact> 0.37992143E+00</totfact>
</mgrwt>
</event>
<event>
 6    1  0.2415530E-005  0.1254179E+04  0.7818608E-02  0.9200312E-01
          4   -1    0    0  502    0 -0.00000000000E+00  0.00000000000E+00  0.19447122007E+04  0.19447122007E+04  0.00000000000E+00 0.  1.
         21   -1    0    0  501  502  0.00000000000E+00 -0.00000000000E+00 -0.64501714434E+03  0.64501714434E+03  0.00000000000E+00 0. -1.
    9000010    2    1    2  501    0  0.29076754728E+03 -0.69762265889E+03  0.22238502833E+03  0.12737430045E+04  0.10008711206E+04 0.  0.
        -13    1    3    3    0    0 -0.35838748286E+03 -0.40723535703E+03  0.77443903022E+02  0.54797791303E+03  0.10566000000E+00 0.  1.
          4    1    3    3  501    0  0.64915503014E+03 -0.29038730186E+03  0.14494112530E+03  0.72576509150E+03  0.00000000000E+00 0.  1.
         13    1    1    2    0    0 -0.29076754728E+03  0.69762265889E+03  0.10773100281E+04  0.13159863405E+04  0.10566000000E+00 0. -1.
<mgrwt>
<rscale>  1 0.11050209E+04</rscale>
<asrwt>0</asrwt>
<pdfrwt beam="2">  1       21 0.99233407E-01 0.12541795E+04</pdfrwt>
<pdfrwt beam="1">  1        4 0.29918649E+00 0.12541795E+04</pdfrwt>
<totfact> 0.93909183E-01</totfact>
</mgrwt>
</event>
<event>
 6    1  0.2415530E-005  0.9985723E+03  0.7818608E-02  0.9696883E-01
          4   -1    0    0  502    0 -0.00000000000E+00  0.00000000000E+00  0.14373287347E+04  0.14373287347E+04  0.00000000000E+00 0.  1.
         21   -1    0    0  501  502  0.00000000000E+00 -0.00000000000E+00 -0.44222591089E+03  0.44222591089E+03  0.00000000000E+00 0.  1.
    9000010    2    1    2  501    0 -0.19405583698E+03 -0.17022392150E+03  0.16736589562E+03  0.10125008498E+04  0.96463090171E+03 0.  0.
        -13    1    3    3    0    0 -0.33797457705E+02 -0.56587516877E+03  0.46203592742E+02  0.56876335846E+03  0.10566000000E+00 0.  1.
          4    1    3    3  501    0 -0.16025837927E+03  0.39565124727E+03  0.12116230288E+03  0.44373749135E+03  0.00000000000E+00 0.  1.
         13    1    1    2    0    0  0.19405583698E+03  0.17022392150E+03  0.82773692822E+03  0.86705379580E+03  0.10566000000E+00 0. -1.
<mgrwt>
<rscale>  1 0.71202707E+03</rscale>
<asrwt>0</asrwt>
<pdfrwt beam="2">  1       21 0.68034756E-01 0.99857229E+03</pdfrwt>
<pdfrwt beam="1">  1        4 0.22112750E+00 0.99857229E+03</pdfrwt>
<totfact> 0.72851541E+00</totfact>
</mgrwt>
</event>
<event>
 6    1  0.2415530E-005  0.1032093E+04  0.7818608E-02  0.9650984E-01
          4   -1    0    0  502    0 -0.00000000000E+00  0.00000000000E+00  0.17842440015E+04  0.17842440015E+04  0.00000000000E+00 0.  1.
         21   -1    0    0  501  502  0.00000000000E+00 -0.00000000000E+00 -0.25713477274E+03  0.25713477274E+03  0.00000000000E+00 0.  1.
    9000010    2    1    2  501    0 -0.31332078490E+02 -0.27112223540E+03  0.94896827924E+03  0.14020541819E+04  0.99535228356E+03 0.  0.
        -13    1    3    3    0    0 -0.19113077755E+03  0.23858437096E+03 -0.83217323873E+01  0.30581487633E+03  0.10566000000E+00 0.  1.
          4    1    3    3  501    0  0.15979869906E+03 -0.50970660636E+03  0.95729001163E+03  0.10962393056E+04  0.00000000000E+00 0.  1.
         13    1    1    2    0    0  0.31332078490E+02  0.27112223540E+03  0.57814094955E+03  0.63932459235E+03  0.10566000000E+00 0. -1.
<mgrwt>
<rscale>  1 0.74011720E+03</rscale>
<asrwt>0</asrwt>
<pdfrwt beam="2">  1       21 0.39559197E-01 0.10320926E+04</pdfrwt>
<pdfrwt beam="1">  1        4 0.27449907E+00 0.10320926E+04</pdfrwt>
<totfact> 0.11010090E+01</totfact>
</mgrwt>
</event>
<event>
 6    1  0.2415530E-005  0.1012476E+04  0.7818608E-02  0.1018419E+00
         21   -1    0    0  501  502  0.00000000000E+00  0.00000000000E+00  0.10999202180E+04  0.10999202180E+04  0.00000000000E+00 0.  1.
          4   -1    0    0  502    0 -0.00000000000E+00 -0.00000000000E+00 -0.28366819818E+03  0.28366819818E+03  0.00000000000E+00 0.  1.
    9000010    2    1    2  501    0  0.50301355201E+02  0.14209345372E+02  0.84949195728E+03  0.13216445994E+04  0.10111259713E+04 0.  0.
        -13    1    3    3    0    0 -0.29586811477E+03 -0.22248985735E+03 -0.45312884193E+01  0.37021645250E+03  0.10566000000E+00 0.  1.
          4    1    3    3  501    0  0.34616946997E+03  0.23669920272E+03  0.85402324570E+03  0.95142814690E+03  0.00000000000E+00 0.  1.
         13    1    1    2    0    0 -0.50301355201E+02 -0.14209345372E+02 -0.33239937469E+02  0.61943816785E+02  0.10566000000E+00 0. -1.
<mgrwt>
<rscale>  1 0.48261578E+03</rscale>
<asrwt>0</asrwt>
<pdfrwt beam="1">  1       21 0.16921849E+00 0.10124761E+04</pdfrwt>
<pdfrwt beam="2">  1        4 0.43641262E-01 0.10124761E+04</pdfrwt>
<totfact> 0.39313817E+01</totfact>
</mgrwt>
</event>
<event>
 6    1  0.2415530E-005  0.8804466E+03  0.7818608E-02  0.1020525E+00
          4   -1    0    0  502    0 -0.00000000000E+00  0.00000000000E+00  0.39841650339E+03  0.39841650339E+03  0.00000000000E+00 0.  1.
         21   -1    0    0  501  502  0.00000000000E+00 -0.00000000000E+00 -0.58451034510E+03  0.58451034510E+03  0.00000000000E+00 0.  1.
    9000010    2    1    2  501    0 -0.52664281821E+01  0.74385744789E+02 -0.20900626488E+03  0.90491425596E+03  0.87728286065E+03 0.  0.
        -13    1    3    3    0    0 -0.47788032198E+02  0.27764109324E+03 -0.48418191255E+03  0.56017890739E+03  0.10566000000E+00 0.  1.
          4    1    3    3  501    0  0.42521604016E+02 -0.20325534845E+03  0.27517564767E+03  0.34473534857E+03  0.00000000000E+00 0.  1.
         13    1    1    2    0    0  0.52664281821E+01 -0.74385744789E+02  0.22912423169E+02  0.78012592529E+02  0.10566000000E+00 0. -1.
<mgrwt>
<rscale>  1 0.47497552E+03</rscale>
<asrwt>0</asrwt>
<pdfrwt beam="2">  1       21 0.89924668E-01 0.88044659E+03</pdfrwt>
<pdfrwt beam="1">  1        4 0.61294847E-01 0.88044659E+03</pdfrwt>
<totfact> 0.10205789E+02</totfact>
</mgrwt>
</event>
<event>
 6    1  0.2415530E-005  0.1007811E+04  0.7818608E-02  0.9816572E-01
          4   -1    0    0  502    0 -0.00000000000E+00  0.00000000000E+00  0.17064429157E+04  0.17064429157E+04  0.00000000000E+00 0.  1.
         21   -1    0    0  501  502  0.00000000000E+00 -0.00000000000E+00 -0.20806892043E+03  0.20806892043E+03  0.00000000000E+00 0.  1.
    9000010    2    1    2  501    0 -0.12999164018E+03 -0.10781046543E+03  0.11622455783E+04  0.15383426630E+04  0.99356048707E+03 0.  0.
        -13    1    3    3    0    0 -0.24438244908E+03  0.34826025486E+03  0.20589244231E+03  0.47265176980E+03  0.10566000000E+00 0.  1.
          4    1    3    3  501    0  0.11439080891E+03 -0.45607072029E+03  0.95635313598E+03  0.10656908932E+04  0.00000000000E+00 0.  1.
         13    1    1    2    0    0  0.12999164018E+03  0.10781046543E+03  0.33612841703E+03  0.37616917321E+03  0.10566000000E+00 0. -1.
<mgrwt>
<rscale>  1 0.64480715E+03</rscale>
<asrwt>0</asrwt>
<pdfrwt beam="2">  1       21 0.32010604E-01 0.10078112E+04</pdfrwt>
<pdfrwt beam="1">  1        4 0.26252967E+00 0.10078112E+04</pdfrwt>
<totfact> 0.20242031E+01</totfact>
</mgrwt>
</event>
<event>
 6    1  0.2415530E-005  0.1016937E+04  0.7818608E-02  0.9937489E-01
         21   -1    0    0  501  502  0.00000000000E+00  0.00000000000E+00  0.14978396746E+03  0.14978396746E+03  0.00000000000E+00 0.  1.
          4   -1    0    0  502    0 -0.00000000000E+00 -0.00000000000E+00 -0.21248009668E+04  0.21248009668E+04  0.00000000000E+00 0.  1.
    9000010    2    1    2  501    0  0.10987382837E+03  0.17107591868E+02 -0.17914538445E+04  0.20599681343E+04  0.10108397051E+04 0.  0.
        -13    1    3    3    0    0  0.35757475720E+03  0.35794803489E+03 -0.54231021851E+03  0.74167842556E+03  0.10566000000E+00 0.  1.
          4    1    3    3  501    0 -0.24770092883E+03 -0.34084044303E+03 -0.12491436260E+04  0.13182897087E+04  0.00000000000E+00 0.  1.
         13    1    1    2    0    0 -0.10987382837E+03 -0.17107591868E+02 -0.18356315481E+03  0.21461679996E+03  0.10566000000E+00 0. -1.
<mgrwt>
<rscale>  1 0.58478300E+03</rscale>
<asrwt>0</asrwt>
<pdfrwt beam="1">  1       21 0.23043689E-01 0.10169375E+04</pdfrwt>
<pdfrwt beam="2">  1        4 0.32689244E+00 0.10169375E+04</pdfrwt>
<totfact> 0.15547333E+01</totfact>
</mgrwt>
</event>
<event>
 6    1  0.2415530E-005  0.9934528E+03  0.7818608E-02  0.9870800E-01
          4   -1    0    0  502    0 -0.00000000000E+00  0.00000000000E+00  0.44930848434E+03  0.44930848434E+03  0.00000000000E+00 0.  1.
         21   -1    0    0  501  502  0.00000000000E+00 -0.00000000000E+00 -0.74948874393E+03  0.74948874393E+03  0.00000000000E+00 0.  1.
    9000010    2    1    2  501    0  0.21481179301E+02  0.14621539590E+03 -0.18294145220E+03  0.10101564793E+04  0.98239918293E+03 0.  0.
        -13    1    3    3    0    0  0.26506783433E+03  0.35348243660E+03  0.22173824215E+03  0.49434668905E+03  0.10566000000E+00 0.  1.
          4    1    3    3  501    0 -0.24358665503E+03 -0.20726704070E+03 -0.40467969434E+03  0.51580979022E+03  0.00000000000E+00 0.  1.
         13    1    1    2    0    0 -0.21481179301E+02 -0.14621539590E+03 -0.11723880739E+03  0.18864074900E+03  0.10566000000E+00 0. -1.
<mgrwt>
<rscale>  1 0.61697569E+03</rscale>
<asrwt>0</asrwt>
<pdfrwt beam="2">  1       21 0.11530596E+00 0.99345284E+03</pdfrwt>
<pdfrwt beam="1">  1        4 0.69124383E-01 0.99345284E+03</pdfrwt>
<totfact> 0.41799514E+01</totfact>
</mgrwt>
</event>
<event>
 6    1  0.2415530E-005  0.8893991E+03  0.7818608E-02  0.9898993E-01
         21   -1    0    0  501  502  0.00000000000E+00  0.00000000000E+00  0.16084222356E+04  0.16084222356E+04  0.00000000000E+00 0.  1.
          4   -1    0    0  502    0 -0.00000000000E+00 -0.00000000000E+00 -0.23561666223E+03  0.23561666223E+03  0.00000000000E+00 0.  1.
    9000010    2    1    2  501    0 -0.10452576123E+03  0.15632250861E+03  0.13952911905E+04  0.16546504726E+04  0.86929184901E+03 0.  0.
        -13    1    3    3    0    0  0.34149642632E+03  0.22571218391E+03  0.87384303421E+03  0.96497018542E+03  0.10566000000E+00 0.  1.
          4    1    3    3  501    0 -0.44602218756E+03 -0.69389675304E+02  0.52144815628E+03  0.68968028718E+03  0.00000000000E+00 0.  1.
         13    1    1    2    0    0  0.10452576123E+03 -0.15632250861E+03 -0.22485617142E+02  0.18938842520E+03  0.10566000000E+00 0. -1.
<mgrwt>
<rscale>  1 0.60310117E+03</rscale>
<asrwt>0</asrwt>
<pdfrwt beam="1">  1       21 0.24744957E+00 0.88939906E+03</pdfrwt>
<pdfrwt beam="2">  1        4 0.36248718E-01 0.88939906E+03</pdfrwt>
<totfact> 0.17118515E+01</totfact>
</mgrwt>
</event>
<event>
 6    1  0.2415530E-005  0.1105142E+04  0.7818608E-02  0.9417812E-01
         21   -1    0    0  501  502  0.00000000000E+00  0.00000000000E+00  0.22590382678E+04  0.22590382678E+04  0.00000000000E+00 0.  1.
          4   -1    0    0  502    0 -0.00000000000E+00 -0.00000000000E+00 -0.29231490220E+03  0.29231490220E+03  0.00000000000E+00 0.  1.
    9000010    2    1    2  501    0 -0.11737666697E+03 -0.48573460894E+03  0.11581821334E+04  0.16008510250E+04  0.98570926644E+03 0.  0.
        -13    1    3    3    0    0  0.39221734245E+03 -0.42704725846E+03  0.73284151405E+03  0.93448408256E+03  0.10566000000E+00 0.  1.
          4    1    3    3  501    0 -0.50959400942E+03 -0.58687350481E+02  0.42534061932E+03  0.66636694245E+03  0.00000000000E+00 0.  1.
         13    1    1    2    0    0  0.11737666697E+03  0.48573460894E+03  0.80854123226E+03  0.95050214502E+03  0.10566000000E+00 0. -1.
<mgrwt>
<rscale>  1 0.90624201E+03</rscale>
<asrwt>0</asrwt>
<pdfrwt beam="1">  1       21 0.34754434E+00 0.11051417E+04</pdfrwt>
<pdfrwt beam="2">  1        4 0.44971525E-01 0.11051417E+04</pdfrwt>
<totfact> 0.25116797E+00</totfact>
</mgrwt>
</event>
<event>
 6    1  0.2415530E-005  0.1153449E+04  0.7818608E-02  0.9352638E-01
         21   -1    0    0  501  502  0.00000000000E+00  0.00000000000E+00  0.16861790651E+04  0.16861790651E+04  0.00000000000E+00 0. -1.
          4   -1    0    0  502    0 -0.00000000000E+00 -0.00000000000E+00 -0.43289049155E+03  0.43289049155E+03  0.00000000000E+00 0.  1.
    9000010    2    1    2  501    0 -0.48778266824E+03 -0.26530645492E+03  0.84353623188E+03  0.14289851856E+04  0.10110023935E+04 0.  0.
        -13    1    3    3    0    0  0.28113963499E+03 -0.25215459989E+03  0.20682560030E+03  0.43057900171E+03  0.10566000000E+00 0.  1.
          4    1    3    3  501    0 -0.76892230323E+03 -0.13151855025E+02  0.63671063158E+03  0.99840618391E+03  0.00000000000E+00 0.  1.
         13    1    1    2    0    0  0.48778266824E+03  0.26530645492E+03  0.40975234165E+03  0.69008437100E+03  0.10566000000E+00 0. -1.
<mgrwt>
<rscale>  1 0.96078022E+03</rscale>
<asrwt>0</asrwt>
<pdfrwt beam="1">  1       21 0.25941216E+00 0.11534493E+04</pdfrwt>
<pdfrwt beam="2">  1        4 0.66598538E-01 0.11534493E+04</pdfrwt>
<totfact> 0.38287964E+00</totfact>
</mgrwt>
</event>
<event>
 6    1  0.2415530E-005  0.1073626E+04  0.7818608E-02  0.9549246E-01
          4   -1    0    0  502    0 -0.00000000000E+00  0.00000000000E+00  0.58385397288E+03  0.58385397288E+03  0.00000000000E+00 0.  1.
         21   -1    0    0  501  502  0.00000000000E+00 -0.00000000000E+00 -0.95738560156E+03  0.95738560156E+03  0.00000000000E+00 0.  1.
    9000010    2    1    2  501    0 -0.11501316779E+02 -0.34334754055E+03 -0.48772765082E+03  0.11792167070E+04  0.10171794172E+04 0.  0.
        -13    1    3    3    0    0  0.49198171751E+03 -0.11265982695E+03 -0.33128648867E+03  0.60372924040E+03  0.10566000000E+00 0.  1.
          4    1    3    3  501    0 -0.50348303429E+03 -0.23068771360E+03 -0.15644116215E+03  0.57548746662E+03  0.00000000000E+00 0.  1.
         13    1    1    2    0    0  0.11501316779E+02  0.34334754055E+03  0.11419602215E+03  0.36202286741E+03  0.10566000000E+00 0. -1.
<mgrwt>
<rscale>  1 0.80748465E+03</rscale>
<asrwt>0</asrwt>
<pdfrwt beam="2">  1       21 0.14729009E+00 0.10736265E+04</pdfrwt>
<pdfrwt beam="1">  1        4 0.89823689E-01 0.10736265E+04</pdfrwt>
<totfact> 0.11845079E+01</totfact>
</mgrwt>
</event>
<event>
 6    1  0.2415530E-005  0.1044096E+04  0.7818608E-02  0.9623219E-01
          4   -1    0    0  502    0 -0.00000000000E+00  0.00000000000E+00  0.13046634775E+04  0.13046634775E+04  0.00000000000E+00 0.  1.
         21   -1    0    0  501  502  0.00000000000E+00 -0.00000000000E+00 -0.48382459760E+03  0.48382459760E+03  0.00000000000E+00 0.  1.
    9000010    2    1    2  501    0  0.28714026595E+03  0.38476009514E+02  0.14620777574E+03  0.10542830128E+04  0.10030982114E+04 0.  0.
        -13    1    3    3    0    0  0.19450493502E+03  0.44201886018E+03 -0.19197939083E+03  0.51968157575E+03  0.10566000000E+00 0.  1.
          4    1    3    3  501    0  0.92635330932E+02 -0.40354285067E+03  0.33818716657E+03  0.53460143705E+03  0.00000000000E+00 0.  1.
         13    1    1    2    0    0 -0.28714026595E+03 -0.38476009514E+02  0.67463110420E+03  0.73420506233E+03  0.10566000000E+00 0. -1.
<mgrwt>
<rscale>  1 0.75778302E+03</rscale>
<asrwt>0</asrwt>
<pdfrwt beam="2">  1       21 0.74434554E-01 0.10440958E+04</pdfrwt>
<pdfrwt beam="1">  1        4 0.20071746E+00 0.10440958E+04</pdfrwt>
<totfact> 0.79906838E+00</totfact>
</mgrwt>
</event>
<event>
 6    1  0.2415530E-005  0.1185200E+04  0.7818608E-02  0.9290068E-01
         21   -1    0    0  501  502  0.00000000000E+00  0.00000000000E+00  0.83349404008E+03  0.83349404008E+03  0.00000000000E+00 0.  1.
          4   -1    0    0  502    0 -0.00000000000E+00 -0.00000000000E+00 -0.10210987265E+04  0.10210987265E+04  0.00000000000E+00 0.  1.
    9000010    2    1    2  501    0  0.51756713590E+03  0.38088811055E+03 -0.15953033424E+00  0.11851996156E+04  0.99586475509E+03 0.  0.
        -13    1    3    3    0    0  0.77060261543E+03  0.64719694719E+02 -0.60916148333E+02  0.77571116924E+03  0.10566000000E+00 0.  1.
          4    1    3    3  501    0 -0.25303547953E+03  0.31616841583E+03  0.60756617998E+02  0.40948844636E+03  0.00000000000E+00 0.  1.
         13    1    1    2    0    0 -0.51756713590E+03 -0.38088811055E+03 -0.18744515612E+03  0.66939315102E+03  0.10566000000E+00 0. -1.
<mgrwt>
<rscale>  1 0.10170235E+04</rscale>
<asrwt>0</asrwt>
<pdfrwt beam="1">  1       21 0.12822985E+00 0.11851996E+04</pdfrwt>
<pdfrwt beam="2">  1        4 0.15709211E+00 0.11851996E+04</pdfrwt>
<totfact> 0.41530759E+00</totfact>
</mgrwt>
</event>
<event>
 6    1  0.2415530E-005  0.9623010E+03  0.7818608E-02  0.1010890E+00
         21   -1    0    0  501  502  0.00000000000E+00  0.00000000000E+00  0.13922879567E+04  0.13922879567E+04  0.00000000000E+00 0.  1.
          4   -1    0    0  502    0 -0.00000000000E+00 -0.00000000000E+00 -0.19384326933E+03  0.19384326933E+03  0.00000000000E+00 0.  1.
    9000010    2    1    2  501    0  0.75591754203E+02 -0.12689111365E+02  0.11055153380E+04  0.14656696056E+04  0.95924350584E+03 0.  0.
        -13    1    3    3    0    0  0.19653126656E+03  0.30163752722E+03  0.57132969301E+02  0.36451875660E+03  0.10566000000E+00 0.  1.
          4    1    3    3  501    0 -0.12093951235E+03 -0.31432663859E+03  0.10483823687E+04  0.11011508490E+04  0.00000000000E+00 0.  1.
         13    1    1    2    0    0 -0.75591754203E+02  0.12689111365E+02  0.92929349429E+02  0.12046162044E+03  0.10566000000E+00 0. -1.
<mgrwt>
<rscale>  1 0.51122316E+03</rscale>
<asrwt>0</asrwt>
<pdfrwt beam="1">  1       21 0.21419814E+00 0.96230101E+03</pdfrwt>
<pdfrwt beam="2">  1        4 0.29822042E-01 0.96230101E+03</pdfrwt>
<totfact> 0.40972683E+01</totfact>
</mgrwt>
</event>
<event>
 6    1  0.2415530E-005  0.1137526E+04  0.7818608E-02  0.9355151E-01
          4   -1    0    0  502    0 -0.00000000000E+00  0.00000000000E+00  0.38719018406E+03  0.38719018406E+03  0.00000000000E+00 0.  1.
         21   -1    0    0  501  502  0.00000000000E+00 -0.00000000000E+00 -0.20038850942E+04  0.20038850942E+04  0.00000000000E+00 0.  1.
    9000010    2    1    2  501    0 -0.24370962410E+03  0.51934276228E+03 -0.13288457648E+04  0.17492276115E+04  0.98227027072E+03 0.  0.
        -13    1    3    3    0    0 -0.14313983695E+03  0.10805861686E+03  0.13557631971E+03  0.22482577083E+03  0.10566000000E+00 0.  1.
          4    1    3    3  501    0 -0.10056978715E+03  0.41128414542E+03 -0.14644220845E+04  0.15244018407E+04  0.00000000000E+00 0.  1.
         13    1    1    2    0    0  0.24370962410E+03 -0.51934276228E+03 -0.28784914531E+03  0.64184766669E+03  0.10566000000E+00 0. -1.
<mgrwt>
<rscale>  1 0.95860335E+03</rscale>
<asrwt>0</asrwt>
<pdfrwt beam="2">  1       21 0.30829001E+00 0.11375263E+04</pdfrwt>
<pdfrwt beam="1">  1        4 0.59567721E-01 0.11375263E+04</pdfrwt>
<totfact> 0.24224850E+00</totfact>
</mgrwt>
</event>
<event>
 6    1  0.2415530E-005  0.1169495E+04  0.7818608E-02  0.9321819E-01
         21   -1    0    0  501  502  0.00000000000E+00  0.00000000000E+00  0.44228329566E+03  0.44228329566E+03  0.00000000000E+00 0.  1.
          4   -1    0    0  502    0 -0.00000000000E+00 -0.00000000000E+00 -0.20663241207E+04  0.20663241207E+04  0.00000000000E+00 0.  1.
    9000010    2    1    2  501    0 -0.28531869594E+03  0.52290082069E+03 -0.57725356515E+03  0.13042006723E+04  0.10064222218E+04 0.  0.
        -13    1    3    3    0    0 -0.52810841471E+03  0.67030131057E+03 -0.55784630656E+03  0.10195071640E+04  0.10566000000E+00 0.  1.
          4    1    3    3  501    0  0.24278971877E+03 -0.14740048987E+03 -0.19407258597E+02  0.28469350825E+03  0.00000000000E+00 0.  1.
         13    1    1    2    0    0  0.28531869594E+03 -0.52290082069E+03 -0.10467872599E+04  0.12044067441E+04  0.10566000000E+00 0. -1.
<mgrwt>
<rscale>  1 0.98798768E+03</rscale>
<asrwt>0</asrwt>
<pdfrwt beam="1">  1       21 0.68043585E-01 0.11694946E+04</pdfrwt>
<pdfrwt beam="2">  1        4 0.31789602E+00 0.11694946E+04</pdfrwt>
<totfact> 0.17806785E+00</totfact>
</mgrwt>
</event>
<event>
 6    1  0.2415530E-005  0.1047599E+04  0.7818608E-02  0.9411303E-01
         21   -1    0    0  501  502  0.00000000000E+00  0.00000000000E+00  0.12261286389E+04  0.12261286389E+04  0.00000000000E+00 0. -1.
          4   -1    0    0  502    0 -0.00000000000E+00 -0.00000000000E+00 -0.94690112196E+03  0.94690112196E+03  0.00000000000E+00 0.  1.
    9000010    2    1    2  501    0  0.59213540416E+03 -0.99490991128E+02  0.84661036519E+03  0.13469268001E+04  0.85845203728E+03 0.  0.
        -13    1    3    3    0    0  0.81195764577E+03 -0.26917166285E+02  0.70428147931E+03  0.10751800620E+04  0.10566000000E+00 0.  1.
          4    1    3    3  501    0 -0.21982224161E+03 -0.72573824843E+02  0.14232888587E+03  0.27174673818E+03  0.00000000000E+00 0.  1.
         13    1    1    2    0    0 -0.59213540416E+03  0.99490991128E+02 -0.56738284820E+03  0.82610296076E+03  0.10566000000E+00 0. -1.
<mgrwt>
<rscale>  1 0.91151277E+03</rscale>
<asrwt>0</asrwt>
<pdfrwt beam="1">  1       21 0.18863518E+00 0.10475985E+04</pdfrwt>
<pdfrwt beam="2">  1        4 0.14567709E+00 0.10475985E+04</pdfrwt>
<totfact> 0.17281447E+00</totfact>
</mgrwt>
</event>
<event>
 6    1  0.2415530E-005  0.1007124E+04  0.7818608E-02  0.9802077E-01
         21   -1    0    0  501  502  0.00000000000E+00  0.00000000000E+00  0.11599366487E+04  0.11599366487E+04  0.00000000000E+00 0.  1.
          4   -1    0    0  502    0 -0.00000000000E+00 -0.00000000000E+00 -0.35826229943E+03  0.35826229943E+03  0.00000000000E+00 0.  1.
    9000010    2    1    2  501    0  0.97945381550E+02  0.14798429200E+03  0.86719113458E+03  0.13290294243E+04  0.99136577419E+03 0.  0.
        -13    1    3    3    0    0  0.43335062218E+03  0.38947427871E+03  0.60301341001E+03  0.83851544967E+03  0.10566000000E+00 0.  1.
          4    1    3    3  501    0 -0.33540524063E+03 -0.24148998671E+03  0.26417772458E+03  0.49051397461E+03  0.00000000000E+00 0.  1.
         13    1    1    2    0    0 -0.97945381550E+02 -0.14798429200E+03 -0.65516785285E+02  0.18916952388E+03  0.10566000000E+00 0. -1.
<mgrwt>
<rscale>  1 0.65251181E+03</rscale>
<asrwt>0</asrwt>
<pdfrwt beam="1">  1       21 0.17845179E+00 0.10071240E+04</pdfrwt>
<pdfrwt beam="2">  1        4 0.55117277E-01 0.10071240E+04</pdfrwt>
<totfact> 0.20561991E+01</totfact>
</mgrwt>
</event>
<event>
 6    1  0.2415530E-005  0.1267510E+04  0.7818608E-02  0.9201439E-01
          4   -1    0    0  502    0 -0.00000000000E+00  0.00000000000E+00  0.25293575120E+04  0.25293575120E+04  0.00000000000E+00 0.  1.
         21   -1    0    0  501  502  0.00000000000E+00 -0.00000000000E+00 -0.43654553226E+03  0.43654553226E+03  0.00000000000E+00 0.  1.
    9000010    2    1    2  501    0  0.40182045423E+03  0.60840461645E+03  0.85371802983E+03  0.15282070810E+04  0.10368059381E+04 0.  0.
        -13    1    3    3    0    0 -0.22966336527E+03  0.73447198402E+02  0.62450125982E+03  0.66943378088E+03  0.10566000000E+00 0.  1.
          4    1    3    3  501    0  0.63148381950E+03  0.53495741805E+03  0.22921677001E+03  0.85877330016E+03  0.00000000000E+00 0.  1.
         13    1    1    2    0    0 -0.40182045423E+03 -0.60840461645E+03  0.12390939499E+04  0.14376959632E+04  0.10566000000E+00 0. -1.
<mgrwt>
<rscale>  1 0.11038584E+04</rscale>
<asrwt>0</asrwt>
<pdfrwt beam="2">  1       21 0.67160853E-01 0.12675103E+04</pdfrwt>
<pdfrwt beam="1">  1        4 0.38913192E+00 0.12675103E+04</pdfrwt>
<totfact> 0.61837811E-01</totfact>
</mgrwt>
</event>
<event>
 6    1  0.2415530E-005  0.9556818E+03  0.7818608E-02  0.1004979E+00
         21   -1    0    0  501  502  0.00000000000E+00  0.00000000000E+00  0.50688471392E+03  0.50688471392E+03  0.00000000000E+00 0.  1.
          4   -1    0    0  502    0 -0.00000000000E+00 -0.00000000000E+00 -0.54381012411E+03  0.54381012411E+03  0.00000000000E+00 0.  1.
    9000010    2    1    2  501    0  0.58321629119E+02 -0.73717220668E+02 -0.41532735061E+02  0.95658384157E+03  0.95104786254E+03 0.  0.
        -13    1    3    3    0    0 -0.38894870621E+03  0.18923736008E+03 -0.64033561269E+02  0.43725528316E+03  0.10566000000E+00 0.  1.
          4    1    3    3  501    0  0.44727033533E+03 -0.26295458075E+03  0.22500826208E+02  0.51932855842E+03  0.00000000000E+00 0.  1.
         13    1    1    2    0    0 -0.58321629119E+02  0.73717220668E+02  0.46073248675E+01  0.94110996449E+02  0.10566000000E+00 0. -1.
<mgrwt>
<rscale>  1 0.53519847E+03</rscale>
<asrwt>0</asrwt>
<pdfrwt beam="1">  1       21 0.77982265E-01 0.95568179E+03</pdfrwt>
<pdfrwt beam="2">  1        4 0.83663095E-01 0.95568179E+03</pdfrwt>
<totfact> 0.70710481E+01</totfact>
</mgrwt>
</event>
<event>
 6    1  0.2415530E-005  0.1021046E+04  0.7818608E-02  0.9743000E-01
         21   -1    0    0  501  502  0.00000000000E+00  0.00000000000E+00  0.89393184781E+03  0.89393184781E+03  0.00000000000E+00 0.  1.
          4   -1    0    0  502    0 -0.00000000000E+00 -0.00000000000E+00 -0.72310495215E+03  0.72310495215E+03  0.00000000000E+00 0.  1.
    9000010    2    1    2  501    0  0.12989426835E+02 -0.20658858497E+03  0.56855304825E+03  0.11686690131E+04  0.99984355022E+03 0.  0.
        -13    1    3    3    0    0 -0.33710024248E+03 -0.47142576135E+03  0.28269983369E+03  0.64482402954E+03  0.10566000000E+00 0.  1.
          4    1    3    3  501    0  0.35008966931E+03  0.26483717638E+03  0.28585321456E+03  0.52384498358E+03  0.00000000000E+00 0.  1.
         13    1    1    2    0    0 -0.12989426835E+02  0.20658858497E+03 -0.39772615259E+03  0.44836778683E+03  0.10566000000E+00 0. -1.
<mgrwt>
<rscale>  1 0.68513275E+03</rscale>
<asrwt>0</asrwt>
<pdfrwt beam="1">  1       21 0.13752798E+00 0.10210459E+04</pdfrwt>
<pdfrwt beam="2">  1        4 0.11124692E+00 0.10210459E+04</pdfrwt>
<totfact> 0.85848641E+00</totfact>
</mgrwt>
</event>
<event>
 6    1  0.2415530E-005  0.1098067E+04  0.7818608E-02  0.9450050E-01
          4   -1    0    0  502    0 -0.00000000000E+00  0.00000000000E+00  0.53529217692E+03  0.53529217692E+03  0.00000000000E+00 0.  1.
         21   -1    0    0  501  502  0.00000000000E+00 -0.00000000000E+00 -0.13693515727E+04  0.13693515727E+04  0.00000000000E+00 0.  1.
    9000010    2    1    2  501    0 -0.31911562265E+03 -0.32343381969E+03 -0.93150684945E+03  0.14399500507E+04  0.99965340078E+03 0.  0.
        -13    1    3    3    0    0 -0.12438408796E+03  0.11618708922E+02 -0.10320539922E+04  0.10395873459E+04  0.10566000000E+00 0.  1.
          4    1    3    3  501    0 -0.19473153470E+03 -0.33505252861E+03  0.10054714274E+03  0.40036270486E+03  0.00000000000E+00 0.  1.
         13    1    1    2    0    0  0.31911562265E+03  0.32343381969E+03  0.97447453720E+02  0.46469369884E+03  0.10566000000E+00 0. -1.
<mgrwt>
<rscale>  1 0.88068779E+03</rscale>
<asrwt>0</asrwt>
<pdfrwt beam="2">  1       21 0.21066947E+00 0.10980670E+04</pdfrwt>
<pdfrwt beam="1">  1        4 0.82352644E-01 0.10980670E+04</pdfrwt>
<totfact> 0.49484018E+00</totfact>
</mgrwt>
</event>
<event>
 6    1  0.2415530E-005  0.1016243E+04  0.7818608E-02  0.9790317E-01
          4   -1    0    0  502    0 -0.00000000000E+00  0.00000000000E+00  0.57446036467E+03  0.57446036467E+03  0.00000000000E+00 0.  1.
         21   -1    0    0  501  502  0.00000000000E+00 -0.00000000000E+00 -0.62395926417E+03  0.62395926417E+03  0.00000000000E+00 0.  1.
    9000010    2    1    2  501    0 -0.64479379809E+02 -0.16755614666E+03 -0.19735313201E+02  0.10164346434E+04  0.10002585910E+04 0.  0.
        -13    1    3    3    0    0 -0.12570565126E+03 -0.38934665072E+03  0.37794661576E+03  0.55698867198E+03  0.10566000000E+00 0.  1.
          4    1    3    3  501    0  0.61226271456E+02  0.22179050405E+03 -0.39768192896E+03  0.45944597139E+03  0.00000000000E+00 0.  1.
         13    1    1    2    0    0  0.64479379809E+02  0.16755614666E+03 -0.29763586296E+02  0.18198498548E+03  0.10566000000E+00 0. -1.
<mgrwt>
<rscale>  1 0.65884805E+03</rscale>
<asrwt>0</asrwt>
<pdfrwt beam="2">  1       21 0.95993733E-01 0.10162430E+04</pdfrwt>
<pdfrwt beam="1">  1        4 0.88378517E-01 0.10162430E+04</pdfrwt>
<totfact> 0.37660384E+01</totfact>
</mgrwt>
</event>
<event>
 6    1  0.2415530E-005  0.1083032E+04  0.7818608E-02  0.9533407E-01
          4   -1    0    0  502    0 -0.00000000000E+00  0.00000000000E+00  0.16279944147E+03  0.16279944147E+03  0.00000000000E+00 0.  1.
         21   -1    0    0  501  502  0.00000000000E+00 -0.00000000000E+00 -0.32211385633E+04  0.32211385633E+04  0.00000000000E+00 0. -1.
    9000010    2    1    2  501    0 -0.34892197926E+03 -0.57114748481E+02 -0.21076247127E+04  0.23696074171E+04  0.10236936747E+04 0.  0.
        -13    1    3    3    0    0 -0.46089310553E+03 -0.33395536969E+03 -0.57832434742E+03  0.81142325925E+03  0.10566000000E+00 0.  1.
          4    1    3    3  501    0  0.11197112627E+03  0.27684062120E+03 -0.15293003652E+04  0.15581841578E+04  0.00000000000E+00 0.  1.
         13    1    1    2    0    0  0.34892197926E+03  0.57114748481E+02 -0.95071440912E+03  0.10143305876E+04  0.10566000000E+00 0. -1.
<mgrwt>
<rscale>  1 0.81865025E+03</rscale>
<asrwt>0</asrwt>
<pdfrwt beam="2">  1       21 0.49555977E+00 0.10830316E+04</pdfrwt>
<pdfrwt beam="1">  1        4 0.25046068E-01 0.10830316E+04</pdfrwt>
<totfact> 0.82077639E-01</totfact>
</mgrwt>
</event>
<event>
 6    1  0.2415530E-005  0.1010264E+04  0.7818608E-02  0.9942220E-01
          4   -1    0    0  502    0 -0.00000000000E+00  0.00000000000E+00  0.24065259214E+03  0.24065259214E+03  0.00000000000E+00 0.  1.
         21   -1    0    0  501  502  0.00000000000E+00 -0.00000000000E+00 -0.17686238358E+04  0.17686238358E+04  0.00000000000E+00 0.  1.
    9000010    2    1    2  501    0  0.38161897567E+02 -0.10499683326E+03 -0.15882524429E+04  0.18823335291E+04  0.10040682383E+04 0.  0.
        -13    1    3    3    0    0  0.72532497195E+02  0.42753166988E+03 -0.44858167007E+03  0.62391491230E+03  0.10566000000E+00 0.  1.
          4    1    3    3  501    0 -0.34370599629E+02 -0.53252850314E+03 -0.11396707728E+04  0.12584186168E+04  0.00000000000E+00 0.  1.
         13    1    1    2    0    0 -0.38161897567E+02  0.10499683326E+03  0.60281199205E+02  0.12694289883E+03  0.10566000000E+00 0. -1.
<mgrwt>
<rscale>  1 0.58258055E+03</rscale>
<asrwt>0</asrwt>
<pdfrwt beam="2">  1       21 0.27209597E+00 0.10102642E+04</pdfrwt>
<pdfrwt beam="1">  1        4 0.37023476E-01 0.10102642E+04</pdfrwt>
<totfact> 0.11260881E+01</totfact>
</mgrwt>
</event>
<event>
 6    1  0.2415530E-005  0.1023519E+04  0.7818608E-02  0.9961967E-01
          4   -1    0    0  502    0 -0.00000000000E+00  0.00000000000E+00  0.21962282976E+04  0.21962282976E+04  0.00000000000E+00 0.  1.
         21   -1    0    0  501  502  0.00000000000E+00 -0.00000000000E+00 -0.15146192513E+03  0.15146192513E+03  0.00000000000E+00 0.  1.
    9000010    2    1    2  501    0  0.23981266645E+02  0.97996567255E+02  0.19767604645E+04  0.22260216441E+04  0.10185342398E+04 0.  0.
        -13    1    3    3    0    0 -0.48784245345E+03 -0.14894563139E+02  0.78895134683E+03  0.92771566022E+03  0.10566000000E+00 0.  1.
          4    1    3    3  501    0  0.51182372009E+03  0.11289113039E+03  0.11878091177E+04  0.12983059839E+04  0.00000000000E+00 0.  1.
         13    1    1    2    0    0 -0.23981266645E+02 -0.97996567255E+02  0.68005908009E+02  0.12166857865E+03  0.10566000000E+00 0. -1.
<mgrwt>
<rscale>  1 0.57349815E+03</rscale>
<asrwt>0</asrwt>
<pdfrwt beam="2">  1       21 0.23301836E-01 0.10235186E+04</pdfrwt>
<pdfrwt beam="1">  1        4 0.33788125E+00 0.10235186E+04</pdfrwt>
<totfact> 0.12942438E+01</totfact>
</mgrwt>
</event>
<event>
 6    1  0.2415530E-005  0.1053624E+04  0.7818608E-02  0.9610706E-01
          4   -1    0    0  502    0 -0.00000000000E+00  0.00000000000E+00  0.57540893883E+03  0.57540893883E+03  0.00000000000E+00 0.  1.
         21   -1    0    0  501  502  0.00000000000E+00 -0.00000000000E+00 -0.82795368588E+03  0.82795368588E+03  0.00000000000E+00 0.  1.
    9000010    2    1    2  501    0  0.19570570842E+03 -0.21968845022E+03 -0.32070768957E+03  0.11013527948E+04  0.10117118251E+04 0.  0.
        -13    1    3    3    0    0  0.24670697475E+03 -0.49447028409E+03  0.13309046244E+03  0.56839974982E+03  0.10566000000E+00 0.  1.
          4    1    3    3  501    0 -0.51001266331E+02  0.27478183386E+03 -0.45379815200E+03  0.53295304498E+03  0.00000000000E+00 0.  1.
         13    1    1    2    0    0 -0.19570570842E+03  0.21968845022E+03  0.68162942509E+02  0.30200982992E+03  0.10566000000E+00 0. -1.
<mgrwt>
<rscale>  1 0.76591645E+03</rscale>
<asrwt>0</asrwt>
<pdfrwt beam="2">  1       21 0.12737749E+00 0.10536245E+04</pdfrwt>
<pdfrwt beam="1">  1        4 0.88524453E-01 0.10536245E+04</pdfrwt>
<totfact> 0.18201305E+01</totfact>
</mgrwt>
</event>
<event>
 6    1  0.2415530E-005  0.9554685E+03  0.7818608E-02  0.9854933E-01
         21   -1    0    0  501  502  0.00000000000E+00  0.00000000000E+00  0.53143050136E+03  0.53143050136E+03  0.00000000000E+00 0.  1.
          4   -1    0    0  502    0 -0.00000000000E+00 -0.00000000000E+00 -0.63497062961E+03  0.63497062961E+03  0.00000000000E+00 0.  1.
    9000010    2    1    2  501    0 -0.96249131814E+02  0.14602069975E+03  0.14197476261E+02  0.95557396288E+03  0.93932640230E+03 0.  0.
        -13    1    3    3    0    0  0.20187974238E+03 -0.26065200114E+03  0.23523798860E+03  0.40500841785E+03  0.10566000000E+00 0.  1.
          4    1    3    3  501    0 -0.29812887420E+03  0.40667270089E+03 -0.22104051234E+03  0.55056554503E+03  0.00000000000E+00 0.  1.
         13    1    1    2    0    0  0.96249131814E+02 -0.14602069975E+03 -0.11773760450E+03  0.21082716810E+03  0.10566000000E+00 0. -1.
<mgrwt>
<rscale>  1 0.62496044E+03</rscale>
<asrwt>0</asrwt>
<pdfrwt beam="1">  1       21 0.81758539E-01 0.95546849E+03</pdfrwt>
<pdfrwt beam="2">  1        4 0.97687789E-01 0.95546849E+03</pdfrwt>
<totfact> 0.43939070E+01</totfact>
</mgrwt>
</event>
<event>
 6    1  0.2415530E-005  0.9833293E+03  0.7818608E-02  0.9787366E-01
          4   -1    0    0  502    0 -0.00000000000E+00  0.00000000000E+00  0.15183724734E+04  0.15183724734E+04  0.00000000000E+00 0.  1.
         21   -1    0    0  501  502  0.00000000000E+00 -0.00000000000E+00 -0.27875391798E+03  0.27875391798E+03  0.00000000000E+00 0. -1.
    9000010    2    1    2  501    0 -0.17948905315E+03 -0.88467560720E+02  0.12573862841E+04  0.15962320589E+04  0.96275318164E+03 0.  0.
        -13    1    3    3    0    0  0.74631321264E+02  0.35547451406E+03  0.18395609183E+03  0.40715085551E+03  0.10566000000E+00 0.  1.
          4    1    3    3  501    0 -0.25412037441E+03 -0.44394207477E+03  0.10734301923E+04  0.11890812034E+04  0.00000000000E+00 0.  1.
         13    1    1    2    0    0  0.17948905315E+03  0.88467560720E+02 -0.17767728691E+02  0.20089433254E+03  0.10566000000E+00 0. -1.
<mgrwt>
<rscale>  1 0.66044993E+03</rscale>
<asrwt>0</asrwt>
<pdfrwt beam="2">  1       21 0.42885219E-01 0.98332930E+03</pdfrwt>
<pdfrwt beam="1">  1        4 0.23359576E+00 0.98332930E+03</pdfrwt>
<totfact> 0.16738421E+01</totfact>
</mgrwt>
</event>
<event>
 6    1  0.2415530E-005  0.9907470E+03  0.7818608E-02  0.9923611E-01
          4   -1    0    0  502    0 -0.00000000000E+00  0.00000000000E+00  0.51945837794E+03  0.51945837794E+03  0.00000000000E+00 0.  1.
         21   -1    0    0  501  502  0.00000000000E+00 -0.00000000000E+00 -0.83069208487E+03  0.83069208487E+03  0.00000000000E+00 0.  1.
    9000010    2    1    2  501    0 -0.11238550256E+03  0.56317461559E+02 -0.51050828454E+03  0.11145394993E+04  0.98273975667E+03 0.  0.
        -13    1    3    3    0    0 -0.46419074215E+03 -0.19980434309E+03 -0.44715522690E+03  0.67479080367E+03  0.10566000000E+00 0.  1.
          4    1    3    3  501    0  0.35180523960E+03  0.25612180465E+03 -0.63353057641E+02  0.43974869566E+03  0.00000000000E+00 0.  1.
         13    1    1    2    0    0  0.11238550256E+03 -0.56317461559E+02  0.19927457761E+03  0.23561096347E+03  0.10566000000E+00 0. -1.
<mgrwt>
<rscale>  1 0.59130514E+03</rscale>
<asrwt>0</asrwt>
<pdfrwt beam="2">  1       21 0.12779878E+00 0.99074698E+03</pdfrwt>
<pdfrwt beam="1">  1        4 0.79916675E-01 0.99074698E+03</pdfrwt>
<totfact> 0.23025789E+01</totfact>
</mgrwt>
</event>
<event>
 6    1  0.2415530E-005  0.1026060E+04  0.7818608E-02  0.9657045E-01
         21   -1    0    0  501  502  0.00000000000E+00  0.00000000000E+00  0.17748915578E+04  0.17748915578E+04  0.00000000000E+00 0.  1.
          4   -1    0    0  502    0 -0.00000000000E+00 -0.00000000000E+00 -0.24386378816E+03  0.24386378816E+03  0.00000000000E+00 0.  1.
    9000010    2    1    2  501    0  0.25929043744E+03 -0.82587024043E+02  0.13331738385E+04  0.16823057410E+04  0.98931692333E+03 0.  0.
        -13    1    3    3    0    0 -0.27479586103E+03 -0.27089705187E+03  0.24929191506E+03  0.45939574229E+03  0.10566000000E+00 0.  1.
          4    1    3    3  501    0  0.53408629847E+03  0.18831002783E+03  0.10838819235E+04  0.12229099987E+04  0.00000000000E+00 0.  1.
         13    1    1    2    0    0 -0.25929043744E+03  0.82587024043E+02  0.19785393109E+03  0.33644960499E+03  0.10566000000E+00 0. -1.
<mgrwt>
<rscale>  1 0.73632906E+03</rscale>
<asrwt>0</asrwt>
<pdfrwt beam="1">  1       21 0.27306023E+00 0.10260605E+04</pdfrwt>
<pdfrwt beam="2">  1        4 0.37517507E-01 0.10260605E+04</pdfrwt>
<totfact> 0.10785450E+01</totfact>
</mgrwt>
</event>
<event>
 6    1  0.2415530E-005  0.1006358E+04  0.7818608E-02  0.9788405E-01
          4   -1    0    0  502    0 -0.00000000000E+00  0.00000000000E+00  0.16105439022E+04  0.16105439022E+04  0.00000000000E+00 0.  1.
         21   -1    0    0  501  502  0.00000000000E+00 -0.00000000000E+00 -0.30097752883E+03  0.30097752883E+03  0.00000000000E+00 0.  1.
    9000010    2    1    2  501    0  0.15811885881E+03  0.98034214904E+02  0.58625801290E+03  0.11646698552E+04  0.98901220072E+03 0.  0.
        -13    1    3    3    0    0  0.30048197842E+03 -0.20503074399E+03  0.71796528342E+03  0.80486097228E+03  0.10566000000E+00 0.  1.
          4    1    3    3  501    0 -0.14236311961E+03  0.30306495889E+03 -0.13170727052E+03  0.35980888294E+03  0.00000000000E+00 0.  1.
         13    1    1    2    0    0 -0.15811885881E+03 -0.98034214904E+02  0.72330836052E+03  0.74685157586E+03  0.10566000000E+00 0. -1.
<mgrwt>
<rscale>  1 0.65988511E+03</rscale>
<asrwt>0</asrwt>
<pdfrwt beam="2">  1       21 0.46304236E-01 0.10063585E+04</pdfrwt>
<pdfrwt beam="1">  1        4 0.24777598E+00 0.10063585E+04</pdfrwt>
<totfact> 0.11571750E+01</totfact>
</mgrwt>
</event>
<event>
 6    1  0.2415530E-005  0.1015504E+04  0.7818608E-02  0.9836813E-01
         21   -1    0    0  501  502  0.00000000000E+00  0.00000000000E+00  0.10580200923E+04  0.10580200923E+04  0.00000000000E+00 0.  1.
          4   -1    0    0  502    0 -0.00000000000E+00 -0.00000000000E+00 -0.33390974842E+03  0.33390974842E+03  0.00000000000E+00 0.  1.
    9000010    2    1    2  501    0 -0.66073222769E+02  0.13967294676E+03  0.70501437476E+03  0.12362414660E+04  0.10036799743E+04 0.  0.
        -13    1    3    3    0    0 -0.33511199850E+03  0.47603000182E+03  0.36097357018E+03  0.68498652812E+03  0.10566000000E+00 0.  1.
          4    1    3    3  501    0  0.26903877573E+03 -0.33635705507E+03  0.34404080458E+03  0.55125493790E+03  0.00000000000E+00 0.  1.
         13    1    1    2    0    0  0.66073222769E+02 -0.13967294676E+03  0.19095969148E+02  0.15568837472E+03  0.10566000000E+00 0. -1.
<mgrwt>
<rscale>  1 0.63423800E+03</rscale>
<asrwt>0</asrwt>
<pdfrwt beam="1">  1       21 0.16277232E+00 0.10155037E+04</pdfrwt>
<pdfrwt beam="2">  1        4 0.51370731E-01 0.10155037E+04</pdfrwt>
<totfact> 0.31268239E+01</totfact>
</mgrwt>
</event>
<event>
 6    1  0.2415530E-005  0.1056366E+04  0.7818608E-02  0.9624215E-01
          4   -1    0    0  502    0 -0.00000000000E+00  0.00000000000E+00  0.91129554343E+03  0.91129554343E+03  0.00000000000E+00 0.  1.
         21   -1    0    0  501  502  0.00000000000E+00 -0.00000000000E+00 -0.77641830212E+03  0.77641830212E+03  0.00000000000E+00 0.  1.
    9000010    2    1    2  501    0  0.27242986954E+03 -0.59161398652E+02 -0.36308775240E+03  0.11170236923E+04  0.10189166346E+04 0.  0.
        -13    1    3    3    0    0  0.40055680071E+03 -0.38604271727E+03 -0.49235071116E+03  0.74288893120E+03  0.10566000000E+00 0.  1.
          4    1    3    3  501    0 -0.12812693118E+03  0.32688131862E+03  0.12926295876E+03  0.37413476110E+03  0.00000000000E+00 0.  1.
         13    1    1    2    0    0 -0.27242986954E+03  0.59161398652E+02  0.49796499371E+03  0.57069015326E+03  0.10566000000E+00 0. -1.
<mgrwt>
<rscale>  1 0.75713985E+03</rscale>
<asrwt>0</asrwt>
<pdfrwt beam="2">  1       21 0.11944897E+00 0.10563660E+04</pdfrwt>
<pdfrwt beam="1">  1        4 0.14019932E+00 0.10563660E+04</pdfrwt>
<totfact> 0.68945236E+00</totfact>
</mgrwt>
</event>
<event>
 6    1  0.2415530E-005  0.1077395E+04  0.7818608E-02  0.9668337E-01
          4   -1    0    0  502    0 -0.00000000000E+00  0.00000000000E+00  0.15905835810E+04  0.15905835810E+04  0.00000000000E+00 0.  1.
         21   -1    0    0  501  502  0.00000000000E+00 -0.00000000000E+00 -0.29018326826E+03  0.29018326826E+03  0.00000000000E+00 0.  1.
    9000010    2    1    2  501    0 -0.66775166159E+02 -0.21617095004E+03  0.83430606766E+03  0.13626619768E+04  0.10533718460E+04 0.  0.
        -13    1    3    3    0    0  0.45977432011E+03 -0.24715435976E+03  0.26093251682E+03  0.58357818026E+03  0.10566000000E+00 0.  1.
          4    1    3    3  501    0 -0.52654948626E+03  0.30983409718E+02  0.57337355084E+03  0.77908379650E+03  0.00000000000E+00 0.  1.
         13    1    1    2    0    0  0.66775166159E+02  0.21617095004E+03  0.46609424508E+03  0.51810487251E+03  0.10566000000E+00 0. -1.
<mgrwt>
<rscale>  1 0.72933700E+03</rscale>
<asrwt>0</asrwt>
<pdfrwt beam="2">  1       21 0.44643581E-01 0.10773955E+04</pdfrwt>
<pdfrwt beam="1">  1        4 0.24470516E+00 0.10773955E+04</pdfrwt>
<totfact> 0.12966595E+01</totfact>
</mgrwt>
</event>
<event>
 6    1  0.2415530E-005  0.1031564E+04  0.7818608E-02  0.9651706E-01
         21   -1    0    0  501  502  0.00000000000E+00  0.00000000000E+00  0.66995556957E+03  0.66995556957E+03  0.00000000000E+00 0.  1.
          4   -1    0    0  502    0 -0.00000000000E+00 -0.00000000000E+00 -0.69468470892E+03  0.69468470892E+03  0.00000000000E+00 0.  1.
    9000010    2    1    2  501    0 -0.23120267606E+03  0.14456322120E+03  0.14760190628E+03  0.10420705918E+04  0.99487265172E+03 0.  0.
        -13    1    3    3    0    0 -0.30305223834E+03 -0.21947493772E+03 -0.28629937838E+03  0.47114461970E+03  0.10566000000E+00 0.  1.
          4    1    3    3  501    0  0.71849562281E+02  0.36403815892E+03  0.43390128466E+03  0.57092597206E+03  0.00000000000E+00 0.  1.
         13    1    1    2    0    0  0.23120267606E+03 -0.14456322120E+03 -0.17233104563E+03  0.32256968672E+03  0.10566000000E+00 0. -1.
<mgrwt>
<rscale>  1 0.73966434E+03</rscale>
<asrwt>0</asrwt>
<pdfrwt beam="1">  1       21 0.10307009E+00 0.10315642E+04</pdfrwt>
<pdfrwt beam="2">  1        4 0.10687457E+00 0.10315642E+04</pdfrwt>
<totfact> 0.19996388E+01</totfact>
</mgrwt>
</event>
<event>
 6    1  0.2415530E-005  0.1024169E+04  0.7818608E-02  0.9966595E-01
          4   -1    0    0  502    0 -0.00000000000E+00  0.00000000000E+00  0.17974223713E+03  0.17974223713E+03  0.00000000000E+00 0.  1.
         21   -1    0    0  501  502  0.00000000000E+00 -0.00000000000E+00 -0.18136288531E+04  0.18136288531E+04  0.00000000000E+00 0.  1.
    9000010    2    1    2  501    0 -0.80692410823E+02  0.57748070511E+02 -0.13631406634E+04  0.17050145630E+04  0.10193508164E+04 0.  0.
        -13    1    3    3    0    0 -0.16593889111E+03 -0.24725240622E+03  0.78949528059E+01  0.29787885022E+03  0.10566000000E+00 0.  1.
          4    1    3    3  501    0  0.85246480288E+02  0.30500047673E+03 -0.13710356162E+04  0.14071357127E+04  0.00000000000E+00 0.  1.
         13    1    1    2    0    0  0.80692410823E+02 -0.57748070511E+02 -0.27074595256E+03  0.28835652724E+03  0.10566000000E+00 0. -1.
<mgrwt>
<rscale>  1 0.57139561E+03</rscale>
<asrwt>0</asrwt>
<pdfrwt beam="2">  1       21 0.27901983E+00 0.10241690E+04</pdfrwt>
<pdfrwt beam="1">  1        4 0.27652651E-01 0.10241690E+04</pdfrwt>
<totfact> 0.18102380E+01</totfact>
</mgrwt>
</event>
<event>
 6    1  0.2415530E-005  0.9884889E+03  0.7818608E-02  0.1025620E+00
          4   -1    0    0  502    0 -0.00000000000E+00  0.00000000000E+00  0.18297154121E+04  0.18297154121E+04  0.00000000000E+00 0.  1.
         21   -1    0    0  501  502  0.00000000000E+00 -0.00000000000E+00 -0.16483892522E+03  0.16483892522E+03  0.00000000000E+00 0.  1.
    9000010    2    1    2  501    0  0.13293375525E+02 -0.43207203119E+02  0.16779755371E+04  0.19474887181E+04  0.98745472195E+03 0.  0.
        -13    1    3    3    0    0 -0.10478138068E+03  0.44140782370E+03  0.54188221889E+03  0.70672226148E+03  0.10566000000E+00 0.  1.
          4    1    3    3  501    0  0.11807475620E+03 -0.48461502682E+03  0.11360933182E+04  0.12407664566E+04  0.00000000000E+00 0.  1.
         13    1    1    2    0    0 -0.13293375525E+02  0.43207203119E+02 -0.13099050182E+02  0.47065619235E+02  0.10566000000E+00 0. -1.
<mgrwt>
<rscale>  1 0.45711773E+03</rscale>
<asrwt>0</asrwt>
<pdfrwt beam="2">  1       21 0.25359836E-01 0.98848895E+03</pdfrwt>
<pdfrwt beam="1">  1        4 0.28149467E+00 0.98848895E+03</pdfrwt>
<totfact> 0.24741473E+01</totfact>
</mgrwt>
</event>
<event>
 6    1  0.2415530E-005  0.1007315E+04  0.7818608E-02  0.9764551E-01
          4   -1    0    0  502    0 -0.00000000000E+00  0.00000000000E+00  0.12561476006E+04  0.12561476006E+04  0.00000000000E+00 0.  1.
         21   -1    0    0  501  502  0.00000000000E+00 -0.00000000000E+00 -0.30125121874E+03  0.30125121874E+03  0.00000000000E+00 0.  1.
    9000010    2    1    2  501    0 -0.14154579830E+03  0.14229918827E+03  0.67339056149E+03  0.12116679846E+04  0.98711710788E+03 0.  0.
        -13    1    3    3    0    0  0.70878780961E+02  0.43044208827E+02  0.88916493560E+03  0.89302345959E+03  0.10566000000E+00 0.  1.
          4    1    3    3  501    0 -0.21242457926E+03  0.99254979447E+02 -0.21577437411E+03  0.31864452504E+03  0.00000000000E+00 0.  1.
         13    1    1    2    0    0  0.14154579830E+03 -0.14229918827E+03  0.28150582038E+03  0.34573083471E+03  0.10566000000E+00 0. -1.
<mgrwt>
<rscale>  1 0.67300158E+03</rscale>
<asrwt>0</asrwt>
<pdfrwt beam="2">  1       21 0.46346342E-01 0.10073155E+04</pdfrwt>
<pdfrwt beam="1">  1        4 0.19325347E+00 0.10073155E+04</pdfrwt>
<totfact> 0.25805522E+01</totfact>
</mgrwt>
</event>
<event>
 6    1  0.2415530E-005  0.1043456E+04  0.7818608E-02  0.9661576E-01
          4   -1    0    0  502    0 -0.00000000000E+00  0.00000000000E+00  0.24325740957E+03  0.24325740957E+03  0.00000000000E+00 0.  1.
         21   -1    0    0  501  502  0.00000000000E+00 -0.00000000000E+00 -0.18767344120E+04  0.18767344120E+04  0.00000000000E+00 0.  1.
    9000010    2    1    2  501    0 -0.19093425231E+03 -0.16873134265E+03 -0.15135396488E+04  0.18383694953E+04  0.10118665811E+04 0.  0.
        -13    1    3    3    0    0  0.15916026616E+03 -0.54417322645E+02  0.91594274324E+02  0.19152743297E+03  0.10566000000E+00 0.  1.
          4    1    3    3  501    0 -0.35009451847E+03 -0.11431402000E+03 -0.16051339231E+04  0.16468420623E+04  0.00000000000E+00 0.  1.
         13    1    1    2    0    0  0.19093425231E+03  0.16873134265E+03 -0.11993735361E+03  0.28162232627E+03  0.10566000000E+00 0. -1.
<mgrwt>
<rscale>  1 0.73351337E+03</rscale>
<asrwt>0</asrwt>
<pdfrwt beam="2">  1       21 0.28872838E+00 0.10434559E+04</pdfrwt>
<pdfrwt beam="1">  1        4 0.37424216E-01 0.10434559E+04</pdfrwt>
<totfact> 0.86293907E+00</totfact>
</mgrwt>
</event>
<event>
 6    1  0.2415530E-005  0.1011628E+04  0.7818608E-02  0.9876322E-01
         21   -1    0    0  501  502  0.00000000000E+00  0.00000000000E+00  0.65063159758E+03  0.65063159758E+03  0.00000000000E+00 0.  1.
          4   -1    0    0  502    0 -0.00000000000E+00 -0.00000000000E+00 -0.10213862708E+04  0.10213862708E+04  0.00000000000E+00 0.  1.
    9000010    2    1    2  501    0  0.18932448980E+02  0.13617446095E+03  0.24518870360E+03  0.10409171030E+04  0.10022419835E+04 0.  0.
        -13    1    3    3    0    0  0.26895693190E+03  0.39155627265E+03  0.42806671996E+03  0.63944919561E+03  0.10566000000E+00 0.  1.
          4    1    3    3  501    0 -0.25002448292E+03 -0.25538181170E+03 -0.18287801636E+03  0.40146790740E+03  0.00000000000E+00 0.  1.
         13    1    1    2    0    0 -0.18932448980E+02 -0.13617446095E+03 -0.61594337685E+03  0.63110076540E+03  0.10566000000E+00 0. -1.
<mgrwt>
<rscale>  1 0.61422694E+03</rscale>
<asrwt>0</asrwt>
<pdfrwt beam="1">  1       21 0.10009717E+00 0.10116279E+04</pdfrwt>
<pdfrwt beam="2">  1        4 0.15713635E+00 0.10116279E+04</pdfrwt>
<totfact> 0.79900220E+00</totfact>
</mgrwt>
</event>
<event>
 6    1  0.2415530E-005  0.1005795E+04  0.7818608E-02  0.9722215E-01
          4   -1    0    0  502    0 -0.00000000000E+00  0.00000000000E+00  0.39683878755E+03  0.39683878755E+03  0.00000000000E+00 0.  1.
         21   -1    0    0  501  502  0.00000000000E+00 -0.00000000000E+00 -0.96533919836E+03  0.96533919836E+03  0.00000000000E+00 0.  1.
    9000010    2    1    2  501    0  0.18432027330E+02  0.23134637579E+03 -0.46119597938E+03  0.11064923637E+04  0.97865353132E+03 0.  0.
        -13    1    3    3    0    0 -0.43180156002E+03 -0.63583915232E+02 -0.34380861325E+03  0.55560766303E+03  0.10566000000E+00 0.  1.
          4    1    3    3  501    0  0.45023358735E+03  0.29493029102E+03 -0.11738736612E+03  0.55088470070E+03  0.00000000000E+00 0.  1.
         13    1    1    2    0    0 -0.18432027330E+02 -0.23134637579E+03 -0.10730443143E+03  0.25568562218E+03  0.10566000000E+00 0. -1.
<mgrwt>
<rscale>  1 0.69709403E+03</rscale>
<asrwt>0</asrwt>
<pdfrwt beam="2">  1       21 0.14851372E+00 0.10057950E+04</pdfrwt>
<pdfrwt beam="1">  1        4 0.61052121E-01 0.10057950E+04</pdfrwt>
<totfact> 0.27972523E+01</totfact>
</mgrwt>
</event>
<event>
 6    1  0.2415530E-005  0.1096181E+04  0.7818608E-02  0.9386005E-01
          4   -1    0    0  502    0 -0.00000000000E+00  0.00000000000E+00  0.12171863994E+04  0.12171863994E+04  0.00000000000E+00 0.  1.
         21   -1    0    0  501  502  0.00000000000E+00 -0.00000000000E+00 -0.77697018272E+03  0.77697018272E+03  0.00000000000E+00 0.  1.
    9000010    2    1    2  501    0  0.18106841970E+03 -0.54438977577E+03 -0.22152808632E+03  0.11183417990E+04  0.93405978707E+03 0.  0.
        -13    1    3    3    0    0  0.46091155162E+03 -0.12000746996E+02  0.39351551836E+02  0.46274402443E+03  0.10566000000E+00 0.  1.
          4    1    3    3  501    0 -0.27984313192E+03 -0.53238902878E+03 -0.26087963816E+03  0.65559777459E+03  0.00000000000E+00 0.  1.
         13    1    1    2    0    0 -0.18106841970E+03  0.54438977577E+03  0.66174430303E+03  0.87581478312E+03  0.10566000000E+00 0. -1.
<mgrwt>
<rscale>  1 0.93236379E+03</rscale>
<asrwt>0</asrwt>
<pdfrwt beam="2">  1       21 0.11953387E+00 0.10961814E+04</pdfrwt>
<pdfrwt beam="1">  1        4 0.18725945E+00 0.10961814E+04</pdfrwt>
<totfact> 0.30656705E+00</totfact>
</mgrwt>
</event>
<event>
 6    1  0.2415530E-005  0.1001066E+04  0.7818608E-02  0.1018861E+00
         21   -1    0    0  501  502  0.00000000000E+00  0.00000000000E+00  0.30931925647E+03  0.30931925647E+03  0.00000000000E+00 0.  1.
          4   -1    0    0  502    0 -0.00000000000E+00 -0.00000000000E+00 -0.92687716485E+03  0.92687716485E+03  0.00000000000E+00 0.  1.
    9000010    2    1    2  501    0 -0.50933061522E+02  0.15899705476E+02 -0.52756032371E+03  0.11315706415E+04  0.99964255820E+03 0.  0.
        -13    1    3    3    0    0  0.32606994762E+03  0.35279925191E+03 -0.15950321855E+03  0.50619187151E+03  0.10566000000E+00 0.  1.
          4    1    3    3  501    0 -0.37700300915E+03 -0.33689954644E+03 -0.36805710516E+03  0.62537876999E+03  0.00000000000E+00 0.  1.
         13    1    1    2    0    0  0.50933061522E+02 -0.15899705476E+02 -0.89997584678E+02  0.10462577982E+03  0.10566000000E+00 0. -1.
<mgrwt>
<rscale>  1 0.48100003E+03</rscale>
<asrwt>0</asrwt>
<pdfrwt beam="1">  1       21 0.47587578E-01 0.10010655E+04</pdfrwt>
<pdfrwt beam="2">  1        4 0.14259649E+00 0.10010655E+04</pdfrwt>
<totfact> 0.57149387E+01</totfact>
</mgrwt>
</event>
<event>
 6    1  0.2415530E-005  0.1011251E+04  0.7818608E-02  0.9738706E-01
         21   -1    0    0  501  502  0.00000000000E+00  0.00000000000E+00  0.22094543348E+03  0.22094543348E+03  0.00000000000E+00 0.  1.
          4   -1    0    0  502    0 -0.00000000000E+00 -0.00000000000E+00 -0.20880463966E+04  0.20880463966E+04  0.00000000000E+00 0.  1.
    9000010    2    1    2  501    0  0.19403278963E+03 -0.95211809168E+02 -0.10261029550E+04  0.14406648911E+04  0.98788361777E+03 0.  0.
        -13    1    3    3    0    0 -0.12770618247E+03  0.36849755024E+03 -0.19498452096E+03  0.43602555906E+03  0.10566000000E+00 0.  1.
          4    1    3    3  501    0  0.32173897210E+03 -0.46370935941E+03 -0.83111843401E+03  0.10046393321E+04  0.00000000000E+00 0.  1.
         13    1    1    2    0    0 -0.19403278963E+03  0.95211809168E+02 -0.84099800818E+03  0.86832693899E+03  0.10566000000E+00 0. -1.
<mgrwt>
<rscale>  1 0.68758287E+03</rscale>
<asrwt>0</asrwt>
<pdfrwt beam="1">  1       21 0.33991606E-01 0.10112507E+04</pdfrwt>
<pdfrwt beam="2">  1        4 0.32123790E+00 0.10112507E+04</pdfrwt>
<totfact> 0.77527945E+00</totfact>
</mgrwt>
</event>
<event>
 6    1  0.2415530E-005  0.1029078E+04  0.7818608E-02  0.9802366E-01
         21   -1    0    0  501  502  0.00000000000E+00  0.00000000000E+00  0.11121039521E+04  0.11121039521E+04  0.00000000000E+00 0.  1.
          4   -1    0    0  502    0 -0.00000000000E+00 -0.00000000000E+00 -0.40339825686E+03  0.40339825686E+03  0.00000000000E+00 0.  1.
    9000010    2    1    2  501    0  0.11804335605E+03  0.11697841682E+03  0.81971468892E+03  0.13156492837E+04  0.10155701268E+04 0.  0.
        -13    1    3    3    0    0  0.31561606378E+03 -0.16026444097E+03 -0.71942451161E+02  0.36121173597E+03  0.10566000000E+00 0.  1.
          4    1    3    3  501    0 -0.19757270773E+03  0.27724285779E+03  0.89165714008E+03  0.95443754772E+03  0.00000000000E+00 0.  1.
         13    1    1    2    0    0 -0.11804335605E+03 -0.11697841682E+03 -0.11100899366E+03  0.19985292529E+03  0.10566000000E+00 0. -1.
<mgrwt>
<rscale>  1 0.65235730E+03</rscale>
<asrwt>0</asrwt>
<pdfrwt beam="1">  1       21 0.17109291E+00 0.10290777E+04</pdfrwt>
<pdfrwt beam="2">  1        4 0.62061271E-01 0.10290777E+04</pdfrwt>
<totfact> 0.17967747E+01</totfact>
</mgrwt>
</event>
<event>
 6    1  0.2415530E-005  0.1003836E+04  0.7818608E-02  0.9976844E-01
         21   -1    0    0  501  502  0.00000000000E+00  0.00000000000E+00  0.52964462475E+03  0.52964462475E+03  0.00000000000E+00 0.  1.
          4   -1    0    0  502    0 -0.00000000000E+00 -0.00000000000E+00 -0.91758324599E+03  0.91758324599E+03  0.00000000000E+00 0.  1.
    9000010    2    1    2  501    0 -0.83893490702E+02  0.58036548361E+02  0.42628946533E+02  0.10047408084E+04  0.99863932744E+03 0.  0.
        -13    1    3    3    0    0  0.46222609075E+02 -0.43148985009E+03 -0.15531269204E+03  0.46091437795E+03  0.10566000000E+00 0.  1.
          4    1    3    3  501    0 -0.13011609978E+03  0.48952639845E+03  0.19794163858E+03  0.54382643048E+03  0.00000000000E+00 0.  1.
         13    1    1    2    0    0  0.83893490702E+02 -0.58036548361E+02 -0.43056756777E+03  0.44248706231E+03  0.10566000000E+00 0. -1.
<mgrwt>
<rscale>  1 0.56677346E+03</rscale>
<asrwt>0</asrwt>
<pdfrwt beam="1">  1       21 0.81483788E-01 0.10038361E+04</pdfrwt>
<pdfrwt beam="2">  1        4 0.14116665E+00 0.10038361E+04</pdfrwt>
<totfact> 0.17527421E+01</totfact>
</mgrwt>
</event>
<event>
 6    1  0.2415530E-005  0.1003194E+04  0.7818608E-02  0.9979067E-01
         21   -1    0    0  501  502  0.00000000000E+00  0.00000000000E+00  0.13495255492E+04  0.13495255492E+04  0.00000000000E+00 0.  1.
          4   -1    0    0  502    0 -0.00000000000E+00 -0.00000000000E+00 -0.25984146597E+03  0.25984146597E+03  0.00000000000E+00 0.  1.
    9000010    2    1    2  501    0  0.15545447618E+02 -0.10029319600E+03  0.11198544645E+04  0.15034866620E+04  0.99804696027E+03 0.  0.
        -13    1    3    3    0    0  0.77881035257E+02  0.40811941318E+03  0.79475897405E+03  0.89681031944E+03  0.10566000000E+00 0.  1.
          4    1    3    3  501    0 -0.62335587640E+02 -0.50841260918E+03  0.32509549050E+03  0.60667634255E+03  0.00000000000E+00 0.  1.
         13    1    1    2    0    0 -0.15545447618E+02  0.10029319600E+03 -0.30170381363E+02  0.10588035314E+03  0.10566000000E+00 0. -1.
<mgrwt>
<rscale>  1 0.56577718E+03</rscale>
<asrwt>0</asrwt>
<pdfrwt beam="1">  1       21 0.20761931E+00 0.10031940E+04</pdfrwt>
<pdfrwt beam="2">  1        4 0.39975611E-01 0.10031940E+04</pdfrwt>
<totfact> 0.25151007E+01</totfact>
</mgrwt>
</event>
<event>
 6    1  0.2415530E-005  0.1115785E+04  0.7818608E-02  0.9621323E-01
         21   -1    0    0  501  502  0.00000000000E+00  0.00000000000E+00  0.15228953065E+04  0.15228953065E+04  0.00000000000E+00 0.  1.
          4   -1    0    0  502    0 -0.00000000000E+00 -0.00000000000E+00 -0.34788188256E+03  0.34788188256E+03  0.00000000000E+00 0.  1.
    9000010    2    1    2  501    0  0.21647748471E+03  0.10108453388E+03  0.11901412155E+04  0.16313832760E+04  0.10899058198E+04 0.  0.
        -13    1    3    3    0    0 -0.51278834689E+02 -0.47638018468E+03  0.52353885316E+03  0.70969045447E+03  0.10566000000E+00 0.  1.
          4    1    3    3  501    0  0.26775631940E+03  0.57746471856E+03  0.66660236230E+03  0.92169282149E+03  0.00000000000E+00 0.  1.
         13    1    1    2    0    0 -0.21647748471E+03 -0.10108453388E+03 -0.15127791545E+02  0.23939391307E+03  0.10566000000E+00 0. -1.
<mgrwt>
<rscale>  1 0.75900797E+03</rscale>
<asrwt>0</asrwt>
<pdfrwt beam="1">  1       21 0.23429158E+00 0.11157846E+04</pdfrwt>
<pdfrwt beam="2">  1        4 0.53520291E-01 0.11157846E+04</pdfrwt>
<totfact> 0.89810723E+00</totfact>
</mgrwt>
</event>
<event>
 6    1  0.2415530E-005  0.1030243E+04  0.7818608E-02  0.9681240E-01
          4   -1    0    0  502    0 -0.00000000000E+00  0.00000000000E+00  0.17973225547E+04  0.17973225547E+04  0.00000000000E+00 0.  1.
         21   -1    0    0  501  502  0.00000000000E+00 -0.00000000000E+00 -0.23803886509E+03  0.23803886509E+03  0.00000000000E+00 0.  1.
    9000010    2    1    2  501    0 -0.11191440423E+03  0.22102413655E+03  0.10610251377E+04  0.14789100755E+04  0.10000120829E+04 0.  0.
        -13    1    3    3    0    0  0.15188365635E+03 -0.17450521406E+02  0.11095232292E+04  0.11200066844E+04  0.10566000000E+00 0.  1.
          4    1    3    3  501    0 -0.26379806059E+03  0.23847465795E+03 -0.48498091563E+02  0.35890339110E+03  0.00000000000E+00 0.  1.
         13    1    1    2    0    0  0.11191440423E+03 -0.22102413655E+03  0.49825855192E+03  0.55645134427E+03  0.10566000000E+00 0. -1.
<mgrwt>
<rscale>  1 0.72144800E+03</rscale>
<asrwt>0</asrwt>
<pdfrwt beam="2">  1       21 0.36621365E-01 0.10302430E+04</pdfrwt>
<pdfrwt beam="1">  1        4 0.27651115E+00 0.10302430E+04</pdfrwt>
<totfact> 0.12565676E+01</totfact>
</mgrwt>
</event>
<event>
 6    1  0.2415530E-005  0.1025487E+04  0.7818608E-02  0.9732877E-01
         21   -1    0    0  501  502  0.00000000000E+00  0.00000000000E+00  0.18484852488E+04  0.18484852488E+04  0.00000000000E+00 0.  1.
          4   -1    0    0  502    0 -0.00000000000E+00 -0.00000000000E+00 -0.32782437069E+03  0.32782437069E+03  0.00000000000E+00 0.  1.
    9000010    2    1    2  501    0 -0.51867299901E+02 -0.20485329524E+03  0.16395505504E+04  0.19338434266E+04  0.10034786005E+04 0.  0.
        -13    1    3    3    0    0  0.18462319173E+02 -0.57361118592E+03  0.60788655337E+03  0.83600043228E+03  0.10566000000E+00 0.  1.
          4    1    3    3  501    0 -0.70329619074E+02  0.36875789068E+03  0.10316639971E+04  0.10978429943E+04  0.00000000000E+00 0.  1.
         13    1    1    2    0    0  0.51867299901E+02  0.20485329524E+03 -0.11888967232E+03  0.24246619294E+03  0.10566000000E+00 0. -1.
<mgrwt>
<rscale>  1 0.69092615E+03</rscale>
<asrwt>0</asrwt>
<pdfrwt beam="1">  1       21 0.28438234E+00 0.10254874E+04</pdfrwt>
<pdfrwt beam="2">  1        4 0.50434520E-01 0.10254874E+04</pdfrwt>
<totfact> 0.49736219E+00</totfact>
</mgrwt>
</event>
<event>
 6    1  0.2415530E-005  0.8961666E+03  0.7818608E-02  0.1047855E+00
          4   -1    0    0  502    0 -0.00000000000E+00  0.00000000000E+00  0.25267800722E+03  0.25267800722E+03  0.00000000000E+00 0.  1.
         21   -1    0    0  501  502  0.00000000000E+00 -0.00000000000E+00 -0.86558764725E+03  0.86558764725E+03  0.00000000000E+00 0.  1.
    9000010    2    1    2  501    0 -0.37062207580E+01 -0.31417025877E+02 -0.61446587570E+03  0.10865923436E+04  0.89560808571E+03 0.  0.
        -13    1    3    3    0    0  0.25850717566E+03 -0.23717904665E+03 -0.66267935092E+03  0.74981583961E+03  0.10566000000E+00 0.  1.
          4    1    3    3  501    0 -0.26221339642E+03  0.20576202077E+03  0.48213475212E+02  0.33677650400E+03  0.00000000000E+00 0.  1.
         13    1    1    2    0    0  0.37062207580E+01  0.31417025877E+02  0.15562356723E+01  0.31673310859E+02  0.10566000000E+00 0. -1.
<mgrwt>
<rscale>  1 0.38844875E+03</rscale>
<asrwt>0</asrwt>
<pdfrwt beam="2">  1       21 0.13316733E+00 0.89616662E+03</pdfrwt>
<pdfrwt beam="1">  1        4 0.38873540E-01 0.89616662E+03</pdfrwt>
<totfact> 0.98277948E+01</totfact>
</mgrwt>
</event>
<event>
 6    1  0.2415530E-005  0.1087059E+04  0.7818608E-02  0.9464565E-01
         21   -1    0    0  501  502  0.00000000000E+00  0.00000000000E+00  0.23054889937E+04  0.23054889937E+04  0.00000000000E+00 0.  1.
          4   -1    0    0  502    0 -0.00000000000E+00 -0.00000000000E+00 -0.38829913166E+03  0.38829913166E+03  0.00000000000E+00 0.  1.
    9000010    2    1    2  501    0  0.20186970987E+03 -0.39647284918E+03  0.19656864615E+04  0.22462459137E+04  0.99184441304E+03 0.  0.
        -13    1    3    3    0    0 -0.12036779171E+03 -0.23286473895E+03  0.15213714154E+02  0.26257543714E+03  0.10566000000E+00 0.  1.
          4    1    3    3  501    0  0.32223750158E+03 -0.16360811024E+03  0.19504727474E+04  0.19836704765E+04  0.00000000000E+00 0.  1.
         13    1    1    2    0    0 -0.20186970987E+03  0.39647284918E+03 -0.48496599506E+02  0.44754221168E+03  0.10566000000E+00 0. -1.
<mgrwt>
<rscale>  1 0.86947507E+03</rscale>
<asrwt>0</asrwt>
<pdfrwt beam="1">  1       21 0.35469061E+00 0.10870591E+04</pdfrwt>
<pdfrwt beam="2">  1        4 0.59738329E-01 0.10870591E+04</pdfrwt>
<totfact> 0.12410641E+00</totfact>
</mgrwt>
</event>
<event>
 6    1  0.2415530E-005  0.1044271E+04  0.7818608E-02  0.9644861E-01
         21   -1    0    0  501  502  0.00000000000E+00  0.00000000000E+00  0.11332377846E+04  0.11332377846E+04  0.00000000000E+00 0.  1.
          4   -1    0    0  502    0 -0.00000000000E+00 -0.00000000000E+00 -0.39394659793E+03  0.39394659793E+03  0.00000000000E+00 0.  1.
    9000010    2    1    2  501    0  0.21385547132E+03  0.16320374825E+03  0.69536655158E+03  0.12546059337E+04  0.10090251640E+04 0.  0.
        -13    1    3    3    0    0 -0.94912696102E+02 -0.70698716921E+02  0.83462459912E+03  0.84297387923E+03  0.10566000000E+00 0.  1.
          4    1    3    3  501    0  0.30876816742E+03  0.23390246517E+03 -0.13925804753E+03  0.41163205442E+03  0.00000000000E+00 0.  1.
         13    1    1    2    0    0 -0.21385547132E+03 -0.16320374825E+03  0.43924635066E+02  0.27257844886E+03  0.10566000000E+00 0. -1.
<mgrwt>
<rscale>  1 0.74396822E+03</rscale>
<asrwt>0</asrwt>
<pdfrwt beam="1">  1       21 0.17434427E+00 0.10442708E+04</pdfrwt>
<pdfrwt beam="2">  1        4 0.60607169E-01 0.10442708E+04</pdfrwt>
<totfact> 0.17870425E+01</totfact>
</mgrwt>
</event>
<event>
 6    1  0.2415530E-005  0.1074533E+04  0.7818608E-02  0.9626351E-01
         21   -1    0    0  501  502  0.00000000000E+00  0.00000000000E+00  0.22923211357E+04  0.22923211357E+04  0.00000000000E+00 0.  1.
          4   -1    0    0  502    0 -0.00000000000E+00 -0.00000000000E+00 -0.36871483637E+03  0.36871483637E+03  0.00000000000E+00 0.  1.
    9000010    2    1    2  501    0 -0.81785043109E+01 -0.26283020150E+03  0.20898652863E+04  0.23499272055E+04  0.10418610048E+04 0.  0.
        -13    1    3    3    0    0 -0.78690030051E+02  0.30203234587E+03  0.14924319586E+04  0.15247192597E+04  0.10566000000E+00 0.  1.
          4    1    3    3  501    0  0.70511525740E+02 -0.56486254737E+03  0.59743332776E+03  0.82520794579E+03  0.00000000000E+00 0.  1.
         13    1    1    2    0    0  0.81785043109E+01  0.26283020150E+03 -0.16625898697E+03  0.31110876661E+03  0.10566000000E+00 0. -1.
<mgrwt>
<rscale>  1 0.75576392E+03</rscale>
<asrwt>0</asrwt>
<pdfrwt beam="1">  1       21 0.35266478E+00 0.10745329E+04</pdfrwt>
<pdfrwt beam="2">  1        4 0.56725361E-01 0.10745329E+04</pdfrwt>
<totfact> 0.14336488E+00</totfact>
</mgrwt>
</event>
<event>
 6    1  0.2415530E-005  0.9920155E+03  0.7818608E-02  0.9869216E-01
         21   -1    0    0  501  502  0.00000000000E+00  0.00000000000E+00  0.76476660343E+03  0.76476660343E+03  0.00000000000E+00 0.  1.
          4   -1    0    0  502    0 -0.00000000000E+00 -0.00000000000E+00 -0.55481971807E+03  0.55481971807E+03  0.00000000000E+00 0.  1.
    9000010    2    1    2  501    0  0.10177874465E+02  0.14884358837E+03  0.40714059744E+03  0.10723144586E+04  0.98073280212E+03 0.  0.
        -13    1    3    3    0    0  0.40997624334E+02 -0.41737956023E+03  0.22952102457E+03  0.47808619974E+03  0.10566000000E+00 0.  1.
          4    1    3    3  501    0 -0.30819749870E+02  0.56622314859E+03  0.17761957287E+03  0.59422825888E+03  0.00000000000E+00 0.  1.
         13    1    1    2    0    0 -0.10177874465E+02 -0.14884358837E+03 -0.19719371208E+03  0.24727186289E+03  0.10566000000E+00 0. -1.
<mgrwt>
<rscale>  1 0.61776693E+03</rscale>
<asrwt>0</asrwt>
<pdfrwt beam="1">  1       21 0.11765640E+00 0.99201554E+03</pdfrwt>
<pdfrwt beam="2">  1        4 0.85356880E-01 0.99201554E+03</pdfrwt>
<totfact> 0.24545799E+01</totfact>
</mgrwt>
</event>
<event>
 6    1  0.2415530E-005  0.1064493E+04  0.7818608E-02  0.1016287E+00
          4   -1    0    0  502    0 -0.00000000000E+00  0.00000000000E+00  0.53358184607E+03  0.53358184607E+03  0.00000000000E+00 0.  1.
         21   -1    0    0  501  502  0.00000000000E+00 -0.00000000000E+00 -0.60494575295E+03  0.60494575295E+03  0.00000000000E+00 0.  1.
    9000010    2    1    2  501    0 -0.47989579671E+02  0.26789534051E+00 -0.11873631657E+03  0.10710944626E+04  0.10634105338E+04 0.  0.
        -13    1    3    3    0    0 -0.55348232621E+03 -0.53494922134E+02 -0.68892899724E+02  0.56031297943E+03  0.10566000000E+00 0.  1.
          4    1    3    3  501    0  0.50549274654E+03  0.53762817475E+02 -0.49843416847E+02  0.51078148317E+03  0.00000000000E+00 0.  1.
         13    1    1    2    0    0  0.47989579671E+02 -0.26789534051E+00  0.47372409683E+02  0.67433136425E+02  0.10566000000E+00 0. -1.
<mgrwt>
<rscale>  1 0.49050761E+03</rscale>
<asrwt>0</asrwt>
<pdfrwt beam="2">  1       21 0.93068577E-01 0.10644929E+04</pdfrwt>
<pdfrwt beam="1">  1        4 0.82089515E-01 0.10644929E+04</pdfrwt>
<totfact> 0.48042253E+01</totfact>
</mgrwt>
</event>
<event>
 6    1  0.2415530E-005  0.1013679E+04  0.7818608E-02  0.9797960E-01
         21   -1    0    0  501  502  0.00000000000E+00  0.00000000000E+00  0.52190693191E+03  0.52190693191E+03  0.00000000000E+00 0.  1.
          4   -1    0    0  502    0 -0.00000000000E+00 -0.00000000000E+00 -0.75008572215E+03  0.75008572215E+03  0.00000000000E+00 0.  1.
    9000010    2    1    2  501    0 -0.22974489788E+02  0.17490836454E+03 -0.40599133792E+02  0.10144913884E+04  0.99821026052E+03 0.  0.
        -13    1    3    3    0    0 -0.20483418945E+03  0.45072606387E+03  0.26751255164E+03  0.56273795524E+03  0.10566000000E+00 0.  1.
          4    1    3    3  501    0  0.18185969966E+03 -0.27581769933E+03 -0.30811168543E+03  0.45175343311E+03  0.00000000000E+00 0.  1.
         13    1    1    2    0    0  0.22974489788E+02 -0.17490836454E+03 -0.18757965644E+03  0.25750126571E+03  0.10566000000E+00 0. -1.
<mgrwt>
<rscale>  1 0.65472140E+03</rscale>
<asrwt>0</asrwt>
<pdfrwt beam="1">  1       21 0.80293374E-01 0.10136787E+04</pdfrwt>
<pdfrwt beam="2">  1        4 0.11539780E+00 0.10136787E+04</pdfrwt>
<totfact> 0.30365273E+01</totfact>
</mgrwt>
</event>
<event>
 6    1  0.2415530E-005  0.1086305E+04  0.7818608E-02  0.9546030E-01
         21   -1    0    0  501  502  0.00000000000E+00  0.00000000000E+00  0.12026087098E+04  0.12026087098E+04  0.00000000000E+00 0.  1.
          4   -1    0    0  502    0 -0.00000000000E+00 -0.00000000000E+00 -0.53634477020E+03  0.53634477020E+03  0.00000000000E+00 0.  1.
    9000010    2    1    2  501    0 -0.93608426373E+02 -0.32203695409E+03  0.82870950505E+03  0.13663157066E+04  0.10332419025E+04 0.  0.
        -13    1    3    3    0    0 -0.24105896291E+03  0.24779169348E+02 -0.17188859198E+03  0.29710121179E+03  0.10566000000E+00 0.  1.
          4    1    3    3  501    0  0.14745053654E+03 -0.34681612344E+03  0.10005980970E+04  0.10692144948E+04  0.00000000000E+00 0.  1.
         13    1    1    2    0    0  0.93608426373E+02  0.32203695409E+03 -0.16244556541E+03  0.37263777341E+03  0.10566000000E+00 0. -1.
<mgrwt>
<rscale>  1 0.80973642E+03</rscale>
<asrwt>0</asrwt>
<pdfrwt beam="1">  1       21 0.18501672E+00 0.10863053E+04</pdfrwt>
<pdfrwt beam="2">  1        4 0.82514580E-01 0.10863053E+04</pdfrwt>
<totfact> 0.74332041E+00</totfact>
</mgrwt>
</event>
<event>
 6    1  0.2415530E-005  0.1431476E+04  0.7818608E-02  0.9016629E-01
          4   -1    0    0  502    0 -0.00000000000E+00  0.00000000000E+00  0.12472459503E+04  0.12472459503E+04  0.00000000000E+00 0.  1.
         21   -1    0    0  501  502  0.00000000000E+00 -0.00000000000E+00 -0.17723924029E+04  0.17723924029E+04  0.00000000000E+00 0.  1.
    9000010    2    1    2  501    0  0.92006803024E+03 -0.44923760276E+03 -0.11359263574E+04  0.18274170200E+04  0.10003922588E+04 0.  0.
        -13    1    3    3    0    0 -0.12375042098E+03  0.60546099320E+02 -0.46707635165E+03  0.48697055996E+03  0.10566000000E+00 0.  1.
          4    1    3    3  501    0  0.10438184512E+04 -0.50978370208E+03 -0.66885000577E+03  0.13404464600E+04  0.00000000000E+00 0.  1.
         13    1    1    2    0    0 -0.92006803024E+03  0.44923760276E+03  0.61077990486E+03  0.11922213332E+04  0.10566000000E+00 0. -1.
<mgrwt>
<rscale>  1 0.13164394E+04</rscale>
<asrwt>0</asrwt>
<pdfrwt beam="2">  1       21 0.27267575E+00 0.14314763E+04</pdfrwt>
<pdfrwt beam="1">  1        4 0.19188399E+00 0.14314763E+04</pdfrwt>
<totfact> 0.20845785E-01</totfact>
</mgrwt>
</event>
<event>
 6    1  0.2415530E-005  0.1001998E+04  0.7818608E-02  0.9778526E-01
          4   -1    0    0  502    0 -0.00000000000E+00  0.00000000000E+00  0.94544962429E+03  0.94544962429E+03  0.00000000000E+00 0.  1.
         21   -1    0    0  501  502  0.00000000000E+00 -0.00000000000E+00 -0.52483951248E+03  0.52483951248E+03  0.00000000000E+00 0.  1.
    9000010    2    1    2  501    0  0.70345088738E+01  0.19459319161E+03 -0.52625018779E+01  0.10020119872E+04  0.98289589178E+03 0.  0.
        -13    1    3    3    0    0 -0.10710611574E+03  0.24505384551E+03 -0.45910729424E+03  0.53132158437E+03  0.10566000000E+00 0.  1.
          4    1    3    3  501    0  0.11414062462E+03 -0.50460653901E+02  0.45384479236E+03  0.47069040285E+03  0.00000000000E+00 0.  1.
         13    1    1    2    0    0 -0.70345088738E+01 -0.19459319161E+03  0.42587261369E+03  0.46827714955E+03  0.10566000000E+00 0. -1.
<mgrwt>
<rscale>  1 0.66527778E+03</rscale>
<asrwt>0</asrwt>
<pdfrwt beam="2">  1       21 0.80744541E-01 0.10019982E+04</pdfrwt>
<pdfrwt beam="1">  1        4 0.14545379E+00 0.10019982E+04</pdfrwt>
<totfact> 0.16546531E+01</totfact>
</mgrwt>
</event>
<event>
 6    1  0.2415530E-005  0.1016148E+04  0.7818608E-02  0.9590432E-01
          4   -1    0    0  502    0 -0.00000000000E+00  0.00000000000E+00  0.10285388233E+04  0.10285388233E+04  0.00000000000E+00 0.  1.
         21   -1    0    0  501  502  0.00000000000E+00 -0.00000000000E+00 -0.45544647795E+03  0.45544647795E+03  0.00000000000E+00 0.  1.
    9000010    2    1    2  501    0 -0.12298454390E+03 -0.32935361659E+03  0.45207593491E+03  0.11121735403E+04  0.95339306170E+03 0.  0.
        -13    1    3    3    0    0 -0.24616349091E+03  0.27009531820E+03  0.25764006847E+02  0.36634920551E+03  0.10566000000E+00 0.  1.
          4    1    3    3  501    0  0.12317894701E+03 -0.59944893479E+03  0.42631192806E+03  0.74582433482E+03  0.00000000000E+00 0.  1.
         13    1    1    2    0    0  0.12298454390E+03  0.32935361659E+03  0.12101641046E+03  0.37181176093E+03  0.10566000000E+00 0. -1.
<mgrwt>
<rscale>  1 0.77932704E+03</rscale>
<asrwt>0</asrwt>
<pdfrwt beam="2">  1       21 0.70068689E-01 0.10161483E+04</pdfrwt>
<pdfrwt beam="1">  1        4 0.15823674E+00 0.10161483E+04</pdfrwt>
<totfact> 0.18303856E+01</totfact>
</mgrwt>
</event>
<event>
 6    1  0.2415530E-005  0.9788182E+03  0.7818608E-02  0.9826857E-01
          4   -1    0    0  502    0 -0.00000000000E+00  0.00000000000E+00  0.71149739154E+03  0.71149739154E+03  0.00000000000E+00 0.  1.
         21   -1    0    0  501  502  0.00000000000E+00 -0.00000000000E+00 -0.53306829015E+03  0.53306829015E+03  0.00000000000E+00 0.  1.
    9000010    2    1    2  501    0  0.78545869303E+02 -0.16000232922E+03 -0.18444476722E+02  0.97899193325E+03  0.96245249634E+03 0.  0.
        -13    1    3    3    0    0  0.74124570857E+02  0.16348823615E+03 -0.42386525922E+03  0.46030927050E+03  0.10566000000E+00 0.  1.
          4    1    3    3  501    0  0.44212984456E+01 -0.32349056537E+03  0.40542078250E+03  0.51868266276E+03  0.00000000000E+00 0.  1.
         13    1    1    2    0    0 -0.78545869303E+02  0.16000232922E+03  0.19687357811E+03  0.26557374844E+03  0.10566000000E+00 0. -1.
<mgrwt>
<rscale>  1 0.63940942E+03</rscale>
<asrwt>0</asrwt>
<pdfrwt beam="2">  1       21 0.82010506E-01 0.97881817E+03</pdfrwt>
<pdfrwt beam="1">  1        4 0.10946114E+00 0.97881817E+03</pdfrwt>
<totfact> 0.33013876E+01</totfact>
</mgrwt>
</event>
<event>
 6    1  0.2415530E-005  0.9867317E+03  0.7818608E-02  0.1011891E+00
          4   -1    0    0  502    0 -0.00000000000E+00  0.00000000000E+00  0.74672325950E+03  0.74672325950E+03  0.00000000000E+00 0.  1.
         21   -1    0    0  501  502  0.00000000000E+00 -0.00000000000E+00 -0.38545008435E+03  0.38545008435E+03  0.00000000000E+00 0.  1.
    9000010    2    1    2  501    0 -0.53847363860E+01  0.68727971526E+02  0.28018337307E+03  0.10257398124E+04  0.98432053250E+03 0.  0.
        -13    1    3    3    0    0 -0.17468788444E+03  0.28192436098E+02  0.61955137678E+03  0.64432491032E+03  0.10566000000E+00 0.  1.
          4    1    3    3  501    0  0.16930314806E+03  0.40535535428E+02 -0.33936800371E+03  0.38141490206E+03  0.00000000000E+00 0.  1.
         13    1    1    2    0    0  0.53847363860E+01 -0.68727971526E+02  0.81089802072E+02  0.10643353147E+03  0.10566000000E+00 0. -1.
<mgrwt>
<rscale>  1 0.50730021E+03</rscale>
<asrwt>0</asrwt>
<pdfrwt beam="2">  1       21 0.59300013E-01 0.98673170E+03</pdfrwt>
<pdfrwt beam="1">  1        4 0.11488050E+00 0.98673170E+03</pdfrwt>
<totfact> 0.61542388E+01</totfact>
</mgrwt>
</event>
<event>
 6    1  0.2415530E-005  0.1012811E+04  0.7818608E-02  0.9705618E-01
          4   -1    0    0  502    0 -0.00000000000E+00  0.00000000000E+00  0.91140328971E+03  0.91140328971E+03  0.00000000000E+00 0.  1.
         21   -1    0    0  501  502  0.00000000000E+00 -0.00000000000E+00 -0.51777450629E+03  0.51777450629E+03  0.00000000000E+00 0.  1.
    9000010    2    1    2  501    0 -0.19915048171E+03  0.13440271827E+03  0.55433220808E+02  0.10143269134E+04  0.98390103174E+03 0.  0.
        -13    1    3    3    0    0 -0.23990168534E+03  0.54259386777E+03 -0.34862664806E+02  0.59428641288E+03  0.10566000000E+00 0.  1.
          4    1    3    3  501    0  0.40751203625E+02 -0.40819114950E+03  0.90295885614E+02  0.42004050053E+03  0.00000000000E+00 0.  1.
         13    1    1    2    0    0  0.19915048171E+03 -0.13440271827E+03  0.33819556262E+03  0.41485088258E+03  0.10566000000E+00 0. -1.
<mgrwt>
<rscale>  1 0.70683303E+03</rscale>
<asrwt>0</asrwt>
<pdfrwt beam="2">  1       21 0.79657617E-01 0.10128111E+04</pdfrwt>
<pdfrwt beam="1">  1        4 0.14021589E+00 0.10128111E+04</pdfrwt>
<totfact> 0.18804532E+01</totfact>
</mgrwt>
</event>
<event>
 6    1  0.2415530E-005  0.1009459E+04  0.7818608E-02  0.9951143E-01
          4   -1    0    0  502    0 -0.00000000000E+00  0.00000000000E+00  0.20160424244E+03  0.20160424244E+03  0.00000000000E+00 0.  1.
         21   -1    0    0  501  502  0.00000000000E+00 -0.00000000000E+00 -0.22731668159E+04  0.22731668159E+04  0.00000000000E+00 0.  1.
    9000010    2    1    2  501    0 -0.88241876124E+02 -0.63723733767E+02 -0.21256950124E+04  0.23532075973E+04  0.10035732994E+04 0.  0.
        -13    1    3    3    0    0  0.13887096779E+03 -0.27752547638E+03 -0.13533878350E+03  0.33855890657E+03  0.10566000000E+00 0.  1.
          4    1    3    3  501    0 -0.22711284392E+03  0.21380174262E+03 -0.19903562289E+04  0.20146486907E+04  0.00000000000E+00 0.  1.
         13    1    1    2    0    0  0.88241876124E+02  0.63723733767E+02  0.54132438970E+02  0.12156346104E+03  0.10566000000E+00 0. -1.
<mgrwt>
<rscale>  1 0.57845431E+03</rscale>
<asrwt>0</asrwt>
<pdfrwt beam="2">  1       21 0.34971798E+00 0.10094586E+04</pdfrwt>
<pdfrwt beam="1">  1        4 0.31016037E-01 0.10094586E+04</pdfrwt>
<totfact> 0.52476841E+00</totfact>
</mgrwt>
</event>
<event>
 6    1  0.2415530E-005  0.1083429E+04  0.7818608E-02  0.9562440E-01
          4   -1    0    0  502    0 -0.00000000000E+00  0.00000000000E+00  0.20519713206E+03  0.20519713206E+03  0.00000000000E+00 0.  1.
         21   -1    0    0  501  502  0.00000000000E+00 -0.00000000000E+00 -0.24374327521E+04  0.24374327521E+04  0.00000000000E+00 0.  1.
    9000010    2    1    2  501    0  0.25975642875E+03  0.18584556446E+03 -0.18562419296E+04  0.21492910123E+04  0.10352805311E+04 0.  0.
        -13    1    3    3    0    0 -0.80932133309E+02  0.33085586937E+03 -0.17221221567E+04  0.17554829393E+04  0.10566000000E+00 0.  1.
          4    1    3    3  501    0  0.34068856206E+03 -0.14501030490E+03 -0.13411977294E+03  0.39380807297E+03  0.00000000000E+00 0.  1.
         13    1    1    2    0    0 -0.25975642875E+03 -0.18584556446E+03 -0.37599369038E+03  0.49333887185E+03  0.10566000000E+00 0. -1.
<mgrwt>
<rscale>  1 0.79832854E+03</rscale>
<asrwt>0</asrwt>
<pdfrwt beam="2">  1       21 0.37498964E+00 0.10834287E+04</pdfrwt>
<pdfrwt beam="1">  1        4 0.31568791E-01 0.10834287E+04</pdfrwt>
<totfact> 0.34483200E+00</totfact>
</mgrwt>
</event>
<event>
 6    1  0.2415530E-005  0.1093375E+04  0.7818608E-02  0.9693825E-01
         21   -1    0    0  501  502  0.00000000000E+00  0.00000000000E+00  0.58840078235E+03  0.58840078235E+03  0.00000000000E+00 0.  1.
          4   -1    0    0  502    0 -0.00000000000E+00 -0.00000000000E+00 -0.73975019935E+03  0.73975019935E+03  0.00000000000E+00 0.  1.
    9000010    2    1    2  501    0 -0.19085702336E+03 -0.55171325263E+02 -0.22496597973E+03  0.11162791148E+04  0.10751739821E+04 0.  0.
        -13    1    3    3    0    0 -0.25739591485E+03 -0.51814433022E+03 -0.28459410251E+03  0.64476353670E+03  0.10566000000E+00 0.  1.
          4    1    3    3  501    0  0.66538891489E+02  0.46297300495E+03  0.59628122780E+02  0.47151557813E+03  0.00000000000E+00 0.  1.
         13    1    1    2    0    0  0.19085702336E+03  0.55171325263E+02  0.73616562729E+02  0.21187186686E+03  0.10566000000E+00 0. -1.
<mgrwt>
<rscale>  1 0.71385625E+03</rscale>
<asrwt>0</asrwt>
<pdfrwt beam="1">  1       21 0.90523197E-01 0.10933752E+04</pdfrwt>
<pdfrwt beam="2">  1        4 0.11380772E+00 0.10933752E+04</pdfrwt>
<totfact> 0.23436555E+01</totfact>
</mgrwt>
</event>
<event>
 6    1  0.2415530E-005  0.1030083E+04  0.7818608E-02  0.9608920E-01
          4   -1    0    0  502    0 -0.00000000000E+00  0.00000000000E+00  0.44887239055E+03  0.44887239055E+03  0.00000000000E+00 0.  1.
         21   -1    0    0  501  502  0.00000000000E+00 -0.00000000000E+00 -0.11947603114E+04  0.11947603114E+04  0.00000000000E+00 0.  1.
    9000010    2    1    2  501    0  0.17878694613E+02 -0.31627668702E+03 -0.82197211275E+03  0.13178422694E+04  0.98016299791E+03 0.  0.
        -13    1    3    3    0    0 -0.39920106276E+03 -0.38073324600E+03 -0.24653742627E+03  0.60423505925E+03  0.10566000000E+00 0.  1.
          4    1    3    3  501    0  0.41707975737E+03  0.64456558987E+02 -0.57543468649E+03  0.71360721018E+03  0.00000000000E+00 0.  1.
         13    1    1    2    0    0 -0.17878694613E+02  0.31627668702E+03  0.76084191939E+02  0.32579043248E+03  0.10566000000E+00 0. -1.
<mgrwt>
<rscale>  1 0.76708594E+03</rscale>
<asrwt>0</asrwt>
<pdfrwt beam="2">  1       21 0.18380928E+00 0.10300826E+04</pdfrwt>
<pdfrwt beam="1">  1        4 0.69057291E-01 0.10300826E+04</pdfrwt>
<totfact> 0.11446770E+01</totfact>
</mgrwt>
</event>
<event>
 6    1  0.2415530E-005  0.9286751E+03  0.7818608E-02  0.1000424E+00
         21   -1    0    0  501  502  0.00000000000E+00  0.00000000000E+00  0.30941921820E+04  0.30941921820E+04  0.00000000000E+00 0.  1.
          4   -1    0    0  502    0 -0.00000000000E+00 -0.00000000000E+00 -0.15154046004E+03  0.15154046004E+03  0.00000000000E+00 0.  1.
    9000010    2    1    2  501    0  0.67076814962E+02  0.97278841369E+02  0.29803625666E+04  0.31216980056E+04  0.92112699318E+03 0.  0.
        -13    1    3    3    0    0  0.50722182850E+02 -0.55648038289E+02 -0.48090015908E+02  0.89342625843E+02  0.10566000000E+00 0.  1.
          4    1    3    3  501    0  0.16354632112E+02  0.15292687966E+03  0.30284525825E+04  0.30323553797E+04  0.00000000000E+00 0.  1.
         13    1    1    2    0    0 -0.67076814962E+02 -0.97278841369E+02 -0.37710844619E+02  0.12403463649E+03  0.10566000000E+00 0. -1.
<mgrwt>
<rscale>  1 0.55464893E+03</rscale>
<asrwt>0</asrwt>
<pdfrwt beam="1">  1       21 0.47602952E+00 0.92867508E+03</pdfrwt>
<pdfrwt beam="2">  1        4 0.23313919E-01 0.92867508E+03</pdfrwt>
<totfact> 0.13414390E+00</totfact>
</mgrwt>
</event>
<event>
 6    1  0.2415530E-005  0.9507975E+03  0.7818608E-02  0.1029196E+00
          4   -1    0    0  502    0 -0.00000000000E+00  0.00000000000E+00  0.26685026240E+03  0.26685026240E+03  0.00000000000E+00 0.  1.
         21   -1    0    0  501  502  0.00000000000E+00 -0.00000000000E+00 -0.11844856802E+04  0.11844856802E+04  0.00000000000E+00 0.  1.
    9000010    2    1    2  501    0 -0.33921838942E+02  0.30562136832E+02 -0.98559837705E+03  0.13694597534E+04  0.94970054231E+03 0.  0.
        -13    1    3    3    0    0 -0.66427981986E+02  0.80246749585E+02 -0.11705681191E+04  0.11751944308E+04  0.10566000000E+00 0.  1.
          4    1    3    3  501    0  0.32506143044E+02 -0.49684612753E+02  0.18496974207E+03  0.19426532259E+03  0.00000000000E+00 0.  1.
         13    1    1    2    0    0  0.33921838942E+02 -0.30562136832E+02  0.67962959230E+02  0.81876189191E+02  0.10566000000E+00 0. -1.
<mgrwt>
<rscale>  1 0.44508983E+03</rscale>
<asrwt>0</asrwt>
<pdfrwt beam="2">  1       21 0.18222857E+00 0.95079748E+03</pdfrwt>
<pdfrwt beam="1">  1        4 0.41053886E-01 0.95079748E+03</pdfrwt>
<totfact> 0.36012982E+01</totfact>
</mgrwt>
</event>
<event>
 6    1  0.2415530E-005  0.9336093E+03  0.7818608E-02  0.9889523E-01
         21   -1    0    0  501  502  0.00000000000E+00  0.00000000000E+00  0.13841520461E+04  0.13841520461E+04  0.00000000000E+00 0.  1.
          4   -1    0    0  502    0 -0.00000000000E+00 -0.00000000000E+00 -0.24675645431E+03  0.24675645431E+03  0.00000000000E+00 0.  1.
    9000010    2    1    2  501    0  0.16408456440E+03 -0.34216868205E+02  0.11262895402E+04  0.14629266743E+04  0.91843986614E+03 0.  0.
        -13    1    3    3    0    0  0.38527050287E+03 -0.33220953044E+03  0.88336778442E+03  0.10193798047E+04  0.10566000000E+00 0.  1.
          4    1    3    3  501    0 -0.22118593847E+03  0.29799266224E+03  0.24292175581E+03  0.44354686964E+03  0.00000000000E+00 0.  1.
         13    1    1    2    0    0 -0.16408456440E+03  0.34216868205E+02  0.11106051553E+02  0.16798182607E+03  0.10566000000E+00 0. -1.
<mgrwt>
<rscale>  1 0.60771735E+03</rscale>
<asrwt>0</asrwt>
<pdfrwt beam="1">  1       21 0.21294646E+00 0.93360930E+03</pdfrwt>
<pdfrwt beam="2">  1        4 0.37962532E-01 0.93360930E+03</pdfrwt>
<totfact> 0.25952410E+01</totfact>
</mgrwt>
</event>
<event>
 6    1  0.2415530E-005  0.1001352E+04  0.7818608E-02  0.1009757E+00
         21   -1    0    0  501  502  0.00000000000E+00  0.00000000000E+00  0.34359015115E+03  0.34359015115E+03  0.00000000000E+00 0.  1.
          4   -1    0    0  502    0 -0.00000000000E+00 -0.00000000000E+00 -0.83730230815E+03  0.83730230815E+03  0.00000000000E+00 0.  1.
    9000010    2    1    2  501    0  0.14331241385E+02  0.68974567978E+02 -0.44865246467E+03  0.10972667303E+04  0.99887054614E+03 0.  0.
        -13    1    3    3    0    0  0.44169703004E+03  0.26958701218E+03 -0.31816903595E+03  0.60745779284E+03  0.10566000000E+00 0.  1.
          4    1    3    3  501    0 -0.42736578866E+03 -0.20061244420E+03 -0.13048342873E+03  0.48980893750E+03  0.00000000000E+00 0.  1.
         13    1    1    2    0    0 -0.14331241385E+02 -0.68974567978E+02 -0.45059692334E+02  0.83625728963E+02  0.10566000000E+00 0. -1.
<mgrwt>
<rscale>  1 0.51571145E+03</rscale>
<asrwt>0</asrwt>
<pdfrwt beam="1">  1       21 0.52860023E-01 0.10013517E+04</pdfrwt>
<pdfrwt beam="2">  1        4 0.12881574E+00 0.10013517E+04</pdfrwt>
<totfact> 0.59301966E+01</totfact>
</mgrwt>
</event>
<event>
 6    1  0.2415530E-005  0.1099133E+04  0.7818608E-02  0.9624062E-01
          4   -1    0    0  502    0 -0.00000000000E+00  0.00000000000E+00  0.17219083697E+03  0.17219083697E+03  0.00000000000E+00 0.  1.
         21   -1    0    0  501  502  0.00000000000E+00 -0.00000000000E+00 -0.26338207105E+04  0.26338207105E+04  0.00000000000E+00 0.  1.
    9000010    2    1    2  501    0 -0.20487417668E+03 -0.13907134860E+03 -0.19939039609E+04  0.22767839889E+04  0.10708772378E+04 0.  0.
        -13    1    3    3    0    0  0.23946127513E+03  0.15526717808E+03 -0.89341363223E+02  0.29905098098E+03  0.10566000000E+00 0.  1.
          4    1    3    3  501    0 -0.44433545181E+03 -0.29433852668E+03 -0.19045625977E+04  0.19777330079E+04  0.00000000000E+00 0.  1.
         13    1    1    2    0    0  0.20487417668E+03  0.13907134860E+03 -0.46772591265E+03  0.52922755862E+03  0.10566000000E+00 0. -1.
<mgrwt>
<rscale>  1 0.75723871E+03</rscale>
<asrwt>0</asrwt>
<pdfrwt beam="2">  1       21 0.40520315E+00 0.10991325E+04</pdfrwt>
<pdfrwt beam="1">  1        4 0.26490900E-01 0.10991325E+04</pdfrwt>
<totfact> 0.30754364E+00</totfact>
</mgrwt>
</event>
<event>
 6    1  0.2415530E-005  0.1002929E+04  0.7818608E-02  0.9847804E-01
         21   -1    0    0  501  502  0.00000000000E+00  0.00000000000E+00  0.41515521935E+03  0.41515521935E+03  0.00000000000E+00 0.  1.
          4   -1    0    0  502    0 -0.00000000000E+00 -0.00000000000E+00 -0.84187476498E+03  0.84187476498E+03  0.00000000000E+00 0.  1.
    9000010    2    1    2  501    0 -0.21514866132E+02  0.15325769358E+03 -0.27418119438E+03  0.10397311811E+04  0.99091613750E+03 0.  0.
        -13    1    3    3    0    0 -0.29474997205E+03  0.48840579343E+03 -0.15029174591E+03  0.58991981247E+03  0.10566000000E+00 0.  1.
          4    1    3    3  501    0  0.27323510592E+03 -0.33514809985E+03 -0.12388944846E+03  0.44981136867E+03  0.00000000000E+00 0.  1.
         13    1    1    2    0    0  0.21514866132E+02 -0.15325769358E+03 -0.15253835124E+03  0.21729880320E+03  0.10566000000E+00 0. -1.
<mgrwt>
<rscale>  1 0.62859010E+03</rscale>
<asrwt>0</asrwt>
<pdfrwt beam="1">  1       21 0.63870034E-01 0.10029285E+04</pdfrwt>
<pdfrwt beam="2">  1        4 0.12951919E+00 0.10029285E+04</pdfrwt>
<totfact> 0.38442358E+01</totfact>
</mgrwt>
</event>
<event>
 6    1  0.2415530E-005  0.1031331E+04  0.7818608E-02  0.9809374E-01
         21   -1    0    0  501  502  0.00000000000E+00  0.00000000000E+00  0.10226187869E+04  0.10226187869E+04  0.00000000000E+00 0.  1.
          4   -1    0    0  502    0 -0.00000000000E+00 -0.00000000000E+00 -0.35831899216E+03  0.35831899216E+03  0.00000000000E+00 0.  1.
    9000010    2    1    2  501    0  0.11360214844E+03 -0.11457669258E+03  0.48484280183E+03  0.11396120861E+04  0.10186313846E+04 0.  0.
        -13    1    3    3    0    0 -0.70764243026E+02 -0.84651132137E+02 -0.30690300038E+03  0.32613318609E+03  0.10566000000E+00 0.  1.
          4    1    3    3  501    0  0.18436639147E+03 -0.29925560442E+02  0.79174580220E+03  0.81347890002E+03  0.00000000000E+00 0.  1.
         13    1    1    2    0    0 -0.11360214844E+03  0.11457669258E+03  0.17945699292E+03  0.24132569296E+03  0.10566000000E+00 0. -1.
<mgrwt>
<rscale>  1 0.64861897E+03</rscale>
<asrwt>0</asrwt>
<pdfrwt beam="1">  1       21 0.15732597E+00 0.10313308E+04</pdfrwt>
<pdfrwt beam="2">  1        4 0.55125999E-01 0.10313308E+04</pdfrwt>
<totfact> 0.29603469E+01</totfact>
</mgrwt>
</event>
<event>
 6    1  0.2415530E-005  0.1021159E+04  0.7818608E-02  0.9808842E-01
          4   -1    0    0  502    0 -0.00000000000E+00  0.00000000000E+00  0.99472633431E+03  0.99472633431E+03  0.00000000000E+00 0.  1.
         21   -1    0    0  501  502  0.00000000000E+00 -0.00000000000E+00 -0.45641476189E+03  0.45641476189E+03  0.00000000000E+00 0.  1.
    9000010    2    1    2  501    0 -0.35159235379E+02 -0.16275403491E+03  0.15451737804E+03  0.10327835428E+04  0.10074925203E+04 0.  0.
        -13    1    3    3    0    0 -0.49426888518E+03  0.63834913895E+02  0.15115379436E+03  0.52079180850E+03  0.10566000000E+00 0.  1.
          4    1    3    3  501    0  0.45910964980E+03 -0.22658894880E+03  0.33635836822E+01  0.51199173426E+03  0.00000000000E+00 0.  1.
         13    1    1    2    0    0  0.35159235379E+02  0.16275403491E+03  0.38379419439E+03  0.41835755344E+03  0.10566000000E+00 0. -1.
<mgrwt>
<rscale>  1 0.64890208E+03</rscale>
<asrwt>0</asrwt>
<pdfrwt beam="2">  1       21 0.70217656E-01 0.10211593E+04</pdfrwt>
<pdfrwt beam="1">  1        4 0.15303482E+00 0.10211593E+04</pdfrwt>
<totfact> 0.19941731E+01</totfact>
</mgrwt>
</event>
<event>
 6    1  0.2415530E-005  0.1005370E+04  0.7818608E-02  0.9792611E-01
          4   -1    0    0  502    0 -0.00000000000E+00  0.00000000000E+00  0.19971075811E+03  0.19971075811E+03  0.00000000000E+00 0.  1.
         21   -1    0    0  501  502  0.00000000000E+00 -0.00000000000E+00 -0.20238105683E+04  0.20238105683E+04  0.00000000000E+00 0.  1.
    9000010    2    1    2  501    0  0.85827111808E+02 -0.16278868932E+03 -0.17631779812E+04  0.20296710468E+04  0.98838328310E+03 0.  0.
        -13    1    3    3    0    0 -0.34165257339E+03 -0.29331748550E+03 -0.13420046153E+04  0.14155345375E+04  0.10566000000E+00 0.  1.
          4    1    3    3  501    0  0.42747968520E+03  0.13052879618E+03 -0.42117336587E+03  0.61413650926E+03  0.00000000000E+00 0.  1.
         13    1    1    2    0    0 -0.85827111808E+02  0.16278868932E+03 -0.60921828971E+02  0.19385027960E+03  0.10566000000E+00 0. -1.
<mgrwt>
<rscale>  1 0.65760564E+03</rscale>
<asrwt>0</asrwt>
<pdfrwt beam="2">  1       21 0.31135546E+00 0.10053696E+04</pdfrwt>
<pdfrwt beam="1">  1        4 0.30724733E-01 0.10053696E+04</pdfrwt>
<totfact> 0.93012628E+00</totfact>
</mgrwt>
</event>
<event>
 6    1  0.2415530E-005  0.1027315E+04  0.7818608E-02  0.9677959E-01
         21   -1    0    0  501  502  0.00000000000E+00  0.00000000000E+00  0.14509177111E+04  0.14509177111E+04  0.00000000000E+00 0.  1.
          4   -1    0    0  502    0 -0.00000000000E+00 -0.00000000000E+00 -0.28339513368E+03  0.28339513368E+03  0.00000000000E+00 0.  1.
    9000010    2    1    2  501    0 -0.20262446541E+03 -0.15090456746E+03  0.97892343912E+03  0.14190375546E+04  0.99576484136E+03 0.  0.
        -13    1    3    3    0    0 -0.29822805275E+03 -0.41261827964E+03  0.12984062445E+03  0.52540690427E+03  0.10566000000E+00 0.  1.
          4    1    3    3  501    0  0.95603587338E+02  0.26171371218E+03  0.84908281468E+03  0.89363065034E+03  0.00000000000E+00 0.  1.
         13    1    1    2    0    0  0.20262446541E+03  0.15090456746E+03  0.18859913833E+03  0.31527529019E+03  0.10566000000E+00 0. -1.
<mgrwt>
<rscale>  1 0.72344401E+03</rscale>
<asrwt>0</asrwt>
<pdfrwt beam="1">  1       21 0.22321810E+00 0.10273152E+04</pdfrwt>
<pdfrwt beam="2">  1        4 0.43599252E-01 0.10273152E+04</pdfrwt>
<totfact> 0.16513829E+01</totfact>
</mgrwt>
</event>
<event>
 6    1  0.2415530E-005  0.9701975E+03  0.7818608E-02  0.9730325E-01
         21   -1    0    0  501  502  0.00000000000E+00  0.00000000000E+00  0.20311384540E+03  0.20311384540E+03  0.00000000000E+00 0.  1.
          4   -1    0    0  502    0 -0.00000000000E+00 -0.00000000000E+00 -0.19867647622E+04  0.19867647622E+04  0.00000000000E+00 0.  1.
    9000010    2    1    2  501    0  0.19669295481E+03  0.15700790248E+03 -0.11294607491E+04  0.14889475221E+04  0.93698641396E+03 0.  0.
        -13    1    3    3    0    0  0.54438457331E+03  0.94521340066E+02 -0.41197887839E+03  0.68921364959E+03  0.10566000000E+00 0.  1.
          4    1    3    3  501    0 -0.34769161850E+03  0.62486562418E+02 -0.71748187074E+03  0.79973387255E+03  0.00000000000E+00 0.  1.
         13    1    1    2    0    0 -0.19669295481E+03 -0.15700790248E+03 -0.65419016766E+03  0.70093108545E+03  0.10566000000E+00 0. -1.
<mgrwt>
<rscale>  1 0.69239597E+03</rscale>
<asrwt>0</asrwt>
<pdfrwt beam="1">  1       21 0.31248284E-01 0.97019747E+03</pdfrwt>
<pdfrwt beam="2">  1        4 0.30565612E+00 0.97019747E+03</pdfrwt>
<totfact> 0.11577327E+01</totfact>
</mgrwt>
</event>
<event>
 6    1  0.2415530E-005  0.1015993E+04  0.7818608E-02  0.9884102E-01
          4   -1    0    0  502    0 -0.00000000000E+00  0.00000000000E+00  0.20875532237E+03  0.20875532237E+03  0.00000000000E+00 0.  1.
         21   -1    0    0  501  502  0.00000000000E+00 -0.00000000000E+00 -0.16401575150E+04  0.16401575150E+04  0.00000000000E+00 0.  1.
    9000010    2    1    2  501    0  0.24179797991E+02  0.13012390742E+03 -0.13627878780E+04  0.16998328949E+04  0.10073351856E+04 0.  0.
        -13    1    3    3    0    0  0.38580559577E+03 -0.22316613084E+03 -0.94181975281E+03  0.10419565910E+04  0.10566000000E+00 0.  1.
          4    1    3    3  501    0 -0.36162579778E+03  0.35329003825E+03 -0.42096812524E+03  0.65787630389E+03  0.00000000000E+00 0.  1.
         13    1    1    2    0    0 -0.24179797991E+02 -0.13012390742E+03 -0.68614314602E+02  0.14907994246E+03  0.10566000000E+00 0. -1.
<mgrwt>
<rscale>  1 0.61037972E+03</rscale>
<asrwt>0</asrwt>
<pdfrwt beam="2">  1       21 0.25233193E+00 0.10159927E+04</pdfrwt>
<pdfrwt beam="1">  1        4 0.32116203E-01 0.10159927E+04</pdfrwt>
<totfact> 0.19901757E+01</totfact>
</mgrwt>
</event>
<event>
 6    1  0.2415530E-005  0.1001325E+04  0.7818608E-02  0.9933241E-01
         21   -1    0    0  501  502  0.00000000000E+00  0.00000000000E+00  0.78459136821E+03  0.78459136821E+03  0.00000000000E+00 0.  1.
          4   -1    0    0  502    0 -0.00000000000E+00 -0.00000000000E+00 -0.50867655129E+03  0.50867655129E+03  0.00000000000E+00 0.  1.
    9000010    2    1    2  501    0  0.31063903664E+02  0.11391201210E+03  0.89567582748E+01  0.10013646327E+04  0.99433897211E+03 0.  0.
        -13    1    3    3    0    0  0.20059749250E+03 -0.21562846936E+03  0.37744878194E+03  0.47875106783E+03  0.10566000000E+00 0.  1.
          4    1    3    3  501    0 -0.16953358884E+03  0.32954048146E+03 -0.36849202367E+03  0.52261356486E+03  0.00000000000E+00 0.  1.
         13    1    1    2    0    0 -0.31063903664E+02 -0.11391201210E+03  0.26695805865E+03  0.29190328681E+03  0.10566000000E+00 0. -1.
<mgrwt>
<rscale>  1 0.58676967E+03</rscale>
<asrwt>0</asrwt>
<pdfrwt beam="1">  1       21 0.12070636E+00 0.10013246E+04</pdfrwt>
<pdfrwt beam="2">  1        4 0.78257931E-01 0.10013246E+04</pdfrwt>
<totfact> 0.28038350E+01</totfact>
</mgrwt>
</event>
<event>
 6    1  0.2415530E-005  0.1091288E+04  0.7818608E-02  0.9456774E-01
          4   -1    0    0  502    0 -0.00000000000E+00  0.00000000000E+00  0.11065971728E+04  0.11065971728E+04  0.00000000000E+00 0.  1.
         21   -1    0    0  501  502  0.00000000000E+00 -0.00000000000E+00 -0.66217276263E+03  0.66217276263E+03  0.00000000000E+00 0. -1.
    9000010    2    1    2  501    0  0.44574790799E+03  0.74989940953E+02 -0.58141781856E+02  0.10928354140E+04  0.99327442662E+03 0.  0.
        -13    1    3    3    0    0  0.55662477288E+03 -0.27367301377E+03 -0.26277231675E+03  0.67362998587E+03  0.10566000000E+00 0.  1.
          4    1    3    3  501    0 -0.11087686489E+03  0.34866295472E+03  0.20463053490E+03  0.41920542813E+03  0.00000000000E+00 0.  1.
         13    1    1    2    0    0 -0.44574790799E+03 -0.74989940953E+02  0.50256619203E+03  0.67593452142E+03  0.10566000000E+00 0. -1.
<mgrwt>
<rscale>  1 0.87547125E+03</rscale>
<asrwt>0</asrwt>
<pdfrwt beam="2">  1       21 0.10187273E+00 0.10912877E+04</pdfrwt>
<pdfrwt beam="1">  1        4 0.17024572E+00 0.10912877E+04</pdfrwt>
<totfact> 0.60639774E+00</totfact>
</mgrwt>
</event>
<event>
 6    1  0.2415530E-005  0.9330765E+03  0.7818608E-02  0.9857671E-01
         21   -1    0    0  501  502  0.00000000000E+00  0.00000000000E+00  0.16714233739E+04  0.16714233739E+04  0.00000000000E+00 0.  1.
          4   -1    0    0  502    0 -0.00000000000E+00 -0.00000000000E+00 -0.19369750005E+03  0.19369750005E+03  0.00000000000E+00 0.  1.
    9000010    2    1    2  501    0  0.13669771866E+03  0.12631395239E+03  0.13431349094E+04  0.16354336524E+04  0.91432508758E+03 0.  0.
        -13    1    3    3    0    0 -0.36049051234E+03  0.20575073731E+03  0.46592702591E+03  0.62399902246E+03  0.10566000000E+00 0.  1.
          4    1    3    3  501    0  0.49718823100E+03 -0.79436784918E+02  0.87720788348E+03  0.10114346300E+04  0.00000000000E+00 0.  1.
         13    1    1    2    0    0 -0.13669771866E+03 -0.12631395239E+03  0.13459096445E+03  0.22968722152E+03  0.10566000000E+00 0. -1.
<mgrwt>
<rscale>  1 0.62357333E+03</rscale>
<asrwt>0</asrwt>
<pdfrwt beam="1">  1       21 0.25714205E+00 0.93307655E+03</pdfrwt>
<pdfrwt beam="2">  1        4 0.29799616E-01 0.93307655E+03</pdfrwt>
<totfact> 0.21759864E+01</totfact>
</mgrwt>
</event>
<event>
 6    1  0.2415530E-005  0.1031769E+04  0.7818608E-02  0.9760748E-01
          4   -1    0    0  502    0 -0.00000000000E+00  0.00000000000E+00  0.47373888677E+03  0.47373888677E+03  0.00000000000E+00 0.  1.
         21   -1    0    0  501  502  0.00000000000E+00 -0.00000000000E+00 -0.94715737503E+03  0.94715737503E+03  0.00000000000E+00 0.  1.
    9000010    2    1    2  501    0 -0.11851868508E+02 -0.18876787832E+03 -0.59977626071E+03  0.11934318107E+04  0.10142850415E+04 0.  0.
        -13    1    3    3    0    0 -0.46788339703E+03 -0.13205960083E+03 -0.68472044846E+02  0.49096134622E+03  0.10566000000E+00 0.  1.
          4    1    3    3  501    0  0.45603152852E+03 -0.56708277493E+02 -0.53130421586E+03  0.70247046453E+03  0.00000000000E+00 0.  1.
         13    1    1    2    0    0  0.11851868508E+02  0.18876787832E+03  0.12635777244E+03  0.22746445106E+03  0.10566000000E+00 0. -1.
<mgrwt>
<rscale>  1 0.67512249E+03</rscale>
<asrwt>0</asrwt>
<pdfrwt beam="2">  1       21 0.14571652E+00 0.10317693E+04</pdfrwt>
<pdfrwt beam="1">  1        4 0.72882907E-01 0.10317693E+04</pdfrwt>
<totfact> 0.19842952E+01</totfact>
</mgrwt>
</event>
<event>
 6    1  0.2415530E-005  0.1178118E+04  0.7818608E-02  0.9302306E-01
          4   -1    0    0  502    0 -0.00000000000E+00  0.00000000000E+00  0.14344037443E+04  0.14344037443E+04  0.00000000000E+00 0.  1.
         21   -1    0    0  501  502  0.00000000000E+00 -0.00000000000E+00 -0.10740790482E+04  0.10740790482E+04  0.00000000000E+00 0.  1.
    9000010    2    1    2  501    0 -0.34129124818E+03  0.52434720158E+03  0.10494282472E+04  0.15777393160E+04  0.99826950238E+03 0.  0.
        -13    1    3    3    0    0 -0.14918953168E+03  0.46708428767E+03 -0.18970262803E+02  0.49069861441E+03  0.10566000000E+00 0.  1.
          4    1    3    3  501    0 -0.19210171650E+03  0.57262913916E+02  0.10683985100E+04  0.10870407016E+04  0.00000000000E+00 0.  1.
         13    1    1    2    0    0  0.34129124818E+03 -0.52434720158E+03 -0.68910355101E+03  0.93074347651E+03  0.10566000000E+00 0. -1.
<mgrwt>
<rscale>  1 0.10057081E+04</rscale>
<asrwt>0</asrwt>
<pdfrwt beam="2">  1       21 0.16524293E+00 0.11781179E+04</pdfrwt>
<pdfrwt beam="1">  1        4 0.22067750E+00 0.11781179E+04</pdfrwt>
<totfact> 0.75047257E-01</totfact>
</mgrwt>
</event>
<event>
 6    1  0.2415530E-005  0.9566526E+03  0.7818608E-02  0.1019388E+00
          4   -1    0    0  502    0 -0.00000000000E+00  0.00000000000E+00  0.38248357093E+03  0.38248357093E+03  0.00000000000E+00 0.  1.
         21   -1    0    0  501  502  0.00000000000E+00 -0.00000000000E+00 -0.68816063992E+03  0.68816063992E+03  0.00000000000E+00 0.  1.
    9000010    2    1    2  501    0 -0.35716469633E+02 -0.48421562827E+02 -0.25026371548E+03  0.98884589265E+03  0.95475858633E+03 0.  0.
        -13    1    3    3    0    0  0.30866238511E+03 -0.37122093752E+03 -0.95733808658E+02  0.49218129355E+03  0.10566000000E+00 0.  1.
          4    1    3    3  501    0 -0.34437885474E+03  0.32279937469E+03 -0.15452990682E+03  0.49666459910E+03  0.00000000000E+00 0.  1.
         13    1    1    2    0    0  0.35716469633E+02  0.48421562827E+02 -0.55413353507E+02  0.81798318202E+02  0.10566000000E+00 0. -1.
<mgrwt>
<rscale>  1 0.47908129E+03</rscale>
<asrwt>0</asrwt>
<pdfrwt beam="2">  1       21 0.10587087E+00 0.95665264E+03</pdfrwt>
<pdfrwt beam="1">  1        4 0.58843627E-01 0.95665264E+03</pdfrwt>
<totfact> 0.74201529E+01</totfact>
</mgrwt>
</event>
<event>
 6    1  0.2415530E-005  0.1186878E+04  0.7818608E-02  0.9285430E-01
         21   -1    0    0  501  502  0.00000000000E+00  0.00000000000E+00  0.79238630573E+03  0.79238630573E+03  0.00000000000E+00 0.  1.
          4   -1    0    0  502    0 -0.00000000000E+00 -0.00000000000E+00 -0.11083110380E+04  0.11083110380E+04  0.00000000000E+00 0.  1.
    9000010    2    1    2  501    0  0.17857996513E+03 -0.62587799406E+03 -0.23357572842E+02  0.11871080912E+04  0.99250490003E+03 0.  0.
        -13    1    3    3    0    0 -0.35820989073E+03 -0.51675156801E+03 -0.90473765436E+02  0.63524170381E+03  0.10566000000E+00 0.  1.
          4    1    3    3  501    0  0.53678985587E+03 -0.10912642604E+03  0.67116192594E+02  0.55186638739E+03  0.00000000000E+00 0.  1.
         13    1    1    2    0    0 -0.17857996513E+03  0.62587799406E+03 -0.29256715943E+03  0.71358925253E+03  0.10566000000E+00 0. -1.
<mgrwt>
<rscale>  1 0.10213532E+04</rscale>
<asrwt>0</asrwt>
<pdfrwt beam="1">  1       21 0.12190559E+00 0.11868783E+04</pdfrwt>
<pdfrwt beam="2">  1        4 0.17050939E+00 0.11868783E+04</pdfrwt>
<totfact> 0.37764496E+00</totfact>
</mgrwt>
</event>
<event>
 6    1  0.2415530E-005  0.1073996E+04  0.7818608E-02  0.9715131E-01
         21   -1    0    0  501  502  0.00000000000E+00  0.00000000000E+00  0.37113329359E+03  0.37113329359E+03  0.00000000000E+00 0.  1.
          4   -1    0    0  502    0 -0.00000000000E+00 -0.00000000000E+00 -0.11945923678E+04  0.11945923678E+04  0.00000000000E+00 0.  1.
    9000010    2    1    2  501    0 -0.25306608544E+02 -0.19353182522E+03 -0.49257564928E+03  0.11815657417E+04  0.10561116608E+04 0.  0.
        -13    1    3    3    0    0 -0.77294249286E+02 -0.62338944759E+03 -0.38008233632E+03  0.73420119715E+03  0.10566000000E+00 0.  1.
          4    1    3    3  501    0  0.51987640743E+02  0.42985762237E+03 -0.11249331296E+03  0.44736454460E+03  0.00000000000E+00 0.  1.
         13    1    1    2    0    0  0.25306608544E+02  0.19353182522E+03 -0.33088342494E+03  0.38415991966E+03  0.10566000000E+00 0. -1.
<mgrwt>
<rscale>  1 0.70122989E+03</rscale>
<asrwt>0</asrwt>
<pdfrwt beam="1">  1       21 0.57097430E-01 0.10739957E+04</pdfrwt>
<pdfrwt beam="2">  1        4 0.18378344E+00 0.10739957E+04</pdfrwt>
<totfact> 0.18901890E+01</totfact>
</mgrwt>
</event>
<event>
 6    1  0.2415530E-005  0.1062270E+04  0.7818608E-02  0.9628885E-01
          4   -1    0    0  502    0 -0.00000000000E+00  0.00000000000E+00  0.12072167530E+04  0.12072167530E+04  0.00000000000E+00 0.  1.
         21   -1    0    0  501  502  0.00000000000E+00 -0.00000000000E+00 -0.36882897610E+03  0.36882897610E+03  0.00000000000E+00 0.  1.
    9000010    2    1    2  501    0 -0.26923841289E+03 -0.17876064881E+02  0.62925035937E+03  0.12346554140E+04  0.10274283916E+04 0.  0.
        -13    1    3    3    0    0  0.26115869994E+03 -0.12244650159E+03 -0.11859837574E+03  0.31186952111E+03  0.10566000000E+00 0.  1.
          4    1    3    3  501    0 -0.53039711283E+03  0.10457043671E+03  0.74784873510E+03  0.92278589289E+03  0.00000000000E+00 0.  1.
         13    1    1    2    0    0  0.26923841289E+03  0.17876064881E+02  0.20913741757E+03  0.34139031513E+03  0.10566000000E+00 0. -1.
<mgrwt>
<rscale>  1 0.75413535E+03</rscale>
<asrwt>0</asrwt>
<pdfrwt beam="2">  1       21 0.56742920E-01 0.10622702E+04</pdfrwt>
<pdfrwt beam="1">  1        4 0.18572565E+00 0.10622702E+04</pdfrwt>
<totfact> 0.18603274E+01</totfact>
</mgrwt>
</event>
<event>
 6    1  0.2415530E-005  0.9833535E+03  0.7818608E-02  0.9916496E-01
         21   -1    0    0  501  502  0.00000000000E+00  0.00000000000E+00  0.64229684125E+03  0.64229684125E+03  0.00000000000E+00 0.  1.
          4   -1    0    0  502    0 -0.00000000000E+00 -0.00000000000E+00 -0.48739172469E+03  0.48739172469E+03  0.00000000000E+00 0.  1.
    9000010    2    1    2  501    0  0.11424968129E+03  0.65165453936E+02  0.16765955470E+03  0.99754389930E+03  0.97451761333E+03 0.  0.
        -13    1    3    3    0    0 -0.31117037868E+03  0.27629795643E+03 -0.13129462582E+03  0.43635519388E+03  0.10566000000E+00 0.  1.
          4    1    3    3  501    0  0.42542005998E+03 -0.21113250249E+03  0.29895418053E+03  0.56118870542E+03  0.00000000000E+00 0.  1.
         13    1    1    2    0    0 -0.11424968129E+03 -0.65165453936E+02 -0.12754438143E+02  0.13214466663E+03  0.10566000000E+00 0. -1.
<mgrwt>
<rscale>  1 0.59468442E+03</rscale>
<asrwt>0</asrwt>
<pdfrwt beam="1">  1       21 0.98814899E-01 0.98335350E+03</pdfrwt>
<pdfrwt beam="2">  1        4 0.74983342E-01 0.98335350E+03</pdfrwt>
<totfact> 0.51375225E+01</totfact>
</mgrwt>
</event>
<event>
 6    1  0.2415530E-005  0.1002583E+04  0.7818608E-02  0.9944523E-01
         21   -1    0    0  501  502  0.00000000000E+00  0.00000000000E+00  0.10429427685E+04  0.10429427685E+04  0.00000000000E+00 0.  1.
          4   -1    0    0  502    0 -0.00000000000E+00 -0.00000000000E+00 -0.30386028835E+03  0.30386028835E+03  0.00000000000E+00 0.  1.
    9000010    2    1    2  501    0  0.44410364977E+02  0.10441590552E+03  0.60430974344E+03  0.11706251253E+04  0.99614153418E+03 0.  0.
        -13    1    3    3    0    0  0.25084751172E+03  0.23112758359E+03 -0.15423616302E+03  0.37434374468E+03  0.10566000000E+00 0.  1.
          4    1    3    3  501    0 -0.20643714674E+03 -0.12671167807E+03  0.75854590646E+03  0.79628138062E+03  0.00000000000E+00 0.  1.
         13    1    1    2    0    0 -0.44410364977E+02 -0.10441590552E+03  0.13477273675E+03  0.17617793159E+03  0.10566000000E+00 0. -1.
<mgrwt>
<rscale>  1 0.58151194E+03</rscale>
<asrwt>0</asrwt>
<pdfrwt beam="1">  1       21 0.16045273E+00 0.10025831E+04</pdfrwt>
<pdfrwt beam="2">  1        4 0.46747737E-01 0.10025831E+04</pdfrwt>
<totfact> 0.39791236E+01</totfact>
</mgrwt>
</event>
<event>
 6    1  0.2415530E-005  0.1109687E+04  0.7818608E-02  0.9423110E-01
         21   -1    0    0  501  502  0.00000000000E+00  0.00000000000E+00  0.61068129593E+03  0.61068129593E+03  0.00000000000E+00 0.  1.
          4   -1    0    0  502    0 -0.00000000000E+00 -0.00000000000E+00 -0.10446920127E+04  0.10446920127E+04  0.00000000000E+00 0.  1.
    9000010    2    1    2  501    0  0.31650874392E+03 -0.36666968043E+03 -0.25211461527E+03  0.11379656913E+04  0.99838854957E+03 0.  0.
        -13    1    3    3    0    0 -0.52618039705E+02 -0.35232164194E+02  0.35120984376E+03  0.35687298723E+03  0.10566000000E+00 0.  1.
          4    1    3    3  501    0  0.36912678362E+03 -0.33143751624E+03 -0.60332445903E+03  0.78109270411E+03  0.00000000000E+00 0.  1.
         13    1    1    2    0    0 -0.31650874392E+03  0.36666968043E+03 -0.18189610152E+03  0.51740761730E+03  0.10566000000E+00 0. -1.
<mgrwt>
<rscale>  1 0.90197996E+03</rscale>
<asrwt>0</asrwt>
<pdfrwt beam="1">  1       21 0.93950970E-01 0.11096865E+04</pdfrwt>
<pdfrwt beam="2">  1        4 0.16072185E+00 0.11096865E+04</pdfrwt>
<totfact> 0.86806075E+00</totfact>
</mgrwt>
</event>
<event>
 6    1  0.2415530E-005  0.1081848E+04  0.7818608E-02  0.9510182E-01
          4   -1    0    0  502    0 -0.00000000000E+00  0.00000000000E+00  0.10424508514E+04  0.10424508514E+04  0.00000000000E+00 0.  1.
         21   -1    0    0  501  502  0.00000000000E+00 -0.00000000000E+00 -0.51591323543E+03  0.51591323543E+03  0.00000000000E+00 0.  1.
    9000010    2    1    2  501    0 -0.12615889021E+03 -0.36333190462E+03  0.37558478789E+03  0.11451899033E+04  0.10111725091E+04 0.  0.
        -13    1    3    3    0    0 -0.50183623337E+03  0.55434537653E+00  0.36767501222E+03  0.62211320369E+03  0.10566000000E+00 0.  1.
          4    1    3    3  501    0  0.37567734316E+03 -0.36388625000E+03  0.79097756640E+01  0.52307669959E+03  0.00000000000E+00 0.  1.
         13    1    1    2    0    0  0.12615889021E+03  0.36333190462E+03  0.15095282810E+03  0.41317418357E+03  0.10566000000E+00 0. -1.
<mgrwt>
<rscale>  1 0.83537299E+03</rscale>
<asrwt>0</asrwt>
<pdfrwt beam="2">  1       21 0.79371267E-01 0.10818484E+04</pdfrwt>
<pdfrwt beam="1">  1        4 0.16037705E+00 0.10818484E+04</pdfrwt>
<totfact> 0.13120015E+01</totfact>
</mgrwt>
</event>
<event>
 6    1  0.2415530E-005  0.1145656E+04  0.7818608E-02  0.9356046E-01
          4   -1    0    0  502    0 -0.00000000000E+00  0.00000000000E+00  0.17761877884E+04  0.17761877884E+04  0.00000000000E+00 0.  1.
         21   -1    0    0  501  502  0.00000000000E+00 -0.00000000000E+00 -0.47744923735E+03  0.47744923735E+03  0.00000000000E+00 0.  1.
    9000010    2    1    2  501    0  0.43550836816E+03 -0.35163423154E+03  0.43722476081E+03  0.12262519015E+04  0.99960695426E+03 0.  0.
        -13    1    3    3    0    0  0.15343064285E+03  0.93245460277E+02 -0.28227165349E+03  0.33453396771E+03  0.10566000000E+00 0.  1.
          4    1    3    3  501    0  0.28207772531E+03 -0.44487969182E+03  0.71949641430E+03  0.89171793382E+03  0.00000000000E+00 0.  1.
         13    1    1    2    0    0 -0.43550836816E+03  0.35163423154E+03  0.86151379020E+03  0.10273851242E+04  0.10566000000E+00 0. -1.
<mgrwt>
<rscale>  1 0.95782960E+03</rscale>
<asrwt>0</asrwt>
<pdfrwt beam="2">  1       21 0.73453730E-01 0.11456562E+04</pdfrwt>
<pdfrwt beam="1">  1        4 0.27325966E+00 0.11456562E+04</pdfrwt>
<totfact> 0.28370520E+00</totfact>
</mgrwt>
</event>
<event>
 6    1  0.2415530E-005  0.1009470E+04  0.7818608E-02  0.9863642E-01
         21   -1    0    0  501  502  0.00000000000E+00  0.00000000000E+00  0.55888350902E+03  0.55888350902E+03  0.00000000000E+00 0.  1.
          4   -1    0    0  502    0 -0.00000000000E+00 -0.00000000000E+00 -0.79277001468E+03  0.79277001468E+03  0.00000000000E+00 0.  1.
    9000010    2    1    2  501    0 -0.13946646333E+03  0.36504876894E+02  0.73496767716E+02  0.10121421272E+04  0.99912282046E+03 0.  0.
        -13    1    3    3    0    0  0.75806375650E+02  0.44982728076E+03  0.24225225491E+03  0.51650494216E+03  0.10566000000E+00 0.  1.
          4    1    3    3  501    0 -0.21527283898E+03 -0.41332240387E+03 -0.16875548719E+03  0.49563718504E+03  0.00000000000E+00 0.  1.
         13    1    1    2    0    0  0.13946646333E+03 -0.36504876894E+02 -0.30738327338E+03  0.33951139649E+03  0.10566000000E+00 0. -1.
<mgrwt>
<rscale>  1 0.62056170E+03</rscale>
<asrwt>0</asrwt>
<pdfrwt beam="1">  1       21 0.85982078E-01 0.10094701E+04</pdfrwt>
<pdfrwt beam="2">  1        4 0.12196462E+00 0.10094701E+04</pdfrwt>
<totfact> 0.22477283E+01</totfact>
</mgrwt>
</event>
<event>
 6    1  0.2415530E-005  0.9815420E+03  0.7818608E-02  0.1042222E+00
         21   -1    0    0  501  502  0.00000000000E+00  0.00000000000E+00  0.52631692514E+03  0.52631692514E+03  0.00000000000E+00 0.  1.
          4   -1    0    0  502    0 -0.00000000000E+00 -0.00000000000E+00 -0.62940293746E+03  0.62940293746E+03  0.00000000000E+00 0.  1.
    9000010    2    1    2  501    0 -0.26559224288E+02 -0.98270825362E+01  0.66493846397E+02  0.98379166947E+03  0.98113335147E+03 0.  0.
        -13    1    3    3    0    0  0.29846237037E+03 -0.33929872237E+03 -0.14550859674E+03  0.47473800398E+03  0.10566000000E+00 0.  1.
          4    1    3    3  501    0 -0.32502159466E+03  0.32947163984E+03  0.21200244314E+03  0.50905366549E+03  0.00000000000E+00 0.  1.
         13    1    1    2    0    0  0.26559224288E+02  0.98270825362E+01 -0.16957985872E+03  0.17192819313E+03  0.10566000000E+00 0. -1.
<mgrwt>
<rscale>  1 0.40453096E+03</rscale>
<asrwt>0</asrwt>
<pdfrwt beam="1">  1       21 0.80971835E-01 0.98154196E+03</pdfrwt>
<pdfrwt beam="2">  1        4 0.96831221E-01 0.98154196E+03</pdfrwt>
<totfact> 0.45807465E+01</totfact>
</mgrwt>
</event>
<event>
 6    1  0.2415530E-005  0.1048863E+04  0.7818608E-02  0.9698614E-01
         21   -1    0    0  501  502  0.00000000000E+00  0.00000000000E+00  0.23867005762E+03  0.23867005762E+03  0.00000000000E+00 0.  1.
          4   -1    0    0  502    0 -0.00000000000E+00 -0.00000000000E+00 -0.20011388606E+04  0.20011388606E+04  0.00000000000E+00 0.  1.
    9000010    2    1    2  501    0  0.17475355937E+03  0.13604569071E+03 -0.10125244048E+04  0.14578473795E+04  0.10252151361E+04 0.  0.
        -13    1    3    3    0    0  0.17669437210E+03  0.52904932288E+03 -0.88230409479E+03  0.10438269081E+04  0.10566000000E+00 0.  1.
          4    1    3    3  501    0 -0.19408127314E+01 -0.39300363217E+03 -0.13022031003E+03  0.41402047147E+03  0.00000000000E+00 0.  1.
         13    1    1    2    0    0 -0.17475355937E+03 -0.13604569071E+03 -0.74994439813E+03  0.78196153864E+03  0.10566000000E+00 0. -1.
<mgrwt>
<rscale>  1 0.71099388E+03</rscale>
<asrwt>0</asrwt>
<pdfrwt beam="1">  1       21 0.36718471E-01 0.10488629E+04</pdfrwt>
<pdfrwt beam="2">  1        4 0.30786751E+00 0.10488629E+04</pdfrwt>
<totfact> 0.79783584E+00</totfact>
</mgrwt>
</event>
<event>
 6    1  0.2415530E-005  0.1199496E+04  0.7818608E-02  0.9273084E-01
          4   -1    0    0  502    0 -0.00000000000E+00  0.00000000000E+00  0.44551501097E+03  0.44551501097E+03  0.00000000000E+00 0.  1.
         21   -1    0    0  501  502  0.00000000000E+00 -0.00000000000E+00 -0.35659223502E+04  0.35659223502E+04  0.00000000000E+00 0.  1.
    9000010    2    1    2  501    0  0.42703143541E+03  0.50292145514E+03 -0.31296175604E+04  0.33516111142E+04  0.10017510415E+04 0.  0.
        -13    1    3    3    0    0 -0.15339128643E+03 -0.10225443011E+02 -0.29988984127E+02  0.15662948883E+03  0.10566000000E+00 0.  1.
          4    1    3    3  501    0  0.58042272184E+03  0.51314689815E+03 -0.30996285763E+04  0.31949816253E+04  0.00000000000E+00 0.  1.
         13    1    1    2    0    0 -0.42703143541E+03 -0.50292145514E+03  0.92102212348E+01  0.65982624698E+03  0.10566000000E+00 0. -1.
<mgrwt>
<rscale>  1 0.10329896E+04</rscale>
<asrwt>0</asrwt>
<pdfrwt beam="2">  1       21 0.54860346E+00 0.11994961E+04</pdfrwt>
<pdfrwt beam="1">  1        4 0.68540769E-01 0.11994961E+04</pdfrwt>
<totfact> 0.41010837E-02</totfact>
</mgrwt>
</event>
<event>
 6    1  0.2415530E-005  0.1046350E+04  0.7818608E-02  0.9595801E-01
          4   -1    0    0  502    0 -0.00000000000E+00  0.00000000000E+00  0.10604673374E+04  0.10604673374E+04  0.00000000000E+00 0.  1.
         21   -1    0    0  501  502  0.00000000000E+00 -0.00000000000E+00 -0.50754524159E+03  0.50754524159E+03  0.00000000000E+00 0.  1.
    9000010    2    1    2  501    0 -0.28839306122E+03 -0.12946163622E+03  0.65662840520E+03  0.12353176996E+04  0.99745580529E+03 0.  0.
        -13    1    3    3    0    0  0.36453550062E+03 -0.13379503299E+03  0.18679115096E+03  0.43090391888E+03  0.10566000000E+00 0.  1.
          4    1    3    3  501    0 -0.65292856184E+03  0.43333967705E+01  0.46983725425E+03  0.80441378076E+03  0.00000000000E+00 0.  1.
         13    1    1    2    0    0  0.28839306122E+03  0.12946163622E+03 -0.10370630935E+03  0.33269487940E+03  0.10566000000E+00 0. -1.
<mgrwt>
<rscale>  1 0.77574744E+03</rscale>
<asrwt>0</asrwt>
<pdfrwt beam="2">  1       21 0.78083884E-01 0.10463503E+04</pdfrwt>
<pdfrwt beam="1">  1        4 0.16314882E+00 0.10463503E+04</pdfrwt>
<totfact> 0.13048226E+01</totfact>
</mgrwt>
</event>
<event>
 6    1  0.2415530E-005  0.8982950E+03  0.7818608E-02  0.1013115E+00
          4   -1    0    0  502    0 -0.00000000000E+00  0.00000000000E+00  0.32297361727E+03  0.32297361727E+03  0.00000000000E+00 0.  1.
         21   -1    0    0  501  502  0.00000000000E+00 -0.00000000000E+00 -0.12786471029E+04  0.12786471029E+04  0.00000000000E+00 0.  1.
    9000010    2    1    2  501    0 -0.58823076584E+02  0.65448336064E+02 -0.11075797299E+04  0.14260668617E+04  0.89397438280E+03 0.  0.
        -13    1    3    3    0    0  0.35274735955E+03  0.21036639122E+03 -0.77618063791E+03  0.87814640696E+03  0.10566000000E+00 0.  1.
          4    1    3    3  501    0 -0.41157043614E+03 -0.14491805516E+03 -0.33139909196E+03  0.54792045478E+03  0.00000000000E+00 0.  1.
         13    1    1    2    0    0  0.58823076584E+02 -0.65448336064E+02  0.15190624420E+03  0.17555385847E+03  0.10566000000E+00 0. -1.
<mgrwt>
<rscale>  1 0.50255366E+03</rscale>
<asrwt>0</asrwt>
<pdfrwt beam="2">  1       21 0.19671494E+00 0.89829496E+03</pdfrwt>
<pdfrwt beam="1">  1        4 0.49688248E-01 0.89829496E+03</pdfrwt>
<totfact> 0.19288168E+01</totfact>
</mgrwt>
</event>
<event>
 6    1  0.2415530E-005  0.9147713E+03  0.7818608E-02  0.1017715E+00
          4   -1    0    0  502    0 -0.00000000000E+00  0.00000000000E+00  0.11699602681E+03  0.11699602681E+03  0.00000000000E+00 0.  1.
         21   -1    0    0  501  502  0.00000000000E+00 -0.00000000000E+00 -0.25877728016E+04  0.25877728016E+04  0.00000000000E+00 0.  1.
    9000010    2    1    2  501    0  0.26109740318E+02 -0.67530900409E+02 -0.24682615101E+04  0.26323224429E+04  0.91190154090E+03 0.  0.
        -13    1    3    3    0    0 -0.19950935491E+03  0.21958574336E+03 -0.20733166935E+04  0.20944364407E+04  0.10566000000E+00 0.  1.
          4    1    3    3  501    0  0.22561909523E+03 -0.28711664377E+03 -0.39494481662E+03  0.53788600227E+03  0.00000000000E+00 0.  1.
         13    1    1    2    0    0 -0.26109740318E+02  0.67530900409E+02 -0.25152647074E+01  0.72446385487E+02  0.10566000000E+00 0. -1.
<mgrwt>
<rscale>  1 0.48520259E+03</rscale>
<asrwt>0</asrwt>
<pdfrwt beam="2">  1       21 0.39811885E+00 0.91477132E+03</pdfrwt>
<pdfrwt beam="1">  1        4 0.17999391E-01 0.91477132E+03</pdfrwt>
<totfact> 0.73575396E+00</totfact>
</mgrwt>
</event>
<event>
 6    1  0.2415530E-005  0.1098953E+04  0.7818608E-02  0.9442538E-01
         21   -1    0    0  501  502  0.00000000000E+00  0.00000000000E+00  0.57246397049E+03  0.57246397049E+03  0.00000000000E+00 0.  1.
          4   -1    0    0  502    0 -0.00000000000E+00 -0.00000000000E+00 -0.14827705935E+04  0.14827705935E+04  0.00000000000E+00 0.  1.
    9000010    2    1    2  501    0  0.34717114279E+03 -0.31006469523E+03 -0.78135776693E+02  0.11017272246E+04  0.99550477662E+03 0.  0.
        -13    1    3    3    0    0  0.18040818483E+03 -0.43753455807E+03  0.37402393197E+03  0.60322260858E+03  0.10566000000E+00 0.  1.
          4    1    3    3  501    0  0.16676295796E+03  0.12746986284E+03 -0.45215970866E+03  0.49850461604E+03  0.00000000000E+00 0.  1.
         13    1    1    2    0    0 -0.34717114279E+03  0.31006469523E+03 -0.83217084632E+03  0.95350733937E+03  0.10566000000E+00 0. -1.
<mgrwt>
<rscale>  1 0.88656109E+03</rscale>
<asrwt>0</asrwt>
<pdfrwt beam="1">  1       21 0.88071383E-01 0.10989530E+04</pdfrwt>
<pdfrwt beam="2">  1        4 0.22811855E+00 0.10989530E+04</pdfrwt>
<totfact> 0.35498412E+00</totfact>
</mgrwt>
</event>
<event>
 6    1  0.2415530E-005  0.1059366E+04  0.7818608E-02  0.9537406E-01
         21   -1    0    0  501  502  0.00000000000E+00  0.00000000000E+00  0.24562976722E+03  0.24562976722E+03  0.00000000000E+00 0.  1.
          4   -1    0    0  502    0 -0.00000000000E+00 -0.00000000000E+00 -0.24249536111E+04  0.24249536111E+04  0.00000000000E+00 0.  1.
    9000010    2    1    2  501    0 -0.21699487920E+03 -0.30287418502E+03 -0.10929875890E+04  0.15221296268E+04  0.99168401294E+03 0.  0.
        -13    1    3    3    0    0  0.91530617493E+02 -0.46364025616E+03 -0.10743886385E+04  0.11737338279E+04  0.10566000000E+00 0.  1.
          4    1    3    3  501    0 -0.30852549670E+03  0.16076607114E+03 -0.18598950534E+02  0.34839579892E+03  0.00000000000E+00 0.  1.
         13    1    1    2    0    0  0.21699487920E+03  0.30287418502E+03 -0.10863362548E+04  0.11484537515E+04  0.10566000000E+00 0. -1.
<mgrwt>
<rscale>  1 0.81581355E+03</rscale>
<asrwt>0</asrwt>
<pdfrwt beam="1">  1       21 0.37789193E-01 0.10593662E+04</pdfrwt>
<pdfrwt beam="2">  1        4 0.37306980E+00 0.10593662E+04</pdfrwt>
<totfact> 0.28610815E+00</totfact>
</mgrwt>
</event>
<event>
 6    1  0.2415530E-005  0.1008093E+04  0.7818608E-02  0.9720732E-01
          4   -1    0    0  502    0 -0.00000000000E+00  0.00000000000E+00  0.98333823083E+03  0.98333823083E+03  0.00000000000E+00 0.  1.
         21   -1    0    0  501  502  0.00000000000E+00 -0.00000000000E+00 -0.61134239242E+03  0.61134239242E+03  0.00000000000E+00 0.  1.
    9000010    2    1    2  501    0 -0.22072418943E+03  0.70271581172E+02 -0.15414101999E+03  0.10198091003E+04  0.98111869016E+03 0.  0.
        -13    1    3    3    0    0 -0.39949373627E+03  0.21403338044E+03  0.27719388292E+03  0.53126452277E+03  0.10566000000E+00 0.  1.
          4    1    3    3  501    0  0.17876954684E+03 -0.14376179927E+03 -0.43133490291E+03  0.48854457757E+03  0.00000000000E+00 0.  1.
         13    1    1    2    0    0  0.22072418943E+03 -0.70271581172E+02  0.52613685840E+03  0.57487152291E+03  0.10566000000E+00 0. -1.
<mgrwt>
<rscale>  1 0.69795748E+03</rscale>
<asrwt>0</asrwt>
<pdfrwt beam="2">  1       21 0.94052676E-01 0.10080928E+04</pdfrwt>
<pdfrwt beam="1">  1        4 0.15128280E+00 0.10080928E+04</pdfrwt>
<totfact> 0.10325359E+01</totfact>
</mgrwt>
</event>
<event>
 6    1  0.2415530E-005  0.1002963E+04  0.7818608E-02  0.9888758E-01
          4   -1    0    0  502    0 -0.00000000000E+00  0.00000000000E+00  0.15709299260E+04  0.15709299260E+04  0.00000000000E+00 0.  1.
         21   -1    0    0  501  502  0.00000000000E+00 -0.00000000000E+00 -0.21882516120E+03  0.21882516120E+03  0.00000000000E+00 0.  1.
    9000010    2    1    2  501    0 -0.50930503103E+02 -0.12559224194E+03  0.10173803229E+04  0.14286348987E+04  0.99376437094E+03 0.  0.
        -13    1    3    3    0    0 -0.34610317110E+03 -0.44769171226E+03  0.58806433825E+03  0.81610964420E+03  0.10566000000E+00 0.  1.
          4    1    3    3  501    0  0.29517266800E+03  0.32209947032E+03  0.42931598468E+03  0.61252525451E+03  0.00000000000E+00 0.  1.
         13    1    1    2    0    0  0.50930503103E+02  0.12559224194E+03  0.33472444186E+03  0.36112018847E+03  0.10566000000E+00 0. -1.
<mgrwt>
<rscale>  1 0.60809228E+03</rscale>
<asrwt>0</asrwt>
<pdfrwt beam="2">  1       21 0.33665410E-01 0.10029631E+04</pdfrwt>
<pdfrwt beam="1">  1        4 0.24168152E+00 0.10029631E+04</pdfrwt>
<totfact> 0.24592671E+01</totfact>
</mgrwt>
</event>
<event>
 6    1  0.2415530E-005  0.9954383E+03  0.7818608E-02  0.9838356E-01
          4   -1    0    0  502    0 -0.00000000000E+00  0.00000000000E+00  0.14959141492E+04  0.14959141492E+04  0.00000000000E+00 0.  1.
         21   -1    0    0  501  502  0.00000000000E+00 -0.00000000000E+00 -0.26703112996E+03  0.26703112996E+03  0.00000000000E+00 0.  1.
    9000010    2    1    2  501    0  0.15318675529E+03  0.56354005991E+02  0.72002341220E+03  0.12285483603E+04  0.98196507250E+03 0.  0.
        -13    1    3    3    0    0  0.34228303771E+02  0.17438486352E+03 -0.21482234596E+03  0.27880155827E+03  0.10566000000E+00 0.  1.
          4    1    3    3  501    0  0.11895845151E+03 -0.11803085753E+03  0.93484575816E+03  0.94974680208E+03  0.00000000000E+00 0.  1.
         13    1    1    2    0    0 -0.15318675529E+03 -0.56354005991E+02  0.50885960710E+03  0.53439691886E+03  0.10566000000E+00 0. -1.
<mgrwt>
<rscale>  1 0.63344154E+03</rscale>
<asrwt>0</asrwt>
<pdfrwt beam="2">  1       21 0.41081713E-01 0.99543828E+03</pdfrwt>
<pdfrwt beam="1">  1        4 0.23014063E+00 0.99543828E+03</pdfrwt>
<totfact> 0.19238956E+01</totfact>
</mgrwt>
</event>
<event>
 6    1  0.2415530E-005  0.1060923E+04  0.7818608E-02  0.9632737E-01
         21   -1    0    0  501  502  0.00000000000E+00  0.00000000000E+00  0.80668338183E+03  0.80668338183E+03  0.00000000000E+00 0.  1.
          4   -1    0    0  502    0 -0.00000000000E+00 -0.00000000000E+00 -0.55314028452E+03  0.55314028452E+03  0.00000000000E+00 0.  1.
    9000010    2    1    2  501    0 -0.38675129367E+02  0.26452031923E+03  0.26036162462E+03  0.10924040179E+04  0.10266896307E+04 0.  0.
        -13    1    3    3    0    0 -0.41800712470E+03  0.47032686567E+03  0.16257040321E+03  0.64989727191E+03  0.10566000000E+00 0.  1.
          4    1    3    3  501    0  0.37933199533E+03 -0.20580654643E+03  0.97791221407E+02  0.44250674596E+03  0.00000000000E+00 0.  1.
         13    1    1    2    0    0  0.38675129367E+02 -0.26452031923E+03 -0.68185273052E+01  0.26741964849E+03  0.10566000000E+00 0. -1.
<mgrwt>
<rscale>  1 0.75166795E+03</rscale>
<asrwt>0</asrwt>
<pdfrwt beam="1">  1       21 0.12410514E+00 0.10609234E+04</pdfrwt>
<pdfrwt beam="2">  1        4 0.85098505E-01 0.10609234E+04</pdfrwt>
<totfact> 0.21363514E+01</totfact>
</mgrwt>
</event>
<event>
 6    1  0.2415530E-005  0.1057038E+04  0.7818608E-02  0.9598504E-01
         21   -1    0    0  501  502  0.00000000000E+00  0.00000000000E+00  0.16496120992E+04  0.16496120992E+04  0.00000000000E+00 0.  1.
          4   -1    0    0  502    0 -0.00000000000E+00 -0.00000000000E+00 -0.28936872030E+03  0.28936872030E+03  0.00000000000E+00 0.  1.
    9000010    2    1    2  501    0  0.12663823670E+02 -0.30353480193E+03  0.11862935235E+04  0.15889060963E+04  0.10124408678E+04 0.  0.
        -13    1    3    3    0    0  0.45460290706E+03  0.62909016654E+02  0.69732982517E+03  0.83479952307E+03  0.10566000000E+00 0.  1.
          4    1    3    3  501    0 -0.44193908339E+03 -0.36644381859E+03  0.48896369830E+03  0.75410657328E+03  0.00000000000E+00 0.  1.
         13    1    1    2    0    0 -0.12663823670E+02  0.30353480193E+03  0.17394985543E+03  0.35007472314E+03  0.10566000000E+00 0. -1.
<mgrwt>
<rscale>  1 0.77395307E+03</rscale>
<asrwt>0</asrwt>
<pdfrwt beam="1">  1       21 0.25378647E+00 0.10570384E+04</pdfrwt>
<pdfrwt beam="2">  1        4 0.44518265E-01 0.10570384E+04</pdfrwt>
<totfact> 0.10003427E+01</totfact>
</mgrwt>
</event>
<event>
 6    1  0.2415530E-005  0.1182768E+04  0.7818608E-02  0.9300093E-01
         21   -1    0    0  501  502  0.00000000000E+00  0.00000000000E+00  0.78949024025E+03  0.78949024025E+03  0.00000000000E+00 0. -1.
          4   -1    0    0  502    0 -0.00000000000E+00 -0.00000000000E+00 -0.10340819410E+04  0.10340819410E+04  0.00000000000E+00 0.  1.
    9000010    2    1    2  501    0 -0.13586477728E+03 -0.60831716894E+03 -0.13098507237E+03  0.11899985921E+04  0.10052017431E+04 0.  0.
        -13    1    3    3    0    0  0.22340258363E+03 -0.71686320838E+03 -0.25772984664E+03  0.79386791024E+03  0.10566000000E+00 0.  1.
          4    1    3    3  501    0 -0.35926736091E+03  0.10854603944E+03  0.12674477427E+03  0.39613068184E+03  0.00000000000E+00 0.  1.
         13    1    1    2    0    0  0.13586477728E+03  0.60831716894E+03 -0.11360662840E+03  0.63357358919E+03  0.10566000000E+00 0. -1.
<mgrwt>
<rscale>  1 0.10077429E+04</rscale>
<asrwt>0</asrwt>
<pdfrwt beam="1">  1       21 0.12146004E+00 0.11827678E+04</pdfrwt>
<pdfrwt beam="2">  1        4 0.15908953E+00 0.11827678E+04</pdfrwt>
<totfact> 0.46300767E+00</totfact>
</mgrwt>
</event>
<event>
 6    1  0.2415530E-005  0.1357150E+04  0.7818608E-02  0.9080863E-01
         21   -1    0    0  501  502  0.00000000000E+00  0.00000000000E+00  0.10270545650E+04  0.10270545650E+04  0.00000000000E+00 0. -1.
          4   -1    0    0  502    0 -0.00000000000E+00 -0.00000000000E+00 -0.16874400003E+04  0.16874400003E+04  0.00000000000E+00 0.  1.
    9000010    2    1    2  501    0  0.86446727038E+03 -0.36262294486E+03  0.28102615726E+03  0.13859408933E+04  0.98135487824E+03 0.  0.
        -13    1    3    3    0    0  0.62966444237E+03 -0.37899085245E+03 -0.27299971645E+03  0.78398994418E+03  0.10566000000E+00 0.  1.
          4    1    3    3  501    0  0.23480282801E+03  0.16367907592E+02  0.55402587372E+03  0.60195094916E+03  0.00000000000E+00 0.  1.
         13    1    1    2    0    0 -0.86446727038E+03  0.36262294486E+03 -0.94141159250E+03  0.13285536720E+04  0.10566000000E+00 0. -1.
<mgrwt>
<rscale>  1 0.12372490E+04</rscale>
<asrwt>0</asrwt>
<pdfrwt beam="1">  1       21 0.15800840E+00 0.13571501E+04</pdfrwt>
<pdfrwt beam="2">  1        4 0.25960615E+00 0.13571501E+04</pdfrwt>
<totfact> 0.47373580E-01</totfact>
</mgrwt>
</event>
<event>
 6    1  0.2415530E-005  0.1108959E+04  0.7818608E-02  0.9428172E-01
         21   -1    0    0  501  502  0.00000000000E+00  0.00000000000E+00  0.17253218901E+04  0.17253218901E+04  0.00000000000E+00 0.  1.
          4   -1    0    0  502    0 -0.00000000000E+00 -0.00000000000E+00 -0.60005208356E+03  0.60005208356E+03  0.00000000000E+00 0.  1.
    9000010    2    1    2  501    0  0.21727707175E+03 -0.42427732574E+03  0.13915362045E+04  0.17793717934E+04  0.10012843730E+04 0.  0.
        -13    1    3    3    0    0 -0.25265721875E+03 -0.48022922566E+03  0.10917157691E+04  0.12191386758E+04  0.10566000000E+00 0.  1.
          4    1    3    3  501    0  0.46993429050E+03  0.55951899922E+02  0.29982043543E+03  0.56023311755E+03  0.00000000000E+00 0.  1.
         13    1    1    2    0    0 -0.21727707175E+03  0.42427732574E+03 -0.26626639793E+03  0.54600218028E+03  0.10566000000E+00 0. -1.
<mgrwt>
<rscale>  1 0.89793045E+03</rscale>
<asrwt>0</asrwt>
<pdfrwt beam="1">  1       21 0.26543414E+00 0.11089594E+04</pdfrwt>
<pdfrwt beam="2">  1        4 0.92315706E-01 0.11089594E+04</pdfrwt>
<totfact> 0.16698044E+00</totfact>
</mgrwt>
</event>
<event>
 6    1  0.2415530E-005  0.1113797E+04  0.7818608E-02  0.9432075E-01
          4   -1    0    0  502    0 -0.00000000000E+00  0.00000000000E+00  0.18997552228E+04  0.18997552228E+04  0.00000000000E+00 0.  1.
         21   -1    0    0  501  502  0.00000000000E+00 -0.00000000000E+00 -0.39643140652E+03  0.39643140652E+03  0.00000000000E+00 0.  1.
    9000010    2    1    2  501    0 -0.33790071842E+03 -0.31801480743E+03  0.14510558050E+04  0.18292366647E+04  0.10125381539E+04 0.  0.
        -13    1    3    3    0    0 -0.36035426436E+03 -0.61374180758E+03  0.13308901684E+04  0.15092391639E+04  0.10566000000E+00 0.  1.
          4    1    3    3  501    0  0.22453545942E+02  0.29572700015E+03  0.12016563659E+03  0.31999750086E+03  0.00000000000E+00 0.  1.
         13    1    1    2    0    0  0.33790071842E+03  0.31801480743E+03  0.52268011275E+02  0.46694996458E+03  0.10566000000E+00 0. -1.
<mgrwt>
<rscale>  1 0.89482416E+03</rscale>
<asrwt>0</asrwt>
<pdfrwt beam="2">  1       21 0.60989448E-01 0.11137970E+04</pdfrwt>
<pdfrwt beam="1">  1        4 0.29227003E+00 0.11137970E+04</pdfrwt>
<totfact> 0.33208678E+00</totfact>
</mgrwt>
</event>
<event>
 6    1  0.2415530E-005  0.1158014E+04  0.7818608E-02  0.9332623E-01
         21   -1    0    0  501  502  0.00000000000E+00  0.00000000000E+00  0.12878287383E+04  0.12878287383E+04  0.00000000000E+00 0. -1.
          4   -1    0    0  502    0 -0.00000000000E+00 -0.00000000000E+00 -0.79257363838E+03  0.79257363838E+03  0.00000000000E+00 0.  1.
    9000010    2    1    2  501    0  0.47122544773E+03 -0.35496003742E+03 -0.19290647250E+03  0.11739717882E+04  0.99646716037E+03 0.  0.
        -13    1    3    3    0    0  0.38063550978E+03  0.13092576967E+03 -0.46074309087E+03  0.61180810342E+03  0.10566000000E+00 0.  1.
          4    1    3    3  501    0  0.90589937952E+02 -0.48588580709E+03  0.26783661837E+03  0.56216368482E+03  0.00000000000E+00 0.  1.
         13    1    1    2    0    0 -0.47122544773E+03  0.35496003742E+03  0.68816157246E+03  0.90643058848E+03  0.10566000000E+00 0. -1.
<mgrwt>
<rscale>  1 0.97834196E+03</rscale>
<asrwt>0</asrwt>
<pdfrwt beam="1">  1       21 0.19812750E+00 0.11580142E+04</pdfrwt>
<pdfrwt beam="2">  1        4 0.12193441E+00 0.11580142E+04</pdfrwt>
<totfact> 0.23153832E+00</totfact>
</mgrwt>
</event>
<event>
 6    1  0.2415530E-005  0.1086971E+04  0.7818608E-02  0.9491177E-01
         21   -1    0    0  501  502  0.00000000000E+00  0.00000000000E+00  0.10424824942E+04  0.10424824942E+04  0.00000000000E+00 0.  1.
          4   -1    0    0  502    0 -0.00000000000E+00 -0.00000000000E+00 -0.57378488347E+03  0.57378488347E+03  0.00000000000E+00 0.  1.
    9000010    2    1    2  501    0  0.46024463343E+02 -0.40264716792E+03  0.52498151720E+03  0.12071086281E+04  0.10085943950E+04 0.  0.
        -13    1    3    3    0    0  0.29055357640E+03 -0.47046605169E+03 -0.72770488314E+02  0.55772326623E+03  0.10566000000E+00 0.  1.
          4    1    3    3  501    0 -0.24452911306E+03  0.67818883775E+02  0.59775200551E+03  0.64938536188E+03  0.00000000000E+00 0.  1.
         13    1    1    2    0    0 -0.46024463343E+02  0.40264716792E+03 -0.56283906468E+02  0.40915874957E+03  0.10566000000E+00 0. -1.
<mgrwt>
<rscale>  1 0.84937463E+03</rscale>
<asrwt>0</asrwt>
<pdfrwt beam="1">  1       21 0.16038192E+00 0.10869709E+04</pdfrwt>
<pdfrwt beam="2">  1        4 0.88274597E-01 0.10869709E+04</pdfrwt>
<totfact> 0.96909681E+00</totfact>
</mgrwt>
</event>
<event>
 6    1  0.2415530E-005  0.1018404E+04  0.7818608E-02  0.9718525E-01
         21   -1    0    0  501  502  0.00000000000E+00  0.00000000000E+00  0.57641640078E+03  0.57641640078E+03  0.00000000000E+00 0.  1.
          4   -1    0    0  502    0 -0.00000000000E+00 -0.00000000000E+00 -0.67433619928E+03  0.67433619928E+03  0.00000000000E+00 0.  1.
    9000010    2    1    2  501    0 -0.21657508289E+03  0.65755587400E+02 -0.51505744203E+02  0.10197053335E+04  0.99293381531E+03 0.  0.
        -13    1    3    3    0    0 -0.44690786495E+02  0.51740020406E+03 -0.11614248132E+03  0.53215535767E+03  0.10566000000E+00 0.  1.
          4    1    3    3  501    0 -0.17188429639E+03 -0.45164461666E+03  0.64636737119E+02  0.48754997579E+03  0.00000000000E+00 0.  1.
         13    1    1    2    0    0  0.21657508289E+03 -0.65755587400E+02 -0.46414054295E+02  0.23104726660E+03  0.10566000000E+00 0. -1.
<mgrwt>
<rscale>  1 0.69924443E+03</rscale>
<asrwt>0</asrwt>
<pdfrwt beam="1">  1       21 0.88679447E-01 0.10184037E+04</pdfrwt>
<pdfrwt beam="2">  1        4 0.10374403E+00 0.10184037E+04</pdfrwt>
<totfact> 0.31130226E+01</totfact>
</mgrwt>
</event>
<event>
 6    1  0.2415530E-005  0.1054589E+04  0.7818608E-02  0.1042975E+00
         21   -1    0    0  501  502  0.00000000000E+00  0.00000000000E+00  0.10426716735E+04  0.10426716735E+04  0.00000000000E+00 0.  1.
          4   -1    0    0  502    0 -0.00000000000E+00 -0.00000000000E+00 -0.29799278666E+03  0.29799278666E+03  0.00000000000E+00 0.  1.
    9000010    2    1    2  501    0  0.22197685920E+02 -0.25181059534E+01  0.77083139549E+03  0.13062690681E+04  0.10543522941E+04 0.  0.
        -13    1    3    3    0    0  0.87048778804E+02 -0.50963399355E+03  0.24244266266E+03  0.57103656023E+03  0.10566000000E+00 0.  1.
          4    1    3    3  501    0 -0.64851092884E+02  0.50711588760E+03  0.52838873282E+03  0.73523250790E+03  0.00000000000E+00 0.  1.
         13    1    1    2    0    0 -0.22197685920E+02  0.25181059534E+01 -0.26152508662E+02  0.34395392004E+02  0.10566000000E+00 0. -1.
<mgrwt>
<rscale>  1 0.40233211E+03</rscale>
<asrwt>0</asrwt>
<pdfrwt beam="1">  1       21 0.16041103E+00 0.10545889E+04</pdfrwt>
<pdfrwt beam="2">  1        4 0.45845044E-01 0.10545889E+04</pdfrwt>
<totfact> 0.41260760E+01</totfact>
</mgrwt>
</event>
<event>
 6    1  0.2415530E-005  0.1123281E+04  0.7818608E-02  0.9393954E-01
          4   -1    0    0  502    0 -0.00000000000E+00  0.00000000000E+00  0.17934930616E+04  0.17934930616E+04  0.00000000000E+00 0.  1.
         21   -1    0    0  501  502  0.00000000000E+00 -0.00000000000E+00 -0.80775090200E+03  0.80775090200E+03  0.00000000000E+00 0. -1.
    9000010    2    1    2  501    0  0.21753042889E+02 -0.51775654527E+03  0.14981397865E+04  0.18724803707E+04  0.99660166747E+03 0.  0.
        -13    1    3    3    0    0 -0.32733294531E+02 -0.76642203725E+03  0.71373943630E+03  0.10478063761E+04  0.10566000000E+00 0.  1.
          4    1    3    3  501    0  0.54486337421E+02  0.24866549198E+03  0.78440035025E+03  0.82467399458E+03  0.00000000000E+00 0.  1.
         13    1    1    2    0    0 -0.21753042889E+02  0.51775654527E+03 -0.51239762695E+03  0.72876359288E+03  0.10566000000E+00 0. -1.
<mgrwt>
<rscale>  1 0.92574947E+03</rscale>
<asrwt>0</asrwt>
<pdfrwt beam="2">  1       21 0.12426937E+00 0.11232809E+04</pdfrwt>
<pdfrwt beam="1">  1        4 0.27592201E+00 0.11232809E+04</pdfrwt>
<totfact> 0.75110307E-01</totfact>
</mgrwt>
</event>
<event>
 6    1  0.2415530E-005  0.1057336E+04  0.7818608E-02  0.9564666E-01
         21   -1    0    0  501  502  0.00000000000E+00  0.00000000000E+00  0.70434879969E+03  0.70434879969E+03  0.00000000000E+00 0.  1.
          4   -1    0    0  502    0 -0.00000000000E+00 -0.00000000000E+00 -0.72032103095E+03  0.72032103095E+03  0.00000000000E+00 0.  1.
    9000010    2    1    2  501    0  0.23837143422E+03  0.24383885747E+03  0.10572368712E+03  0.10626087353E+04  0.10008403955E+04 0.  0.
        -13    1    3    3    0    0 -0.38079511715E+03 -0.23627786663E+02  0.12523921864E+02  0.38173296076E+03  0.10566000000E+00 0.  1.
          4    1    3    3  501    0  0.61916655137E+03  0.26746664414E+03  0.93199765259E+02  0.68087577450E+03  0.00000000000E+00 0.  1.
         13    1    1    2    0    0 -0.23837143422E+03 -0.24383885747E+03 -0.12169591838E+03  0.36206109537E+03  0.10566000000E+00 0. -1.
<mgrwt>
<rscale>  1 0.79679606E+03</rscale>
<asrwt>0</asrwt>
<pdfrwt beam="1">  1       21 0.10836135E+00 0.10573362E+04</pdfrwt>
<pdfrwt beam="2">  1        4 0.11081862E+00 0.10573362E+04</pdfrwt>
<totfact> 0.16084873E+01</totfact>
</mgrwt>
</event>
<event>
 6    1  0.2415530E-005  0.1081096E+04  0.7818608E-02  0.9467963E-01
         21   -1    0    0  501  502  0.00000000000E+00  0.00000000000E+00  0.15815870271E+04  0.15815870271E+04  0.00000000000E+00 0.  1.
          4   -1    0    0  502    0 -0.00000000000E+00 -0.00000000000E+00 -0.40090226125E+03  0.40090226125E+03  0.00000000000E+00 0.  1.
    9000010    2    1    2  501    0  0.44239634912E+03 -0.63458171165E+02  0.10721220990E+04  0.15225682810E+04  0.98439164257E+03 0.  0.
        -13    1    3    3    0    0  0.23248252245E+03  0.36642258839E+03  0.10938942072E+03  0.44752619259E+03  0.10566000000E+00 0.  1.
          4    1    3    3  501    0  0.20991382667E+03 -0.42988075955E+03  0.96273267825E+03  0.10750420884E+04  0.00000000000E+00 0.  1.
         13    1    1    2    0    0 -0.44239634912E+03  0.63458171165E+02  0.10856266687E+03  0.45992100735E+03  0.10566000000E+00 0. -1.
<mgrwt>
<rscale>  1 0.86687545E+03</rscale>
<asrwt>0</asrwt>
<pdfrwt beam="1">  1       21 0.24332108E+00 0.10810959E+04</pdfrwt>
<pdfrwt beam="2">  1        4 0.61677272E-01 0.10810959E+04</pdfrwt>
<totfact> 0.58045762E+00</totfact>
</mgrwt>
</event>
<event>
 6    1  0.2415530E-005  0.1002486E+04  0.7818608E-02  0.1006650E+00
          4   -1    0    0  502    0 -0.00000000000E+00  0.00000000000E+00  0.52795226106E+03  0.52795226106E+03  0.00000000000E+00 0.  1.
         21   -1    0    0  501  502  0.00000000000E+00 -0.00000000000E+00 -0.58565854911E+03  0.58565854911E+03  0.00000000000E+00 0.  1.
    9000010    2    1    2  501    0  0.45096412169E+02  0.62790877772E+02 -0.12610828560E+03  0.10103866601E+04  0.99950063656E+03 0.  0.
        -13    1    3    3    0    0 -0.19117432678E+03 -0.30187343596E+03  0.24968397201E+03  0.43590972873E+03  0.10566000000E+00 0.  1.
          4    1    3    3  501    0  0.23627073895E+03  0.36466431374E+03 -0.37579225761E+03  0.57447693137E+03  0.00000000000E+00 0.  1.
         13    1    1    2    0    0 -0.45096412169E+02 -0.62790877772E+02  0.68401997554E+02  0.10322415006E+03  0.10566000000E+00 0. -1.
<mgrwt>
<rscale>  1 0.52827928E+03</rscale>
<asrwt>0</asrwt>
<pdfrwt beam="2">  1       21 0.90101315E-01 0.10024859E+04</pdfrwt>
<pdfrwt beam="1">  1        4 0.81223425E-01 0.10024859E+04</pdfrwt>
<totfact> 0.53521314E+01</totfact>
</mgrwt>
</event>
<event>
 6    1  0.2415530E-005  0.1085510E+04  0.7818608E-02  0.9542592E-01
         21   -1    0    0  501  502  0.00000000000E+00  0.00000000000E+00  0.28264936328E+04  0.28264936328E+04  0.00000000000E+00 0.  1.
          4   -1    0    0  502    0 -0.00000000000E+00 -0.00000000000E+00 -0.18315139350E+03  0.18315139350E+03  0.00000000000E+00 0.  1.
    9000010    2    1    2  501    0  0.23294026943E+03  0.24784933356E+03  0.21748642360E+04  0.24307131547E+04  0.10308450582E+04 0.  0.
        -13    1    3    3    0    0  0.54730252895E+02 -0.11939722268E+03 -0.70140872703E+02  0.14889879299E+03  0.10566000000E+00 0.  1.
          4    1    3    3  501    0  0.17821001653E+03  0.36724655624E+03  0.22450051087E+04  0.22818143617E+04  0.00000000000E+00 0.  1.
         13    1    1    2    0    0 -0.23294026943E+03 -0.24784933356E+03  0.46847800334E+03  0.57893187168E+03  0.10566000000E+00 0. -1.
<mgrwt>
<rscale>  1 0.81215248E+03</rscale>
<asrwt>0</asrwt>
<pdfrwt beam="1">  1       21 0.43484514E+00 0.10855100E+04</pdfrwt>
<pdfrwt beam="2">  1        4 0.28177139E-01 0.10855100E+04</pdfrwt>
<totfact> 0.17330420E+00</totfact>
</mgrwt>
</event>
<event>
 6    1  0.2415530E-005  0.1010270E+04  0.7818608E-02  0.9953202E-01
          4   -1    0    0  502    0 -0.00000000000E+00  0.00000000000E+00  0.34441239073E+03  0.34441239073E+03  0.00000000000E+00 0.  1.
         21   -1    0    0  501  502  0.00000000000E+00 -0.00000000000E+00 -0.97514764200E+03  0.97514764200E+03  0.00000000000E+00 0.  1.
    9000010    2    1    2  501    0 -0.51861241505E+02  0.94589820047E+02 -0.66127287012E+03  0.12074467875E+04  0.10044944567E+04 0.  0.
        -13    1    3    3    0    0  0.42771719004E+03  0.22760259360E+03 -0.18509910547E+03  0.51865848617E+03  0.10566000000E+00 0.  1.
          4    1    3    3  501    0 -0.47957843154E+03 -0.13301277355E+03 -0.47617376465E+03  0.68878830134E+03  0.00000000000E+00 0.  1.
         13    1    1    2    0    0  0.51861241505E+02 -0.94589820047E+02  0.30537618846E+02  0.11211324523E+03  0.10566000000E+00 0. -1.
<mgrwt>
<rscale>  1 0.57750735E+03</rscale>
<asrwt>0</asrwt>
<pdfrwt beam="2">  1       21 0.15002271E+00 0.10102702E+04</pdfrwt>
<pdfrwt beam="1">  1        4 0.52986522E-01 0.10102702E+04</pdfrwt>
<totfact> 0.36906740E+01</totfact>
</mgrwt>
</event>
<event>
 6    1  0.2415530E-005  0.1009355E+04  0.7818608E-02  0.1063671E+00
          4   -1    0    0  502    0 -0.00000000000E+00  0.00000000000E+00  0.37411716292E+03  0.37411716292E+03  0.00000000000E+00 0.  1.
         21   -1    0    0  501  502  0.00000000000E+00 -0.00000000000E+00 -0.88264981718E+03  0.88264981718E+03  0.00000000000E+00 0.  1.
    9000010    2    1    2  501    0  0.12750779316E+01  0.14112727796E+02 -0.59330730010E+03  0.11708161415E+04  0.10092552155E+04 0.  0.
        -13    1    3    3    0    0 -0.44880296718E+03 -0.21697070342E+03 -0.35221901400E+03  0.61037581414E+03  0.10566000000E+00 0.  1.
          4    1    3    3  501    0  0.45007804511E+03  0.23108343122E+03 -0.24108828609E+03  0.56044032739E+03  0.00000000000E+00 0.  1.
         13    1    1    2    0    0 -0.12750779316E+01 -0.14112727796E+02  0.84774645834E+02  0.85950838564E+02  0.10566000000E+00 0. -1.
<mgrwt>
<rscale>  1 0.34744011E+03</rscale>
<asrwt>0</asrwt>
<pdfrwt beam="2">  1       21 0.13579228E+00 0.10093547E+04</pdfrwt>
<pdfrwt beam="1">  1        4 0.57556487E-01 0.10093547E+04</pdfrwt>
<totfact> 0.40620391E+01</totfact>
</mgrwt>
</event>
<event>
 6    1  0.2415530E-005  0.1011015E+04  0.7818608E-02  0.9649088E-01
         21   -1    0    0  501  502  0.00000000000E+00  0.00000000000E+00  0.20314153222E+04  0.20314153222E+04  0.00000000000E+00 0.  1.
          4   -1    0    0  502    0 -0.00000000000E+00 -0.00000000000E+00 -0.30621823932E+03  0.30621823932E+03  0.00000000000E+00 0.  1.
    9000010    2    1    2  501    0  0.24334988447E+03 -0.16179303601E+03  0.17735077606E+04  0.20414409122E+04  0.96786107907E+03 0.  0.
        -13    1    3    3    0    0  0.34629839413E+03  0.23711722132E+03  0.31196406658E+03  0.52294239112E+03  0.10566000000E+00 0.  1.
          4    1    3    3  501    0 -0.10294850967E+03 -0.39891025733E+03  0.14615436940E+04  0.15184985211E+04  0.00000000000E+00 0.  1.
         13    1    1    2    0    0 -0.24334988447E+03  0.16179303601E+03 -0.48310677703E+02  0.29619264933E+03  0.10566000000E+00 0. -1.
<mgrwt>
<rscale>  1 0.74130679E+03</rscale>
<asrwt>0</asrwt>
<pdfrwt beam="1">  1       21 0.31252543E+00 0.10110149E+04</pdfrwt>
<pdfrwt beam="2">  1        4 0.47110500E-01 0.10110149E+04</pdfrwt>
<totfact> 0.38452037E+00</totfact>
</mgrwt>
</event>
<event>
 6    1  0.2415530E-005  0.1065064E+04  0.7818608E-02  0.9710914E-01
         21   -1    0    0  501  502  0.00000000000E+00  0.00000000000E+00  0.49101413312E+03  0.49101413312E+03  0.00000000000E+00 0.  1.
          4   -1    0    0  502    0 -0.00000000000E+00 -0.00000000000E+00 -0.12800655285E+04  0.12800655285E+04  0.00000000000E+00 0.  1.
    9000010    2    1    2  501    0 -0.17016895485E+03  0.11063876740E+03 -0.11986479115E+03  0.10717877823E+04  0.10455443903E+04 0.  0.
        -13    1    3    3    0    0  0.90335910365E+02 -0.21831092844E+03 -0.46950637475E+03  0.52560107046E+03  0.10566000000E+00 0.  1.
          4    1    3    3  501    0 -0.26050486522E+03  0.32894969585E+03  0.34964158359E+03  0.54618671183E+03  0.00000000000E+00 0.  1.
         13    1    1    2    0    0  0.17016895485E+03 -0.11063876740E+03 -0.66918660427E+03  0.69929187937E+03  0.10566000000E+00 0. -1.
<mgrwt>
<rscale>  1 0.70370700E+03</rscale>
<asrwt>0</asrwt>
<pdfrwt beam="1">  1       21 0.75540637E-01 0.10650641E+04</pdfrwt>
<pdfrwt beam="2">  1        4 0.19693316E+00 0.10650641E+04</pdfrwt>
<totfact> 0.81624886E+00</totfact>
</mgrwt>
</event>
<event>
 6    1  0.2415530E-005  0.1017742E+04  0.7818608E-02  0.9834977E-01
         21   -1    0    0  501  502  0.00000000000E+00  0.00000000000E+00  0.27523658650E+03  0.27523658650E+03  0.00000000000E+00 0.  1.
          4   -1    0    0  502    0 -0.00000000000E+00 -0.00000000000E+00 -0.13666713913E+04  0.13666713913E+04  0.00000000000E+00 0.  1.
    9000010    2    1    2  501    0 -0.13950554849E+03  0.66203814701E+02 -0.74087731579E+03  0.12588475290E+04  0.10059588268E+04 0.  0.
        -13    1    3    3    0    0 -0.66034725564E+02  0.24647699399E+03  0.18343306518E+03  0.31425975580E+03  0.10566000000E+00 0.  1.
          4    1    3    3  501    0 -0.73470822927E+02 -0.18027317929E+03 -0.92431038097E+03  0.94458777324E+03  0.00000000000E+00 0.  1.
         13    1    1    2    0    0  0.13950554849E+03 -0.66203814701E+02 -0.35055748906E+03  0.38306044881E+03  0.10566000000E+00 0. -1.
<mgrwt>
<rscale>  1 0.63518794E+03</rscale>
<asrwt>0</asrwt>
<pdfrwt beam="1">  1       21 0.42344091E-01 0.10177416E+04</pdfrwt>
<pdfrwt beam="2">  1        4 0.21025713E+00 0.10177416E+04</pdfrwt>
<totfact> 0.24121390E+01</totfact>
</mgrwt>
</event>
<event>
 6    1  0.2415530E-005  0.8688716E+03  0.7818608E-02  0.9773700E-01
          4   -1    0    0  502    0 -0.00000000000E+00  0.00000000000E+00  0.30334779810E+03  0.30334779810E+03  0.00000000000E+00 0.  1.
         21   -1    0    0  501  502  0.00000000000E+00 -0.00000000000E+00 -0.14326636188E+04  0.14326636188E+04  0.00000000000E+00 0.  1.
    9000010    2    1    2  501    0  0.30321512218E+03  0.11499765666E+02 -0.11388222924E+04  0.14324294032E+04  0.81416590841E+03 0.  0.
        -13    1    3    3    0    0  0.25520765765E+03 -0.38618838846E+03 -0.53047380606E+03  0.70404182403E+03  0.10566000000E+00 0.  1.
          4    1    3    3  501    0  0.48007464530E+02  0.39768815413E+03 -0.60834848636E+03  0.72838757913E+03  0.00000000000E+00 0.  1.
         13    1    1    2    0    0 -0.30321512218E+03 -0.11499765666E+02  0.95064716724E+01  0.30358201379E+03  0.10566000000E+00 0. -1.
<mgrwt>
<rscale>  1 0.66793228E+03</rscale>
<asrwt>0</asrwt>
<pdfrwt beam="2">  1       21 0.22040978E+00 0.86887156E+03</pdfrwt>
<pdfrwt beam="1">  1        4 0.46668893E-01 0.86887156E+03</pdfrwt>
<totfact> 0.15303453E+01</totfact>
</mgrwt>
</event>
<event>
 6    1  0.2415530E-005  0.1051692E+04  0.7818608E-02  0.9664430E-01
          4   -1    0    0  502    0 -0.00000000000E+00  0.00000000000E+00  0.29898777390E+03  0.29898777390E+03  0.00000000000E+00 0.  1.
         21   -1    0    0  501  502  0.00000000000E+00 -0.00000000000E+00 -0.15241072847E+04  0.15241072847E+04  0.00000000000E+00 0.  1.
    9000010    2    1    2  501    0 -0.22239181434E+03  0.10626806823E+03 -0.11648163703E+04  0.15693481348E+04  0.10224017655E+04 0.  0.
        -13    1    3    3    0    0 -0.47463887757E+03  0.41478372076E+03 -0.54935077324E+03  0.83613030225E+03  0.10566000000E+00 0.  1.
          4    1    3    3  501    0  0.25224706323E+03 -0.30851565253E+03 -0.61546559710E+03  0.73321783256E+03  0.00000000000E+00 0.  1.
         13    1    1    2    0    0  0.22239181434E+03 -0.10626806823E+03 -0.60303140430E+02  0.25374692377E+03  0.10566000000E+00 0. -1.
<mgrwt>
<rscale>  1 0.73174655E+03</rscale>
<asrwt>0</asrwt>
<pdfrwt beam="2">  1       21 0.23447804E+00 0.10516922E+04</pdfrwt>
<pdfrwt beam="1">  1        4 0.45998119E-01 0.10516922E+04</pdfrwt>
<totfact> 0.12435228E+01</totfact>
</mgrwt>
</event>
<event>
 6    1  0.2415530E-005  0.1080269E+04  0.7818608E-02  0.9486942E-01
         21   -1    0    0  501  502  0.00000000000E+00  0.00000000000E+00  0.12508809500E+04  0.12508809500E+04  0.00000000000E+00 0. -1.
          4   -1    0    0  502    0 -0.00000000000E+00 -0.00000000000E+00 -0.45796755860E+03  0.45796755860E+03  0.00000000000E+00 0.  1.
    9000010    2    1    2  501    0 -0.41855344151E+03 -0.20118468334E+02  0.67392348337E+03  0.12732450817E+04  0.99568491021E+03 0.  0.
        -13    1    3    3    0    0 -0.38834368120E+03  0.39067033167E+03  0.89221696165E+02  0.55802745901E+03  0.10566000000E+00 0.  1.
          4    1    3    3  501    0 -0.30209760310E+02 -0.41078880000E+03  0.58470178721E+03  0.71521762268E+03  0.00000000000E+00 0.  1.
         13    1    1    2    0    0  0.41855344151E+03  0.20118468334E+02  0.11898990802E+03  0.43560342692E+03  0.10566000000E+00 0. -1.
<mgrwt>
<rscale>  1 0.85253421E+03</rscale>
<asrwt>0</asrwt>
<pdfrwt beam="1">  1       21 0.19244322E+00 0.10802686E+04</pdfrwt>
<pdfrwt beam="2">  1        4 0.70456548E-01 0.10802686E+04</pdfrwt>
<totfact> 0.94457638E+00</totfact>
</mgrwt>
</event>
<event>
 6    1  0.2415530E-005  0.1090609E+04  0.7818608E-02  0.9471241E-01
         21   -1    0    0  501  502  0.00000000000E+00  0.00000000000E+00  0.26336606544E+04  0.26336606544E+04  0.00000000000E+00 0.  1.
          4   -1    0    0  502    0 -0.00000000000E+00 -0.00000000000E+00 -0.21998581572E+03  0.21998581572E+03  0.00000000000E+00 0.  1.
    9000010    2    1    2  501    0 -0.32286448873E+03  0.28451012985E+03  0.17845559402E+04  0.20914272814E+04  0.10021180957E+04 0.  0.
        -13    1    3    3    0    0 -0.29225766515E+03  0.36868085251E+03  0.18931110025E+04  0.19506945924E+04  0.10566000000E+00 0.  1.
          4    1    3    3  501    0 -0.30606823584E+02 -0.84170722663E+02 -0.10855506230E+03  0.14073268901E+03  0.00000000000E+00 0.  1.
         13    1    1    2    0    0  0.32286448873E+03 -0.28451012985E+03  0.62911889850E+03  0.76221918874E+03  0.10566000000E+00 0. -1.
<mgrwt>
<rscale>  1 0.86437718E+03</rscale>
<asrwt>0</asrwt>
<pdfrwt beam="1">  1       21 0.40517854E+00 0.10906091E+04</pdfrwt>
<pdfrwt beam="2">  1        4 0.33843974E-01 0.10906091E+04</pdfrwt>
<totfact> 0.19066254E+00</totfact>
</mgrwt>
</event>
<event>
 6    1  0.2415530E-005  0.1022580E+04  0.7818608E-02  0.9752612E-01
          4   -1    0    0  502    0 -0.00000000000E+00  0.00000000000E+00  0.45330500526E+03  0.45330500526E+03  0.00000000000E+00 0.  1.
         21   -1    0    0  501  502  0.00000000000E+00 -0.00000000000E+00 -0.17634237790E+04  0.17634237790E+04  0.00000000000E+00 0.  1.
    9000010    2    1    2  501    0 -0.10481315568E+03 -0.16985886829E+03 -0.15794043075E+04  0.18815384763E+04  0.10029113810E+04 0.  0.
        -13    1    3    3    0    0  0.15000190250E+03  0.88637185279E+02 -0.14998646476E+04  0.15099506924E+04  0.10566000000E+00 0.  1.
          4    1    3    3  501    0 -0.25481505818E+03 -0.25849605357E+03 -0.79539659982E+02  0.37158778384E+03  0.00000000000E+00 0.  1.
         13    1    1    2    0    0  0.10481315568E+03  0.16985886829E+03  0.26928553376E+03  0.33519030803E+03  0.10566000000E+00 0. -1.
<mgrwt>
<rscale>  1 0.67968835E+03</rscale>
<asrwt>0</asrwt>
<pdfrwt beam="2">  1       21 0.27129597E+00 0.10225796E+04</pdfrwt>
<pdfrwt beam="1">  1        4 0.69739230E-01 0.10225796E+04</pdfrwt>
<totfact> 0.29683790E+00</totfact>
</mgrwt>
</event>
<event>
 6    1  0.2415530E-005  0.1160946E+04  0.7818608E-02  0.9355902E-01
          4   -1    0    0  502    0 -0.00000000000E+00  0.00000000000E+00  0.17572045621E+04  0.17572045621E+04  0.00000000000E+00 0.  1.
         21   -1    0    0  501  502  0.00000000000E+00 -0.00000000000E+00 -0.41079858481E+03  0.41079858481E+03  0.00000000000E+00 0. -1.
    9000010    2    1    2  501    0  0.79988038304E+02 -0.53222143181E+03  0.93079736767E+03  0.14880117747E+04  0.10286581372E+04 0.  0.
        -13    1    3    3    0    0  0.53356746749E+03 -0.36777566814E+03  0.36251029704E+03  0.74254084808E+03  0.10566000000E+00 0.  1.
          4    1    3    3  501    0 -0.45357942919E+03 -0.16444576367E+03  0.56828707063E+03  0.74547092660E+03  0.00000000000E+00 0.  1.
         13    1    1    2    0    0 -0.79988038304E+02  0.53222143181E+03  0.41560860961E+03  0.67999137222E+03  0.10566000000E+00 0. -1.
<mgrwt>
<rscale>  1 0.95795404E+03</rscale>
<asrwt>0</asrwt>
<pdfrwt beam="2">  1       21 0.63199783E-01 0.11609459E+04</pdfrwt>
<pdfrwt beam="1">  1        4 0.27033916E+00 0.11609459E+04</pdfrwt>
<totfact> 0.41629813E+00</totfact>
</mgrwt>
</event>
<event>
 6    1  0.2415530E-005  0.1028245E+04  0.7818608E-02  0.9710667E-01
         21   -1    0    0  501  502  0.00000000000E+00  0.00000000000E+00  0.63817261294E+03  0.63817261294E+03  0.00000000000E+00 0.  1.
          4   -1    0    0  502    0 -0.00000000000E+00 -0.00000000000E+00 -0.68245236912E+03  0.68245236912E+03  0.00000000000E+00 0.  1.
    9000010    2    1    2  501    0 -0.11810655680E+03 -0.19239545800E+03 -0.19849055884E+03  0.10472275537E+04  0.10031559581E+04 0.  0.
        -13    1    3    3    0    0 -0.42062875944E+03 -0.29155557374E+03  0.18913535688E+03  0.54562386333E+03  0.10566000000E+00 0.  1.
          4    1    3    3  501    0  0.30252220264E+03  0.99160115736E+02 -0.38762591572E+03  0.50160369036E+03  0.00000000000E+00 0.  1.
         13    1    1    2    0    0  0.11810655680E+03  0.19239545800E+03  0.15421080267E+03  0.27339742838E+03  0.10566000000E+00 0. -1.
<mgrwt>
<rscale>  1 0.70385240E+03</rscale>
<asrwt>0</asrwt>
<pdfrwt beam="1">  1       21 0.98180402E-01 0.10282446E+04</pdfrwt>
<pdfrwt beam="2">  1        4 0.10499267E+00 0.10282446E+04</pdfrwt>
<totfact> 0.23575202E+01</totfact>
</mgrwt>
</event>
<event>
 6    1  0.2415530E-005  0.1101382E+04  0.7818608E-02  0.9468730E-01
          4   -1    0    0  502    0 -0.00000000000E+00  0.00000000000E+00  0.92226455369E+03  0.92226455369E+03  0.00000000000E+00 0.  1.
         21   -1    0    0  501  502  0.00000000000E+00 -0.00000000000E+00 -0.63415903696E+03  0.63415903696E+03  0.00000000000E+00 0.  1.
    9000010    2    1    2  501    0 -0.41630225541E+03  0.66247333599E+02  0.14309532448E+03  0.11106386155E+04  0.10175193292E+04 0.  0.
        -13    1    3    3    0    0 -0.35799442393E+03 -0.32808733196E+03 -0.25397279894E+03  0.54799954263E+03  0.10566000000E+00 0.  1.
          4    1    3    3  501    0 -0.58307831484E+02  0.39433466556E+03  0.39706812341E+03  0.56263907286E+03  0.00000000000E+00 0.  1.
         13    1    1    2    0    0  0.41630225541E+03 -0.66247333599E+02  0.14501019225E+03  0.44578497517E+03  0.10566000000E+00 0. -1.
<mgrwt>
<rscale>  1 0.86628983E+03</rscale>
<asrwt>0</asrwt>
<pdfrwt beam="2">  1       21 0.97562928E-01 0.11013818E+04</pdfrwt>
<pdfrwt beam="1">  1        4 0.14188686E+00 0.11013818E+04</pdfrwt>
<totfact> 0.11089686E+01</totfact>
</mgrwt>
</event>
<event>
 6    1  0.2415530E-005  0.9959569E+03  0.7818608E-02  0.9850896E-01
          4   -1    0    0  502    0 -0.00000000000E+00  0.00000000000E+00  0.76323581510E+03  0.76323581510E+03  0.00000000000E+00 0.  1.
         21   -1    0    0  501  502  0.00000000000E+00 -0.00000000000E+00 -0.65466800607E+03  0.65466800607E+03  0.00000000000E+00 0.  1.
    9000010    2    1    2  501    0 -0.73194941180E+01 -0.15628141771E+03 -0.24985809173E+03  0.10268199504E+04  0.98359172828E+03 0.  0.
        -13    1    3    3    0    0 -0.42204499917E+03 -0.29830590698E+03  0.10557652507E+02  0.51693313945E+03  0.10566000000E+00 0.  1.
          4    1    3    3  501    0  0.41472550506E+03  0.14202448928E+03 -0.26041574423E+03  0.50988681091E+03  0.00000000000E+00 0.  1.
         13    1    1    2    0    0  0.73194941180E+01  0.15628141771E+03  0.35842590075E+03  0.39108387081E+03  0.10566000000E+00 0. -1.
<mgrwt>
<rscale>  1 0.62701253E+03</rscale>
<asrwt>0</asrwt>
<pdfrwt beam="2">  1       21 0.10071815E+00 0.99595690E+03</pdfrwt>
<pdfrwt beam="1">  1        4 0.11742089E+00 0.99595690E+03</pdfrwt>
<totfact> 0.16851074E+01</totfact>
</mgrwt>
</event>
<event>
 6    1  0.2415530E-005  0.9915253E+03  0.7818608E-02  0.1013518E+00
          4   -1    0    0  502    0 -0.00000000000E+00  0.00000000000E+00  0.33084944509E+03  0.33084944509E+03  0.00000000000E+00 0.  1.
         21   -1    0    0  501  502  0.00000000000E+00 -0.00000000000E+00 -0.12956939362E+04  0.12956939362E+04  0.00000000000E+00 0.  1.
    9000010    2    1    2  501    0  0.58236771117E+02 -0.28032003880E+02 -0.10974494515E+04  0.14790259199E+04  0.98941652422E+03 0.  0.
        -13    1    3    3    0    0 -0.26247702090E+03 -0.25689965885E+02  0.66261410081E+02  0.27192783322E+03  0.10566000000E+00 0.  1.
          4    1    3    3  501    0  0.32071379202E+03 -0.23420379955E+01 -0.11637108616E+04  0.12070980867E+04  0.00000000000E+00 0.  1.
         13    1    1    2    0    0 -0.58236771117E+02  0.28032003880E+02  0.13260496035E+03  0.14751746143E+03  0.10566000000E+00 0. -1.
<mgrwt>
<rscale>  1 0.50100278E+03</rscale>
<asrwt>0</asrwt>
<pdfrwt beam="2">  1       21 0.19933753E+00 0.99152528E+03</pdfrwt>
<pdfrwt beam="1">  1        4 0.50899914E-01 0.99152528E+03</pdfrwt>
<totfact> 0.17368559E+01</totfact>
</mgrwt>
</event>
<event>
 6    1  0.2415530E-005  0.1063996E+04  0.7818608E-02  0.9588188E-01
         21   -1    0    0  501  502  0.00000000000E+00  0.00000000000E+00  0.86883836912E+03  0.86883836912E+03  0.00000000000E+00 0.  1.
          4   -1    0    0  502    0 -0.00000000000E+00 -0.00000000000E+00 -0.65457734536E+03  0.65457734536E+03  0.00000000000E+00 0.  1.
    9000010    2    1    2  501    0 -0.18990953147E+03  0.24325380047E+03  0.42923581271E+03  0.11473143816E+04  0.10182577599E+04 0.  0.
        -13    1    3    3    0    0 -0.46215917410E+03  0.15753312825E+03 -0.14220412667E+03  0.50855659814E+03  0.10566000000E+00 0.  1.
          4    1    3    3  501    0  0.27224964263E+03  0.85720672218E+02  0.57143993938E+03  0.63875778341E+03  0.00000000000E+00 0.  1.
         13    1    1    2    0    0  0.18990953147E+03 -0.24325380047E+03 -0.21497478895E+03  0.37610133293E+03  0.10566000000E+00 0. -1.
<mgrwt>
<rscale>  1 0.78082952E+03</rscale>
<asrwt>0</asrwt>
<pdfrwt beam="1">  1       21 0.13366744E+00 0.10639957E+04</pdfrwt>
<pdfrwt beam="2">  1        4 0.10070421E+00 0.10639957E+04</pdfrwt>
<totfact> 0.11767307E+01</totfact>
</mgrwt>
</event>
<event>
 6    1  0.2415530E-005  0.1017871E+04  0.7818608E-02  0.9811054E-01
          4   -1    0    0  502    0 -0.00000000000E+00  0.00000000000E+00  0.41486582603E+03  0.41486582603E+03  0.00000000000E+00 0.  1.
         21   -1    0    0  501  502  0.00000000000E+00 -0.00000000000E+00 -0.10676340795E+04  0.10676340795E+04  0.00000000000E+00 0.  1.
    9000010    2    1    2  501    0  0.14239376225E+03  0.87085597889E+02 -0.77188203653E+03  0.12774438416E+04  0.10040921299E+04 0.  0.
        -13    1    3    3    0    0  0.17578926325E+03  0.53382876089E+03 -0.35015458994E+03  0.66218068459E+03  0.10566000000E+00 0.  1.
          4    1    3    3  501    0 -0.33395501004E+02 -0.44674316300E+03 -0.42172744659E+03  0.61526315702E+03  0.00000000000E+00 0.  1.
         13    1    1    2    0    0 -0.14239376225E+03 -0.87085597889E+02  0.11911378303E+03  0.20505606394E+03  0.10566000000E+00 0. -1.
<mgrwt>
<rscale>  1 0.64772687E+03</rscale>
<asrwt>0</asrwt>
<pdfrwt beam="2">  1       21 0.16425140E+00 0.10178708E+04</pdfrwt>
<pdfrwt beam="1">  1        4 0.63825512E-01 0.10178708E+04</pdfrwt>
<totfact> 0.19051507E+01</totfact>
</mgrwt>
</event>
<event>
 6    1  0.2415530E-005  0.1506874E+04  0.7818608E-02  0.8953835E-01
          4   -1    0    0  502    0 -0.00000000000E+00  0.00000000000E+00  0.77005387124E+03  0.77005387124E+03  0.00000000000E+00 0.  1.
         21   -1    0    0  501  502  0.00000000000E+00 -0.00000000000E+00 -0.22470415276E+04  0.22470415276E+04  0.00000000000E+00 0. -1.
    9000010    2    1    2  501    0  0.75651572216E+03  0.82950245703E+03 -0.79928082523E+03  0.17057308712E+04  0.10051256655E+04 0.  0.
        -13    1    3    3    0    0  0.93875099555E+03  0.90828241337E+03 -0.66240304800E+03  0.14645846453E+04  0.10566000000E+00 0.  1.
          4    1    3    3  501    0 -0.18223527339E+03 -0.78779956334E+02 -0.13687777723E+03  0.24114622594E+03  0.00000000000E+00 0.  1.
         13    1    1    2    0    0 -0.75651572216E+03 -0.82950245703E+03 -0.67770683114E+03  0.13113645276E+04  0.10566000000E+00 0. -1.
<mgrwt>
<rscale>  1 0.13999767E+04</rscale>
<asrwt>0</asrwt>
<pdfrwt beam="2">  1       21 0.34569870E+00 0.15068736E+04</pdfrwt>
<pdfrwt beam="1">  1        4 0.11846983E+00 0.15068736E+04</pdfrwt>
<totfact> 0.26578395E-01</totfact>
</mgrwt>
</event>
<event>
 6    1  0.2415530E-005  0.1028279E+04  0.7818608E-02  0.9782130E-01
          4   -1    0    0  502    0 -0.00000000000E+00  0.00000000000E+00  0.14115195054E+04  0.14115195054E+04  0.00000000000E+00 0.  1.
         21   -1    0    0  501  502  0.00000000000E+00 -0.00000000000E+00 -0.26876332997E+03  0.26876332997E+03  0.00000000000E+00 0.  1.
    9000010    2    1    2  501    0  0.26617502251E+02 -0.17603885928E+03  0.10807097571E+04  0.14917412203E+04  0.10127487931E+04 0.  0.
        -13    1    3    3    0    0 -0.47470126439E+02  0.42250625650E+03  0.44550598060E+03  0.61582508848E+03  0.10566000000E+00 0.  1.
          4    1    3    3  501    0  0.74087628690E+02 -0.59854511578E+03  0.63520377650E+03  0.87591613184E+03  0.00000000000E+00 0.  1.
         13    1    1    2    0    0 -0.26617502251E+02  0.17603885928E+03  0.62046418277E+02  0.18854161500E+03  0.10566000000E+00 0. -1.
<mgrwt>
<rscale>  1 0.66330407E+03</rscale>
<asrwt>0</asrwt>
<pdfrwt beam="2">  1       21 0.41348205E-01 0.10282793E+04</pdfrwt>
<pdfrwt beam="1">  1        4 0.21715684E+00 0.10282793E+04</pdfrwt>
<totfact> 0.22867519E+01</totfact>
</mgrwt>
</event>
<event>
 6    1  0.2415530E-005  0.9984781E+03  0.7818608E-02  0.1013704E+00
         21   -1    0    0  501  502  0.00000000000E+00  0.00000000000E+00  0.38656385057E+03  0.38656385057E+03  0.00000000000E+00 0.  1.
          4   -1    0    0  502    0 -0.00000000000E+00 -0.00000000000E+00 -0.85533659711E+03  0.85533659711E+03  0.00000000000E+00 0.  1.
    9000010    2    1    2  501    0  0.15454511049E+02 -0.61002300338E+02 -0.54937903890E+03  0.11396384895E+04  0.99649306863E+03 0.  0.
        -13    1    3    3    0    0  0.49388300431E+02 -0.23937672630E+03  0.23226880808E+03  0.33717833810E+03  0.10566000000E+00 0.  1.
          4    1    3    3  501    0 -0.33933789381E+02  0.17837442596E+03 -0.78164784698E+03  0.80246015140E+03  0.00000000000E+00 0.  1.
         13    1    1    2    0    0 -0.15454511049E+02  0.61002300338E+02  0.80606292358E+02  0.10226195818E+03  0.10566000000E+00 0. -1.
<mgrwt>
<rscale>  1 0.50028525E+03</rscale>
<asrwt>0</asrwt>
<pdfrwt beam="1">  1       21 0.59471362E-01 0.99847812E+03</pdfrwt>
<pdfrwt beam="2">  1        4 0.13159024E+00 0.99847812E+03</pdfrwt>
<totfact> 0.43318381E+01</totfact>
</mgrwt>
</event>
<event>
 6    1  0.2415530E-005  0.1046769E+04  0.7818608E-02  0.9623349E-01
          4   -1    0    0  502    0 -0.00000000000E+00  0.00000000000E+00  0.25494269646E+03  0.25494269646E+03  0.00000000000E+00 0.  1.
         21   -1    0    0  501  502  0.00000000000E+00 -0.00000000000E+00 -0.20767850737E+04  0.20767850737E+04  0.00000000000E+00 0.  1.
    9000010    2    1    2  501    0 -0.17363973862E+03  0.22897214120E+03 -0.17439663156E+04  0.20339968641E+04  0.10065514061E+04 0.  0.
        -13    1    3    3    0    0  0.10544668036E+03  0.16083534302E+03 -0.17359817848E+04  0.17466023526E+04  0.10566000000E+00 0.  1.
          4    1    3    3  501    0 -0.27908641897E+03  0.68136798178E+02 -0.79845308083E+01  0.28739451152E+03  0.00000000000E+00 0.  1.
         13    1    1    2    0    0  0.17363973862E+03 -0.22897214120E+03 -0.77876061713E+02  0.29773090606E+03  0.10566000000E+00 0. -1.
<mgrwt>
<rscale>  1 0.75769908E+03</rscale>
<asrwt>0</asrwt>
<pdfrwt beam="2">  1       21 0.31950541E+00 0.10467687E+04</pdfrwt>
<pdfrwt beam="1">  1        4 0.39221952E-01 0.10467687E+04</pdfrwt>
<totfact> 0.50430486E+00</totfact>
</mgrwt>
</event>
<event>
 6    1  0.2415530E-005  0.1034536E+04  0.7818608E-02  0.9688612E-01
         21   -1    0    0  501  502  0.00000000000E+00  0.00000000000E+00  0.11668564757E+04  0.11668564757E+04  0.00000000000E+00 0.  1.
          4   -1    0    0  502    0 -0.00000000000E+00 -0.00000000000E+00 -0.43421170507E+03  0.43421170507E+03  0.00000000000E+00 0.  1.
    9000010    2    1    2  501    0  0.23273673112E+03 -0.52925688216E+02  0.84640780481E+03  0.13366640326E+04  0.10066265690E+04 0.  0.
        -13    1    3    3    0    0 -0.36045181612E+03 -0.21204976983E+03  0.30066771447E+03  0.51506475546E+03  0.10566000000E+00 0.  1.
          4    1    3    3  501    0  0.59318854724E+03  0.15912408161E+03  0.54574009034E+03  0.82159927710E+03  0.00000000000E+00 0.  1.
         13    1    1    2    0    0 -0.23273673112E+03  0.52925688216E+02 -0.11376303417E+03  0.26440414822E+03  0.10566000000E+00 0. -1.
<mgrwt>
<rscale>  1 0.71698918E+03</rscale>
<asrwt>0</asrwt>
<pdfrwt beam="1">  1       21 0.17951638E+00 0.10345359E+04</pdfrwt>
<pdfrwt beam="2">  1        4 0.66801801E-01 0.10345359E+04</pdfrwt>
<totfact> 0.13231316E+01</totfact>
</mgrwt>
</event>
<event>
 6    1  0.2415530E-005  0.1053081E+04  0.7818608E-02  0.9596567E-01
          4   -1    0    0  502    0 -0.00000000000E+00  0.00000000000E+00  0.47165628886E+03  0.47165628886E+03  0.00000000000E+00 0.  1.
         21   -1    0    0  501  502  0.00000000000E+00 -0.00000000000E+00 -0.15193562684E+04  0.15193562684E+04  0.00000000000E+00 0.  1.
    9000010    2    1    2  501    0 -0.29225708953E+03 -0.10119853586E+03 -0.12399927952E+04  0.16268259456E+04  0.10066405391E+04 0.  0.
        -13    1    3    3    0    0 -0.55203169406E+03 -0.33177764652E+01 -0.12309571747E+04  0.13490758229E+04  0.10566000000E+00 0.  1.
          4    1    3    3  501    0  0.25977460452E+03 -0.97880759394E+02 -0.90356205276E+01  0.27775012269E+03  0.00000000000E+00 0.  1.
         13    1    1    2    0    0  0.29225708953E+03  0.10119853586E+03  0.19229281562E+03  0.36418661171E+03  0.10566000000E+00 0. -1.
<mgrwt>
<rscale>  1 0.77523815E+03</rscale>
<asrwt>0</asrwt>
<pdfrwt beam="2">  1       21 0.23374712E+00 0.10530814E+04</pdfrwt>
<pdfrwt beam="1">  1        4 0.72562506E-01 0.10530814E+04</pdfrwt>
<totfact> 0.46809650E+00</totfact>
</mgrwt>
</event>
<event>
 6    1  0.2415530E-005  0.1018010E+04  0.7818608E-02  0.9857595E-01
          4   -1    0    0  502    0 -0.00000000000E+00  0.00000000000E+00  0.67678996885E+03  0.67678996885E+03  0.00000000000E+00 0.  1.
         21   -1    0    0  501  502  0.00000000000E+00 -0.00000000000E+00 -0.78908828321E+03  0.78908828321E+03  0.00000000000E+00 0.  1.
    9000010    2    1    2  501    0  0.14306328516E+03  0.90754329481E+01 -0.43936411475E+03  0.11087767035E+04  0.10078667997E+04 0.  0.
        -13    1    3    3    0    0  0.15340356503E+03 -0.38050518397E+03  0.11962178076E+03  0.42734790322E+03  0.10566000000E+00 0.  1.
          4    1    3    3  501    0 -0.10340279875E+02  0.38958061692E+03 -0.55898589551E+03  0.68142880028E+03  0.00000000000E+00 0.  1.
         13    1    1    2    0    0 -0.14306328516E+03 -0.90754329481E+01  0.32706580038E+03  0.35710154856E+03  0.10566000000E+00 0. -1.
<mgrwt>
<rscale>  1 0.62361166E+03</rscale>
<asrwt>0</asrwt>
<pdfrwt beam="2">  1       21 0.12139820E+00 0.10180103E+04</pdfrwt>
<pdfrwt beam="1">  1        4 0.10412153E+00 0.10180103E+04</pdfrwt>
<totfact> 0.14066286E+01</totfact>
</mgrwt>
</event>
<event>
 6    1  0.2415530E-005  0.1038575E+04  0.7818608E-02  0.9636270E-01
         21   -1    0    0  501  502  0.00000000000E+00  0.00000000000E+00  0.26739921950E+03  0.26739921950E+03  0.00000000000E+00 0.  1.
          4   -1    0    0  502    0 -0.00000000000E+00 -0.00000000000E+00 -0.18953356163E+04  0.18953356163E+04  0.00000000000E+00 0.  1.
    9000010    2    1    2  501    0  0.27818302704E+03  0.43490758654E+02 -0.87213890439E+03  0.13561946302E+04  0.99968013070E+03 0.  0.
        -13    1    3    3    0    0 -0.22215801583E+03 -0.31760052233E+03 -0.17515690286E+03  0.42532837616E+03  0.10566000000E+00 0.  1.
          4    1    3    3  501    0  0.50034104288E+03  0.36109128098E+03 -0.69698200152E+03  0.93086625400E+03  0.00000000000E+00 0.  1.
         13    1    1    2    0    0 -0.27818302704E+03 -0.43490758654E+02 -0.75579749239E+03  0.80654020563E+03  0.10566000000E+00 0. -1.
<mgrwt>
<rscale>  1 0.74941418E+03</rscale>
<asrwt>0</asrwt>
<pdfrwt beam="1">  1       21 0.41138341E-01 0.10385748E+04</pdfrwt>
<pdfrwt beam="2">  1        4 0.29159010E+00 0.10385748E+04</pdfrwt>
<totfact> 0.79511763E+00</totfact>
</mgrwt>
</event>
<event>
 6    1  0.2415530E-005  0.9954533E+03  0.7818608E-02  0.9756336E-01
          4   -1    0    0  502    0 -0.00000000000E+00  0.00000000000E+00  0.48205492858E+03  0.48205492858E+03  0.00000000000E+00 0.  1.
         21   -1    0    0  501  502  0.00000000000E+00 -0.00000000000E+00 -0.84801205846E+03  0.84801205846E+03  0.00000000000E+00 0.  1.
    9000010    2    1    2  501    0 -0.21301621699E+03 -0.17148801758E+02 -0.11752775222E+03  0.10023671900E+04  0.97224339598E+03 0.  0.
        -13    1    3    3    0    0  0.86491048426E+02 -0.13562822082E+03 -0.48660868247E+03  0.51250730410E+03  0.10566000000E+00 0.  1.
          4    1    3    3  501    0 -0.29950726542E+03  0.11847941907E+03  0.36908093025E+03  0.48985988594E+03  0.00000000000E+00 0.  1.
         13    1    1    2    0    0  0.21301621699E+03  0.17148801758E+02 -0.24842937766E+03  0.32769979700E+03  0.10566000000E+00 0. -1.
<mgrwt>
<rscale>  1 0.67759406E+03</rscale>
<asrwt>0</asrwt>
<pdfrwt beam="2">  1       21 0.13046339E+00 0.99545327E+03</pdfrwt>
<pdfrwt beam="1">  1        4 0.74162297E-01 0.99545327E+03</pdfrwt>
<totfact> 0.25837839E+01</totfact>
</mgrwt>
</event>
<event>
 6    1  0.2415530E-005  0.1023389E+04  0.7818608E-02  0.9749331E-01
          4   -1    0    0  502    0 -0.00000000000E+00  0.00000000000E+00  0.10113630755E+04  0.10113630755E+04  0.00000000000E+00 0.  1.
         21   -1    0    0  501  502  0.00000000000E+00 -0.00000000000E+00 -0.38074595064E+03  0.38074595064E+03  0.00000000000E+00 0.  1.
    9000010    2    1    2  501    0  0.19975194015E+03  0.24923026030E+02  0.43693116813E+03  0.11127593245E+04  0.10033954722E+04 0.  0.
        -13    1    3    3    0    0  0.37653131706E+02 -0.11119817522E+03  0.73658605419E+03  0.74588324749E+03  0.10566000000E+00 0.  1.
          4    1    3    3  501    0  0.16209880844E+03  0.13612120125E+03 -0.29965488606E+03  0.36687607699E+03  0.00000000000E+00 0.  1.
         13    1    1    2    0    0 -0.19975194015E+03 -0.24923026030E+02  0.19368595672E+03  0.27934970165E+03  0.10566000000E+00 0. -1.
<mgrwt>
<rscale>  1 0.68154076E+03</rscale>
<asrwt>0</asrwt>
<pdfrwt beam="2">  1       21 0.58576300E-01 0.10233887E+04</pdfrwt>
<pdfrwt beam="1">  1        4 0.15559432E+00 0.10233887E+04</pdfrwt>
<totfact> 0.28694632E+01</totfact>
</mgrwt>
</event>
<event>
 6    1  0.2415530E-005  0.1026885E+04  0.7818608E-02  0.9685384E-01
         21   -1    0    0  501  502  0.00000000000E+00  0.00000000000E+00  0.47704159887E+03  0.47704159887E+03  0.00000000000E+00 0.  1.
          4   -1    0    0  502    0 -0.00000000000E+00 -0.00000000000E+00 -0.90791260361E+03  0.90791260361E+03  0.00000000000E+00 0.  1.
    9000010    2    1    2  501    0  0.26878565480E+02  0.24524866492E+03 -0.19821402469E+03  0.10458396990E+04  0.99680615545E+03 0.  0.
        -13    1    3    3    0    0  0.10231135894E+03 -0.25277695671E+03 -0.41572008446E+03  0.49717904601E+03  0.10566000000E+00 0.  1.
          4    1    3    3  501    0 -0.75432793455E+02  0.49802562163E+03  0.21750605977E+03  0.54866065301E+03  0.00000000000E+00 0.  1.
         13    1    1    2    0    0 -0.26878565480E+02 -0.24524866492E+03 -0.23265698005E+03  0.33911450346E+03  0.10566000000E+00 0. -1.
<mgrwt>
<rscale>  1 0.71893739E+03</rscale>
<asrwt>0</asrwt>
<pdfrwt beam="1">  1       21 0.73391016E-01 0.10268845E+04</pdfrwt>
<pdfrwt beam="2">  1        4 0.13967886E+00 0.10268845E+04</pdfrwt>
<totfact> 0.22963972E+01</totfact>
</mgrwt>
</event>
<event>
 6    1  0.2415530E-005  0.1190360E+04  0.7818608E-02  0.9279010E-01
          4   -1    0    0  502    0 -0.00000000000E+00  0.00000000000E+00  0.11879606999E+04  0.11879606999E+04  0.00000000000E+00 0.  1.
         21   -1    0    0  501  502  0.00000000000E+00 -0.00000000000E+00 -0.87120284676E+03  0.87120284676E+03  0.00000000000E+00 0.  1.
    9000010    2    1    2  501    0  0.63252160068E+03  0.19032608089E+03 -0.21693553242E+03  0.12099661412E+04  0.99027745877E+03 0.  0.
        -13    1    3    3    0    0 -0.26544859352E+03  0.11016302406E+03 -0.27278633005E+02  0.28869184722E+03  0.10566000000E+00 0.  1.
          4    1    3    3  501    0  0.89797019419E+03  0.80163056831E+02 -0.18965689941E+03  0.92127429403E+03  0.00000000000E+00 0.  1.
         13    1    1    2    0    0 -0.63252160068E+03 -0.19032608089E+03  0.53369338553E+03  0.84919740539E+03  0.10566000000E+00 0. -1.
<mgrwt>
<rscale>  1 0.10273841E+04</rscale>
<asrwt>0</asrwt>
<pdfrwt beam="2">  1       21 0.13403121E+00 0.11903600E+04</pdfrwt>
<pdfrwt beam="1">  1        4 0.18276318E+00 0.11903600E+04</pdfrwt>
<totfact> 0.24029061E+00</totfact>
</mgrwt>
</event>
<event>
 6    1  0.2415530E-005  0.9958981E+03  0.7818608E-02  0.9969889E-01
          4   -1    0    0  502    0 -0.00000000000E+00  0.00000000000E+00  0.24980642793E+04  0.24980642793E+04  0.00000000000E+00 0.  1.
         21   -1    0    0  501  502  0.00000000000E+00 -0.00000000000E+00 -0.12182859197E+03  0.12182859197E+03  0.00000000000E+00 0.  1.
    9000010    2    1    2  501    0 -0.77063323380E+02 -0.73939979302E+02  0.21713238608E+04  0.23888198435E+04  0.99015506860E+03 0.  0.
        -13    1    3    3    0    0 -0.37558561588E+02 -0.48779793441E+03  0.16556992195E+04  0.17264696311E+04  0.10566000000E+00 0.  1.
          4    1    3    3  501    0 -0.39504761793E+02  0.41385795511E+03  0.51562464135E+03  0.66235021248E+03  0.00000000000E+00 0.  1.
         13    1    1    2    0    0  0.77063323380E+02  0.73939979302E+02  0.20491182648E+03  0.23107302773E+03  0.10566000000E+00 0. -1.
<mgrwt>
<rscale>  1 0.56990485E+03</rscale>
<asrwt>0</asrwt>
<pdfrwt beam="2">  1       21 0.18742862E-01 0.99589806E+03</pdfrwt>
<pdfrwt beam="1">  1        4 0.38431754E+00 0.99589806E+03</pdfrwt>
<totfact> 0.98236434E+00</totfact>
</mgrwt>
</event>
<event>
 6    1  0.2415530E-005  0.1210586E+04  0.7818608E-02  0.9257254E-01
         21   -1    0    0  501  502  0.00000000000E+00  0.00000000000E+00  0.12111506513E+04  0.12111506513E+04  0.00000000000E+00 0. -1.
          4   -1    0    0  502    0 -0.00000000000E+00 -0.00000000000E+00 -0.78518422893E+03  0.78518422893E+03  0.00000000000E+00 0.  1.
    9000010    2    1    2  501    0 -0.57633557353E+03  0.36147886021E+03  0.33750907386E+02  0.12110561519E+04  0.10013432078E+04 0.  0.
        -13    1    3    3    0    0  0.25902101166E+03  0.17030297393E+03  0.15326195143E+03  0.34580952031E+03  0.10566000000E+00 0.  1.
          4    1    3    3  501    0 -0.83535658519E+03  0.19117588628E+03 -0.11951104405E+03  0.86524663164E+03  0.00000000000E+00 0.  1.
         13    1    1    2    0    0  0.57633557353E+03 -0.36147886021E+03  0.39221551494E+03  0.78527872824E+03  0.10566000000E+00 0. -1.
<mgrwt>
<rscale>  1 0.10481523E+04</rscale>
<asrwt>0</asrwt>
<pdfrwt beam="1">  1       21 0.18633087E+00 0.12105858E+04</pdfrwt>
<pdfrwt beam="2">  1        4 0.12079757E+00 0.12105858E+04</pdfrwt>
<totfact> 0.28519366E+00</totfact>
</mgrwt>
</event>
<event>
 6    1  0.2415530E-005  0.1103476E+04  0.7818608E-02  0.9437115E-01
          4   -1    0    0  502    0 -0.00000000000E+00  0.00000000000E+00  0.10019374781E+04  0.10019374781E+04  0.00000000000E+00 0.  1.
         21   -1    0    0  501  502  0.00000000000E+00 -0.00000000000E+00 -0.64499331582E+03  0.64499331582E+03  0.00000000000E+00 0.  1.
    9000010    2    1    2  501    0  0.12442888397E+03  0.45188195267E+03  0.89028509860E+02  0.11070616854E+04  0.99898931601E+03 0.  0.
        -13    1    3    3    0    0  0.12485585887E+03 -0.17953025970E+03  0.35899728692E+03  0.42035599534E+03  0.10566000000E+00 0.  1.
          4    1    3    3  501    0 -0.42697489913E+00  0.63141221236E+03 -0.26996877706E+03  0.68670569010E+03  0.00000000000E+00 0.  1.
         13    1    1    2    0    0 -0.12442888397E+03 -0.45188195267E+03  0.26791565242E+03  0.53986910848E+03  0.10566000000E+00 0. -1.
<mgrwt>
<rscale>  1 0.89083235E+03</rscale>
<asrwt>0</asrwt>
<pdfrwt beam="2">  1       21 0.99229741E-01 0.11034761E+04</pdfrwt>
<pdfrwt beam="1">  1        4 0.15414423E+00 0.11034761E+04</pdfrwt>
<totfact> 0.85160976E+00</totfact>
</mgrwt>
</event>
<event>
 6    1  0.2415530E-005  0.9936596E+03  0.7818608E-02  0.1020798E+00
         21   -1    0    0  501  502  0.00000000000E+00  0.00000000000E+00  0.27430528344E+03  0.27430528344E+03  0.00000000000E+00 0.  1.
          4   -1    0    0  502    0 -0.00000000000E+00 -0.00000000000E+00 -0.11901183237E+04  0.11901183237E+04  0.00000000000E+00 0.  1.
    9000010    2    1    2  501    0  0.26960613168E+02  0.43820924169E+02 -0.63566160541E+03  0.11795868369E+04  0.99232670084E+03 0.  0.
        -13    1    3    3    0    0  0.42848590790E+03 -0.23987740210E+03 -0.23028794390E+03  0.54237799511E+03  0.10566000000E+00 0.  1.
          4    1    3    3  501    0 -0.40152529474E+03  0.28369832627E+03 -0.40537366151E+03  0.63720884181E+03  0.00000000000E+00 0.  1.
         13    1    1    2    0    0 -0.26960613168E+02 -0.43820924169E+02 -0.28015143485E+03  0.28483677022E+03  0.10566000000E+00 0. -1.
<mgrwt>
<rscale>  1 0.47399716E+03</rscale>
<asrwt>0</asrwt>
<pdfrwt beam="1">  1       21 0.42200813E-01 0.99365961E+03</pdfrwt>
<pdfrwt beam="2">  1        4 0.18309512E+00 0.99365961E+03</pdfrwt>
<totfact> 0.36973433E+01</totfact>
</mgrwt>
</event>
<event>
 6    1  0.2415530E-005  0.9714773E+03  0.7818608E-02  0.9695501E-01
         21   -1    0    0  501  502  0.00000000000E+00  0.00000000000E+00  0.33137929003E+03  0.33137929003E+03  0.00000000000E+00 0.  1.
          4   -1    0    0  502    0 -0.00000000000E+00 -0.00000000000E+00 -0.16670034433E+04  0.16670034433E+04  0.00000000000E+00 0.  1.
    9000010    2    1    2  501    0 -0.27593311808E+03  0.56435181498E+02 -0.45298538337E+03  0.10718973181E+04  0.92975485352E+03 0.  0.
        -13    1    3    3    0    0 -0.41518979440E+03 -0.13790618497E+03  0.11778860898E+03  0.45307267496E+03  0.10566000000E+00 0.  1.
          4    1    3    3  501    0  0.13925667632E+03  0.19434136646E+03 -0.57077399235E+03  0.61882464314E+03  0.00000000000E+00 0.  1.
         13    1    1    2    0    0  0.27593311808E+03 -0.56435181498E+02 -0.88263876993E+03  0.92648541527E+03  0.10566000000E+00 0. -1.
<mgrwt>
<rscale>  1 0.71285316E+03</rscale>
<asrwt>0</asrwt>
<pdfrwt beam="1">  1       21 0.50981430E-01 0.97147728E+03</pdfrwt>
<pdfrwt beam="2">  1        4 0.25646206E+00 0.97147728E+03</pdfrwt>
<totfact> 0.83484744E+00</totfact>
</mgrwt>
</event>
<event>
 6    1  0.2415530E-005  0.9923404E+03  0.7818608E-02  0.1036321E+00
         21   -1    0    0  501  502  0.00000000000E+00  0.00000000000E+00  0.10031410628E+04  0.10031410628E+04  0.00000000000E+00 0.  1.
          4   -1    0    0  502    0 -0.00000000000E+00 -0.00000000000E+00 -0.27420673864E+03  0.27420673864E+03  0.00000000000E+00 0.  1.
    9000010    2    1    2  501    0 -0.14594085263E+02  0.29090027524E+02  0.74517245792E+03  0.12409760380E+04  0.99180659289E+03 0.  0.
        -13    1    3    3    0    0 -0.77296673342E+02 -0.47653793259E+03  0.35501181129E+03  0.59924667227E+03  0.10566000000E+00 0.  1.
          4    1    3    3  501    0  0.62702588079E+02  0.50562796011E+03  0.39016064663E+03  0.64172936568E+03  0.00000000000E+00 0.  1.
         13    1    1    2    0    0  0.14594085263E+02 -0.29090027524E+02 -0.16238133764E+02  0.36371763474E+02  0.10566000000E+00 0. -1.
<mgrwt>
<rscale>  1 0.42229818E+03</rscale>
<asrwt>0</asrwt>
<pdfrwt beam="1">  1       21 0.15432939E+00 0.99234043E+03</pdfrwt>
<pdfrwt beam="2">  1        4 0.42185653E-01 0.99234043E+03</pdfrwt>
<totfact> 0.55036362E+01</totfact>
</mgrwt>
</event>
<event>
 6    1  0.2415530E-005  0.1098695E+04  0.7818608E-02  0.9446378E-01
          4   -1    0    0  502    0 -0.00000000000E+00  0.00000000000E+00  0.19582295874E+04  0.19582295874E+04  0.00000000000E+00 0.  1.
         21   -1    0    0  501  502  0.00000000000E+00 -0.00000000000E+00 -0.42197663930E+03  0.42197663930E+03  0.00000000000E+00 0. -1.
    9000010    2    1    2  501    0 -0.42948432304E+03  0.16338905481E+03  0.42559819005E+03  0.11782466726E+04  0.99798729207E+03 0.  0.
        -13    1    3    3    0    0 -0.55463890242E+03  0.16796206176E+03 -0.14227911267E+03  0.59672348984E+03  0.10566000000E+00 0.  1.
          4    1    3    3  501    0  0.12515457938E+03 -0.45730069419E+01  0.56787730272E+03  0.58152318275E+03  0.00000000000E+00 0.  1.
         13    1    1    2    0    0  0.42948432304E+03 -0.16338905481E+03  0.11106547580E+04  0.12019595541E+04  0.10566000000E+00 0. -1.
<mgrwt>
<rscale>  1 0.88355290E+03</rscale>
<asrwt>0</asrwt>
<pdfrwt beam="2">  1       21 0.64919484E-01 0.10986953E+04</pdfrwt>
<pdfrwt beam="1">  1        4 0.30126609E+00 0.10986953E+04</pdfrwt>
<totfact> 0.25426391E+00</totfact>
</mgrwt>
</event>
<event>
 6    1  0.2415530E-005  0.9489690E+03  0.7818608E-02  0.1032903E+00
         21   -1    0    0  501  502  0.00000000000E+00  0.00000000000E+00  0.51726495203E+03  0.51726495203E+03  0.00000000000E+00 0.  1.
          4   -1    0    0  502    0 -0.00000000000E+00 -0.00000000000E+00 -0.54405947704E+03  0.54405947704E+03  0.00000000000E+00 0.  1.
    9000010    2    1    2  501    0 -0.34399859282E+02  0.22582377739E+02  0.74601107442E+02  0.95189682950E+03  0.94807643926E+03 0.  0.
        -13    1    3    3    0    0  0.71187496515E+02 -0.43331328046E+03 -0.10355699878E+03  0.45116750973E+03  0.10566000000E+00 0.  1.
          4    1    3    3  501    0 -0.10558735580E+03  0.45589565819E+03  0.17815810622E+03  0.50072931977E+03  0.00000000000E+00 0.  1.
         13    1    1    2    0    0  0.34399859282E+02 -0.22582377739E+02 -0.10139563245E+03  0.10942759956E+03  0.10566000000E+00 0. -1.
<mgrwt>
<rscale>  1 0.43304356E+03</rscale>
<asrwt>0</asrwt>
<pdfrwt beam="1">  1       21 0.79579223E-01 0.94896905E+03</pdfrwt>
<pdfrwt beam="2">  1        4 0.83701458E-01 0.94896905E+03</pdfrwt>
<totfact> 0.67395150E+01</totfact>
</mgrwt>
</event>
<event>
 6    1  0.2415530E-005  0.1220958E+04  0.7818608E-02  0.9779946E-01
          4   -1    0    0  502    0 -0.00000000000E+00  0.00000000000E+00  0.20645799887E+04  0.20645799887E+04  0.00000000000E+00 0.  1.
         21   -1    0    0  501  502  0.00000000000E+00 -0.00000000000E+00 -0.22353894173E+03  0.22353894173E+03  0.00000000000E+00 0.  1.
    9000010    2    1    2  501    0  0.75157185325E+02  0.76330896716E+02  0.15198401540E+04  0.19495262059E+04  0.12162496970E+04 0.  0.
        -13    1    3    3    0    0  0.41465375846E+03  0.28490198792E+03  0.15307957413E+03  0.52587094358E+03  0.10566000000E+00 0.  1.
          4    1    3    3  501    0 -0.33949657313E+03 -0.20857109120E+03  0.13667605798E+04  0.14236552623E+04  0.00000000000E+00 0.  1.
         13    1    1    2    0    0 -0.75157185325E+02 -0.76330896716E+02  0.32120089299E+03  0.33859272456E+03  0.10566000000E+00 0. -1.
<mgrwt>
<rscale>  1 0.66449958E+03</rscale>
<asrwt>0</asrwt>
<pdfrwt beam="2">  1       21 0.34390608E-01 0.12209580E+04</pdfrwt>
<pdfrwt beam="1">  1        4 0.31762768E+00 0.12209580E+04</pdfrwt>
<totfact> 0.77741799E+00</totfact>
</mgrwt>
</event>
<event>
 6    1  0.2415530E-005  0.1032314E+04  0.7818608E-02  0.9676468E-01
         21   -1    0    0  501  502  0.00000000000E+00  0.00000000000E+00  0.71430360275E+03  0.71430360275E+03  0.00000000000E+00 0. -1.
          4   -1    0    0  502    0 -0.00000000000E+00 -0.00000000000E+00 -0.63210595489E+03  0.63210595489E+03  0.00000000000E+00 0.  1.
    9000010    2    1    2  501    0 -0.21715876195E+03  0.12435622347E+03 -0.99587205476E+02  0.10371068867E+04  0.10015241808E+04 0.  0.
        -13    1    3    3    0    0  0.30832339139E+03 -0.12828523980E+03  0.19199283894E+03  0.38520342392E+03  0.10566000000E+00 0.  1.
          4    1    3    3  501    0 -0.52548215334E+03  0.25264146327E+03 -0.29158004442E+03  0.65190346275E+03  0.00000000000E+00 0.  1.
         13    1    1    2    0    0  0.21715876195E+03 -0.12435622347E+03  0.18178485333E+03  0.30930267098E+03  0.10566000000E+00 0. -1.
<mgrwt>
<rscale>  1 0.72435302E+03</rscale>
<asrwt>0</asrwt>
<pdfrwt beam="1">  1       21 0.10989286E+00 0.10323144E+04</pdfrwt>
<pdfrwt beam="2">  1        4 0.97247070E-01 0.10323144E+04</pdfrwt>
<totfact> 0.21389804E+01</totfact>
</mgrwt>
</event>
<event>
 6    1  0.2415530E-005  0.1024326E+04  0.7818608E-02  0.9763196E-01
         21   -1    0    0  501  502  0.00000000000E+00  0.00000000000E+00  0.28834279046E+04  0.28834279046E+04  0.00000000000E+00 0.  1.
          4   -1    0    0  502    0 -0.00000000000E+00 -0.00000000000E+00 -0.13816840146E+03  0.13816840146E+03  0.00000000000E+00 0.  1.
    9000010    2    1    2  501    0  0.58019525178E+02 -0.18274329500E+03  0.19399309475E+04  0.21937584772E+04  0.10062220422E+04 0.  0.
        -13    1    3    3    0    0 -0.17395935824E+03 -0.45863015738E+03  0.16778952942E+04  0.17481235967E+04  0.10566000000E+00 0.  1.
          4    1    3    3  501    0  0.23197888342E+03  0.27588686238E+03  0.26203565322E+03  0.44563488053E+03  0.00000000000E+00 0.  1.
         13    1    1    2    0    0 -0.58019525178E+02  0.18274329500E+03  0.80532855565E+03  0.82783782885E+03  0.10566000000E+00 0. -1.
<mgrwt>
<rscale>  1 0.67375617E+03</rscale>
<asrwt>0</asrwt>
<pdfrwt beam="1">  1       21 0.44360425E+00 0.10243262E+04</pdfrwt>
<pdfrwt beam="2">  1        4 0.21256679E-01 0.10243262E+04</pdfrwt>
<totfact> 0.26202986E+00</totfact>
</mgrwt>
</event>
<event>
 6    1  0.2415530E-005  0.1067349E+04  0.7818608E-02  0.9506557E-01
          4   -1    0    0  502    0 -0.00000000000E+00  0.00000000000E+00  0.53862266536E+03  0.53862266536E+03  0.00000000000E+00 0.  1.
         21   -1    0    0  501  502  0.00000000000E+00 -0.00000000000E+00 -0.10085714972E+04  0.10085714972E+04  0.00000000000E+00 0.  1.
    9000010    2    1    2  501    0  0.79143479311E+02  0.39780722644E+03 -0.36759818378E+03  0.11288761662E+04  0.98727842793E+03 0.  0.
        -13    1    3    3    0    0  0.58424201531E+02  0.72017230951E+03 -0.35638850642E+03  0.80565148878E+03  0.10566000000E+00 0.  1.
          4    1    3    3  501    0  0.20719277780E+02 -0.32236508307E+03 -0.11209677363E+02  0.32322467746E+03  0.00000000000E+00 0.  1.
         13    1    1    2    0    0 -0.79143479311E+02 -0.39780722644E+03 -0.10235064807E+03  0.41831799633E+03  0.10566000000E+00 0. -1.
<mgrwt>
<rscale>  1 0.83802150E+03</rscale>
<asrwt>0</asrwt>
<pdfrwt beam="2">  1       21 0.15516484E+00 0.10673486E+04</pdfrwt>
<pdfrwt beam="1">  1        4 0.82865026E-01 0.10673486E+04</pdfrwt>
<totfact> 0.12368510E+01</totfact>
</mgrwt>
</event>
<event>
 6    1  0.2415530E-005  0.1104290E+04  0.7818608E-02  0.9485498E-01
          4   -1    0    0  502    0 -0.00000000000E+00  0.00000000000E+00  0.11261890775E+04  0.11261890775E+04  0.00000000000E+00 0.  1.
         21   -1    0    0  501  502  0.00000000000E+00 -0.00000000000E+00 -0.61288596825E+03  0.61288596825E+03  0.00000000000E+00 0.  1.
    9000010    2    1    2  501    0  0.19559431134E+03 -0.34233708839E+03  0.15956556328E+02  0.11044055084E+04  0.10315062281E+04 0.  0.
        -13    1    3    3    0    0  0.40623711435E+03 -0.23314138328E+03  0.42439370773E+03  0.63205500393E+03  0.10566000000E+00 0.  1.
          4    1    3    3  501    0 -0.21064280301E+03 -0.10919570510E+03 -0.40843715140E+03  0.47235050452E+03  0.00000000000E+00 0.  1.
         13    1    1    2    0    0 -0.19559431134E+03  0.34233708839E+03  0.49734655295E+03  0.63466953732E+03  0.10566000000E+00 0. -1.
<mgrwt>
<rscale>  1 0.85361473E+03</rscale>
<asrwt>0</asrwt>
<pdfrwt beam="2">  1       21 0.94290149E-01 0.11042902E+04</pdfrwt>
<pdfrwt beam="1">  1        4 0.17325986E+00 0.11042902E+04</pdfrwt>
<totfact> 0.69746910E+00</totfact>
</mgrwt>
</event>
<event>
 6    1  0.2415530E-005  0.1014864E+04  0.7818608E-02  0.1000629E+00
          4   -1    0    0  502    0 -0.00000000000E+00  0.00000000000E+00  0.33851651258E+03  0.33851651258E+03  0.00000000000E+00 0.  1.
         21   -1    0    0  501  502  0.00000000000E+00 -0.00000000000E+00 -0.92166682724E+03  0.92166682724E+03  0.00000000000E+00 0.  1.
    9000010    2    1    2  501    0  0.89042583458E+02  0.12792012935E+02 -0.47798489449E+03  0.11217926103E+04  0.10108693703E+04 0.  0.
        -13    1    3    3    0    0  0.31476960859E+03  0.20456249445E+03 -0.67056913986E+03  0.76849769234E+03  0.10566000000E+00 0.  1.
          4    1    3    3  501    0 -0.22572702513E+03 -0.19177048152E+03  0.19258424538E+03  0.35329491791E+03  0.00000000000E+00 0.  1.
         13    1    1    2    0    0 -0.89042583458E+02 -0.12792012935E+02 -0.10516542018E+03  0.13839072956E+03  0.10566000000E+00 0. -1.
<mgrwt>
<rscale>  1 0.55375095E+03</rscale>
<asrwt>0</asrwt>
<pdfrwt beam="2">  1       21 0.14179490E+00 0.10148641E+04</pdfrwt>
<pdfrwt beam="1">  1        4 0.52079463E-01 0.10148641E+04</pdfrwt>
<totfact> 0.44724555E+01</totfact>
</mgrwt>
</event>
<event>
 6    1  0.2415530E-005  0.8465455E+03  0.7818608E-02  0.1029849E+00
         21   -1    0    0  501  502  0.00000000000E+00  0.00000000000E+00  0.59822108188E+03  0.59822108188E+03  0.00000000000E+00 0.  1.
          4   -1    0    0  502    0 -0.00000000000E+00 -0.00000000000E+00 -0.35324101124E+03  0.35324101124E+03  0.00000000000E+00 0.  1.
    9000010    2    1    2  501    0  0.54689121400E+02  0.32167400286E+02  0.26128786166E+03  0.88595181261E+03  0.84416445435E+03 0.  0.
        -13    1    3    3    0    0  0.12842754334E+03 -0.97077875220E+02 -0.28087414095E+03  0.32374070175E+03  0.10566000000E+00 0.  1.
          4    1    3    3  501    0 -0.73738421945E+02  0.12924527551E+03  0.54216200261E+03  0.56221111087E+03  0.00000000000E+00 0.  1.
         13    1    1    2    0    0 -0.54689121400E+02 -0.32167400286E+02 -0.16307791018E+02  0.65510280510E+02  0.10566000000E+00 0. -1.
<mgrwt>
<rscale>  1 0.44293731E+03</rscale>
<asrwt>0</asrwt>
<pdfrwt beam="1">  1       21 0.92034012E-01 0.84654549E+03</pdfrwt>
<pdfrwt beam="2">  1        4 0.54344771E-01 0.84654549E+03</pdfrwt>
<totfact> 0.12546343E+02</totfact>
</mgrwt>
</event>
<event>
 6    1  0.2415530E-005  0.1128947E+04  0.7818608E-02  0.9530137E-01
         21   -1    0    0  501  502  0.00000000000E+00  0.00000000000E+00  0.38693525922E+03  0.38693525922E+03  0.00000000000E+00 0.  1.
          4   -1    0    0  502    0 -0.00000000000E+00 -0.00000000000E+00 -0.13512796188E+04  0.13512796188E+04  0.00000000000E+00 0.  1.
    9000010    2    1    2  501    0  0.34684889019E+02 -0.31381385914E+03 -0.72023679570E+03  0.13391275522E+04  0.10839000782E+04 0.  0.
        -13    1    3    3    0    0 -0.22880559741E+03  0.34553962317E+03 -0.20875733434E+03  0.46403584817E+03  0.10566000000E+00 0.  1.
          4    1    3    3  501    0  0.26349048642E+03 -0.65935348231E+03 -0.51147946136E+03  0.87509170403E+03  0.00000000000E+00 0.  1.
         13    1    1    2    0    0 -0.34684889019E+02  0.31381385914E+03 -0.24410756386E+03  0.39908732580E+03  0.10566000000E+00 0. -1.
<mgrwt>
<rscale>  1 0.82097965E+03</rscale>
<asrwt>0</asrwt>
<pdfrwt beam="1">  1       21 0.59528502E-01 0.11289471E+04</pdfrwt>
<pdfrwt beam="2">  1        4 0.20788917E+00 0.11289471E+04</pdfrwt>
<totfact> 0.11810736E+01</totfact>
</mgrwt>
</event>
<event>
 6    1  0.2415530E-005  0.9959662E+03  0.7818608E-02  0.1003702E+00
          4   -1    0    0  502    0 -0.00000000000E+00  0.00000000000E+00  0.40670707132E+03  0.40670707132E+03  0.00000000000E+00 0.  1.
         21   -1    0    0  501  502  0.00000000000E+00 -0.00000000000E+00 -0.72867647862E+03  0.72867647862E+03  0.00000000000E+00 0.  1.
    9000010    2    1    2  501    0 -0.31348064667E+02  0.80542601112E+02 -0.26094543103E+03  0.10295830367E+04  0.99220910084E+03 0.  0.
        -13    1    3    3    0    0 -0.31981724320E+03 -0.12670367021E+03  0.23714076647E+03  0.41781891218E+03  0.10566000000E+00 0.  1.
          4    1    3    3  501    0  0.28846917853E+03  0.20724627132E+03 -0.49808619750E+03  0.61176412454E+03  0.00000000000E+00 0.  1.
         13    1    1    2    0    0  0.31348064667E+02 -0.80542601112E+02 -0.61023976269E+02  0.10580051321E+03  0.10566000000E+00 0. -1.
<mgrwt>
<rscale>  1 0.54056422E+03</rscale>
<asrwt>0</asrwt>
<pdfrwt beam="2">  1       21 0.11210407E+00 0.99596622E+03</pdfrwt>
<pdfrwt beam="1">  1        4 0.62570320E-01 0.99596622E+03</pdfrwt>
<totfact> 0.55977807E+01</totfact>
</mgrwt>
</event>
<event>
 6    1  0.2415530E-005  0.1029643E+04  0.7818608E-02  0.9711829E-01
          4   -1    0    0  502    0 -0.00000000000E+00  0.00000000000E+00  0.11627653233E+04  0.11627653233E+04  0.00000000000E+00 0.  1.
         21   -1    0    0  501  502  0.00000000000E+00 -0.00000000000E+00 -0.35396856654E+03  0.35396856654E+03  0.00000000000E+00 0.  1.
    9000010    2    1    2  501    0  0.15087823576E+03  0.16551518862E+03  0.52668532378E+03  0.11565306257E+04  0.10049906160E+04 0.  0.
        -13    1    3    3    0    0  0.45439487294E+03 -0.60146604927E+02 -0.56096971378E+02  0.46177829745E+03  0.10566000000E+00 0.  1.
          4    1    3    3  501    0 -0.30351663718E+03  0.22566179354E+03  0.58278229516E+03  0.69475232829E+03  0.00000000000E+00 0.  1.
         13    1    1    2    0    0 -0.15087823576E+03 -0.16551518862E+03  0.28211143296E+03  0.36020326408E+03  0.10566000000E+00 0. -1.
<mgrwt>
<rscale>  1 0.70316838E+03</rscale>
<asrwt>0</asrwt>
<pdfrwt beam="2">  1       21 0.54456703E-01 0.10296435E+04</pdfrwt>
<pdfrwt beam="1">  1        4 0.17888697E+00 0.10296435E+04</pdfrwt>
<totfact> 0.22786641E+01</totfact>
</mgrwt>
</event>
<event>
 6    1  0.2415530E-005  0.1051966E+04  0.7818608E-02  0.9552441E-01
          4   -1    0    0  502    0 -0.00000000000E+00  0.00000000000E+00  0.74606171484E+03  0.74606171484E+03  0.00000000000E+00 0.  1.
         21   -1    0    0  501  502  0.00000000000E+00 -0.00000000000E+00 -0.83016691065E+03  0.83016691065E+03  0.00000000000E+00 0.  1.
    9000010    2    1    2  501    0  0.31157873962E+03 -0.18268399895E+03 -0.37047178905E+03  0.11152941493E+04  0.98801666915E+03 0.  0.
        -13    1    3    3    0    0 -0.44474636010E+02 -0.46495573709E+03 -0.45620777487E+03  0.65290686604E+03  0.10566000000E+00 0.  1.
          4    1    3    3  501    0  0.35605337563E+03  0.28227173815E+03  0.85735985816E+02  0.46238728326E+03  0.00000000000E+00 0.  1.
         13    1    1    2    0    0 -0.31157873962E+03  0.18268399895E+03  0.28636659325E+03  0.46093447620E+03  0.10566000000E+00 0. -1.
<mgrwt>
<rscale>  1 0.80525542E+03</rscale>
<asrwt>0</asrwt>
<pdfrwt beam="2">  1       21 0.12771799E+00 0.10519656E+04</pdfrwt>
<pdfrwt beam="1">  1        4 0.11477873E+00 0.10519656E+04</pdfrwt>
<totfact> 0.96488939E+00</totfact>
</mgrwt>
</event>
<event>
 6    1  0.2415530E-005  0.8507682E+03  0.7818608E-02  0.9846249E-01
          4   -1    0    0  502    0 -0.00000000000E+00  0.00000000000E+00  0.92682177697E+03  0.92682177697E+03  0.00000000000E+00 0.  1.
         21   -1    0    0  501  502  0.00000000000E+00 -0.00000000000E+00 -0.34146499276E+03  0.34146499276E+03  0.00000000000E+00 0.  1.
    9000010    2    1    2  501    0  0.10915577837E+03  0.23025624683E+03  0.34520483700E+03  0.91813552803E+03  0.81171025939E+03 0.  0.
        -13    1    3    3    0    0 -0.14488487575E+02 -0.20940885676E+03 -0.13959152089E+03  0.25208686882E+03  0.10566000000E+00 0.  1.
          4    1    3    3  501    0  0.12364426594E+03  0.43966510359E+03  0.48479635789E+03  0.66604865921E+03  0.00000000000E+00 0.  1.
         13    1    1    2    0    0 -0.10915577837E+03 -0.23025624683E+03  0.24015194721E+03  0.35015124170E+03  0.10566000000E+00 0. -1.
<mgrwt>
<rscale>  1 0.62938524E+03</rscale>
<asrwt>0</asrwt>
<pdfrwt beam="2">  1       21 0.52533076E-01 0.85076816E+03</pdfrwt>
<pdfrwt beam="1">  1        4 0.14258796E+00 0.85076816E+03</pdfrwt>
<totfact> 0.46768114E+01</totfact>
</mgrwt>
</event>
<event>
 6    1  0.2415530E-005  0.1021507E+04  0.7818608E-02  0.1011936E+00
          4   -1    0    0  502    0 -0.00000000000E+00  0.00000000000E+00  0.47882318063E+03  0.47882318063E+03  0.00000000000E+00 0.  1.
         21   -1    0    0  501  502  0.00000000000E+00 -0.00000000000E+00 -0.69841267659E+03  0.69841267659E+03  0.00000000000E+00 0.  1.
    9000010    2    1    2  501    0 -0.23748925334E+02 -0.57323958531E+02 -0.31006464936E+03  0.10675280078E+04  0.10196204750E+04 0.  0.
        -13    1    3    3    0    0  0.29560190037E+03 -0.18338381150E+03 -0.54851028319E+03  0.64951801187E+03  0.10566000000E+00 0.  1.
          4    1    3    3  501    0 -0.31935082570E+03  0.12605985297E+03  0.23844563383E+03  0.41800999593E+03  0.00000000000E+00 0.  1.
         13    1    1    2    0    0  0.23748925334E+02  0.57323958531E+02  0.90475153403E+02  0.10970784942E+03  0.10566000000E+00 0. -1.
<mgrwt>
<rscale>  1 0.50712420E+03</rscale>
<asrwt>0</asrwt>
<pdfrwt beam="2">  1       21 0.10744810E+00 0.10215067E+04</pdfrwt>
<pdfrwt beam="1">  1        4 0.73665105E-01 0.10215067E+04</pdfrwt>
<totfact> 0.43234359E+01</totfact>
</mgrwt>
</event>
<event>
 6    1  0.2415530E-005  0.1072008E+04  0.7818608E-02  0.9502936E-01
         21   -1    0    0  501  502  0.00000000000E+00  0.00000000000E+00  0.13616668745E+04  0.13616668745E+04  0.00000000000E+00 0.  1.
          4   -1    0    0  502    0 -0.00000000000E+00 -0.00000000000E+00 -0.65248123032E+03  0.65248123032E+03  0.00000000000E+00 0.  1.
    9000010    2    1    2  501    0  0.40532977413E+03 -0.92849871840E+01  0.10379551608E+04  0.14921635811E+04  0.99238238609E+03 0.  0.
        -13    1    3    3    0    0  0.23860011559E+02 -0.36967815476E+03  0.86272050665E+03  0.93889185853E+03  0.10566000000E+00 0.  1.
          4    1    3    3  501    0  0.38146976257E+03  0.36039316758E+03  0.17523465412E+03  0.55327172257E+03  0.00000000000E+00 0.  1.
         13    1    1    2    0    0 -0.40532977413E+03  0.92849871840E+01 -0.32876951661E+03  0.52198452371E+03  0.10566000000E+00 0. -1.
<mgrwt>
<rscale>  1 0.84067695E+03</rscale>
<asrwt>0</asrwt>
<pdfrwt beam="1">  1       21 0.20948721E+00 0.10720080E+04</pdfrwt>
<pdfrwt beam="2">  1        4 0.10038173E+00 0.10720080E+04</pdfrwt>
<totfact> 0.31691505E+00</totfact>
</mgrwt>
</event>
<event>
 6    1  0.2415530E-005  0.8226700E+03  0.7818608E-02  0.1014776E+00
          4   -1    0    0  502    0 -0.00000000000E+00  0.00000000000E+00  0.34325852418E+03  0.34325852418E+03  0.00000000000E+00 0.  1.
         21   -1    0    0  501  502  0.00000000000E+00 -0.00000000000E+00 -0.64085890639E+03  0.64085890639E+03  0.00000000000E+00 0.  1.
    9000010    2    1    2  501    0  0.10452651370E+03 -0.30480204539E+02 -0.29873778107E+03  0.87523152800E+03  0.81543309403E+03 0.  0.
        -13    1    3    3    0    0  0.28947477052E+03  0.23585938042E+03  0.74560024170E+02  0.38076830024E+03  0.10566000000E+00 0.  1.
          4    1    3    3  501    0 -0.18494825681E+03 -0.26633958496E+03 -0.37329780524E+03  0.49446322776E+03  0.00000000000E+00 0.  1.
         13    1    1    2    0    0 -0.10452651370E+03  0.30480204539E+02  0.11373988578E+01  0.10888590256E+03  0.10566000000E+00 0. -1.
<mgrwt>
<rscale>  1 0.49619941E+03</rscale>
<asrwt>0</asrwt>
<pdfrwt beam="2">  1       21 0.98593678E-01 0.82267002E+03</pdfrwt>
<pdfrwt beam="1">  1        4 0.52809004E-01 0.82267002E+03</pdfrwt>
<totfact> 0.11299316E+02</totfact>
</mgrwt>
</event>
<event>
 6    1  0.2415530E-005  0.1034976E+04  0.7818608E-02  0.9786696E-01
          4   -1    0    0  502    0 -0.00000000000E+00  0.00000000000E+00  0.19117406345E+03  0.19117406345E+03  0.00000000000E+00 0.  1.
         21   -1    0    0  501  502  0.00000000000E+00 -0.00000000000E+00 -0.19430147440E+04  0.19430147440E+04  0.00000000000E+00 0.  1.
    9000010    2    1    2  501    0  0.16819211737E+03 -0.35987350832E+02 -0.13846281459E+04  0.17286906761E+04  0.10205844764E+04 0.  0.
        -13    1    3    3    0    0  0.11563554415E+03 -0.52705099479E+03 -0.76965160634E+03  0.93995634818E+03  0.10566000000E+00 0.  1.
          4    1    3    3  501    0  0.52556573227E+02  0.49106364396E+03 -0.61497653956E+03  0.78873432790E+03  0.00000000000E+00 0.  1.
         13    1    1    2    0    0 -0.16819211737E+03  0.35987350832E+02 -0.36721253466E+03  0.40549813136E+03  0.10566000000E+00 0. -1.
<mgrwt>
<rscale>  1 0.66081434E+03</rscale>
<asrwt>0</asrwt>
<pdfrwt beam="2">  1       21 0.29892534E+00 0.10349765E+04</pdfrwt>
<pdfrwt beam="1">  1        4 0.29411395E-01 0.10349765E+04</pdfrwt>
<totfact> 0.12046781E+01</totfact>
</mgrwt>
</event>
<event>
 6    1  0.2415530E-005  0.1011928E+04  0.7818608E-02  0.9953084E-01
          4   -1    0    0  502    0 -0.00000000000E+00  0.00000000000E+00  0.31405331573E+03  0.31405331573E+03  0.00000000000E+00 0.  1.
         21   -1    0    0  501  502  0.00000000000E+00 -0.00000000000E+00 -0.10995567921E+04  0.10995567921E+04  0.00000000000E+00 0.  1.
    9000010    2    1    2  501    0  0.99732013738E+01  0.10692135251E+03 -0.81823426122E+03  0.13013472208E+04  0.10062135173E+04 0.  0.
        -13    1    3    3    0    0  0.24024282570E+03  0.25580021531E+03  0.81913353724E+02  0.36036117179E+03  0.10566000000E+00 0.  1.
          4    1    3    3  501    0 -0.23026962433E+03 -0.14887886281E+03 -0.90014761495E+03  0.94098604898E+03  0.00000000000E+00 0.  1.
         13    1    1    2    0    0 -0.99732013738E+01 -0.10692135251E+03  0.32730784864E+02  0.11226288705E+03  0.10566000000E+00 0. -1.
<mgrwt>
<rscale>  1 0.57756184E+03</rscale>
<asrwt>0</asrwt>
<pdfrwt beam="2">  1       21 0.16916258E+00 0.10119275E+04</pdfrwt>
<pdfrwt beam="1">  1        4 0.48315895E-01 0.10119275E+04</pdfrwt>
<totfact> 0.31837425E+01</totfact>
</mgrwt>
</event>
<event>
 6    1  0.2415530E-005  0.9728565E+03  0.7818608E-02  0.9808899E-01
          4   -1    0    0  502    0 -0.00000000000E+00  0.00000000000E+00  0.11476284541E+04  0.11476284541E+04  0.00000000000E+00 0.  1.
         21   -1    0    0  501  502  0.00000000000E+00 -0.00000000000E+00 -0.47612088878E+03  0.47612088878E+03  0.00000000000E+00 0.  1.
    9000010    2    1    2  501    0  0.10367333281E+03 -0.16222804643E+03  0.51146276013E+02  0.97420008423E+03  0.95361615107E+03 0.  0.
        -13    1    3    3    0    0 -0.30863320628E+03  0.22781951219E+03 -0.79567099359E+02  0.39177432358E+03  0.10566000000E+00 0.  1.
          4    1    3    3  501    0  0.41230653909E+03 -0.39004755862E+03  0.13071337537E+03  0.58242576065E+03  0.00000000000E+00 0.  1.
         13    1    1    2    0    0 -0.10367333281E+03  0.16222804643E+03  0.62036128932E+03  0.64954925867E+03  0.10566000000E+00 0. -1.
<mgrwt>
<rscale>  1 0.64887155E+03</rscale>
<asrwt>0</asrwt>
<pdfrwt beam="2">  1       21 0.73249368E-01 0.97285655E+03</pdfrwt>
<pdfrwt beam="1">  1        4 0.17655822E+00 0.97285655E+03</pdfrwt>
<totfact> 0.12216264E+01</totfact>
</mgrwt>
</event>
<event>
 6    1  0.2415530E-005  0.1074967E+04  0.7818608E-02  0.9488600E-01
         21   -1    0    0  501  502  0.00000000000E+00  0.00000000000E+00  0.13420661210E+04  0.13420661210E+04  0.00000000000E+00 0.  1.
          4   -1    0    0  502    0 -0.00000000000E+00 -0.00000000000E+00 -0.41820549716E+03  0.41820549716E+03  0.00000000000E+00 0.  1.
    9000010    2    1    2  501    0  0.16225405155E+03  0.39042818963E+03  0.68489716655E+03  0.12746132057E+04  0.98832896698E+03 0.  0.
        -13    1    3    3    0    0 -0.95315861454E+01 -0.22115266754E+03  0.59272717597E+03  0.63271231203E+03  0.10566000000E+00 0.  1.
          4    1    3    3  501    0  0.17178563770E+03  0.61158085717E+03  0.92169990576E+02  0.64190089370E+03  0.00000000000E+00 0.  1.
         13    1    1    2    0    0 -0.16225405155E+03 -0.39042818963E+03  0.23896345733E+03  0.48565841247E+03  0.10566000000E+00 0. -1.
<mgrwt>
<rscale>  1 0.85129563E+03</rscale>
<asrwt>0</asrwt>
<pdfrwt beam="1">  1       21 0.20647171E+00 0.10749673E+04</pdfrwt>
<pdfrwt beam="2">  1        4 0.64339308E-01 0.10749673E+04</pdfrwt>
<totfact> 0.92555754E+00</totfact>
</mgrwt>
</event>
<event>
 6    1  0.2415530E-005  0.1027658E+04  0.7818608E-02  0.9880883E-01
          4   -1    0    0  502    0 -0.00000000000E+00  0.00000000000E+00  0.25983048513E+04  0.25983048513E+04  0.00000000000E+00 0.  1.
         21   -1    0    0  501  502  0.00000000000E+00 -0.00000000000E+00 -0.14356777806E+03  0.14356777806E+03  0.00000000000E+00 0.  1.
    9000010    2    1    2  501    0  0.50835798456E+02 -0.11881279310E+03  0.17841733741E+04  0.20589696758E+04  0.10195002397E+04 0.  0.
        -13    1    3    3    0    0 -0.98614591062E+02 -0.53003778828E+02 -0.11048134885E+03  0.15729074273E+03  0.10566000000E+00 0.  1.
          4    1    3    3  501    0  0.14945038952E+03 -0.65809014275E+02  0.18946547229E+04  0.19016789331E+04  0.00000000000E+00 0.  1.
         13    1    1    2    0    0 -0.50835798456E+02  0.11881279310E+03  0.67056369917E+03  0.68290295359E+03  0.10566000000E+00 0. -1.
<mgrwt>
<rscale>  1 0.61196784E+03</rscale>
<asrwt>0</asrwt>
<pdfrwt beam="2">  1       21 0.22087352E-01 0.10276583E+04</pdfrwt>
<pdfrwt beam="1">  1        4 0.39973917E+00 0.10276583E+04</pdfrwt>
<totfact> 0.55804291E+00</totfact>
</mgrwt>
</event>
<event>
 6    1  0.2415530E-005  0.1023582E+04  0.7818608E-02  0.9716029E-01
          4   -1    0    0  502    0 -0.00000000000E+00  0.00000000000E+00  0.11281814760E+04  0.11281814760E+04  0.00000000000E+00 0.  1.
         21   -1    0    0  501  502  0.00000000000E+00 -0.00000000000E+00 -0.35305478722E+03  0.35305478722E+03  0.00000000000E+00 0.  1.
    9000010    2    1    2  501    0  0.21639022073E+03  0.60862025556E+02  0.71490347170E+03  0.12485223598E+04  0.99859511081E+03 0.  0.
        -13    1    3    3    0    0  0.51471474838E+02 -0.37885766205E+03  0.67682622383E+03  0.77735203688E+03  0.10566000000E+00 0.  1.
          4    1    3    3  501    0  0.16491874589E+03  0.43971968760E+03  0.38077247866E+02  0.47117032294E+03  0.00000000000E+00 0.  1.
         13    1    1    2    0    0 -0.21639022073E+03 -0.60862025556E+02  0.60223217056E+02  0.23271390337E+03  0.10566000000E+00 0. -1.
<mgrwt>
<rscale>  1 0.70070416E+03</rscale>
<asrwt>0</asrwt>
<pdfrwt beam="2">  1       21 0.54316122E-01 0.10235825E+04</pdfrwt>
<pdfrwt beam="1">  1        4 0.17356638E+00 0.10235825E+04</pdfrwt>
<totfact> 0.25003566E+01</totfact>
</mgrwt>
</event>
<event>
 6    1  0.2415530E-005  0.1011225E+04  0.7818608E-02  0.9830273E-01
         21   -1    0    0  501  502  0.00000000000E+00  0.00000000000E+00  0.45933168434E+03  0.45933168434E+03  0.00000000000E+00 0.  1.
          4   -1    0    0  502    0 -0.00000000000E+00 -0.00000000000E+00 -0.74773627853E+03  0.74773627853E+03  0.00000000000E+00 0.  1.
    9000010    2    1    2  501    0  0.13502637677E+03 -0.85567725829E+02 -0.26620845610E+03  0.10456782549E+04  0.99850994614E+03 0.  0.
        -13    1    3    3    0    0  0.49137799535E+03 -0.20437534159E+02  0.13013311720E+03  0.50872848010E+03  0.10566000000E+00 0.  1.
          4    1    3    3  501    0 -0.35635161857E+03 -0.65130191670E+02 -0.39634157330E+03  0.53694977480E+03  0.00000000000E+00 0.  1.
         13    1    1    2    0    0 -0.13502637677E+03  0.85567725829E+02 -0.22196138094E+02  0.16138970797E+03  0.10566000000E+00 0. -1.
<mgrwt>
<rscale>  1 0.63762922E+03</rscale>
<asrwt>0</asrwt>
<pdfrwt beam="1">  1       21 0.70666413E-01 0.10112250E+04</pdfrwt>
<pdfrwt beam="2">  1        4 0.11503635E+00 0.10112250E+04</pdfrwt>
<totfact> 0.41190823E+01</totfact>
</mgrwt>
</event>
<event>
 6    1  0.2415530E-005  0.1154534E+04  0.7818608E-02  0.9336752E-01
         21   -1    0    0  501  502  0.00000000000E+00  0.00000000000E+00  0.19790618622E+04  0.19790618622E+04  0.00000000000E+00 0.  1.
          4   -1    0    0  502    0 -0.00000000000E+00 -0.00000000000E+00 -0.46480151590E+03  0.46480151590E+03  0.00000000000E+00 0.  1.
    9000010    2    1    2  501    0  0.55372467969E+03 -0.19320176110E+03  0.47069453244E+03  0.12467971475E+04  0.99449074546E+03 0.  0.
        -13    1    3    3    0    0  0.11915612724E+03 -0.50415185732E+03  0.48864223833E+03  0.71213659234E+03  0.10566000000E+00 0.  1.
          4    1    3    3  501    0  0.43456855245E+03  0.31095009622E+03 -0.17947705891E+02  0.53466055518E+03  0.00000000000E+00 0.  1.
         13    1    1    2    0    0 -0.55372467969E+03  0.19320176110E+03  0.10435658139E+04  0.11970662306E+04  0.10566000000E+00 0. -1.
<mgrwt>
<rscale>  1 0.97468714E+03</rscale>
<asrwt>0</asrwt>
<pdfrwt beam="1">  1       21 0.30447105E+00 0.11545344E+04</pdfrwt>
<pdfrwt beam="2">  1        4 0.71507926E-01 0.11545344E+04</pdfrwt>
<totfact> 0.17024781E+00</totfact>
</mgrwt>
</event>
<event>
 6    1  0.2415530E-005  0.1055441E+04  0.7818608E-02  0.9524605E-01
          4   -1    0    0  502    0 -0.00000000000E+00  0.00000000000E+00  0.63737510664E+03  0.63737510664E+03  0.00000000000E+00 0.  1.
         21   -1    0    0  501  502  0.00000000000E+00 -0.00000000000E+00 -0.84558914504E+03  0.84558914504E+03  0.00000000000E+00 0. -1.
    9000010    2    1    2  501    0 -0.14383263511E+03 -0.36669898354E+03 -0.44441135959E+02  0.10563759886E+04  0.97918294679E+03 0.  0.
        -13    1    3    3    0    0  0.17727802201E+03  0.91714251107E+02 -0.36162833548E+03  0.41305455467E+03  0.10566000000E+00 0.  1.
          4    1    3    3  501    0 -0.32111065713E+03 -0.45841323465E+03  0.31718719952E+03  0.64332143394E+03  0.00000000000E+00 0.  1.
         13    1    1    2    0    0  0.14383263511E+03  0.36669898354E+03 -0.16377290244E+03  0.42658826307E+03  0.10566000000E+00 0. -1.
<mgrwt>
<rscale>  1 0.82493840E+03</rscale>
<asrwt>0</asrwt>
<pdfrwt beam="2">  1       21 0.13009064E+00 0.10554408E+04</pdfrwt>
<pdfrwt beam="1">  1        4 0.98057709E-01 0.10554408E+04</pdfrwt>
<totfact> 0.13500971E+01</totfact>
</mgrwt>
</event>
<event>
 6    1  0.2415530E-005  0.1160350E+04  0.7818608E-02  0.9325602E-01
          4   -1    0    0  502    0 -0.00000000000E+00  0.00000000000E+00  0.29470512457E+04  0.29470512457E+04  0.00000000000E+00 0.  1.
         21   -1    0    0  501  502  0.00000000000E+00 -0.00000000000E+00 -0.26340032312E+03  0.26340032312E+03  0.00000000000E+00 0.  1.
    9000010    2    1    2  501    0  0.35809973543E+03 -0.48334031752E+03  0.17436042309E+04  0.20944134527E+04  0.99224932024E+03 0.  0.
        -13    1    3    3    0    0  0.54998056019E+03  0.80958104793E+02  0.71607314459E+03  0.90652831775E+03  0.10566000000E+00 0.  1.
          4    1    3    3  501    0 -0.19188082477E+03 -0.56429842232E+03  0.10275310863E+04  0.11878851349E+04  0.00000000000E+00 0.  1.
         13    1    1    2    0    0 -0.35809973543E+03  0.48334031752E+03  0.94004669162E+03  0.11160381161E+04  0.10566000000E+00 0. -1.
<mgrwt>
<rscale>  1 0.98459654E+03</rscale>
<asrwt>0</asrwt>
<pdfrwt beam="2">  1       21 0.40523129E-01 0.11603499E+04</pdfrwt>
<pdfrwt beam="1">  1        4 0.45339248E+00 0.11603499E+04</pdfrwt>
<totfact> 0.65730484E-01</totfact>
</mgrwt>
</event>
<event>
 6    1  0.2415530E-005  0.1051228E+04  0.7818608E-02  0.9778327E-01
          4   -1    0    0  502    0 -0.00000000000E+00  0.00000000000E+00  0.44411659264E+03  0.44411659264E+03  0.00000000000E+00 0.  1.
         21   -1    0    0  501  502  0.00000000000E+00 -0.00000000000E+00 -0.10973997753E+04  0.10973997753E+04  0.00000000000E+00 0.  1.
    9000010    2    1    2  501    0 -0.95179614567E+02  0.13932929933E+03 -0.79753567751E+03  0.13195240120E+04  0.10375975369E+04 0.  0.
        -13    1    3    3    0    0 -0.16330417699E+03 -0.20091244474E+03 -0.91675941016E+03  0.95261843985E+03  0.10566000000E+00 0.  1.
          4    1    3    3  501    0  0.68124562423E+02  0.34024174407E+03  0.11922373265E+03  0.36690557210E+03  0.00000000000E+00 0.  1.
         13    1    1    2    0    0  0.95179614567E+02 -0.13932929933E+03  0.14425249485E+03  0.22199235598E+03  0.10566000000E+00 0. -1.
<mgrwt>
<rscale>  1 0.66538748E+03</rscale>
<asrwt>0</asrwt>
<pdfrwt beam="2">  1       21 0.16883073E+00 0.10512281E+04</pdfrwt>
<pdfrwt beam="1">  1        4 0.68325631E-01 0.10512281E+04</pdfrwt>
<totfact> 0.15065315E+01</totfact>
</mgrwt>
</event>
<event>
 6    1  0.2415530E-005  0.1041033E+04  0.7818608E-02  0.9604885E-01
          4   -1    0    0  502    0 -0.00000000000E+00  0.00000000000E+00  0.62793421211E+03  0.62793421211E+03  0.00000000000E+00 0.  1.
         21   -1    0    0  501  502  0.00000000000E+00 -0.00000000000E+00 -0.96525616782E+03  0.96525616782E+03  0.00000000000E+00 0.  1.
    9000010    2    1    2  501    0  0.19661958616E+03  0.24115974034E+03 -0.58621457720E+03  0.11947373335E+04  0.99344475612E+03 0.  0.
        -13    1    3    3    0    0  0.45364697724E+03  0.20473018273E+03 -0.74090038283E+03  0.89254883122E+03  0.10566000000E+00 0.  1.
          4    1    3    3  501    0 -0.25702739109E+03  0.36429557614E+02  0.15468580562E+03  0.30218850226E+03  0.00000000000E+00 0.  1.
         13    1    1    2    0    0 -0.19661958616E+03 -0.24115974034E+03  0.24889262149E+03  0.39845304644E+03  0.10566000000E+00 0. -1.
<mgrwt>
<rscale>  1 0.76973724E+03</rscale>
<asrwt>0</asrwt>
<pdfrwt beam="2">  1       21 0.14850095E+00 0.10410330E+04</pdfrwt>
<pdfrwt beam="1">  1        4 0.96605264E-01 0.10410330E+04</pdfrwt>
<totfact> 0.97781692E+00</totfact>
</mgrwt>
</event>
<event>
 6    1  0.2415530E-005  0.1281278E+04  0.7818608E-02  0.9165369E-01
         21   -1    0    0  501  502  0.00000000000E+00  0.00000000000E+00  0.15973728340E+04  0.15973728340E+04  0.00000000000E+00 0. -1.
          4   -1    0    0  502    0 -0.00000000000E+00 -0.00000000000E+00 -0.15058782447E+04  0.15058782447E+04  0.00000000000E+00 0.  1.
    9000010    2    1    2  501    0 -0.78674692417E+03 -0.18442772549E+03  0.11838654680E+04  0.17444801428E+04  0.99432852406E+03 0.  0.
        -13    1    3    3    0    0 -0.48290234772E+03  0.39123097278E+03  0.68078433936E+03  0.92180457765E+03  0.10566000000E+00 0.  1.
          4    1    3    3  501    0 -0.30384457645E+03 -0.57565869828E+03  0.50308112864E+03  0.82267556517E+03  0.00000000000E+00 0.  1.
         13    1    1    2    0    0  0.78674692417E+03  0.18442772549E+03 -0.10923708787E+04  0.13587709360E+04  0.10566000000E+00 0. -1.
<mgrwt>
<rscale>  1 0.11418141E+04</rscale>
<asrwt>0</asrwt>
<pdfrwt beam="1">  1       21 0.24574967E+00 0.12812781E+04</pdfrwt>
<pdfrwt beam="2">  1        4 0.23167358E+00 0.12812781E+04</pdfrwt>
<totfact> 0.17442973E-01</totfact>
</mgrwt>
</event>
<event>
 6    1  0.2415530E-005  0.1202069E+04  0.7818608E-02  0.9264831E-01
         21   -1    0    0  501  502  0.00000000000E+00  0.00000000000E+00  0.58555939924E+03  0.58555939924E+03  0.00000000000E+00 0.  1.
          4   -1    0    0  502    0 -0.00000000000E+00 -0.00000000000E+00 -0.15656581582E+04  0.15656581582E+04  0.00000000000E+00 0.  1.
    9000010    2    1    2  501    0  0.66445636656E+03  0.12299179558E+03 -0.41935987882E+03  0.12731188456E+04  0.99415272584E+03 0.  0.
        -13    1    3    3    0    0  0.32143757941E+03  0.56021835175E+03 -0.24296612555E+03  0.69007192989E+03  0.10566000000E+00 0.  1.
          4    1    3    3  501    0  0.34301878715E+03 -0.43722655617E+03 -0.17639375327E+03  0.58304691574E+03  0.00000000000E+00 0.  1.
         13    1    1    2    0    0 -0.66445636656E+03 -0.12299179558E+03 -0.56073888017E+03  0.87809871184E+03  0.10566000000E+00 0. -1.
<mgrwt>
<rscale>  1 0.10408602E+04</rscale>
<asrwt>0</asrwt>
<pdfrwt beam="1">  1       21 0.90086063E-01 0.12020686E+04</pdfrwt>
<pdfrwt beam="2">  1        4 0.24087048E+00 0.12020686E+04</pdfrwt>
<totfact> 0.27583467E+00</totfact>
</mgrwt>
</event>
<event>
 6    1  0.2415530E-005  0.1077704E+04  0.7818608E-02  0.9513362E-01
          4   -1    0    0  502    0 -0.00000000000E+00  0.00000000000E+00  0.12544429395E+04  0.12544429395E+04  0.00000000000E+00 0.  1.
         21   -1    0    0  501  502  0.00000000000E+00 -0.00000000000E+00 -0.55325596138E+03  0.55325596138E+03  0.00000000000E+00 0.  1.
    9000010    2    1    2  501    0  0.16726175231E+03  0.34651490147E+03  0.84748117159E+02  0.10810311975E+04  0.10066762815E+04 0.  0.
        -13    1    3    3    0    0 -0.12972751912E+02 -0.26907723480E+03 -0.24114624615E+03  0.36155549197E+03  0.10566000000E+00 0.  1.
          4    1    3    3  501    0  0.18023450422E+03  0.61559213627E+03  0.32589436331E+03  0.71947570549E+03  0.00000000000E+00 0.  1.
         13    1    1    2    0    0 -0.16726175231E+03 -0.34651490147E+03  0.61643886098E+03  0.72666770343E+03  0.10566000000E+00 0. -1.
<mgrwt>
<rscale>  1 0.83305826E+03</rscale>
<asrwt>0</asrwt>
<pdfrwt beam="2">  1       21 0.85116302E-01 0.10777041E+04</pdfrwt>
<pdfrwt beam="1">  1        4 0.19299122E+00 0.10777041E+04</pdfrwt>
<totfact> 0.65384884E+00</totfact>
</mgrwt>
</event>
<event>
 6    1  0.2415530E-005  0.9962701E+03  0.7818608E-02  0.9934025E-01
          4   -1    0    0  502    0 -0.00000000000E+00  0.00000000000E+00  0.21314887364E+03  0.21314887364E+03  0.00000000000E+00 0.  1.
         21   -1    0    0  501  502  0.00000000000E+00 -0.00000000000E+00 -0.15522946458E+04  0.15522946458E+04  0.00000000000E+00 0.  1.
    9000010    2    1    2  501    0  0.89418960205E+02 -0.79392414834E+02 -0.13035700855E+04  0.16406855673E+04  0.98906787273E+03 0.  0.
        -13    1    3    3    0    0  0.93366382190E+02 -0.53029819198E+03 -0.80461001081E+03  0.96815842422E+03  0.10566000000E+00 0.  1.
          4    1    3    3  501    0 -0.39474219844E+01  0.45090577714E+03 -0.49896007474E+03  0.67252714308E+03  0.00000000000E+00 0.  1.
         13    1    1    2    0    0 -0.89418960205E+02  0.79392414834E+02 -0.35575686598E+02  0.12475795212E+03  0.10566000000E+00 0. -1.
<mgrwt>
<rscale>  1 0.58640238E+03</rscale>
<asrwt>0</asrwt>
<pdfrwt beam="2">  1       21 0.23881456E+00 0.99627013E+03</pdfrwt>
<pdfrwt beam="1">  1        4 0.32792134E-01 0.99627013E+03</pdfrwt>
<totfact> 0.23360650E+01</totfact>
</mgrwt>
</event>
<event>
 6    1  0.2415530E-005  0.1059691E+04  0.7818608E-02  0.9580029E-01
         21   -1    0    0  501  502  0.00000000000E+00  0.00000000000E+00  0.54746387165E+03  0.54746387165E+03  0.00000000000E+00 0.  1.
          4   -1    0    0  502    0 -0.00000000000E+00 -0.00000000000E+00 -0.87963754474E+03  0.87963754474E+03  0.00000000000E+00 0.  1.
    9000010    2    1    2  501    0 -0.52176186294E+02 -0.31699981273E+03 -0.19363062615E+03  0.10772365529E+04  0.10098190609E+04 0.  0.
        -13    1    3    3    0    0  0.25091926207E+03 -0.58707204446E+03 -0.20667165192E+03  0.67106426245E+03  0.10566000000E+00 0.  1.
          4    1    3    3  501    0 -0.30309544837E+03  0.27007223172E+03  0.13041025776E+02  0.40617229044E+03  0.00000000000E+00 0.  1.
         13    1    1    2    0    0  0.52176186294E+02  0.31699981273E+03 -0.13854304695E+03  0.34986486350E+03  0.10566000000E+00 0. -1.
<mgrwt>
<rscale>  1 0.78632199E+03</rscale>
<asrwt>0</asrwt>
<pdfrwt beam="1">  1       21 0.84225212E-01 0.10596914E+04</pdfrwt>
<pdfrwt beam="2">  1        4 0.13532885E+00 0.10596914E+04</pdfrwt>
<totfact> 0.18002335E+01</totfact>
</mgrwt>
</event>
<event>
 6    1  0.2415530E-005  0.1022917E+04  0.7818608E-02  0.9703989E-01
         21   -1    0    0  501  502  0.00000000000E+00  0.00000000000E+00  0.60682118092E+03  0.60682118092E+03  0.00000000000E+00 0.  1.
          4   -1    0    0  502    0 -0.00000000000E+00 -0.00000000000E+00 -0.65149894047E+03  0.65149894047E+03  0.00000000000E+00 0.  1.
    9000010    2    1    2  501    0 -0.13412726002E+02  0.23410144595E+03 -0.43240474182E+02  0.10238303238E+04  0.99567836430E+03 0.  0.
        -13    1    3    3    0    0 -0.36435113379E+03 -0.16865513794E+03  0.18604372973E+03  0.44250263817E+03  0.10566000000E+00 0.  1.
          4    1    3    3  501    0  0.35093840779E+03  0.40275658389E+03 -0.22928420391E+03  0.58132768564E+03  0.00000000000E+00 0.  1.
         13    1    1    2    0    0  0.13412726002E+02 -0.23410144595E+03 -0.14372853631E+01  0.23448979758E+03  0.10566000000E+00 0. -1.
<mgrwt>
<rscale>  1 0.70779785E+03</rscale>
<asrwt>0</asrwt>
<pdfrwt beam="1">  1       21 0.93357105E-01 0.10229168E+04</pdfrwt>
<pdfrwt beam="2">  1        4 0.10023061E+00 0.10229168E+04</pdfrwt>
<totfact> 0.29874296E+01</totfact>
</mgrwt>
</event>
<event>
 6    1  0.2415530E-005  0.1037093E+04  0.7818608E-02  0.9624056E-01
          4   -1    0    0  502    0 -0.00000000000E+00  0.00000000000E+00  0.71351784065E+03  0.71351784065E+03  0.00000000000E+00 0.  1.
         21   -1    0    0  501  502  0.00000000000E+00 -0.00000000000E+00 -0.62213486016E+03  0.62213486016E+03  0.00000000000E+00 0.  1.
    9000010    2    1    2  501    0  0.11155683178E+03  0.27284813661E+03  0.53714532347E+02  0.10384827906E+04  0.99431897452E+03 0.  0.
        -13    1    3    3    0    0  0.38259179034E+03  0.13156585577E+03 -0.34803668347E+03  0.53368117509E+03  0.10566000000E+00 0.  1.
          4    1    3    3  501    0 -0.27103495856E+03  0.14128228084E+03  0.40175121582E+03  0.50480161554E+03  0.00000000000E+00 0.  1.
         13    1    1    2    0    0 -0.11155683178E+03 -0.27284813661E+03  0.37668448139E+02  0.29716991018E+03  0.10566000000E+00 0. -1.
<mgrwt>
<rscale>  1 0.75724263E+03</rscale>
<asrwt>0</asrwt>
<pdfrwt beam="2">  1       21 0.95713056E-01 0.10370927E+04</pdfrwt>
<pdfrwt beam="1">  1        4 0.10977198E+00 0.10370927E+04</pdfrwt>
<totfact> 0.22482602E+01</totfact>
</mgrwt>
</event>
<event>
 6    1  0.2415530E-005  0.1070221E+04  0.7818608E-02  0.9493616E-01
          4   -1    0    0  502    0 -0.00000000000E+00  0.00000000000E+00  0.40681154001E+03  0.40681154001E+03  0.00000000000E+00 0.  1.
         21   -1    0    0  501  502  0.00000000000E+00 -0.00000000000E+00 -0.14051757863E+04  0.14051757863E+04  0.00000000000E+00 0.  1.
    9000010    2    1    2  501    0 -0.25616605395E+03 -0.33407335523E+03 -0.84622700030E+03  0.13643582314E+04  0.98394471064E+03 0.  0.
        -13    1    3    3    0    0  0.34002762816E+03 -0.59997612233E+02 -0.77885389828E+02  0.35395571263E+03  0.10566000000E+00 0.  1.
          4    1    3    3  501    0 -0.59619368212E+03 -0.27407574300E+03 -0.76834161047E+03  0.10104025187E+04  0.00000000000E+00 0.  1.
         13    1    1    2    0    0  0.25616605395E+03  0.33407335523E+03 -0.15213724603E+03  0.44762909498E+03  0.10566000000E+00 0. -1.
<mgrwt>
<rscale>  1 0.84756124E+03</rscale>
<asrwt>0</asrwt>
<pdfrwt beam="2">  1       21 0.21618089E+00 0.10702211E+04</pdfrwt>
<pdfrwt beam="1">  1        4 0.62586390E-01 0.10702211E+04</pdfrwt>
<totfact> 0.84668640E+00</totfact>
</mgrwt>
</event>
<event>
 6    1  0.2415530E-005  0.9903635E+03  0.7818608E-02  0.9804638E-01
         21   -1    0    0  501  502  0.00000000000E+00  0.00000000000E+00  0.66638455160E+03  0.66638455160E+03  0.00000000000E+00 0.  1.
          4   -1    0    0  502    0 -0.00000000000E+00 -0.00000000000E+00 -0.54562893328E+03  0.54562893328E+03  0.00000000000E+00 0.  1.
    9000010    2    1    2  501    0 -0.16514202209E+03  0.83525021401E+02 -0.12281863726E+01  0.99036426555E+03  0.97291908882E+03 0.  0.
        -13    1    3    3    0    0 -0.12248131972E+03  0.52508799281E+03 -0.61459091982E+02  0.54267513765E+03  0.10566000000E+00 0.  1.
          4    1    3    3  501    0 -0.42660702369E+02 -0.44156297141E+03  0.60230905609E+02  0.44768912790E+03  0.00000000000E+00 0.  1.
         13    1    1    2    0    0  0.16514202209E+03 -0.83525021401E+02  0.12198380469E+03  0.22164921933E+03  0.10566000000E+00 0. -1.
<mgrwt>
<rscale>  1 0.65114236E+03</rscale>
<asrwt>0</asrwt>
<pdfrwt beam="1">  1       21 0.10252070E+00 0.99036350E+03</pdfrwt>
<pdfrwt beam="2">  1        4 0.83942913E-01 0.99036350E+03</pdfrwt>
<totfact> 0.36168848E+01</totfact>
</mgrwt>
</event>
<event>
 6    1  0.2415530E-005  0.1147211E+04  0.7818608E-02  0.9377008E-01
          4   -1    0    0  502    0 -0.00000000000E+00  0.00000000000E+00  0.13218678551E+04  0.13218678551E+04  0.00000000000E+00 0.  1.
         21   -1    0    0  501  502  0.00000000000E+00 -0.00000000000E+00 -0.54164748624E+03  0.54164748624E+03  0.00000000000E+00 0. -1.
    9000010    2    1    2  501    0  0.42345875914E+03 -0.29649155709E+03  0.37585943294E+03  0.12072133211E+04  0.10241431175E+04 0.  0.
        -13    1    3    3    0    0  0.69151032238E+03 -0.41958024195E+02  0.45546306928E+03  0.82909204579E+03  0.10566000000E+00 0.  1.
          4    1    3    3  501    0 -0.26805156325E+03 -0.25453353289E+03 -0.79603636340E+02  0.37812127531E+03  0.00000000000E+00 0.  1.
         13    1    1    2    0    0 -0.42345875914E+03  0.29649155709E+03  0.40436093595E+03  0.65630202026E+03  0.10566000000E+00 0. -1.
<mgrwt>
<rscale>  1 0.93992262E+03</rscale>
<asrwt>0</asrwt>
<pdfrwt beam="2">  1       21 0.83330383E-01 0.11472113E+04</pdfrwt>
<pdfrwt beam="1">  1        4 0.20336428E+00 0.11472113E+04</pdfrwt>
<totfact> 0.58190764E+00</totfact>
</mgrwt>
</event>
<event>
 6    1  0.2415530E-005  0.1085958E+04  0.7818608E-02  0.9483474E-01
         21   -1    0    0  501  502  0.00000000000E+00  0.00000000000E+00  0.43399845321E+03  0.43399845321E+03  0.00000000000E+00 0.  1.
          4   -1    0    0  502    0 -0.00000000000E+00 -0.00000000000E+00 -0.13797806186E+04  0.13797806186E+04  0.00000000000E+00 0.  1.
    9000010    2    1    2  501    0 -0.14990821588E+03 -0.38969822318E+03 -0.47726177345E+03  0.11862055325E+04  0.10024807164E+04 0.  0.
        -13    1    3    3    0    0 -0.23840053982E+03 -0.67837640246E+03 -0.13822988841E+03  0.73221368057E+03  0.10566000000E+00 0.  1.
          4    1    3    3  501    0  0.88492323937E+02  0.28867817928E+03 -0.33903188504E+03  0.45399185198E+03  0.00000000000E+00 0.  1.
         13    1    1    2    0    0  0.14990821588E+03  0.38969822318E+03 -0.46852039189E+03  0.62757353921E+03  0.10566000000E+00 0. -1.
<mgrwt>
<rscale>  1 0.85513272E+03</rscale>
<asrwt>0</asrwt>
<pdfrwt beam="1">  1       21 0.66768994E-01 0.10859580E+04</pdfrwt>
<pdfrwt beam="2">  1        4 0.21227394E+00 0.10859580E+04</pdfrwt>
<totfact> 0.85784167E+00</totfact>
</mgrwt>
</event>
<event>
 6    1  0.2415530E-005  0.1277241E+04  0.7818608E-02  0.9160172E-01
          4   -1    0    0  502    0 -0.00000000000E+00  0.00000000000E+00  0.15628662299E+04  0.15628662299E+04  0.00000000000E+00 0.  1.
         21   -1    0    0  501  502  0.00000000000E+00 -0.00000000000E+00 -0.72758124746E+03  0.72758124746E+03  0.00000000000E+00 0.  1.
    9000010    2    1    2  501    0  0.71199985270E+03  0.43021578076E+03  0.33778956307E+03  0.13211533467E+04  0.96918262899E+03 0.  0.
        -13    1    3    3    0    0  0.16418101633E+03 -0.31433511238E+02 -0.31200382415E+03  0.35396309016E+03  0.10566000000E+00 0.  1.
          4    1    3    3  501    0  0.54781883637E+03  0.46164929199E+03  0.64979338722E+03  0.96719025655E+03  0.00000000000E+00 0.  1.
         13    1    1    2    0    0 -0.71199985270E+03 -0.43021578076E+03  0.49749541935E+03  0.96929413064E+03  0.10566000000E+00 0. -1.
<mgrwt>
<rscale>  1 0.11474141E+04</rscale>
<asrwt>0</asrwt>
<pdfrwt beam="2">  1       21 0.11193558E+00 0.12772409E+04</pdfrwt>
<pdfrwt beam="1">  1        4 0.24044096E+00 0.12772409E+04</pdfrwt>
<totfact> 0.16001747E+00</totfact>
</mgrwt>
</event>
<event>
 6    1  0.2415530E-005  0.1018824E+04  0.7818608E-02  0.9761683E-01
          4   -1    0    0  502    0 -0.00000000000E+00  0.00000000000E+00  0.35200333919E+03  0.35200333919E+03  0.00000000000E+00 0.  1.
         21   -1    0    0  501  502  0.00000000000E+00 -0.00000000000E+00 -0.11655838232E+04  0.11655838232E+04  0.00000000000E+00 0.  1.
    9000010    2    1    2  501    0  0.16515167690E+03 -0.10524251299E+03 -0.46976344970E+03  0.11219089760E+04  0.99982547919E+03 0.  0.
        -13    1    3    3    0    0  0.27238137931E+03 -0.52119343570E+03 -0.24453367844E+03  0.63689162679E+03  0.10566000000E+00 0.  1.
          4    1    3    3  501    0 -0.10722970241E+03  0.41595092271E+03 -0.22522977126E+03  0.48501734922E+03  0.00000000000E+00 0.  1.
         13    1    1    2    0    0 -0.16515167690E+03  0.10524251299E+03 -0.34381703429E+03  0.39567818636E+03  0.10566000000E+00 0. -1.
<mgrwt>
<rscale>  1 0.67460037E+03</rscale>
<asrwt>0</asrwt>
<pdfrwt beam="2">  1       21 0.17932059E+00 0.10188239E+04</pdfrwt>
<pdfrwt beam="1">  1        4 0.54154359E-01 0.10188239E+04</pdfrwt>
<totfact> 0.21015762E+01</totfact>
</mgrwt>
</event>
<event>
 6    1  0.2415530E-005  0.1014416E+04  0.7818608E-02  0.9767343E-01
         21   -1    0    0  501  502  0.00000000000E+00  0.00000000000E+00  0.18651807337E+04  0.18651807337E+04  0.00000000000E+00 0.  1.
          4   -1    0    0  502    0 -0.00000000000E+00 -0.00000000000E+00 -0.21880758363E+03  0.21880758363E+03  0.00000000000E+00 0.  1.
    9000010    2    1    2  501    0 -0.12431856054E+03  0.14986547570E+03  0.15812538432E+04  0.18786707570E+04  0.99555277667E+03 0.  0.
        -13    1    3    3    0    0 -0.17319541656E+03  0.47628036030E+03  0.14270548417E+04  0.15143728624E+04  0.10566000000E+00 0.  1.
          4    1    3    3  501    0  0.48876856021E+02 -0.32641488460E+03  0.15419900153E+03  0.36429789461E+03  0.00000000000E+00 0.  1.
         13    1    1    2    0    0  0.12431856054E+03 -0.14986547570E+03  0.65119306855E+02  0.20531756036E+03  0.10566000000E+00 0. -1.
<mgrwt>
<rscale>  1 0.67144922E+03</rscale>
<asrwt>0</asrwt>
<pdfrwt beam="1">  1       21 0.28695087E+00 0.10144161E+04</pdfrwt>
<pdfrwt beam="2">  1        4 0.33662706E-01 0.10144161E+04</pdfrwt>
<totfact> 0.10997969E+01</totfact>
</mgrwt>
</event>
<event>
 6    1  0.2415530E-005  0.1010097E+04  0.7818608E-02  0.1003529E+00
          4   -1    0    0  502    0 -0.00000000000E+00  0.00000000000E+00  0.14390965139E+04  0.14390965139E+04  0.00000000000E+00 0.  1.
         21   -1    0    0  501  502  0.00000000000E+00 -0.00000000000E+00 -0.27068272008E+03  0.27068272008E+03  0.00000000000E+00 0.  1.
    9000010    2    1    2  501    0  0.20344046786E+01 -0.83274509309E+02  0.68787813593E+03  0.12220771606E+04  0.10066565819E+04 0.  0.
        -13    1    3    3    0    0  0.49351499920E+03  0.23797488697E+02  0.43865509742E+03  0.66071300922E+03  0.10566000000E+00 0.  1.
          4    1    3    3  501    0 -0.49148059452E+03 -0.10707199801E+03  0.24922303851E+03  0.56136415139E+03  0.00000000000E+00 0.  1.
         13    1    1    2    0    0 -0.20344046786E+01  0.83274509309E+02  0.48053565789E+03  0.48770207337E+03  0.10566000000E+00 0. -1.
<mgrwt>
<rscale>  1 0.54129356E+03</rscale>
<asrwt>0</asrwt>
<pdfrwt beam="2">  1       21 0.41643496E-01 0.10100972E+04</pdfrwt>
<pdfrwt beam="1">  1        4 0.22139946E+00 0.10100972E+04</pdfrwt>
<totfact> 0.21203194E+01</totfact>
</mgrwt>
</event>
<event>
 6    1  0.2415530E-005  0.1043403E+04  0.7818608E-02  0.9607400E-01
         21   -1    0    0  501  502  0.00000000000E+00  0.00000000000E+00  0.64939234815E+03  0.64939234815E+03  0.00000000000E+00 0.  1.
          4   -1    0    0  502    0 -0.00000000000E+00 -0.00000000000E+00 -0.11331815178E+04  0.11331815178E+04  0.00000000000E+00 0.  1.
    9000010    2    1    2  501    0  0.30576227188E+03  0.19625852638E+02  0.17317370318E+03  0.10576766536E+04  0.99740414634E+03 0.  0.
        -13    1    3    3    0    0 -0.22090609262E+03  0.34343719002E+03  0.16204621134E+03  0.43932629220E+03  0.10566000000E+00 0.  1.
          4    1    3    3  501    0  0.52666836450E+03 -0.32381133738E+03  0.11127491837E+02  0.61835036141E+03  0.00000000000E+00 0.  1.
         13    1    1    2    0    0 -0.30576227188E+03 -0.19625852638E+02 -0.65696287282E+03  0.72489721231E+03  0.10566000000E+00 0. -1.
<mgrwt>
<rscale>  1 0.76808340E+03</rscale>
<asrwt>0</asrwt>
<pdfrwt beam="1">  1       21 0.99906517E-01 0.10434035E+04</pdfrwt>
<pdfrwt beam="2">  1        4 0.17433562E+00 0.10434035E+04</pdfrwt>
<totfact> 0.59848961E+00</totfact>
</mgrwt>
</event>
<event>
 6    1  0.2415530E-005  0.1008497E+04  0.7818608E-02  0.9437274E-01
         21   -1    0    0  501  502  0.00000000000E+00  0.00000000000E+00  0.10002052470E+04  0.10002052470E+04  0.00000000000E+00 0.  1.
          4   -1    0    0  502    0 -0.00000000000E+00 -0.00000000000E+00 -0.75955579842E+03  0.75955579842E+03  0.00000000000E+00 0.  1.
    9000010    2    1    2  501    0  0.25499492968E+02  0.61311132874E+03 -0.16815012123E+03  0.10224193167E+04  0.80031935515E+03 0.  0.
        -13    1    3    3    0    0 -0.23599142924E+03  0.29435278121E+03 -0.39963720696E+03  0.54958659266E+03  0.10566000000E+00 0.  1.
          4    1    3    3  501    0  0.26149092221E+03  0.31875854752E+03  0.23148708573E+03  0.47283272399E+03  0.00000000000E+00 0.  1.
         13    1    1    2    0    0 -0.25499492968E+02 -0.61311132874E+03  0.40879956985E+03  0.73734172881E+03  0.10566000000E+00 0. -1.
<mgrwt>
<rscale>  1 0.89070680E+03</rscale>
<asrwt>0</asrwt>
<pdfrwt beam="1">  1       21 0.15387773E+00 0.10084973E+04</pdfrwt>
<pdfrwt beam="2">  1        4 0.11685474E+00 0.10084973E+04</pdfrwt>
<totfact> 0.55827294E+00</totfact>
</mgrwt>
</event>
<event>
 6    1  0.2415530E-005  0.1080439E+04  0.7818608E-02  0.9515167E-01
         21   -1    0    0  501  502  0.00000000000E+00  0.00000000000E+00  0.41496349298E+03  0.41496349298E+03  0.00000000000E+00 0.  1.
          4   -1    0    0  502    0 -0.00000000000E+00 -0.00000000000E+00 -0.13431412581E+04  0.13431412581E+04  0.00000000000E+00 0.  1.
    9000010    2    1    2  501    0 -0.11147812687E+03  0.36271593974E+03 -0.51429508968E+03  0.11965986461E+04  0.10116119092E+04 0.  0.
        -13    1    3    3    0    0 -0.33074322427E+03  0.51091494748E+03  0.10645532712E+02  0.60871873841E+03  0.10566000000E+00 0.  1.
          4    1    3    3  501    0  0.21926509741E+03 -0.14819900773E+03 -0.52494062239E+03  0.58787990769E+03  0.00000000000E+00 0.  1.
         13    1    1    2    0    0  0.11147812687E+03 -0.36271593974E+03 -0.41388267539E+03  0.56150610493E+03  0.10566000000E+00 0. -1.
<mgrwt>
<rscale>  1 0.83174822E+03</rscale>
<asrwt>0</asrwt>
<pdfrwt beam="1">  1       21 0.63840537E-01 0.10804392E+04</pdfrwt>
<pdfrwt beam="2">  1        4 0.20663712E+00 0.10804392E+04</pdfrwt>
<totfact> 0.10338930E+01</totfact>
</mgrwt>
</event>
<event>
 6    1  0.2415530E-005  0.1095613E+04  0.7818608E-02  0.9505278E-01
          4   -1    0    0  502    0 -0.00000000000E+00  0.00000000000E+00  0.16075452014E+04  0.16075452014E+04  0.00000000000E+00 0.  1.
         21   -1    0    0  501  502  0.00000000000E+00 -0.00000000000E+00 -0.38594137329E+03  0.38594137329E+03  0.00000000000E+00 0.  1.
    9000010    2    1    2  501    0  0.10334183968E+03  0.36224292135E+03  0.11867840317E+04  0.16151852407E+04  0.10288185234E+04 0.  0.
        -13    1    3    3    0    0 -0.10594705176E+03  0.57854451699E+03  0.11749862247E+04  0.13139753328E+04  0.10566000000E+00 0.  1.
          4    1    3    3  501    0  0.20928889144E+03 -0.21630159564E+03  0.11797807000E+02  0.30120990789E+03  0.00000000000E+00 0.  1.
         13    1    1    2    0    0 -0.10334183968E+03 -0.36224292135E+03  0.34819796429E+02  0.37830133397E+03  0.10566000000E+00 0. -1.
<mgrwt>
<rscale>  1 0.83895840E+03</rscale>
<asrwt>0</asrwt>
<pdfrwt beam="2">  1       21 0.59375597E-01 0.10956126E+04</pdfrwt>
<pdfrwt beam="1">  1        4 0.24731464E+00 0.10956126E+04</pdfrwt>
<totfact> 0.67008896E+00</totfact>
</mgrwt>
</event>
<event>
 6    1  0.2415530E-005  0.1098339E+04  0.7818608E-02  0.9447696E-01
          4   -1    0    0  502    0 -0.00000000000E+00  0.00000000000E+00  0.16059403852E+04  0.16059403852E+04  0.00000000000E+00 0.  1.
         21   -1    0    0  501  502  0.00000000000E+00 -0.00000000000E+00 -0.39225605760E+03  0.39225605760E+03  0.00000000000E+00 0.  1.
    9000010    2    1    2  501    0  0.41377377124E+03  0.19593650301E+03  0.66649467437E+03  0.12847426078E+04  0.99837296149E+03 0.  0.
        -13    1    3    3    0    0  0.56199523349E+02  0.57443119972E+03  0.36925495434E+03  0.68518524656E+03  0.10566000000E+00 0.  1.
          4    1    3    3  501    0  0.35757424789E+03 -0.37849469671E+03  0.29723972004E+03  0.59955736119E+03  0.00000000000E+00 0.  1.
         13    1    1    2    0    0 -0.41377377124E+03 -0.19593650301E+03  0.54718965321E+03  0.71345383504E+03  0.10566000000E+00 0. -1.
<mgrwt>
<rscale>  1 0.88252325E+03</rscale>
<asrwt>0</asrwt>
<pdfrwt beam="2">  1       21 0.60347087E-01 0.10983389E+04</pdfrwt>
<pdfrwt beam="1">  1        4 0.24706775E+00 0.10983389E+04</pdfrwt>
<totfact> 0.64832730E+00</totfact>
</mgrwt>
</event>
<event>
 6    1  0.2415530E-005  0.8971742E+03  0.7818608E-02  0.1021516E+00
         21   -1    0    0  501  502  0.00000000000E+00  0.00000000000E+00  0.20350662974E+03  0.20350662974E+03  0.00000000000E+00 0.  1.
          4   -1    0    0  502    0 -0.00000000000E+00 -0.00000000000E+00 -0.13299345863E+04  0.13299345863E+04  0.00000000000E+00 0.  1.
    9000010    2    1    2  501    0  0.17146908262E+02  0.66215658031E+02 -0.80682819838E+03  0.12066040296E+04  0.89456302895E+03 0.  0.
        -13    1    3    3    0    0 -0.20947471860E+03 -0.20973393779E+03 -0.79595430811E+03  0.84935931981E+03  0.10566000000E+00 0.  1.
          4    1    3    3  501    0  0.22662162686E+03  0.27594959582E+03 -0.10873890276E+02  0.35724470981E+03  0.00000000000E+00 0.  1.
         13    1    1    2    0    0 -0.17146908262E+02 -0.66215658031E+02 -0.31959975820E+03  0.32683718644E+03  0.10566000000E+00 0. -1.
<mgrwt>
<rscale>  1 0.47143453E+03</rscale>
<asrwt>0</asrwt>
<pdfrwt beam="1">  1       21 0.31308712E-01 0.89717420E+03</pdfrwt>
<pdfrwt beam="2">  1        4 0.20460532E+00 0.89717420E+03</pdfrwt>
<totfact> 0.49559558E+01</totfact>
</mgrwt>
</event>
<event>
 6    1  0.2415530E-005  0.7643373E+03  0.7818608E-02  0.1022659E+00
         21   -1    0    0  501  502  0.00000000000E+00  0.00000000000E+00  0.98486678632E+03  0.98486678632E+03  0.00000000000E+00 0.  1.
          4   -1    0    0  502    0 -0.00000000000E+00 -0.00000000000E+00 -0.32112843365E+03  0.32112843365E+03  0.00000000000E+00 0.  1.
    9000010    2    1    2  501    0 -0.10426766884E+03  0.23447672349E+02  0.81723020117E+03  0.11189623383E+04  0.75682889263E+03 0.  0.
        -13    1    3    3    0    0  0.15869882704E+03 -0.71400817491E+02  0.82114878689E+03  0.83938592782E+03  0.10566000000E+00 0.  1.
          4    1    3    3  501    0 -0.26296649588E+03  0.94848489840E+02 -0.39185857191E+01  0.27957641048E+03  0.00000000000E+00 0.  1.
         13    1    1    2    0    0  0.10426766884E+03 -0.23447672349E+02 -0.15349184850E+03  0.18703288167E+03  0.10566000000E+00 0. -1.
<mgrwt>
<rscale>  1 0.46739001E+03</rscale>
<asrwt>0</asrwt>
<pdfrwt beam="1">  1       21 0.15151797E+00 0.76433730E+03</pdfrwt>
<pdfrwt beam="2">  1        4 0.49404375E-01 0.76433730E+03</pdfrwt>
<totfact> 0.42794251E+01</totfact>
</mgrwt>
</event>
<event>
 6    1  0.2415530E-005  0.1119242E+04  0.7818608E-02  0.9426441E-01
          4   -1    0    0  502    0 -0.00000000000E+00  0.00000000000E+00  0.12993782088E+04  0.12993782088E+04  0.00000000000E+00 0.  1.
         21   -1    0    0  501  502  0.00000000000E+00 -0.00000000000E+00 -0.66866152486E+03  0.66866152486E+03  0.00000000000E+00 0.  1.
    9000010    2    1    2  501    0 -0.46529189025E+03  0.33825749127E+02 -0.75344506354E+02  0.11217755078E+04  0.10173803471E+04 0.  0.
        -13    1    3    3    0    0 -0.44835863998E+03  0.44901606980E+03 -0.23495237504E+03  0.67664136046E+03  0.10566000000E+00 0.  1.
          4    1    3    3  501    0 -0.16933250274E+02 -0.41519032068E+03  0.15960786869E+03  0.44513414731E+03  0.00000000000E+00 0.  1.
         13    1    1    2    0    0  0.46529189025E+03 -0.33825749127E+02  0.70606119031E+03  0.84626422592E+03  0.10566000000E+00 0. -1.
<mgrwt>
<rscale>  1 0.89931250E+03</rscale>
<asrwt>0</asrwt>
<pdfrwt beam="2">  1       21 0.10287100E+00 0.11192424E+04</pdfrwt>
<pdfrwt beam="1">  1        4 0.19990434E+00 0.11192424E+04</pdfrwt>
<totfact> 0.36813477E+00</totfact>
</mgrwt>
</event>
<event>
 6    1  0.2415530E-005  0.9641874E+03  0.7818608E-02  0.1041807E+00
         21   -1    0    0  501  502  0.00000000000E+00  0.00000000000E+00  0.56404273166E+03  0.56404273166E+03  0.00000000000E+00 0.  1.
          4   -1    0    0  502    0 -0.00000000000E+00 -0.00000000000E+00 -0.49140438135E+03  0.49140438135E+03  0.00000000000E+00 0.  1.
    9000010    2    1    2  501    0 -0.22483304690E+02 -0.20218206821E+02  0.14685528409E+03  0.97530699009E+03  0.96371311892E+03 0.  0.
        -13    1    3    3    0    0 -0.31051335840E+03  0.16085733950E+03  0.41458355581E+03  0.54237732745E+03  0.10566000000E+00 0.  1.
          4    1    3    3  501    0  0.28803005371E+03 -0.18107554632E+03 -0.26772827172E+03  0.43292966264E+03  0.00000000000E+00 0.  1.
         13    1    1    2    0    0  0.22483304690E+02  0.20218206821E+02 -0.74216933783E+02  0.80140122916E+02  0.10566000000E+00 0. -1.
<mgrwt>
<rscale>  1 0.40574795E+03</rscale>
<asrwt>0</asrwt>
<pdfrwt beam="1">  1       21 0.86775805E-01 0.96418735E+03</pdfrwt>
<pdfrwt beam="2">  1        4 0.75600674E-01 0.96418735E+03</pdfrwt>
<totfact> 0.69244863E+01</totfact>
</mgrwt>
</event>
<event>
 6    1  0.2415530E-005  0.1125866E+04  0.7818608E-02  0.9389498E-01
          4   -1    0    0  502    0 -0.00000000000E+00  0.00000000000E+00  0.41540522070E+03  0.41540522070E+03  0.00000000000E+00 0.  1.
         21   -1    0    0  501  502  0.00000000000E+00 -0.00000000000E+00 -0.17442224378E+04  0.17442224378E+04  0.00000000000E+00 0. -1.
    9000010    2    1    2  501    0 -0.51593202572E+03  0.85272787564E+02 -0.11437588961E+04  0.16049170161E+04  0.99705411716E+03 0.  0.
        -13    1    3    3    0    0 -0.58389632006E+02  0.49790884580E+03 -0.61143057838E+03  0.79067688166E+03  0.10566000000E+00 0.  1.
          4    1    3    3  501    0 -0.45754239371E+03 -0.41263605824E+03 -0.53232831776E+03  0.81424013441E+03  0.00000000000E+00 0.  1.
         13    1    1    2    0    0  0.51593202572E+03 -0.85272787564E+02 -0.18505832092E+03  0.55471064238E+03  0.10566000000E+00 0. -1.
<mgrwt>
<rscale>  1 0.92945040E+03</rscale>
<asrwt>0</asrwt>
<pdfrwt beam="2">  1       21 0.26834192E+00 0.11258660E+04</pdfrwt>
<pdfrwt beam="1">  1        4 0.63908495E-01 0.11258660E+04</pdfrwt>
<totfact> 0.36991820E+00</totfact>
</mgrwt>
</event>
<event>
 6    1  0.2415530E-005  0.9948406E+03  0.7818608E-02  0.9739468E-01
          4   -1    0    0  502    0 -0.00000000000E+00  0.00000000000E+00  0.10097582448E+04  0.10097582448E+04  0.00000000000E+00 0.  1.
         21   -1    0    0  501  502  0.00000000000E+00 -0.00000000000E+00 -0.86186416593E+03  0.86186416593E+03  0.00000000000E+00 0.  1.
    9000010    2    1    2  501    0 -0.22360827756E+03  0.35650931955E+02 -0.55080880846E+03  0.11371447823E+04  0.96872919937E+03 0.  0.
        -13    1    3    3    0    0 -0.56437150132E+03  0.18335728185E+03 -0.47016173710E+03  0.75709124583E+03  0.10566000000E+00 0.  1.
          4    1    3    3  501    0  0.34076322376E+03 -0.14770634989E+03 -0.80647071351E+02  0.38005353647E+03  0.00000000000E+00 0.  1.
         13    1    1    2    0    0  0.22360827756E+03 -0.35650931955E+02  0.69870288729E+03  0.73447762840E+03  0.10566000000E+00 0. -1.
<mgrwt>
<rscale>  1 0.68714725E+03</rscale>
<asrwt>0</asrwt>
<pdfrwt beam="2">  1       21 0.13259449E+00 0.99484065E+03</pdfrwt>
<pdfrwt beam="1">  1        4 0.15534742E+00 0.99484065E+03</pdfrwt>
<totfact> 0.40106832E+00</totfact>
</mgrwt>
</event>
<event>
 6    1  0.2415530E-005  0.1021705E+04  0.7818608E-02  0.9932677E-01
         21   -1    0    0  501  502  0.00000000000E+00  0.00000000000E+00  0.92396630694E+03  0.92396630694E+03  0.00000000000E+00 0.  1.
          4   -1    0    0  502    0 -0.00000000000E+00 -0.00000000000E+00 -0.38318956587E+03  0.38318956587E+03  0.00000000000E+00 0.  1.
    9000010    2    1    2  501    0 -0.40087813542E+02  0.10387989313E+03  0.59603482255E+03  0.11828516825E+04  0.10156192831E+04 0.  0.
        -13    1    3    3    0    0 -0.49870382438E+03 -0.90589075442E+02  0.19403946972E+03  0.54273677967E+03  0.10566000000E+00 0.  1.
          4    1    3    3  501    0  0.45861601084E+03  0.19446896857E+03  0.40199535284E+03  0.64011490284E+03  0.00000000000E+00 0.  1.
         13    1    1    2    0    0  0.40087813542E+02 -0.10387989313E+03 -0.55258081488E+02  0.12430419029E+03  0.10566000000E+00 0. -1.
<mgrwt>
<rscale>  1 0.58703412E+03</rscale>
<asrwt>0</asrwt>
<pdfrwt beam="1">  1       21 0.14214866E+00 0.10217047E+04</pdfrwt>
<pdfrwt beam="2">  1        4 0.58952241E-01 0.10217047E+04</pdfrwt>
<totfact> 0.34012644E+01</totfact>
</mgrwt>
</event>
<event>
 6    1  0.2415530E-005  0.1163340E+04  0.7818608E-02  0.9378417E-01
          4   -1    0    0  502    0 -0.00000000000E+00  0.00000000000E+00  0.10254137110E+04  0.10254137110E+04  0.00000000000E+00 0.  1.
         21   -1    0    0  501  502  0.00000000000E+00 -0.00000000000E+00 -0.68650050592E+03  0.68650050592E+03  0.00000000000E+00 0. -1.
    9000010    2    1    2  501    0 -0.15586382207E+03 -0.46795561306E+03  0.36136811629E+03  0.12181731704E+04  0.10536047507E+04 0.  0.
        -13    1    3    3    0    0  0.44475972890E+03 -0.30969118195E+03  0.18112091865E+03  0.57142334828E+03  0.10566000000E+00 0.  1.
          4    1    3    3  501    0 -0.60062355097E+03 -0.15826443112E+03  0.18024719764E+03  0.64674982211E+03  0.00000000000E+00 0.  1.
         13    1    1    2    0    0  0.15586382207E+03  0.46795561306E+03 -0.22454911201E+02  0.49374104653E+03  0.10566000000E+00 0. -1.
<mgrwt>
<rscale>  1 0.93873355E+03</rscale>
<asrwt>0</asrwt>
<pdfrwt beam="2">  1       21 0.10561546E+00 0.11633396E+04</pdfrwt>
<pdfrwt beam="1">  1        4 0.15775595E+00 0.11633396E+04</pdfrwt>
<totfact> 0.67944141E+00</totfact>
</mgrwt>
</event>
<event>
 6    1  0.2415530E-005  0.1000044E+04  0.7818608E-02  0.9888685E-01
          4   -1    0    0  502    0 -0.00000000000E+00  0.00000000000E+00  0.88579929420E+03  0.88579929420E+03  0.00000000000E+00 0.  1.
         21   -1    0    0  501  502  0.00000000000E+00 -0.00000000000E+00 -0.62122505113E+03  0.62122505113E+03  0.00000000000E+00 0.  1.
    9000010    2    1    2  501    0  0.59794722675E+02 -0.12298268778E+03 -0.20250225585E+03  0.10203410629E+04  0.99065057955E+03 0.  0.
        -13    1    3    3    0    0 -0.26481744218E+03  0.50446801356E+02 -0.48600997103E+03  0.55576871138E+03  0.10566000000E+00 0.  1.
          4    1    3    3  501    0  0.32461216485E+03 -0.17342948914E+03  0.28350771518E+03  0.46457235156E+03  0.00000000000E+00 0.  1.
         13    1    1    2    0    0 -0.59794722675E+02  0.12298268778E+03  0.46707649892E+03  0.48668328239E+03  0.10566000000E+00 0. -1.
<mgrwt>
<rscale>  1 0.60812817E+03</rscale>
<asrwt>0</asrwt>
<pdfrwt beam="2">  1       21 0.95573084E-01 0.10000444E+04</pdfrwt>
<pdfrwt beam="1">  1        4 0.13627682E+00 0.10000444E+04</pdfrwt>
<totfact> 0.13108238E+01</totfact>
</mgrwt>
</event>
<event>
 6    1  0.2415530E-005  0.1043732E+04  0.7818608E-02  0.9767299E-01
          4   -1    0    0  502    0 -0.00000000000E+00  0.00000000000E+00  0.10738685487E+04  0.10738685487E+04  0.00000000000E+00 0.  1.
         21   -1    0    0  501  502  0.00000000000E+00 -0.00000000000E+00 -0.37529805608E+03  0.37529805608E+03  0.00000000000E+00 0.  1.
    9000010    2    1    2  501    0  0.16190172455E+03  0.75858071551E+02  0.43517313701E+03  0.11308196344E+04  0.10283048045E+04 0.  0.
        -13    1    3    3    0    0 -0.35789264485E+03  0.16581889654E+03 -0.69791894159E+02  0.40056706222E+03  0.10566000000E+00 0.  1.
          4    1    3    3  501    0  0.51979436940E+03 -0.89960824986E+02  0.50496503117E+03  0.73025257219E+03  0.00000000000E+00 0.  1.
         13    1    1    2    0    0 -0.16190172455E+03 -0.75858071551E+02  0.26339735559E+03  0.31834697034E+03  0.10566000000E+00 0. -1.
<mgrwt>
<rscale>  1 0.67147367E+03</rscale>
<asrwt>0</asrwt>
<pdfrwt beam="2">  1       21 0.57738163E-01 0.10437324E+04</pdfrwt>
<pdfrwt beam="1">  1        4 0.16521055E+00 0.10437324E+04</pdfrwt>
<totfact> 0.25063077E+01</totfact>
</mgrwt>
</event>
<event>
 6    1  0.2415530E-005  0.9779329E+03  0.7818608E-02  0.9982480E-01
         21   -1    0    0  501  502  0.00000000000E+00  0.00000000000E+00  0.63682454999E+03  0.63682454999E+03  0.00000000000E+00 0.  1.
          4   -1    0    0  502    0 -0.00000000000E+00 -0.00000000000E+00 -0.47787508755E+03  0.47787508755E+03  0.00000000000E+00 0.  1.
    9000010    2    1    2  501    0  0.81987536500E+02  0.70887700045E+02  0.20112209996E+03  0.99840017633E+03  0.97190832430E+03 0.  0.
        -13    1    3    3    0    0  0.50989851691E+03 -0.28491516000E+02 -0.10464314547E+02  0.51080111303E+03  0.10566000000E+00 0.  1.
          4    1    3    3  501    0 -0.42791098041E+03  0.99379216044E+02  0.21158641450E+03  0.48759906330E+03  0.00000000000E+00 0.  1.
         13    1    1    2    0    0 -0.81987536500E+02 -0.70887700045E+02 -0.42172637514E+02  0.11629946121E+03  0.10566000000E+00 0. -1.
<mgrwt>
<rscale>  1 0.56425164E+03</rscale>
<asrwt>0</asrwt>
<pdfrwt beam="1">  1       21 0.97973008E-01 0.97793293E+03</pdfrwt>
<pdfrwt beam="2">  1        4 0.73519244E-01 0.97793293E+03</pdfrwt>
<totfact> 0.54889814E+01</totfact>
</mgrwt>
</event>
<event>
 6    1  0.2415530E-005  0.1011989E+04  0.7818608E-02  0.9934044E-01
         21   -1    0    0  501  502  0.00000000000E+00  0.00000000000E+00  0.76462429405E+03  0.76462429405E+03  0.00000000000E+00 0.  1.
          4   -1    0    0  502    0 -0.00000000000E+00 -0.00000000000E+00 -0.42866051566E+03  0.42866051566E+03  0.00000000000E+00 0.  1.
    9000010    2    1    2  501    0  0.11408194272E+03  0.84935801519E+00  0.36459283871E+03  0.10756623402E+04  0.10055377273E+04 0.  0.
        -13    1    3    3    0    0 -0.37397540049E+02 -0.44101103672E+03 -0.57232721167E+02  0.44627895541E+03  0.10566000000E+00 0.  1.
          4    1    3    3  501    0  0.15147948277E+03  0.44186039473E+03  0.42182555988E+03  0.62938338483E+03  0.00000000000E+00 0.  1.
         13    1    1    2    0    0 -0.11408194272E+03 -0.84935801519E+00 -0.28629060321E+02  0.11762246946E+03  0.10566000000E+00 0. -1.
<mgrwt>
<rscale>  1 0.58639343E+03</rscale>
<asrwt>0</asrwt>
<pdfrwt beam="1">  1       21 0.11763451E+00 0.10119889E+04</pdfrwt>
<pdfrwt beam="2">  1        4 0.65947772E-01 0.10119889E+04</pdfrwt>
<totfact> 0.44022024E+01</totfact>
</mgrwt>
</event>
<event>
 6    1  0.2415530E-005  0.1003272E+04  0.7818608E-02  0.9927181E-01
         21   -1    0    0  501  502  0.00000000000E+00  0.00000000000E+00  0.57175076792E+03  0.57175076792E+03  0.00000000000E+00 0.  1.
          4   -1    0    0  502    0 -0.00000000000E+00 -0.00000000000E+00 -0.77393134252E+03  0.77393134252E+03  0.00000000000E+00 0.  1.
    9000010    2    1    2  501    0  0.17466304280E+02 -0.11840075175E+03  0.11197503130E+03  0.10095012578E+04  0.99610771108E+03 0.  0.
        -13    1    3    3    0    0  0.48744427820E+02  0.24902408016E+03 -0.34122457950E+03  0.42523315553E+03  0.10566000000E+00 0.  1.
          4    1    3    3  501    0 -0.31278123540E+02 -0.36742483191E+03  0.45319961079E+03  0.58426810228E+03  0.00000000000E+00 0.  1.
         13    1    1    2    0    0 -0.17466304280E+02  0.11840075175E+03 -0.31415560589E+03  0.33618085263E+03  0.10566000000E+00 0. -1.
<mgrwt>
<rscale>  1 0.58961881E+03</rscale>
<asrwt>0</asrwt>
<pdfrwt beam="1">  1       21 0.87961657E-01 0.10032718E+04</pdfrwt>
<pdfrwt beam="2">  1        4 0.11906636E+00 0.10032718E+04</pdfrwt>
<totfact> 0.22630618E+01</totfact>
</mgrwt>
</event>
<event>
 6    1  0.2415530E-005  0.1043360E+04  0.7818608E-02  0.9656122E-01
         21   -1    0    0  501  502  0.00000000000E+00  0.00000000000E+00  0.11932318879E+04  0.11932318879E+04  0.00000000000E+00 0.  1.
          4   -1    0    0  502    0 -0.00000000000E+00 -0.00000000000E+00 -0.37204520517E+03  0.37204520517E+03  0.00000000000E+00 0.  1.
    9000010    2    1    2  501    0 -0.36500280738E+01 -0.25959694788E+03  0.77936070702E+03  0.13023069019E+04  0.10105425557E+04 0.  0.
        -13    1    3    3    0    0  0.20212130746E+03 -0.12966768325E+03  0.96613795720E+03  0.99553467770E+03  0.10566000000E+00 0.  1.
          4    1    3    3  501    0 -0.20577133553E+03 -0.12992926464E+03 -0.18677725018E+03  0.30677222417E+03  0.00000000000E+00 0.  1.
         13    1    1    2    0    0  0.36500280738E+01  0.25959694788E+03  0.41825975721E+02  0.26297019121E+03  0.10566000000E+00 0. -1.
<mgrwt>
<rscale>  1 0.73690463E+03</rscale>
<asrwt>0</asrwt>
<pdfrwt beam="1">  1       21 0.18357413E+00 0.10433600E+04</pdfrwt>
<pdfrwt beam="2">  1        4 0.57237724E-01 0.10433600E+04</pdfrwt>
<totfact> 0.17331170E+01</totfact>
</mgrwt>
</event>
<event>
 6    1  0.2415530E-005  0.1041554E+04  0.7818608E-02  0.1013180E+00
         21   -1    0    0  501  502  0.00000000000E+00  0.00000000000E+00  0.25282849560E+03  0.25282849560E+03  0.00000000000E+00 0.  1.
          4   -1    0    0  502    0 -0.00000000000E+00 -0.00000000000E+00 -0.12851443739E+04  0.12851443739E+04  0.00000000000E+00 0.  1.
    9000010    2    1    2  501    0  0.31976145751E+02  0.46384648123E+02 -0.84149970202E+03  0.13390134923E+04  0.10400295066E+04 0.  0.
        -13    1    3    3    0    0  0.47235001066E+02 -0.41310643559E+03 -0.43518991788E+02  0.41806935580E+03  0.10566000000E+00 0.  1.
          4    1    3    3  501    0 -0.15258855314E+02  0.45949108371E+03 -0.79798071023E+03  0.92094413651E+03  0.00000000000E+00 0.  1.
         13    1    1    2    0    0 -0.31976145751E+02 -0.46384648123E+02 -0.19081617630E+03  0.19895937721E+03  0.10566000000E+00 0. -1.
<mgrwt>
<rscale>  1 0.50229940E+03</rscale>
<asrwt>0</asrwt>
<pdfrwt beam="1">  1       21 0.38896692E-01 0.10415543E+04</pdfrwt>
<pdfrwt beam="2">  1        4 0.19771452E+00 0.10415543E+04</pdfrwt>
<totfact> 0.34772328E+01</totfact>
</mgrwt>
</event>
<event>
 6    1  0.2415530E-005  0.1068136E+04  0.7818608E-02  0.9581618E-01
          4   -1    0    0  502    0 -0.00000000000E+00  0.00000000000E+00  0.84072126543E+03  0.84072126543E+03  0.00000000000E+00 0.  1.
         21   -1    0    0  501  502  0.00000000000E+00 -0.00000000000E+00 -0.83851380160E+03  0.83851380160E+03  0.00000000000E+00 0.  1.
    9000010    2    1    2  501    0 -0.29665657957E+03 -0.96623666174E+02 -0.42554876736E+03  0.11497856704E+04  0.10215547344E+04 0.  0.
        -13    1    3    3    0    0 -0.15591615797E+03 -0.15370158006E+03  0.32066233014E+03  0.38827614550E+03  0.10566000000E+00 0.  1.
          4    1    3    3  501    0 -0.14074042159E+03  0.57077913883E+02 -0.74621109750E+03  0.76150952493E+03  0.00000000000E+00 0.  1.
         13    1    1    2    0    0  0.29665657957E+03  0.96623666174E+02  0.42775623120E+03  0.52944939660E+03  0.10566000000E+00 0. -1.
<mgrwt>
<rscale>  1 0.78524858E+03</rscale>
<asrwt>0</asrwt>
<pdfrwt beam="2">  1       21 0.12900212E+00 0.10681364E+04</pdfrwt>
<pdfrwt beam="1">  1        4 0.12934173E+00 0.10681364E+04</pdfrwt>
<totfact> 0.69336795E+00</totfact>
</mgrwt>
</event>
<event>
 6    1  0.2415530E-005  0.1061331E+04  0.7818608E-02  0.9590526E-01
          4   -1    0    0  502    0 -0.00000000000E+00  0.00000000000E+00  0.11363048897E+04  0.11363048897E+04  0.00000000000E+00 0.  1.
         21   -1    0    0  501  502  0.00000000000E+00 -0.00000000000E+00 -0.75659901147E+03  0.75659901147E+03  0.00000000000E+00 0.  1.
    9000010    2    1    2  501    0  0.30818235246E+03 -0.12861331721E+02 -0.33625617894E+03  0.11133248771E+04  0.10155206980E+04 0.  0.
        -13    1    3    3    0    0  0.28617098611E+03 -0.24603943995E+03  0.26957974675E+03  0.46379142977E+03  0.10566000000E+00 0.  1.
          4    1    3    3  501    0  0.22011366353E+02  0.23317810823E+03 -0.60583592569E+03  0.64953344738E+03  0.00000000000E+00 0.  1.
         13    1    1    2    0    0 -0.30818235246E+03  0.12861331721E+02  0.71596205716E+03  0.77957902401E+03  0.10566000000E+00 0. -1.
<mgrwt>
<rscale>  1 0.77926404E+03</rscale>
<asrwt>0</asrwt>
<pdfrwt beam="2">  1       21 0.11639985E+00 0.10613313E+04</pdfrwt>
<pdfrwt beam="1">  1        4 0.17481614E+00 0.10613313E+04</pdfrwt>
<totfact> 0.40270356E+00</totfact>
</mgrwt>
</event>
<event>
 6    1  0.2415530E-005  0.1231035E+04  0.7818608E-02  0.9271104E-01
          4   -1    0    0  502    0 -0.00000000000E+00  0.00000000000E+00  0.87490620706E+03  0.87490620706E+03  0.00000000000E+00 0.  1.
         21   -1    0    0  501  502  0.00000000000E+00 -0.00000000000E+00 -0.97359621294E+03  0.97359621294E+03  0.00000000000E+00 0. -1.
    9000010    2    1    2  501    0 -0.58346433804E+02 -0.61202567450E+03 -0.60830774946E+02  0.12325372707E+04  0.10665214522E+04 0.  0.
        -13    1    3    3    0    0  0.23006118328E+03 -0.33144320693E+01  0.36802010242E+03  0.43402527629E+03  0.10566000000E+00 0.  1.
          4    1    3    3  501    0 -0.28840761708E+03 -0.60871124243E+03 -0.42885087737E+03  0.79851199444E+03  0.00000000000E+00 0.  1.
         13    1    1    2    0    0  0.58346433804E+02  0.61202567450E+03 -0.37859230938E+02  0.61596514927E+03  0.10566000000E+00 0. -1.
<mgrwt>
<rscale>  1 0.10348716E+04</rscale>
<asrwt>0</asrwt>
<pdfrwt beam="2">  1       21 0.14978403E+00 0.12310352E+04</pdfrwt>
<pdfrwt beam="1">  1        4 0.13460096E+00 0.12310352E+04</pdfrwt>
<totfact> 0.40866868E+00</totfact>
</mgrwt>
</event>
<event>
 6    1  0.2415530E-005  0.1030385E+04  0.7818608E-02  0.9706976E-01
          4   -1    0    0  502    0 -0.00000000000E+00  0.00000000000E+00  0.42590688729E+03  0.42590688729E+03  0.00000000000E+00 0.  1.
         21   -1    0    0  501  502  0.00000000000E+00 -0.00000000000E+00 -0.15762791032E+04  0.15762791032E+04  0.00000000000E+00 0.  1.
    9000010    2    1    2  501    0 -0.36819996518E+02  0.22413542517E+03 -0.13510287420E+04  0.16991093441E+04  0.10050380593E+04 0.  0.
        -13    1    3    3    0    0 -0.47714526907E+03  0.27520259555E+03 -0.52128378413E+03  0.75838042640E+03  0.10566000000E+00 0.  1.
          4    1    3    3  501    0  0.44032527255E+03 -0.51067170376E+02 -0.82974495788E+03  0.94072891773E+03  0.00000000000E+00 0.  1.
         13    1    1    2    0    0  0.36819996518E+02 -0.22413542517E+03  0.20065652607E+03  0.30307664638E+03  0.10566000000E+00 0. -1.
<mgrwt>
<rscale>  1 0.70602971E+03</rscale>
<asrwt>0</asrwt>
<pdfrwt beam="2">  1       21 0.24250448E+00 0.10303853E+04</pdfrwt>
<pdfrwt beam="1">  1        4 0.65524137E-01 0.10303853E+04</pdfrwt>
<totfact> 0.51810338E+00</totfact>
</mgrwt>
</event>
<event>
 6    1  0.2415530E-005  0.1189277E+04  0.7818608E-02  0.9289671E-01
         21   -1    0    0  501  502  0.00000000000E+00  0.00000000000E+00  0.84565540038E+03  0.84565540038E+03  0.00000000000E+00 0.  1.
          4   -1    0    0  502    0 -0.00000000000E+00 -0.00000000000E+00 -0.12978646689E+04  0.12978646689E+04  0.00000000000E+00 0.  1.
    9000010    2    1    2  501    0 -0.38719558091E+03  0.50575474074E+03  0.22877143917E+03  0.12110807892E+04  0.10043266555E+04 0.  0.
        -13    1    3    3    0    0 -0.43732528559E+03 -0.19758988359E+03  0.14306614285E+03  0.50076251847E+03  0.10566000000E+00 0.  1.
          4    1    3    3  501    0  0.50129704677E+02  0.70334462434E+03  0.85705296317E+02  0.71031827070E+03  0.00000000000E+00 0.  1.
         13    1    1    2    0    0  0.38719558091E+03 -0.50575474074E+03 -0.68098070765E+03  0.93243928007E+03  0.10566000000E+00 0. -1.
<mgrwt>
<rscale>  1 0.10173937E+04</rscale>
<asrwt>0</asrwt>
<pdfrwt beam="1">  1       21 0.13010083E+00 0.11892772E+04</pdfrwt>
<pdfrwt beam="2">  1        4 0.19967149E+00 0.11892772E+04</pdfrwt>
<totfact> 0.19977228E+00</totfact>
</mgrwt>
</event>
<event>
 6    1  0.2415530E-005  0.1009882E+04  0.7818608E-02  0.9795080E-01
          4   -1    0    0  502    0 -0.00000000000E+00  0.00000000000E+00  0.19039102489E+03  0.19039102489E+03  0.00000000000E+00 0.  1.
         21   -1    0    0  501  502  0.00000000000E+00 -0.00000000000E+00 -0.18599908818E+04  0.18599908818E+04  0.00000000000E+00 0.  1.
    9000010    2    1    2  501    0  0.17925776829E+03 -0.17442179424E+02 -0.14296029316E+04  0.17503217253E+04  0.99369211680E+03 0.  0.
        -13    1    3    3    0    0  0.48259463312E+03  0.19557377159E+03 -0.12153270633E+04  0.13221824995E+04  0.10566000000E+00 0.  1.
          4    1    3    3  501    0 -0.30333686484E+03 -0.21301595102E+03 -0.21427586833E+03  0.42813922584E+03  0.00000000000E+00 0.  1.
         13    1    1    2    0    0 -0.17925776829E+03  0.17442179424E+02 -0.23999692527E+03  0.30006018133E+03  0.10566000000E+00 0. -1.
<mgrwt>
<rscale>  1 0.65627224E+03</rscale>
<asrwt>0</asrwt>
<pdfrwt beam="2">  1       21 0.28615245E+00 0.10098820E+04</pdfrwt>
<pdfrwt beam="1">  1        4 0.29290926E-01 0.10098820E+04</pdfrwt>
<totfact> 0.14642778E+01</totfact>
</mgrwt>
</event>
<event>
 6    1  0.2415530E-005  0.1029033E+04  0.7818608E-02  0.9646716E-01
          4   -1    0    0  502    0 -0.00000000000E+00  0.00000000000E+00  0.12848385706E+04  0.12848385706E+04  0.00000000000E+00 0.  1.
         21   -1    0    0  501  502  0.00000000000E+00 -0.00000000000E+00 -0.36279906861E+03  0.36279906861E+03  0.00000000000E+00 0.  1.
    9000010    2    1    2  501    0  0.25019015964E+03  0.12433425670E+03  0.50655157588E+03  0.11469537556E+04  0.99038088387E+03 0.  0.
        -13    1    3    3    0    0  0.34113054479E+03  0.36321514128E+03  0.67635244100E+03  0.84008804482E+03  0.10566000000E+00 0.  1.
          4    1    3    3  501    0 -0.90940385156E+02 -0.23888088458E+03 -0.16980086511E+03  0.30686571080E+03  0.00000000000E+00 0.  1.
         13    1    1    2    0    0 -0.25019015964E+03 -0.12433425670E+03  0.41548792608E+03  0.50068388355E+03  0.10566000000E+00 0. -1.
<mgrwt>
<rscale>  1 0.74279914E+03</rscale>
<asrwt>0</asrwt>
<pdfrwt beam="2">  1       21 0.55815242E-01 0.10290328E+04</pdfrwt>
<pdfrwt beam="1">  1        4 0.19766747E+00 0.10290328E+04</pdfrwt>
<totfact> 0.16072280E+01</totfact>
</mgrwt>
</event>
<event>
 6    1  0.2415530E-005  0.1005685E+04  0.7818608E-02  0.9680531E-01
          4   -1    0    0  502    0 -0.00000000000E+00  0.00000000000E+00  0.10548360087E+04  0.10548360087E+04  0.00000000000E+00 0.  1.
         21   -1    0    0  501  502  0.00000000000E+00 -0.00000000000E+00 -0.40314049867E+03  0.40314049867E+03  0.00000000000E+00 0.  1.
    9000010    2    1    2  501    0  0.22646004201E+02  0.26601356330E+03  0.37457904927E+03  0.10731783767E+04  0.96960110703E+03 0.  0.
        -13    1    3    3    0    0 -0.39657253188E+03  0.90394372211E+02  0.45641141540E+03  0.61135284970E+03  0.10566000000E+00 0.  1.
          4    1    3    3  501    0  0.41921853608E+03  0.17561919109E+03 -0.81832366125E+02  0.46182552703E+03  0.00000000000E+00 0.  1.
         13    1    1    2    0    0 -0.22646004201E+02 -0.26601356330E+03  0.27711646080E+03  0.38479813068E+03  0.10566000000E+00 0. -1.
<mgrwt>
<rscale>  1 0.72187908E+03</rscale>
<asrwt>0</asrwt>
<pdfrwt beam="2">  1       21 0.62021615E-01 0.10056850E+04</pdfrwt>
<pdfrwt beam="1">  1        4 0.16228246E+00 0.10056850E+04</pdfrwt>
<totfact> 0.22535693E+01</totfact>
</mgrwt>
</event>
<event>
 6    1  0.2415530E-005  0.1098502E+04  0.7818608E-02  0.9438989E-01
         21   -1    0    0  501  502  0.00000000000E+00  0.00000000000E+00  0.11719747257E+04  0.11719747257E+04  0.00000000000E+00 0.  1.
          4   -1    0    0  502    0 -0.00000000000E+00 -0.00000000000E+00 -0.54327358026E+03  0.54327358026E+03  0.00000000000E+00 0.  1.
    9000010    2    1    2  501    0  0.45930127161E+03  0.10852142472E+03  0.57603119322E+03  0.12403707505E+04  0.99195418509E+03 0.  0.
        -13    1    3    3    0    0 -0.55299190541E+02 -0.41702612921E+02 -0.24790009169E+03  0.25739381310E+03  0.10566000000E+00 0.  1.
          4    1    3    3  501    0  0.51460046215E+03  0.15022403765E+03  0.82393128491E+03  0.98297693736E+03  0.00000000000E+00 0.  1.
         13    1    1    2    0    0 -0.45930127161E+03 -0.10852142472E+03  0.52669952261E+02  0.47487755554E+03  0.10566000000E+00 0. -1.
<mgrwt>
<rscale>  1 0.88935311E+03</rscale>
<asrwt>0</asrwt>
<pdfrwt beam="1">  1       21 0.18030380E+00 0.10985025E+04</pdfrwt>
<pdfrwt beam="2">  1        4 0.83580551E-01 0.10985025E+04</pdfrwt>
<totfact> 0.77917325E+00</totfact>
</mgrwt>
</event>
<event>
 6    1  0.2415530E-005  0.9774990E+03  0.7818608E-02  0.1052751E+00
         21   -1    0    0  501  502  0.00000000000E+00  0.00000000000E+00  0.10020138127E+04  0.10020138127E+04  0.00000000000E+00 0.  1.
          4   -1    0    0  502    0 -0.00000000000E+00 -0.00000000000E+00 -0.25931294183E+03  0.25931294183E+03  0.00000000000E+00 0.  1.
    9000010    2    1    2  501    0  0.18850942715E+02  0.97003148947E+01  0.75649151996E+03  0.12360355047E+04  0.97726910054E+03 0.  0.
        -13    1    3    3    0    0 -0.22434129120E+03 -0.10343365186E+02 -0.16762852147E+03  0.28024156101E+03  0.10566000000E+00 0.  1.
          4    1    3    3  501    0  0.24319223392E+03  0.20043680080E+02  0.92412004143E+03  0.95579394365E+03  0.00000000000E+00 0.  1.
         13    1    1    2    0    0 -0.18850942715E+02 -0.97003148947E+01 -0.13790649132E+02  0.25291249827E+02  0.10566000000E+00 0. -1.
<mgrwt>
<rscale>  1 0.37512350E+03</rscale>
<asrwt>0</asrwt>
<pdfrwt beam="1">  1       21 0.15415597E+00 0.97749903E+03</pdfrwt>
<pdfrwt beam="2">  1        4 0.39894299E-01 0.97749903E+03</pdfrwt>
<totfact> 0.61981932E+01</totfact>
</mgrwt>
</event>
<event>
 6    1  0.2415530E-005  0.9390634E+03  0.7818608E-02  0.9907102E-01
         21   -1    0    0  501  502  0.00000000000E+00  0.00000000000E+00  0.20055209966E+03  0.20055209966E+03  0.00000000000E+00 0.  1.
          4   -1    0    0  502    0 -0.00000000000E+00 -0.00000000000E+00 -0.15010933697E+04  0.15010933697E+04  0.00000000000E+00 0.  1.
    9000010    2    1    2  501    0  0.13131611580E+03  0.83566886169E+02 -0.11546964305E+04  0.14883426914E+04  0.92607384884E+03 0.  0.
        -13    1    3    3    0    0 -0.25414517421E+03 -0.20195050473E+03 -0.11685174434E+03  0.34500451773E+03  0.10566000000E+00 0.  1.
          4    1    3    3  501    0  0.38546129001E+03  0.28551739090E+03 -0.10378446862E+04  0.11433381736E+04  0.00000000000E+00 0.  1.
         13    1    1    2    0    0 -0.13131611580E+03 -0.83566886169E+02 -0.14584483951E+03  0.21330277802E+03  0.10566000000E+00 0. -1.
<mgrwt>
<rscale>  1 0.59918303E+03</rscale>
<asrwt>0</asrwt>
<pdfrwt beam="1">  1       21 0.30854170E-01 0.93906343E+03</pdfrwt>
<pdfrwt beam="2">  1        4 0.23093744E+00 0.93906343E+03</pdfrwt>
<totfact> 0.34504441E+01</totfact>
</mgrwt>
</event>
<event>
 6    1  0.2415530E-005  0.1710281E+04  0.7818608E-02  0.8807358E-01
          4   -1    0    0  502    0 -0.00000000000E+00  0.00000000000E+00  0.19210398421E+04  0.19210398421E+04  0.00000000000E+00 0.  1.
         21   -1    0    0  501  502  0.00000000000E+00 -0.00000000000E+00 -0.12486876336E+04  0.12486876336E+04  0.00000000000E+00 0. -1.
    9000010    2    1    2  501    0  0.35032056776E+03 -0.13372390329E+04  0.46078288631E+03  0.17712660638E+04  0.10070401528E+04 0.  0.
        -13    1    3    3    0    0 -0.35810333636E+02 -0.30577946300E+03 -0.30222496622E+03  0.43142021436E+03  0.10566000000E+00 0.  1.
          4    1    3    3  501    0  0.38613090140E+03 -0.10314595699E+04  0.76300785254E+03  0.13398458495E+04  0.00000000000E+00 0.  1.
         13    1    1    2    0    0 -0.35032056776E+03  0.13372390329E+04  0.21156932215E+03  0.13984614119E+04  0.10566000000E+00 0. -1.
<mgrwt>
<rscale>  1 0.16216473E+04</rscale>
<asrwt>0</asrwt>
<pdfrwt beam="2">  1       21 0.19210579E+00 0.17102814E+04</pdfrwt>
<pdfrwt beam="1">  1        4 0.29554459E+00 0.17102814E+04</pdfrwt>
<totfact> 0.15000075E-01</totfact>
</mgrwt>
</event>
<event>
 6    1  0.2415530E-005  0.1074363E+04  0.7818608E-02  0.9486369E-01
          4   -1    0    0  502    0 -0.00000000000E+00  0.00000000000E+00  0.96307345713E+03  0.96307345713E+03  0.00000000000E+00 0.  1.
         21   -1    0    0  501  502  0.00000000000E+00 -0.00000000000E+00 -0.71611901971E+03  0.71611901971E+03  0.00000000000E+00 0. -1.
    9000010    2    1    2  501    0 -0.37302199566E+03  0.20748287905E+03  0.49781307574E+03  0.11840918589E+04  0.98593159878E+03 0.  0.
        -13    1    3    3    0    0 -0.43469594080E+03 -0.32220869377E+03  0.24947035558E+03  0.59583090954E+03  0.10566000000E+00 0.  1.
          4    1    3    3  501    0  0.61673945142E+02  0.52969157282E+03  0.24834272016E+03  0.58826094931E+03  0.00000000000E+00 0.  1.
         13    1    1    2    0    0  0.37302199566E+03 -0.20748287905E+03 -0.25085863832E+03  0.49510061799E+03  0.10566000000E+00 0. -1.
<mgrwt>
<rscale>  1 0.85296309E+03</rscale>
<asrwt>0</asrwt>
<pdfrwt beam="2">  1       21 0.11017216E+00 0.10743629E+04</pdfrwt>
<pdfrwt beam="1">  1        4 0.14816515E+00 0.10743629E+04</pdfrwt>
<totfact> 0.73068062E+00</totfact>
</mgrwt>
</event>
<event>
 6    1  0.2415530E-005  0.1053072E+04  0.7818608E-02  0.9595499E-01
          4   -1    0    0  502    0 -0.00000000000E+00  0.00000000000E+00  0.23253548949E+04  0.23253548949E+04  0.00000000000E+00 0.  1.
         21   -1    0    0  501  502  0.00000000000E+00 -0.00000000000E+00 -0.28201705111E+03  0.28201705111E+03  0.00000000000E+00 0.  1.
    9000010    2    1    2  501    0 -0.26638695581E+03 -0.15937878191E+03  0.79079333848E+03  0.13169335107E+04  0.10062783716E+04 0.  0.
        -13    1    3    3    0    0 -0.16063031653E+03  0.32873607127E+03  0.72642146970E+03  0.81336195261E+03  0.10566000000E+00 0.  1.
          4    1    3    3  501    0 -0.10575663928E+03 -0.48811485318E+03  0.64371868786E+02  0.50357155811E+03  0.00000000000E+00 0.  1.
         13    1    1    2    0    0  0.26638695581E+03  0.15937878191E+03  0.12525445054E+04  0.12904384353E+04  0.10566000000E+00 0. -1.
<mgrwt>
<rscale>  1 0.77594789E+03</rscale>
<asrwt>0</asrwt>
<pdfrwt beam="2">  1       21 0.43387240E-01 0.10530716E+04</pdfrwt>
<pdfrwt beam="1">  1        4 0.35774689E+00 0.10530716E+04</pdfrwt>
<totfact> 0.27052638E+00</totfact>
</mgrwt>
</event>
<event>
 6    1  0.2415530E-005  0.1005393E+04  0.7818608E-02  0.1014954E+00
          4   -1    0    0  502    0 -0.00000000000E+00  0.00000000000E+00  0.12342506898E+03  0.12342506898E+03  0.00000000000E+00 0.  1.
         21   -1    0    0  501  502  0.00000000000E+00 -0.00000000000E+00 -0.23205828133E+04  0.23205828133E+04  0.00000000000E+00 0.  1.
    9000010    2    1    2  501    0  0.44886192908E+02  0.38791550467E+02 -0.21230758630E+04  0.23490990259E+04  0.10036411506E+04 0.  0.
        -13    1    3    3    0    0 -0.40581813710E+03  0.12000367549E+02 -0.16331419943E+04  0.16828503064E+04  0.10566000000E+00 0.  1.
          4    1    3    3  501    0  0.45070433001E+03  0.26791182919E+02 -0.48993386868E+03  0.66624871951E+03  0.00000000000E+00 0.  1.
         13    1    1    2    0    0 -0.44886192908E+02 -0.38791550467E+02 -0.74081881331E+02  0.94908856314E+02  0.10566000000E+00 0. -1.
<mgrwt>
<rscale>  1 0.49552211E+03</rscale>
<asrwt>0</asrwt>
<pdfrwt beam="2">  1       21 0.35701273E+00 0.10053930E+04</pdfrwt>
<pdfrwt beam="1">  1        4 0.18988473E-01 0.10053930E+04</pdfrwt>
<totfact> 0.12036201E+01</totfact>
</mgrwt>
</event>
<event>
 6    1  0.2415530E-005  0.1027621E+04  0.7818608E-02  0.9720633E-01
         21   -1    0    0  501  502  0.00000000000E+00  0.00000000000E+00  0.11103064588E+04  0.11103064588E+04  0.00000000000E+00 0.  1.
          4   -1    0    0  502    0 -0.00000000000E+00 -0.00000000000E+00 -0.43878941173E+03  0.43878941173E+03  0.00000000000E+00 0.  1.
    9000010    2    1    2  501    0  0.10473492235E+03  0.19205398929E+03  0.79377634560E+03  0.12984936239E+04  0.10040670624E+04 0.  0.
        -13    1    3    3    0    0  0.50303894285E+03 -0.68136410371E+02  0.22033087006E+03  0.55338634959E+03  0.10566000000E+00 0.  1.
          4    1    3    3  501    0 -0.39830402051E+03  0.26019039966E+03  0.57344547554E+03  0.74510727432E+03  0.00000000000E+00 0.  1.
         13    1    1    2    0    0 -0.10473492235E+03 -0.19205398929E+03 -0.12225929854E+03  0.25060224661E+03  0.10566000000E+00 0. -1.
<mgrwt>
<rscale>  1 0.69801485E+03</rscale>
<asrwt>0</asrwt>
<pdfrwt beam="1">  1       21 0.17081638E+00 0.10276209E+04</pdfrwt>
<pdfrwt beam="2">  1        4 0.67506064E-01 0.10276209E+04</pdfrwt>
<totfact> 0.14995805E+01</totfact>
</mgrwt>
</event>
<event>
 6    1  0.2415530E-005  0.1009422E+04  0.7818608E-02  0.9973218E-01
         21   -1    0    0  501  502  0.00000000000E+00  0.00000000000E+00  0.36472785625E+03  0.36472785625E+03  0.00000000000E+00 0.  1.
          4   -1    0    0  502    0 -0.00000000000E+00 -0.00000000000E+00 -0.12669318731E+04  0.12669318731E+04  0.00000000000E+00 0.  1.
    9000010    2    1    2  501    0  0.87328560883E+02  0.51703216712E+02 -0.34721756490E+03  0.10674705118E+04  0.10043076003E+04 0.  0.
        -13    1    3    3    0    0  0.67083513909E+01  0.45102473806E+03  0.10051985319E+03  0.46213912231E+03  0.10566000000E+00 0.  1.
          4    1    3    3  501    0  0.80620209492E+02 -0.39932152134E+03 -0.44773741809E+03  0.60533138952E+03  0.00000000000E+00 0.  1.
         13    1    1    2    0    0 -0.87328560883E+02 -0.51703216712E+02 -0.55498645198E+03  0.56418921756E+03  0.10566000000E+00 0. -1.
<mgrwt>
<rscale>  1 0.56840348E+03</rscale>
<asrwt>0</asrwt>
<pdfrwt beam="1">  1       21 0.56111978E-01 0.10094222E+04</pdfrwt>
<pdfrwt beam="2">  1        4 0.19491260E+00 0.10094222E+04</pdfrwt>
<totfact> 0.16607734E+01</totfact>
</mgrwt>
</event>
<event>
 6    1  0.2415530E-005  0.1049746E+04  0.7818608E-02  0.9779478E-01
         21   -1    0    0  501  502  0.00000000000E+00  0.00000000000E+00  0.47816730318E+03  0.47816730318E+03  0.00000000000E+00 0.  1.
          4   -1    0    0  502    0 -0.00000000000E+00 -0.00000000000E+00 -0.88064295591E+03  0.88064295591E+03  0.00000000000E+00 0.  1.
    9000010    2    1    2  501    0 -0.13656425595E+03 -0.99230506654E+02 -0.15778310250E+03  0.10615377498E+04  0.10360841652E+04 0.  0.
        -13    1    3    3    0    0  0.14921384455E+03 -0.91410882788E+02  0.39897943358E+03  0.43566652440E+03  0.10566000000E+00 0.  1.
          4    1    3    3  501    0 -0.28577810050E+03 -0.78196238666E+01 -0.55676253608E+03  0.62587122543E+03  0.00000000000E+00 0.  1.
         13    1    1    2    0    0  0.13656425595E+03  0.99230506654E+02 -0.24469255024E+03  0.29727250926E+03  0.10566000000E+00 0. -1.
<mgrwt>
<rscale>  1 0.66475582E+03</rscale>
<asrwt>0</asrwt>
<pdfrwt beam="1">  1       21 0.73564200E-01 0.10497461E+04</pdfrwt>
<pdfrwt beam="2">  1        4 0.13548353E+00 0.10497461E+04</pdfrwt>
<totfact> 0.24684705E+01</totfact>
</mgrwt>
</event>
<event>
 6    1  0.2415530E-005  0.1236366E+04  0.7818608E-02  0.9223289E-01
         21   -1    0    0  501  502  0.00000000000E+00  0.00000000000E+00  0.68991280871E+03  0.68991280871E+03  0.00000000000E+00 0.  1.
          4   -1    0    0  502    0 -0.00000000000E+00 -0.00000000000E+00 -0.14258583274E+04  0.14258583274E+04  0.00000000000E+00 0.  1.
    9000010    2    1    2  501    0 -0.60622360255E+03 -0.39619741682E+03 -0.61730827421E+03  0.13819085765E+04  0.10020590597E+04 0.  0.
        -13    1    3    3    0    0 -0.20123582683E+03 -0.42043382116E+03  0.17005464011E+03  0.49616433544E+03  0.10566000000E+00 0.  1.
          4    1    3    3  501    0 -0.40498777572E+03  0.24236404338E+02 -0.78736291432E+03  0.88574424109E+03  0.00000000000E+00 0.  1.
         13    1    1    2    0    0  0.60622360255E+03  0.39619741682E+03 -0.11863724446E+03  0.73386255956E+03  0.10566000000E+00 0. -1.
<mgrwt>
<rscale>  1 0.10816245E+04</rscale>
<asrwt>0</asrwt>
<pdfrwt beam="1">  1       21 0.10614043E+00 0.12363664E+04</pdfrwt>
<pdfrwt beam="2">  1        4 0.21936282E+00 0.12363664E+04</pdfrwt>
<totfact> 0.25043287E+00</totfact>
</mgrwt>
</event>
<event>
 6    1  0.2415530E-005  0.1034434E+04  0.7818608E-02  0.9838031E-01
          4   -1    0    0  502    0 -0.00000000000E+00  0.00000000000E+00  0.81567343420E+03  0.81567343420E+03  0.00000000000E+00 0.  1.
         21   -1    0    0  501  502  0.00000000000E+00 -0.00000000000E+00 -0.51649973982E+03  0.51649973982E+03  0.00000000000E+00 0.  1.
    9000010    2    1    2  501    0  0.29475972396E+02  0.14259083101E+03  0.40369622221E+02  0.10352210955E+04  0.10241347724E+04 0.  0.
        -13    1    3    3    0    0  0.19683136711E+03  0.13535651082E+03  0.49559044707E+03  0.55015804501E+03  0.10566000000E+00 0.  1.
          4    1    3    3  501    0 -0.16735539471E+03  0.72343201923E+01 -0.45522082485E+03  0.48506305044E+03  0.00000000000E+00 0.  1.
         13    1    1    2    0    0 -0.29475972396E+02 -0.14259083101E+03  0.25880407216E+03  0.29695207857E+03  0.10566000000E+00 0. -1.
<mgrwt>
<rscale>  1 0.63360924E+03</rscale>
<asrwt>0</asrwt>
<pdfrwt beam="2">  1       21 0.79461498E-01 0.10344337E+04</pdfrwt>
<pdfrwt beam="1">  1        4 0.12548822E+00 0.10344337E+04</pdfrwt>
<totfact> 0.25147078E+01</totfact>
</mgrwt>
</event>
<event>
 6    1  0.2415530E-005  0.1126292E+04  0.7818608E-02  0.9388273E-01
          4   -1    0    0  502    0 -0.00000000000E+00  0.00000000000E+00  0.22714045857E+04  0.22714045857E+04  0.00000000000E+00 0.  1.
         21   -1    0    0  501  502  0.00000000000E+00 -0.00000000000E+00 -0.30177407079E+03  0.30177407079E+03  0.00000000000E+00 0.  1.
    9000010    2    1    2  501    0 -0.48686972736E+03 -0.19544916736E+03  0.14338487452E+04  0.18233089182E+04  0.99663969354E+03 0.  0.
        -13    1    3    3    0    0  0.15605769399E+01 -0.17431339265E+03  0.13065396339E+04  0.13181173774E+04  0.10566000000E+00 0.  1.
          4    1    3    3  501    0 -0.48843030430E+03 -0.21135774709E+02  0.12730911120E+03  0.50519154083E+03  0.00000000000E+00 0.  1.
         13    1    1    2    0    0  0.48686972736E+03  0.19544916736E+03  0.53578176980E+03  0.74986973832E+03  0.10566000000E+00 0. -1.
<mgrwt>
<rscale>  1 0.93047066E+03</rscale>
<asrwt>0</asrwt>
<pdfrwt beam="2">  1       21 0.46426782E-01 0.11262918E+04</pdfrwt>
<pdfrwt beam="1">  1        4 0.34944685E+00 0.11262918E+04</pdfrwt>
<totfact> 0.26239881E+00</totfact>
</mgrwt>
</event>
<event>
 6    1  0.2415530E-005  0.1002921E+04  0.7818608E-02  0.1001661E+00
         21   -1    0    0  501  502  0.00000000000E+00  0.00000000000E+00  0.41754637225E+03  0.41754637225E+03  0.00000000000E+00 0.  1.
          4   -1    0    0  502    0 -0.00000000000E+00 -0.00000000000E+00 -0.77581021219E+03  0.77581021219E+03  0.00000000000E+00 0.  1.
    9000010    2    1    2  501    0  0.19582077752E+02 -0.88083614217E+02 -0.21762787039E+03  0.10262617971E+04  0.99885394595E+03 0.  0.
        -13    1    3    3    0    0 -0.45231483209E+03 -0.19093096015E+02  0.86116403422E+02  0.46083543673E+03  0.10566000000E+00 0.  1.
          4    1    3    3  501    0  0.47189690984E+03 -0.68990518202E+02 -0.30374427381E+03  0.56542636036E+03  0.00000000000E+00 0.  1.
         13    1    1    2    0    0 -0.19582077752E+02  0.88083614217E+02 -0.14063596955E+03  0.16709478734E+03  0.10566000000E+00 0. -1.
<mgrwt>
<rscale>  1 0.54927882E+03</rscale>
<asrwt>0</asrwt>
<pdfrwt beam="1">  1       21 0.64237903E-01 0.10029214E+04</pdfrwt>
<pdfrwt beam="2">  1        4 0.11935542E+00 0.10029214E+04</pdfrwt>
<totfact> 0.46714650E+01</totfact>
</mgrwt>
</event>
<event>
 6    1  0.2415530E-005  0.9947678E+03  0.7818608E-02  0.1032993E+00
         21   -1    0    0  501  502  0.00000000000E+00  0.00000000000E+00  0.49650248664E+03  0.49650248664E+03  0.00000000000E+00 0.  1.
          4   -1    0    0  502    0 -0.00000000000E+00 -0.00000000000E+00 -0.60328477253E+03  0.60328477253E+03  0.00000000000E+00 0.  1.
    9000010    2    1    2  501    0 -0.32241500163E+02 -0.15161737717E+02 -0.80255744027E+01  0.99480015590E+03  0.99412954272E+03 0.  0.
        -13    1    3    3    0    0  0.17574964199E+03 -0.90892383930E+02 -0.45492302691E+03  0.49608903807E+03  0.10566000000E+00 0.  1.
          4    1    3    3  501    0 -0.20799114215E+03  0.75730646213E+02  0.44689745251E+03  0.49871111783E+03  0.00000000000E+00 0.  1.
         13    1    1    2    0    0  0.32241500163E+02  0.15161737717E+02 -0.98756711490E+02  0.10498710326E+03  0.10566000000E+00 0. -1.
<mgrwt>
<rscale>  1 0.43275417E+03</rscale>
<asrwt>0</asrwt>
<pdfrwt beam="1">  1       21 0.76384998E-01 0.99476778E+03</pdfrwt>
<pdfrwt beam="2">  1        4 0.92813042E-01 0.99476778E+03</pdfrwt>
<totfact> 0.58023425E+01</totfact>
</mgrwt>
</event>
<event>
 6    1  0.2415530E-005  0.9916674E+03  0.7818608E-02  0.9889894E-01
         21   -1    0    0  501  502  0.00000000000E+00  0.00000000000E+00  0.30521205160E+04  0.30521205160E+04  0.00000000000E+00 0. -1.
          4   -1    0    0  502    0 -0.00000000000E+00 -0.00000000000E+00 -0.10571536616E+03  0.10571536616E+03  0.00000000000E+00 0.  1.
    9000010    2    1    2  501    0 -0.12898057637E+03 -0.53660315547E+02  0.26682709039E+04  0.28465898565E+04  0.98177837421E+03 0.  0.
        -13    1    3    3    0    0  0.25184287002E+02  0.43756519365E+03  0.16268476166E+04  0.16848533247E+04  0.10566000000E+00 0.  1.
          4    1    3    3  501    0 -0.15416486337E+03 -0.49122550920E+03  0.10414232873E+04  0.11617365318E+04  0.00000000000E+00 0.  1.
         13    1    1    2    0    0  0.12898057637E+03  0.53660315547E+02  0.27813424590E+03  0.31124602560E+03  0.10566000000E+00 0. -1.
<mgrwt>
<rscale>  1 0.60753568E+03</rscale>
<asrwt>0</asrwt>
<pdfrwt beam="1">  1       21 0.46955693E+00 0.99166738E+03</pdfrwt>
<pdfrwt beam="2">  1        4 0.16263905E-01 0.99166738E+03</pdfrwt>
<totfact> 0.28645111E+00</totfact>
</mgrwt>
</event>
<event>
 6    1  0.2415530E-005  0.1009436E+04  0.7818608E-02  0.9924388E-01
          4   -1    0    0  502    0 -0.00000000000E+00  0.00000000000E+00  0.61390943313E+03  0.61390943313E+03  0.00000000000E+00 0.  1.
         21   -1    0    0  501  502  0.00000000000E+00 -0.00000000000E+00 -0.11246258938E+04  0.11246258938E+04  0.00000000000E+00 0.  1.
    9000010    2    1    2  501    0  0.37962285650E+02  0.11231594819E+03 -0.88714987301E+03  0.13438732785E+04  0.10024492427E+04 0.  0.
        -13    1    3    3    0    0 -0.39221986816E+03  0.23238597109E+03 -0.74816605432E+03  0.87612334778E+03  0.10566000000E+00 0.  1.
          4    1    3    3  501    0  0.43018215381E+03 -0.12007002290E+03 -0.13898381869E+03  0.46774993074E+03  0.00000000000E+00 0.  1.
         13    1    1    2    0    0 -0.37962285650E+02 -0.11231594819E+03  0.37643341234E+03  0.39466204839E+03  0.10566000000E+00 0. -1.
<mgrwt>
<rscale>  1 0.59093783E+03</rscale>
<asrwt>0</asrwt>
<pdfrwt beam="2">  1       21 0.17301937E+00 0.10094357E+04</pdfrwt>
<pdfrwt beam="1">  1        4 0.94447606E-01 0.10094357E+04</pdfrwt>
<totfact> 0.66888925E+00</totfact>
</mgrwt>
</event>
<event>
 6    1  0.2415530E-005  0.9936549E+03  0.7818608E-02  0.9755149E-01
          4   -1    0    0  502    0 -0.00000000000E+00  0.00000000000E+00  0.33909403498E+03  0.33909403498E+03  0.00000000000E+00 0.  1.
         21   -1    0    0  501  502  0.00000000000E+00 -0.00000000000E+00 -0.11040517117E+04  0.11040517117E+04  0.00000000000E+00 0.  1.
    9000010    2    1    2  501    0 -0.73419169938E+02  0.20283619552E+03 -0.53769931125E+03  0.11298100281E+04  0.96995734622E+03 0.  0.
        -13    1    3    3    0    0  0.86030418084E+02 -0.80390572058E+02  0.25073682409E+03  0.27700693679E+03  0.10566000000E+00 0.  1.
          4    1    3    3  501    0 -0.15944958802E+03  0.28322676758E+03 -0.78843613534E+03  0.85280309128E+03  0.00000000000E+00 0.  1.
         13    1    1    2    0    0  0.73419169938E+02 -0.20283619552E+03 -0.22725836549E+03  0.31333571864E+03  0.10566000000E+00 0. -1.
<mgrwt>
<rscale>  1 0.67826089E+03</rscale>
<asrwt>0</asrwt>
<pdfrwt beam="2">  1       21 0.16985411E+00 0.99365495E+03</pdfrwt>
<pdfrwt beam="1">  1        4 0.52168313E-01 0.99365495E+03</pdfrwt>
<totfact> 0.26806439E+01</totfact>
</mgrwt>
</event>
<event>
 6    1  0.2415530E-005  0.1061211E+04  0.7818608E-02  0.9532590E-01
         21   -1    0    0  501  502  0.00000000000E+00  0.00000000000E+00  0.52635810830E+03  0.52635810830E+03  0.00000000000E+00 0.  1.
          4   -1    0    0  502    0 -0.00000000000E+00 -0.00000000000E+00 -0.99242051528E+03  0.99242051528E+03  0.00000000000E+00 0.  1.
    9000010    2    1    2  501    0 -0.31457310029E+03  0.20759140960E+03 -0.27521375754E+03  0.10963172089E+04  0.99202740958E+03 0.  0.
        -13    1    3    3    0    0 -0.43968139663E+02  0.49806788420E+03 -0.44042652508E+03  0.66631850472E+03  0.10566000000E+00 0.  1.
          4    1    3    3  501    0 -0.27060496062E+03 -0.29047647460E+03  0.16521276754E+03  0.42999870414E+03  0.00000000000E+00 0.  1.
         13    1    1    2    0    0  0.31457310029E+03 -0.20759140960E+03 -0.19084864943E+03  0.42246141471E+03  0.10566000000E+00 0. -1.
<mgrwt>
<rscale>  1 0.81923148E+03</rscale>
<asrwt>0</asrwt>
<pdfrwt beam="1">  1       21 0.80978172E-01 0.10612110E+04</pdfrwt>
<pdfrwt beam="2">  1        4 0.15268008E+00 0.10612110E+04</pdfrwt>
<totfact> 0.14345014E+01</totfact>
</mgrwt>
</event>
<event>
 6    1  0.2415530E-005  0.1152650E+04  0.7818608E-02  0.9339067E-01
          4   -1    0    0  502    0 -0.00000000000E+00  0.00000000000E+00  0.25239412067E+04  0.25239412067E+04  0.00000000000E+00 0.  1.
         21   -1    0    0  501  502  0.00000000000E+00 -0.00000000000E+00 -0.37556955830E+03  0.37556955830E+03  0.00000000000E+00 0. -1.
    9000010    2    1    2  501    0  0.28992379761E+03  0.50743534410E+03  0.19804259552E+04  0.22914382332E+04  0.99350680711E+03 0.  0.
        -13    1    3    3    0    0  0.16276300068E+02  0.63546674586E+03  0.18610020440E+04  0.19665735486E+04  0.10566000000E+00 0.  1.
          4    1    3    3  501    0  0.27364749755E+03 -0.12803140176E+03  0.11942391116E+03  0.32486468461E+03  0.00000000000E+00 0.  1.
         13    1    1    2    0    0 -0.28992379761E+03 -0.50743534410E+03  0.16794569319E+03  0.60807253177E+03  0.10566000000E+00 0. -1.
<mgrwt>
<rscale>  1 0.97264507E+03</rscale>
<asrwt>0</asrwt>
<pdfrwt beam="2">  1       21 0.57779934E-01 0.11526501E+04</pdfrwt>
<pdfrwt beam="1">  1        4 0.38829864E+00 0.11526501E+04</pdfrwt>
<totfact> 0.89491447E-01</totfact>
</mgrwt>
</event>
<event>
 6    1  0.2415530E-005  0.1030114E+04  0.7818608E-02  0.9706690E-01
          4   -1    0    0  502    0 -0.00000000000E+00  0.00000000000E+00  0.73746110547E+03  0.73746110547E+03  0.00000000000E+00 0.  1.
         21   -1    0    0  501  502  0.00000000000E+00 -0.00000000000E+00 -0.68547080955E+03  0.68547080955E+03  0.00000000000E+00 0.  1.
    9000010    2    1    2  501    0  0.18420888846E+02  0.22679011844E+03 -0.23510525353E+03  0.10566028926E+04  0.10046701476E+04 0.  0.
        -13    1    3    3    0    0  0.34608301571E+03 -0.26641897307E+03 -0.12537884979E+03  0.45439233060E+03  0.10566000000E+00 0.  1.
          4    1    3    3  501    0 -0.32766212686E+03  0.49320909151E+03 -0.10972640374E+03  0.60221056202E+03  0.00000000000E+00 0.  1.
         13    1    1    2    0    0 -0.18420888846E+02 -0.22679011844E+03  0.28709554945E+03  0.36632902239E+03  0.10566000000E+00 0. -1.
<mgrwt>
<rscale>  1 0.70619890E+03</rscale>
<asrwt>0</asrwt>
<pdfrwt beam="2">  1       21 0.10545705E+00 0.10301142E+04</pdfrwt>
<pdfrwt beam="1">  1        4 0.11345555E+00 0.10301142E+04</pdfrwt>
<totfact> 0.16298235E+01</totfact>
</mgrwt>
</event>
<event>
 6    1  0.2415530E-005  0.1088665E+04  0.7818608E-02  0.9472136E-01
          4   -1    0    0  502    0 -0.00000000000E+00  0.00000000000E+00  0.87079899747E+03  0.87079899747E+03  0.00000000000E+00 0.  1.
         21   -1    0    0  501  502  0.00000000000E+00 -0.00000000000E+00 -0.75642805054E+03  0.75642805054E+03  0.00000000000E+00 0.  1.
    9000010    2    1    2  501    0 -0.32725042919E+03  0.28091191602E+03  0.33995698420E+03  0.11405100673E+04  0.99959397481E+03 0.  0.
        -13    1    3    3    0    0  0.14754383633E+03  0.52592775504E+03  0.24145884484E+03  0.59721986913E+03  0.10566000000E+00 0.  1.
          4    1    3    3  501    0 -0.47479426552E+03 -0.24501583902E+03  0.98498139356E+02  0.54329019815E+03  0.00000000000E+00 0.  1.
         13    1    1    2    0    0  0.32725042919E+03 -0.28091191602E+03 -0.22558603727E+03  0.48671698075E+03  0.10566000000E+00 0. -1.
<mgrwt>
<rscale>  1 0.86369673E+03</rscale>
<asrwt>0</asrwt>
<pdfrwt beam="2">  1       21 0.11637355E+00 0.10886655E+04</pdfrwt>
<pdfrwt beam="1">  1        4 0.13396908E+00 0.10886655E+04</pdfrwt>
<totfact> 0.82749629E+00</totfact>
</mgrwt>
</event>
<event>
 6    1  0.2415530E-005  0.1389161E+04  0.7818608E-02  0.9050609E-01
          4   -1    0    0  502    0 -0.00000000000E+00  0.00000000000E+00  0.15087243180E+04  0.15087243180E+04  0.00000000000E+00 0.  1.
         21   -1    0    0  501  502  0.00000000000E+00 -0.00000000000E+00 -0.98180751270E+03  0.98180751270E+03  0.00000000000E+00 0. -1.
    9000010    2    1    2  501    0 -0.47443656278E+03  0.85985719303E+03  0.58374679824E+03  0.15068275541E+04  0.98250929200E+03 0.  0.
        -13    1    3    3    0    0 -0.30605218655E+03 -0.16654247664E+03  0.12724760837E+03  0.37093975578E+03  0.10566000000E+00 0.  1.
          4    1    3    3  501    0 -0.16838437623E+03  0.10263996697E+04  0.45649918987E+03  0.11358877983E+04  0.00000000000E+00 0.  1.
         13    1    1    2    0    0  0.47443656278E+03 -0.85985719303E+03 -0.56829992929E+02  0.98370427659E+03  0.10566000000E+00 0. -1.
<mgrwt>
<rscale>  1 0.12737940E+04</rscale>
<asrwt>0</asrwt>
<pdfrwt beam="2">  1       21 0.15104731E+00 0.13891612E+04</pdfrwt>
<pdfrwt beam="1">  1        4 0.23211143E+00 0.13891612E+04</pdfrwt>
<totfact> 0.79737840E-01</totfact>
</mgrwt>
</event>
<event>
 6    1  0.2415530E-005  0.8856066E+03  0.7818608E-02  0.9799060E-01
          4   -1    0    0  502    0 -0.00000000000E+00  0.00000000000E+00  0.19542950257E+04  0.19542950257E+04  0.00000000000E+00 0.  1.
         21   -1    0    0  501  502  0.00000000000E+00 -0.00000000000E+00 -0.16923126315E+03  0.16923126315E+03  0.00000000000E+00 0.  1.
    9000010    2    1    2  501    0 -0.25161665103E+03 -0.78552785631E+02  0.13379621545E+04  0.16045066955E+04  0.84546882250E+03 0.  0.
        -13    1    3    3    0    0  0.15020560612E+03 -0.32177165296E+03  0.29867849106E+03  0.46401247068E+03  0.10566000000E+00 0.  1.
          4    1    3    3  501    0 -0.40182225714E+03  0.24321886733E+03  0.10392836634E+04  0.11404942248E+04  0.00000000000E+00 0.  1.
         13    1    1    2    0    0  0.25161665103E+03  0.78552785631E+02  0.44710160804E+03  0.51901959335E+03  0.10566000000E+00 0. -1.
<mgrwt>
<rscale>  1 0.65413030E+03</rscale>
<asrwt>0</asrwt>
<pdfrwt beam="2">  1       21 0.26035580E-01 0.88560658E+03</pdfrwt>
<pdfrwt beam="1">  1        4 0.30066076E+00 0.88560658E+03</pdfrwt>
<totfact> 0.18121945E+01</totfact>
</mgrwt>
</event>
<event>
 6    1  0.2415530E-005  0.9549552E+03  0.7818608E-02  0.9764222E-01
          4   -1    0    0  502    0 -0.00000000000E+00  0.00000000000E+00  0.21573012010E+04  0.21573012010E+04  0.00000000000E+00 0.  1.
         21   -1    0    0  501  502  0.00000000000E+00 -0.00000000000E+00 -0.23651774120E+03  0.23651774120E+03  0.00000000000E+00 0.  1.
    9000010    2    1    2  501    0  0.17775633204E+03  0.15496947349E+03  0.79194643347E+03  0.12406121548E+04  0.92537911901E+03 0.  0.
        -13    1    3    3    0    0 -0.50235969269E+02  0.52109394902E+03  0.42377487949E+03  0.67353375265E+03  0.10566000000E+00 0.  1.
          4    1    3    3  501    0  0.22799230130E+03 -0.36612447553E+03  0.36817155398E+03  0.56707840216E+03  0.00000000000E+00 0.  1.
         13    1    1    2    0    0 -0.17775633204E+03 -0.15496947349E+03  0.11288370263E+04  0.11532067874E+04  0.10566000000E+00 0. -1.
<mgrwt>
<rscale>  1 0.67318455E+03</rscale>
<asrwt>0</asrwt>
<pdfrwt beam="2">  1       21 0.36387346E-01 0.95495516E+03</pdfrwt>
<pdfrwt beam="1">  1        4 0.33189248E+00 0.95495516E+03</pdfrwt>
<totfact> 0.58193867E+00</totfact>
</mgrwt>
</event>
<event>
 6    1  0.2415530E-005  0.1030018E+04  0.7818608E-02  0.9683174E-01
         21   -1    0    0  501  502  0.00000000000E+00  0.00000000000E+00  0.18858617250E+04  0.18858617250E+04  0.00000000000E+00 0.  1.
          4   -1    0    0  502    0 -0.00000000000E+00 -0.00000000000E+00 -0.21631701471E+03  0.21631701471E+03  0.00000000000E+00 0.  1.
    9000010    2    1    2  501    0 -0.23467264684E+03 -0.74774033174E+02  0.13808402509E+04  0.17226887092E+04  0.10001370822E+04 0.  0.
        -13    1    3    3    0    0 -0.12151868111E+03 -0.17554981672E+03 -0.98837411786E+02  0.23527297580E+03  0.10566000000E+00 0.  1.
          4    1    3    3  501    0 -0.11315396573E+03  0.10077578355E+03  0.14796776627E+04  0.14874157334E+04  0.00000000000E+00 0.  1.
         13    1    1    2    0    0  0.23467264684E+03  0.74774033174E+02  0.28870445932E+03  0.37949003045E+03  0.10566000000E+00 0. -1.
<mgrwt>
<rscale>  1 0.72027526E+03</rscale>
<asrwt>0</asrwt>
<pdfrwt beam="1">  1       21 0.29013256E+00 0.10300178E+04</pdfrwt>
<pdfrwt beam="2">  1        4 0.33279542E-01 0.10300178E+04</pdfrwt>
<totfact> 0.10721757E+01</totfact>
</mgrwt>
</event>
<event>
 6    1  0.2415530E-005  0.1042892E+04  0.7818608E-02  0.9613840E-01
          4   -1    0    0  502    0 -0.00000000000E+00  0.00000000000E+00  0.81305894989E+03  0.81305894989E+03  0.00000000000E+00 0.  1.
         21   -1    0    0  501  502  0.00000000000E+00 -0.00000000000E+00 -0.56679856568E+03  0.56679856568E+03  0.00000000000E+00 0.  1.
    9000010    2    1    2  501    0  0.10159277423E+03 -0.28244770096E+03  0.10514953373E+03  0.10481798424E+04  0.99876261550E+03 0.  0.
        -13    1    3    3    0    0  0.54622766222E+03 -0.13886390820E+03 -0.21711344961E+02  0.56402060036E+03  0.10566000000E+00 0.  1.
          4    1    3    3  501    0 -0.44463488798E+03 -0.14358379276E+03  0.12686087869E+03  0.48415924208E+03  0.00000000000E+00 0.  1.
         13    1    1    2    0    0 -0.10159277423E+03  0.28244770096E+03  0.14111085049E+03  0.33167767312E+03  0.10566000000E+00 0. -1.
<mgrwt>
<rscale>  1 0.76386903E+03</rscale>
<asrwt>0</asrwt>
<pdfrwt beam="2">  1       21 0.87199779E-01 0.10428924E+04</pdfrwt>
<pdfrwt beam="1">  1        4 0.12508599E+00 0.10428924E+04</pdfrwt>
<totfact> 0.20316563E+01</totfact>
</mgrwt>
</event>
<event>
 6    1  0.2415530E-005  0.1044488E+04  0.7818608E-02  0.9719504E-01
         21   -1    0    0  501  502  0.00000000000E+00  0.00000000000E+00  0.81705835614E+03  0.81705835614E+03  0.00000000000E+00 0.  1.
          4   -1    0    0  502    0 -0.00000000000E+00 -0.00000000000E+00 -0.51820813730E+03  0.51820813730E+03  0.00000000000E+00 0.  1.
    9000010    2    1    2  501    0  0.17498001853E+03 -0.11450377429E+03  0.10436314133E+03  0.10496892610E+04  0.10233409784E+04 0.  0.
        -13    1    3    3    0    0 -0.33789530985E+03 -0.33307098769E+03  0.12886291088E+03  0.49164538463E+03  0.10566000000E+00 0.  1.
          4    1    3    3  501    0  0.51287532838E+03  0.21856721340E+03 -0.24499769555E+02  0.55804387636E+03  0.00000000000E+00 0.  1.
         13    1    1    2    0    0 -0.17498001853E+03  0.11450377429E+03  0.19448707752E+03  0.28557723245E+03  0.10566000000E+00 0. -1.
<mgrwt>
<rscale>  1 0.69867324E+03</rscale>
<asrwt>0</asrwt>
<pdfrwt beam="1">  1       21 0.12570128E+00 0.10444883E+04</pdfrwt>
<pdfrwt beam="2">  1        4 0.79724329E-01 0.10444883E+04</pdfrwt>
<totfact> 0.24058007E+01</totfact>
</mgrwt>
</event>
<event>
 6    1  0.2415530E-005  0.1036465E+04  0.7818608E-02  0.9643477E-01
          4   -1    0    0  502    0 -0.00000000000E+00  0.00000000000E+00  0.12430514529E+04  0.12430514529E+04  0.00000000000E+00 0.  1.
         21   -1    0    0  501  502  0.00000000000E+00 -0.00000000000E+00 -0.82720086954E+03  0.82720086954E+03  0.00000000000E+00 0.  1.
    9000010    2    1    2  501    0 -0.24005629704E+03 -0.13707380998E+03 -0.47308386611E+03  0.11393276629E+04  0.99892087973E+03 0.  0.
        -13    1    3    3    0    0 -0.51248548488E+03  0.10155713825E+03 -0.56104705321E+03  0.76663487504E+03  0.10566000000E+00 0.  1.
          4    1    3    3  501    0  0.27242918784E+03 -0.23863094824E+03  0.87963187106E+02  0.37269278787E+03  0.00000000000E+00 0.  1.
         13    1    1    2    0    0  0.24005629704E+03  0.13707380998E+03  0.88893444944E+03  0.93092465952E+03  0.10566000000E+00 0. -1.
<mgrwt>
<rscale>  1 0.74484195E+03</rscale>
<asrwt>0</asrwt>
<pdfrwt beam="2">  1       21 0.12726167E+00 0.10364648E+04</pdfrwt>
<pdfrwt beam="1">  1        4 0.19123868E+00 0.10364648E+04</pdfrwt>
<totfact> 0.24633264E+00</totfact>
</mgrwt>
</event>
<event>
 6    1  0.2415530E-005  0.1040512E+04  0.7818608E-02  0.9635515E-01
          4   -1    0    0  502    0 -0.00000000000E+00  0.00000000000E+00  0.32803316150E+03  0.32803316150E+03  0.00000000000E+00 0.  1.
         21   -1    0    0  501  502  0.00000000000E+00 -0.00000000000E+00 -0.15944958066E+04  0.15944958066E+04  0.00000000000E+00 0.  1.
    9000010    2    1    2  501    0 -0.76581355321E+02 -0.27006323338E+03 -0.12699714053E+04  0.16417956844E+04  0.10019315571E+04 0.  0.
        -13    1    3    3    0    0 -0.25762545659E+03  0.82392266107E+02  0.39808127179E+02  0.27339359823E+03  0.10566000000E+00 0.  1.
          4    1    3    3  501    0  0.18104410127E+03 -0.35245549949E+03 -0.13097795325E+04  0.13684020862E+04  0.00000000000E+00 0.  1.
         13    1    1    2    0    0  0.76581355321E+02  0.27006323338E+03  0.35087602266E+01  0.28073328369E+03  0.10566000000E+00 0. -1.
<mgrwt>
<rscale>  1 0.74989488E+03</rscale>
<asrwt>0</asrwt>
<pdfrwt beam="2">  1       21 0.24530705E+00 0.10405122E+04</pdfrwt>
<pdfrwt beam="1">  1        4 0.50466639E-01 0.10405122E+04</pdfrwt>
<totfact> 0.87321996E+00</totfact>
</mgrwt>
</event>
<event>
 6    1  0.2415530E-005  0.1547082E+04  0.7818608E-02  0.8922781E-01
          4   -1    0    0  502    0 -0.00000000000E+00  0.00000000000E+00  0.14453894714E+04  0.14453894714E+04  0.00000000000E+00 0.  1.
         21   -1    0    0  501  502  0.00000000000E+00 -0.00000000000E+00 -0.14686917943E+04  0.14686917943E+04  0.00000000000E+00 0. -1.
    9000010    2    1    2  501    0 -0.10262385707E+04 -0.56849719281E+03 -0.53111772683E+03  0.16357107569E+04  0.10085182093E+04 0.  0.
        -13    1    3    3    0    0 -0.11314237009E+04 -0.29378785500E+03 -0.18834179326E+03  0.11840200746E+04  0.10566000000E+00 0.  1.
          4    1    3    3  501    0  0.10518513023E+03 -0.27470933781E+03 -0.34277593356E+03  0.45169068236E+03  0.00000000000E+00 0.  1.
         13    1    1    2    0    0  0.10262385707E+04  0.56849719281E+03  0.50781540384E+03  0.12783705088E+04  0.10566000000E+00 0. -1.
<mgrwt>
<rscale>  1 0.14436980E+04</rscale>
<asrwt>0</asrwt>
<pdfrwt beam="2">  1       21 0.22595258E+00 0.15470823E+04</pdfrwt>
<pdfrwt beam="1">  1        4 0.22236761E+00 0.15470823E+04</pdfrwt>
<totfact> 0.25854590E-01</totfact>
</mgrwt>
</event>
<event>
 6    1  0.2415530E-005  0.9470544E+03  0.7818608E-02  0.9885586E-01
          4   -1    0    0  502    0 -0.00000000000E+00  0.00000000000E+00  0.10853128140E+04  0.10853128140E+04  0.00000000000E+00 0.  1.
         21   -1    0    0  501  502  0.00000000000E+00 -0.00000000000E+00 -0.11396232733E+04  0.11396232733E+04  0.00000000000E+00 0.  1.
    9000010    2    1    2  501    0  0.11607963026E+03  0.11390129880E+03 -0.93411978046E+03  0.13302224800E+04  0.93298665346E+03 0.  0.
        -13    1    3    3    0    0 -0.22096060949E+03 -0.13984317340E+03  0.43841373403E+02  0.26514483076E+03  0.10566000000E+00 0.  1.
          4    1    3    3  501    0  0.33704023974E+03  0.25374447221E+03 -0.97796115387E+03  0.10650776492E+04  0.00000000000E+00 0.  1.
         13    1    1    2    0    0 -0.11607963026E+03 -0.11390129880E+03  0.87980932116E+03  0.89471360736E+03  0.10566000000E+00 0. -1.
<mgrwt>
<rscale>  1 0.60964961E+03</rscale>
<asrwt>0</asrwt>
<pdfrwt beam="2">  1       21 0.17532666E+00 0.94705442E+03</pdfrwt>
<pdfrwt beam="1">  1        4 0.16697120E+00 0.94705442E+03</pdfrwt>
<totfact> 0.15111219E+00</totfact>
</mgrwt>
</event>
<event>
 6    1  0.2415530E-005  0.1010536E+04  0.7818608E-02  0.9803538E-01
          4   -1    0    0  502    0 -0.00000000000E+00  0.00000000000E+00  0.44257657773E+03  0.44257657773E+03  0.00000000000E+00 0.  1.
         21   -1    0    0  501  502  0.00000000000E+00 -0.00000000000E+00 -0.79384566290E+03  0.79384566290E+03  0.00000000000E+00 0.  1.
    9000010    2    1    2  501    0  0.17201179564E+03  0.31266365928E+02 -0.30536555409E+03  0.10556660822E+04  0.99529749926E+03 0.  0.
        -13    1    3    3    0    0  0.43390042449E+03  0.34162351871E+03 -0.79320458460E+01  0.55230348126E+03  0.10566000000E+00 0.  1.
          4    1    3    3  501    0 -0.26188862885E+03 -0.31035715278E+03 -0.29743350825E+03  0.50336260095E+03  0.00000000000E+00 0.  1.
         13    1    1    2    0    0 -0.17201179564E+03 -0.31266365928E+02 -0.45903531072E+02  0.18075615841E+03  0.10566000000E+00 0. -1.
<mgrwt>
<rscale>  1 0.65173045E+03</rscale>
<asrwt>0</asrwt>
<pdfrwt beam="2">  1       21 0.12213010E+00 0.10105359E+04</pdfrwt>
<pdfrwt beam="1">  1        4 0.68088704E-01 0.10105359E+04</pdfrwt>
<totfact> 0.37200566E+01</totfact>
</mgrwt>
</event>
<event>
 6    1  0.2415530E-005  0.1025651E+04  0.7818608E-02  0.9720924E-01
         21   -1    0    0  501  502  0.00000000000E+00  0.00000000000E+00  0.18399426513E+04  0.18399426513E+04  0.00000000000E+00 0. -1.
          4   -1    0    0  502    0 -0.00000000000E+00 -0.00000000000E+00 -0.26155453462E+03  0.26155453462E+03  0.00000000000E+00 0.  1.
    9000010    2    1    2  501    0 -0.15325968646E+03 -0.15756193255E+03  0.15775927951E+04  0.18816905941E+04  0.10018214266E+04 0.  0.
        -13    1    3    3    0    0  0.29385601101E+03  0.24222284704E+03  0.35837905122E+03  0.52293290043E+03  0.10566000000E+00 0.  1.
          4    1    3    3  501    0 -0.44711569748E+03 -0.39978477959E+03  0.12192137439E+04  0.13587576937E+04  0.00000000000E+00 0.  1.
         13    1    1    2    0    0  0.15325968646E+03  0.15756193255E+03  0.79532156487E+00  0.21980659176E+03  0.10566000000E+00 0. -1.
<mgrwt>
<rscale>  1 0.69784545E+03</rscale>
<asrwt>0</asrwt>
<pdfrwt beam="1">  1       21 0.28306809E+00 0.10256512E+04</pdfrwt>
<pdfrwt beam="2">  1        4 0.40239160E-01 0.10256512E+04</pdfrwt>
<totfact> 0.81022810E+00</totfact>
</mgrwt>
</event>
<event>
 6    1  0.2415530E-005  0.1516808E+04  0.7818608E-02  0.8946334E-01
         21   -1    0    0  501  502  0.00000000000E+00  0.00000000000E+00  0.85571288470E+03  0.85571288470E+03  0.00000000000E+00 0. -1.
          4   -1    0    0  502    0 -0.00000000000E+00 -0.00000000000E+00 -0.20526997056E+04  0.20526997056E+04  0.00000000000E+00 0.  1.
    9000010    2    1    2  501    0 -0.64018111509E+03  0.93584808604E+03 -0.68190115601E+03  0.16630384483E+04  0.10075039422E+04 0.  0.
        -13    1    3    3    0    0 -0.77186466996E+03  0.10131173682E+04 -0.38731654211E+03  0.13312385156E+04  0.10566000000E+00 0.  1.
          4    1    3    3  501    0  0.13168355487E+03 -0.77269282133E+02 -0.29458461390E+03  0.33179993269E+03  0.00000000000E+00 0.  1.
         13    1    1    2    0    0  0.64018111509E+03 -0.93584808604E+03 -0.51508566488E+03  0.12453741420E+04  0.10566000000E+00 0. -1.
<mgrwt>
<rscale>  1 0.14103864E+04</rscale>
<asrwt>0</asrwt>
<pdfrwt beam="1">  1       21 0.13164814E+00 0.15168084E+04</pdfrwt>
<pdfrwt beam="2">  1        4 0.31579995E+00 0.15168084E+04</pdfrwt>
<totfact> 0.34340617E-01</totfact>
</mgrwt>
</event>
<event>
 6    1  0.2415530E-005  0.9485362E+03  0.7818608E-02  0.9710091E-01
         21   -1    0    0  501  502  0.00000000000E+00  0.00000000000E+00  0.31369311187E+03  0.31369311187E+03  0.00000000000E+00 0.  1.
          4   -1    0    0  502    0 -0.00000000000E+00 -0.00000000000E+00 -0.12792906092E+04  0.12792906092E+04  0.00000000000E+00 0.  1.
    9000010    2    1    2  501    0  0.51241771755E+02  0.28354577990E+03 -0.58067407156E+03  0.11121615259E+04  0.90371287139E+03 0.  0.
        -13    1    3    3    0    0 -0.35779996482E+03 -0.78474374564E+02 -0.38633370479E+03  0.53238405772E+03  0.10566000000E+00 0.  1.
          4    1    3    3  501    0  0.40904173658E+03  0.36202015447E+03 -0.19434036677E+03  0.57977746822E+03  0.00000000000E+00 0.  1.
         13    1    1    2    0    0 -0.51241771755E+02 -0.28354577990E+03 -0.38492342582E+03  0.48082219518E+03  0.10566000000E+00 0. -1.
<mgrwt>
<rscale>  1 0.70419160E+03</rscale>
<asrwt>0</asrwt>
<pdfrwt beam="1">  1       21 0.48260479E-01 0.94853618E+03</pdfrwt>
<pdfrwt beam="2">  1        4 0.19681394E+00 0.94853618E+03</pdfrwt>
<totfact> 0.22529616E+01</totfact>
</mgrwt>
</event>
<event>
 6    1  0.2415530E-005  0.1004032E+04  0.7818608E-02  0.1014940E+00
         21   -1    0    0  501  502  0.00000000000E+00  0.00000000000E+00  0.23007405740E+04  0.23007405740E+04  0.00000000000E+00 0.  1.
          4   -1    0    0  502    0 -0.00000000000E+00 -0.00000000000E+00 -0.35961834521E+03  0.35961834521E+03  0.00000000000E+00 0.  1.
    9000010    2    1    2  501    0  0.12378978339E+02 -0.58293598529E+02  0.21874798664E+04  0.24068959446E+04  0.10022617122E+04 0.  0.
        -13    1    3    3    0    0 -0.95180803189E+02  0.42498106506E+03  0.14845242543E+04  0.15470877685E+04  0.10566000000E+00 0.  1.
          4    1    3    3  501    0  0.10755978153E+03 -0.48327466359E+03  0.70295561211E+03  0.85980817609E+03  0.00000000000E+00 0.  1.
         13    1    1    2    0    0 -0.12378978339E+02  0.58293598529E+02 -0.24635763756E+03  0.25346297458E+03  0.10566000000E+00 0. -1.
<mgrwt>
<rscale>  1 0.49557623E+03</rscale>
<asrwt>0</asrwt>
<pdfrwt beam="1">  1       21 0.35396008E+00 0.10040318E+04</pdfrwt>
<pdfrwt beam="2">  1        4 0.55325901E-01 0.10040318E+04</pdfrwt>
<totfact> 0.15061784E+00</totfact>
</mgrwt>
</event>
<event>
 6    1  0.2415530E-005  0.1014045E+04  0.7818608E-02  0.9770624E-01
          4   -1    0    0  502    0 -0.00000000000E+00  0.00000000000E+00  0.86409518717E+03  0.86409518717E+03  0.00000000000E+00 0.  1.
         21   -1    0    0  501  502  0.00000000000E+00 -0.00000000000E+00 -0.56620242585E+03  0.56620242585E+03  0.00000000000E+00 0.  1.
    9000010    2    1    2  501    0 -0.62893404960E+02  0.18228349010E+03 -0.68399800418E+02  0.10163494241E+04  0.99554244914E+03 0.  0.
        -13    1    3    3    0    0  0.18414676986E+03  0.36295768770E+03  0.32292909159E+03  0.51954934825E+03  0.10566000000E+00 0.  1.
          4    1    3    3  501    0 -0.24704017482E+03 -0.18067419760E+03 -0.39132889200E+03  0.49680007586E+03  0.00000000000E+00 0.  1.
         13    1    1    2    0    0  0.62893404960E+02 -0.18228349010E+03  0.36629256174E+03  0.41394818891E+03  0.10566000000E+00 0. -1.
<mgrwt>
<rscale>  1 0.66963143E+03</rscale>
<asrwt>0</asrwt>
<pdfrwt beam="2">  1       21 0.87108066E-01 0.10140452E+04</pdfrwt>
<pdfrwt beam="1">  1        4 0.13293772E+00 0.10140452E+04</pdfrwt>
<totfact> 0.17472604E+01</totfact>
</mgrwt>
</event>
<event>
 6    1  0.2415530E-005  0.1005339E+04  0.7818608E-02  0.1024708E+00
          4   -1    0    0  502    0 -0.00000000000E+00  0.00000000000E+00  0.13378156660E+03  0.13378156660E+03  0.00000000000E+00 0.  1.
         21   -1    0    0  501  502  0.00000000000E+00 -0.00000000000E+00 -0.24158793415E+04  0.24158793415E+04  0.00000000000E+00 0.  1.
    9000010    2    1    2  501    0 -0.41111952799E+02 -0.16126259202E+02 -0.22934010734E+04  0.25040755528E+04  0.10043682797E+04 0.  0.
        -13    1    3    3    0    0  0.35321429947E+03  0.32787150494E+03 -0.10802468267E+04  0.11828750073E+04  0.10566000000E+00 0.  1.
          4    1    3    3  501    0 -0.39432625227E+03 -0.34399776415E+03 -0.12131542467E+04  0.13212005455E+04  0.00000000000E+00 0.  1.
         13    1    1    2    0    0  0.41111952799E+02  0.16126259202E+02  0.11303298547E+02  0.45585355333E+02  0.10566000000E+00 0. -1.
<mgrwt>
<rscale>  1 0.46025219E+03</rscale>
<asrwt>0</asrwt>
<pdfrwt beam="2">  1       21 0.37167371E+00 0.10053387E+04</pdfrwt>
<pdfrwt beam="1">  1        4 0.20581781E-01 0.10053387E+04</pdfrwt>
<totfact> 0.83531888E+00</totfact>
</mgrwt>
</event>
<event>
 6    1  0.2415530E-005  0.1032271E+04  0.7818608E-02  0.9670939E-01
         21   -1    0    0  501  502  0.00000000000E+00  0.00000000000E+00  0.30085619714E+03  0.30085619714E+03  0.00000000000E+00 0.  1.
          4   -1    0    0  502    0 -0.00000000000E+00 -0.00000000000E+00 -0.14839354388E+04  0.14839354388E+04  0.00000000000E+00 0.  1.
    9000010    2    1    2  501    0  0.25015556908E+03  0.49400519001E+02 -0.72804267247E+03  0.12631820976E+04  0.10002822895E+04 0.  0.
        -13    1    3    3    0    0  0.33867414208E+03  0.70969136200E+02  0.15235285912E+03  0.37808490800E+03  0.10566000000E+00 0.  1.
          4    1    3    3  501    0 -0.88518572999E+02 -0.21568617200E+02 -0.88039553159E+03  0.88509718961E+03  0.00000000000E+00 0.  1.
         13    1    1    2    0    0 -0.25015556908E+03 -0.49400519001E+02 -0.45503656923E+03  0.52160953837E+03  0.10566000000E+00 0. -1.
<mgrwt>
<rscale>  1 0.72773725E+03</rscale>
<asrwt>0</asrwt>
<pdfrwt beam="1">  1       21 0.46285569E-01 0.10322707E+04</pdfrwt>
<pdfrwt beam="2">  1        4 0.22829776E+00 0.10322707E+04</pdfrwt>
<totfact> 0.15284761E+01</totfact>
</mgrwt>
</event>
<event>
 6    1  0.2415530E-005  0.1003260E+04  0.7818608E-02  0.1001475E+00
         21   -1    0    0  501  502  0.00000000000E+00  0.00000000000E+00  0.12239406010E+04  0.12239406010E+04  0.00000000000E+00 0.  1.
          4   -1    0    0  502    0 -0.00000000000E+00 -0.00000000000E+00 -0.25310015511E+03  0.25310015511E+03  0.00000000000E+00 0.  1.
    9000010    2    1    2  501    0 -0.30724301725E+02  0.85307567695E+02  0.95475985160E+03  0.13849540551E+04  0.99915464105E+03 0.  0.
        -13    1    3    3    0    0 -0.18901408127E+03 -0.19025682002E+03  0.10249903818E+04  0.10594948204E+04  0.10566000000E+00 0.  1.
          4    1    3    3  501    0  0.15828977955E+03  0.27556438772E+03 -0.70230530213E+02  0.32545923472E+03  0.00000000000E+00 0.  1.
         13    1    1    2    0    0  0.30724301725E+02 -0.85307567695E+02  0.16080594283E+02  0.92086700989E+02  0.10566000000E+00 0. -1.
<mgrwt>
<rscale>  1 0.55008310E+03</rscale>
<asrwt>0</asrwt>
<pdfrwt beam="1">  1       21 0.18829855E+00 0.10032604E+04</pdfrwt>
<pdfrwt beam="2">  1        4 0.38938486E-01 0.10032604E+04</pdfrwt>
<totfact> 0.36090306E+01</totfact>
</mgrwt>
</event>
<event>
 6    1  0.2415530E-005  0.1010667E+04  0.7818608E-02  0.9919610E-01
         21   -1    0    0  501  502  0.00000000000E+00  0.00000000000E+00  0.13965877104E+03  0.13965877104E+03  0.00000000000E+00 0.  1.
          4   -1    0    0  502    0 -0.00000000000E+00 -0.00000000000E+00 -0.23017087616E+04  0.23017087616E+04  0.00000000000E+00 0.  1.
    9000010    2    1    2  501    0 -0.11304830501E+03 -0.40090720827E+02 -0.18698899378E+04  0.21255437008E+04  0.10035240203E+04 0.  0.
        -13    1    3    3    0    0 -0.50330755651E+02 -0.15442127492E+02 -0.19884629017E+04  0.19891597138E+04  0.10566000000E+00 0.  1.
          4    1    3    3  501    0 -0.62717549360E+02 -0.24648593336E+02  0.11857296391E+03  0.13638398704E+03  0.00000000000E+00 0.  1.
         13    1    1    2    0    0  0.11304830501E+03  0.40090720827E+02 -0.29216005272E+03  0.31582383180E+03  0.10566000000E+00 0. -1.
<mgrwt>
<rscale>  1 0.59320262E+03</rscale>
<asrwt>0</asrwt>
<pdfrwt beam="1">  1       21 0.21485965E-01 0.10106669E+04</pdfrwt>
<pdfrwt beam="2">  1        4 0.35410904E+00 0.10106669E+04</pdfrwt>
<totfact> 0.11940447E+01</totfact>
</mgrwt>
</event>
<event>
 6    1  0.2415530E-005  0.1029421E+04  0.7818608E-02  0.9718622E-01
          4   -1    0    0  502    0 -0.00000000000E+00  0.00000000000E+00  0.40826154200E+03  0.40826154200E+03  0.00000000000E+00 0.  1.
         21   -1    0    0  501  502  0.00000000000E+00 -0.00000000000E+00 -0.10341995862E+04  0.10341995862E+04  0.00000000000E+00 0.  1.
    9000010    2    1    2  501    0  0.19643589365E+03 -0.96992724030E+02 -0.65697306965E+03  0.12211969585E+04  0.10058398224E+04 0.  0.
        -13    1    3    3    0    0  0.33965179749E+03 -0.43704750801E+03 -0.64784511057E+03  0.85210161733E+03  0.10566000000E+00 0.  1.
          4    1    3    3  501    0 -0.14321590384E+03  0.34005478398E+03 -0.91279590803E+01  0.36909534115E+03  0.00000000000E+00 0.  1.
         13    1    1    2    0    0 -0.19643589365E+03  0.96992724030E+02  0.31035025464E+02  0.22126416971E+03  0.10566000000E+00 0. -1.
<mgrwt>
<rscale>  1 0.69918806E+03</rscale>
<asrwt>0</asrwt>
<pdfrwt beam="2">  1       21 0.15910763E+00 0.10294214E+04</pdfrwt>
<pdfrwt beam="1">  1        4 0.62809469E-01 0.10294214E+04</pdfrwt>
<totfact> 0.21598656E+01</totfact>
</mgrwt>
</event>
<event>
 6    1  0.2415530E-005  0.1078459E+04  0.7818608E-02  0.9591919E-01
         21   -1    0    0  501  502  0.00000000000E+00  0.00000000000E+00  0.68159076715E+03  0.68159076715E+03  0.00000000000E+00 0.  1.
          4   -1    0    0  502    0 -0.00000000000E+00 -0.00000000000E+00 -0.79842577107E+03  0.79842577107E+03  0.00000000000E+00 0.  1.
    9000010    2    1    2  501    0 -0.14637113229E+03  0.25334020520E+03  0.14401975380E+03  0.10880331410E+04  0.10380118778E+04 0.  0.
        -13    1    3    3    0    0 -0.11328652820E+02 -0.39270187548E+03  0.16872830795E+03  0.42756561420E+03  0.10566000000E+00 0.  1.
          4    1    3    3  501    0 -0.13504247947E+03  0.64604208067E+03 -0.24708554144E+02  0.66046752676E+03  0.00000000000E+00 0.  1.
         13    1    1    2    0    0  0.14637113229E+03 -0.25334020520E+03 -0.26085475772E+03  0.39198339726E+03  0.10566000000E+00 0. -1.
<mgrwt>
<rscale>  1 0.77833346E+03</rscale>
<asrwt>0</asrwt>
<pdfrwt beam="1">  1       21 0.10486012E+00 0.10784593E+04</pdfrwt>
<pdfrwt beam="2">  1        4 0.12283473E+00 0.10784593E+04</pdfrwt>
<totfact> 0.13483711E+01</totfact>
</mgrwt>
</event>
<event>
 6    1  0.2415530E-005  0.1027108E+04  0.7818608E-02  0.9784474E-01
          4   -1    0    0  502    0 -0.00000000000E+00  0.00000000000E+00  0.22146615238E+03  0.22146615238E+03  0.00000000000E+00 0.  1.
         21   -1    0    0  501  502  0.00000000000E+00 -0.00000000000E+00 -0.16953779138E+04  0.16953779138E+04  0.00000000000E+00 0.  1.
    9000010    2    1    2  501    0  0.13126630296E+03 -0.11914581956E+03 -0.13668590978E+04  0.17097526550E+04  0.10116935206E+04 0.  0.
        -13    1    3    3    0    0 -0.26042727833E+03  0.34567524261E+02 -0.12439577966E+04  0.12713961979E+04  0.10566000000E+00 0.  1.
          4    1    3    3  501    0  0.39169358129E+03 -0.15371334382E+03 -0.12290130117E+03  0.43835645715E+03  0.00000000000E+00 0.  1.
         13    1    1    2    0    0 -0.13126630296E+03  0.11914581956E+03 -0.10705266357E+03  0.20709141110E+03  0.10566000000E+00 0. -1.
<mgrwt>
<rscale>  1 0.66202463E+03</rscale>
<asrwt>0</asrwt>
<pdfrwt beam="2">  1       21 0.26082737E+00 0.10271078E+04</pdfrwt>
<pdfrwt beam="1">  1        4 0.34071715E-01 0.10271078E+04</pdfrwt>
<totfact> 0.15614732E+01</totfact>
</mgrwt>
</event>
<event>
 6    1  0.2415530E-005  0.1042602E+04  0.7818608E-02  0.9667616E-01
          4   -1    0    0  502    0 -0.00000000000E+00  0.00000000000E+00  0.14134239024E+04  0.14134239024E+04  0.00000000000E+00 0.  1.
         21   -1    0    0  501  502  0.00000000000E+00 -0.00000000000E+00 -0.29722565453E+03  0.29722565453E+03  0.00000000000E+00 0.  1.
    9000010    2    1    2  501    0 -0.24443311622E+03  0.53751402280E+02  0.84905469900E+03  0.13445861083E+04  0.10121171668E+04 0.  0.
        -13    1    3    3    0    0 -0.53641022806E+02  0.52811695761E+03  0.41228363144E+03  0.67213293638E+03  0.10566000000E+00 0.  1.
          4    1    3    3  501    0 -0.19079209341E+03 -0.47436555533E+03  0.43677106756E+03  0.67245317194E+03  0.00000000000E+00 0.  1.
         13    1    1    2    0    0  0.24443311622E+03 -0.53751402280E+02  0.26714354889E+03  0.36606344864E+03  0.10566000000E+00 0. -1.
<mgrwt>
<rscale>  1 0.72978080E+03</rscale>
<asrwt>0</asrwt>
<pdfrwt beam="2">  1       21 0.45727024E-01 0.10426015E+04</pdfrwt>
<pdfrwt beam="1">  1        4 0.21744983E+00 0.10426015E+04</pdfrwt>
<totfact> 0.18366463E+01</totfact>
</mgrwt>
</event>
<event>
 6    1  0.2415530E-005  0.1073325E+04  0.7818608E-02  0.9525605E-01
          4   -1    0    0  502    0 -0.00000000000E+00  0.00000000000E+00  0.76573413189E+03  0.76573413189E+03  0.00000000000E+00 0.  1.
         21   -1    0    0  501  502  0.00000000000E+00 -0.00000000000E+00 -0.11683888824E+04  0.11683888824E+04  0.00000000000E+00 0.  1.
    9000010    2    1    2  501    0  0.23569589949E+03 -0.28939734825E+03 -0.83725089795E+03  0.13612554862E+04  0.10063419152E+04 0.  0.
        -13    1    3    3    0    0  0.55819113824E+03 -0.44507983652E+03 -0.52557754945E+03  0.88651293241E+03  0.10566000000E+00 0.  1.
          4    1    3    3  501    0 -0.32249523874E+03  0.15568248827E+03 -0.31167334851E+03  0.47474255374E+03  0.00000000000E+00 0.  1.
         13    1    1    2    0    0 -0.23569589949E+03  0.28939734825E+03  0.43459614747E+03  0.57286752812E+03  0.10566000000E+00 0. -1.
<mgrwt>
<rscale>  1 0.82422118E+03</rscale>
<asrwt>0</asrwt>
<pdfrwt beam="2">  1       21 0.17975214E+00 0.10733254E+04</pdfrwt>
<pdfrwt beam="1">  1        4 0.11780525E+00 0.10733254E+04</pdfrwt>
<totfact> 0.34505427E+00</totfact>
</mgrwt>
</event>
<event>
 6    1  0.2415530E-005  0.9977356E+03  0.7818608E-02  0.9864787E-01
         21   -1    0    0  501  502  0.00000000000E+00  0.00000000000E+00  0.75282808367E+03  0.75282808367E+03  0.00000000000E+00 0.  1.
          4   -1    0    0  502    0 -0.00000000000E+00 -0.00000000000E+00 -0.46577615267E+03  0.46577615267E+03  0.00000000000E+00 0.  1.
    9000010    2    1    2  501    0  0.13617356042E+03 -0.59881859608E+02  0.34962677674E+03  0.10572205378E+04  0.98658365428E+03 0.  0.
        -13    1    3    3    0    0 -0.35967302789E+03  0.22572475221E+03  0.17092506033E+03  0.45774636882E+03  0.10566000000E+00 0.  1.
          4    1    3    3  501    0  0.49584658830E+03 -0.28560661182E+03  0.17870171640E+03  0.59947416899E+03  0.00000000000E+00 0.  1.
         13    1    1    2    0    0 -0.13617356042E+03  0.59881859608E+02 -0.62574845742E+02  0.16138369853E+03  0.10566000000E+00 0. -1.
<mgrwt>
<rscale>  1 0.61998623E+03</rscale>
<asrwt>0</asrwt>
<pdfrwt beam="1">  1       21 0.11581971E+00 0.99773563E+03</pdfrwt>
<pdfrwt beam="2">  1        4 0.71657869E-01 0.99773563E+03</pdfrwt>
<totfact> 0.38108785E+01</totfact>
</mgrwt>
</event>
<event>
 6    1  0.2415530E-005  0.9941534E+03  0.7818608E-02  0.9963435E-01
         21   -1    0    0  501  502  0.00000000000E+00  0.00000000000E+00  0.94780815530E+03  0.94780815530E+03  0.00000000000E+00 0.  1.
          4   -1    0    0  502    0 -0.00000000000E+00 -0.00000000000E+00 -0.32669702812E+03  0.32669702812E+03  0.00000000000E+00 0.  1.
    9000010    2    1    2  501    0 -0.10954246623E+03  0.29839315691E+01  0.60492429352E+03  0.11637329825E+04  0.98809543965E+03 0.  0.
        -13    1    3    3    0    0 -0.34067163165E+03 -0.38166495174E+03  0.17076763844E+03  0.53933931203E+03  0.10566000000E+00 0.  1.
          4    1    3    3  501    0  0.23112916542E+03  0.38464888331E+03  0.43415665507E+03  0.62439367044E+03  0.00000000000E+00 0.  1.
         13    1    1    2    0    0  0.10954246623E+03 -0.29839315691E+01  0.16186833662E+02  0.11077220095E+03  0.10566000000E+00 0. -1.
<mgrwt>
<rscale>  1 0.57283034E+03</rscale>
<asrwt>0</asrwt>
<pdfrwt beam="1">  1       21 0.14581664E+00 0.99415344E+03</pdfrwt>
<pdfrwt beam="2">  1        4 0.50261082E-01 0.99415344E+03</pdfrwt>
<totfact> 0.44741281E+01</totfact>
</mgrwt>
</event>
<event>
 6    1  0.2415530E-005  0.1104791E+04  0.7818608E-02  0.9417637E-01
         21   -1    0    0  501  502  0.00000000000E+00  0.00000000000E+00  0.14885570418E+04  0.14885570418E+04  0.00000000000E+00 0. -1.
          4   -1    0    0  502    0 -0.00000000000E+00 -0.00000000000E+00 -0.44887334973E+03  0.44887334973E+03  0.00000000000E+00 0.  1.
    9000010    2    1    2  501    0  0.26374136150E+03 -0.42537439510E+03  0.53817141315E+03  0.12288984876E+04  0.98491631177E+03 0.  0.
        -13    1    3    3    0    0 -0.31149956777E+03 -0.23940521788E+03 -0.36794056935E+02  0.39458922040E+03  0.10566000000E+00 0.  1.
          4    1    3    3  501    0  0.57524092927E+03 -0.18596917722E+03  0.57496547009E+03  0.83430926723E+03  0.00000000000E+00 0.  1.
         13    1    1    2    0    0 -0.26374136150E+03  0.42537439510E+03  0.50151227889E+03  0.70853190388E+03  0.10566000000E+00 0. -1.
<mgrwt>
<rscale>  1 0.90638295E+03</rscale>
<asrwt>0</asrwt>
<pdfrwt beam="1">  1       21 0.22900877E+00 0.11047909E+04</pdfrwt>
<pdfrwt beam="2">  1        4 0.69057439E-01 0.11047909E+04</pdfrwt>
<totfact> 0.55762867E+00</totfact>
</mgrwt>
</event>
<event>
 6    1  0.2415530E-005  0.1022823E+04  0.7818608E-02  0.9742332E-01
         21   -1    0    0  501  502  0.00000000000E+00  0.00000000000E+00  0.22302554602E+03  0.22302554602E+03  0.00000000000E+00 0.  1.
          4   -1    0    0  502    0 -0.00000000000E+00 -0.00000000000E+00 -0.17254830488E+04  0.17254830488E+04  0.00000000000E+00 0.  1.
    9000010    2    1    2  501    0 -0.64576368844E+02  0.19601378636E+03 -0.11414086169E+04  0.15326386380E+04  0.10017864303E+04 0.  0.
        -13    1    3    3    0    0 -0.15185688285E+02  0.15927760991E+03  0.16204947452E+03  0.22772791991E+03  0.10566000000E+00 0.  1.
          4    1    3    3  501    0 -0.49390680558E+02  0.36736176448E+02 -0.13034580914E+04  0.13049107181E+04  0.00000000000E+00 0.  1.
         13    1    1    2    0    0  0.64576368844E+02 -0.19601378636E+03 -0.36104888583E+03  0.41586995681E+03  0.10566000000E+00 0. -1.
<mgrwt>
<rscale>  1 0.68551327E+03</rscale>
<asrwt>0</asrwt>
<pdfrwt beam="1">  1       21 0.34311623E-01 0.10228233E+04</pdfrwt>
<pdfrwt beam="2">  1        4 0.26545893E+00 0.10228233E+04</pdfrwt>
<totfact> 0.16823108E+01</totfact>
</mgrwt>
</event>
<event>
 6    1  0.2415530E-005  0.1045384E+04  0.7818608E-02  0.9596826E-01
          4   -1    0    0  502    0 -0.00000000000E+00  0.00000000000E+00  0.11367753380E+04  0.11367753380E+04  0.00000000000E+00 0.  1.
         21   -1    0    0  501  502  0.00000000000E+00 -0.00000000000E+00 -0.40933086839E+03  0.40933086839E+03  0.00000000000E+00 0.  1.
    9000010    2    1    2  501    0  0.31508033810E+03  0.22518536492E+02  0.51436884886E+03  0.11650761088E+04  0.99651609254E+03 0.  0.
        -13    1    3    3    0    0  0.90114298893E+02  0.27194584603E+03  0.71747044749E+03  0.77255354780E+03  0.10566000000E+00 0.  1.
          4    1    3    3  501    0  0.22496603921E+03 -0.24942730953E+03 -0.20310159862E+03  0.39252256101E+03  0.00000000000E+00 0.  1.
         13    1    1    2    0    0 -0.31508033810E+03 -0.22518536492E+02  0.21307562077E+03  0.38103009760E+03  0.10566000000E+00 0. -1.
<mgrwt>
<rscale>  1 0.77506602E+03</rscale>
<asrwt>0</asrwt>
<pdfrwt beam="2">  1       21 0.62973980E-01 0.10453837E+04</pdfrwt>
<pdfrwt beam="1">  1        4 0.17488851E+00 0.10453837E+04</pdfrwt>
<totfact> 0.17581651E+01</totfact>
</mgrwt>
</event>
<event>
 6    1  0.3542689E-005  0.8527938E+03  0.7818608E-02  0.9964316E-01
          4   -1    0    0  502    0 -0.00000000000E+00  0.00000000000E+00  0.16275384294E+04  0.16275384294E+04  0.00000000000E+00 0.  1.
         21   -1    0    0  501  502  0.00000000000E+00 -0.00000000000E+00 -0.16177742603E+03  0.16177742603E+03  0.00000000000E+00 0.  1.
    9000010    2    1    2  501    0  0.12650715248E+03  0.11818525873E+03  0.12009479052E+04  0.14729334869E+04  0.83503614934E+03 0.  0.
        -13    1    3    3    0    0  0.20982497386E+03 -0.18863091356E+03  0.11055729381E+04  0.11410081831E+04  0.10566000000E+00 0.  1.
          4    1    3    3  501    0 -0.83317821384E+02  0.30681617229E+03  0.95374967069E+02  0.33192530377E+03  0.00000000000E+00 0.  1.
         13    1    1    2    0    0 -0.12650715248E+03 -0.11818525873E+03  0.26481309816E+03  0.31638236856E+03  0.10566000000E+00 0. -1.
<mgrwt>
<rscale>  1 0.57242970E+03</rscale>
<asrwt>0</asrwt>
<pdfrwt beam="2">  1       21 0.24888836E-01 0.85279375E+03</pdfrwt>
<pdfrwt beam="1">  1        4 0.25039052E+00 0.85279375E+03</pdfrwt>
<totfact> 0.40479528E+01</totfact>
</mgrwt>
</event>
<event>
 6    1  0.2415530E-005  0.9791437E+03  0.7818608E-02  0.1004063E+00
          4   -1    0    0  502    0 -0.00000000000E+00  0.00000000000E+00  0.21069823068E+03  0.21069823068E+03  0.00000000000E+00 0.  1.
         21   -1    0    0  501  502  0.00000000000E+00 -0.00000000000E+00 -0.16887265400E+04  0.16887265400E+04  0.00000000000E+00 0.  1.
    9000010    2    1    2  501    0  0.76119626058E+02  0.47903090750E+02 -0.15136106721E+04  0.18027034220E+04  0.97500433714E+03 0.  0.
        -13    1    3    3    0    0  0.86462237460E+02 -0.23703708932E+03  0.10128064353E+02  0.25251710649E+03  0.10566000000E+00 0.  1.
          4    1    3    3  501    0 -0.10342611403E+02  0.28494018007E+03 -0.15237387365E+04  0.15501863155E+04  0.00000000000E+00 0.  1.
         13    1    1    2    0    0 -0.76119626058E+02 -0.47903090750E+02  0.35582362813E+02  0.96721348636E+02  0.10566000000E+00 0. -1.
<mgrwt>
<rscale>  1 0.53904014E+03</rscale>
<asrwt>0</asrwt>
<pdfrwt beam="2">  1       21 0.25980409E+00 0.97914369E+03</pdfrwt>
<pdfrwt beam="1">  1        4 0.32415112E-01 0.97914369E+03</pdfrwt>
<totfact> 0.17621821E+01</totfact>
</mgrwt>
</event>
<event>
 6    1  0.2415530E-005  0.9937403E+03  0.7818608E-02  0.9924044E-01
          4   -1    0    0  502    0 -0.00000000000E+00  0.00000000000E+00  0.25915588268E+03  0.25915588268E+03  0.00000000000E+00 0.  1.
         21   -1    0    0  501  502  0.00000000000E+00 -0.00000000000E+00 -0.14799384908E+04  0.14799384908E+04  0.00000000000E+00 0.  1.
    9000010    2    1    2  501    0 -0.12439939826E+03 -0.72349955372E+00 -0.12635858249E+04  0.16075350322E+04  0.98592292246E+03 0.  0.
        -13    1    3    3    0    0  0.40105131921E+03 -0.12568020046E+03 -0.35318552118E+03  0.54897877642E+03  0.10566000000E+00 0.  1.
          4    1    3    3  501    0 -0.52545071746E+03  0.12495670090E+03 -0.91040030373E+03  0.10585562558E+04  0.00000000000E+00 0.  1.
         13    1    1    2    0    0  0.12439939826E+03  0.72349955372E+00  0.42803216826E+02  0.13155934126E+03  0.10566000000E+00 0. -1.
<mgrwt>
<rscale>  1 0.59110021E+03</rscale>
<asrwt>0</asrwt>
<pdfrwt beam="2">  1       21 0.22768285E+00 0.99374028E+03</pdfrwt>
<pdfrwt beam="1">  1        4 0.39870136E-01 0.99374028E+03</pdfrwt>
<totfact> 0.18632344E+01</totfact>
</mgrwt>
</event>
<event>
 6    1  0.2415530E-005  0.9494674E+03  0.7818608E-02  0.9750029E-01
         21   -1    0    0  501  502  0.00000000000E+00  0.00000000000E+00  0.14323778144E+04  0.14323778144E+04  0.00000000000E+00 0.  1.
          4   -1    0    0  502    0 -0.00000000000E+00 -0.00000000000E+00 -0.25193059389E+03  0.25193059389E+03  0.00000000000E+00 0.  1.
    9000010    2    1    2  501    0 -0.31844878516E+02  0.24946578185E+03  0.91371639772E+03  0.13177124241E+04  0.91555508007E+03 0.  0.
        -13    1    3    3    0    0 -0.92644944923E+01 -0.34969932838E+03  0.34352059147E+03  0.49028752692E+03  0.10566000000E+00 0.  1.
          4    1    3    3  501    0 -0.22580384024E+02  0.59916511022E+03  0.57019580625E+03  0.82742489721E+03  0.00000000000E+00 0.  1.
         13    1    1    2    0    0  0.31844878516E+02 -0.24946578185E+03  0.26673082274E+03  0.36659598411E+03  0.10566000000E+00 0. -1.
<mgrwt>
<rscale>  1 0.68114620E+03</rscale>
<asrwt>0</asrwt>
<pdfrwt beam="1">  1       21 0.22036581E+00 0.94946742E+03</pdfrwt>
<pdfrwt beam="2">  1        4 0.38758554E-01 0.94946742E+03</pdfrwt>
<totfact> 0.22171279E+01</totfact>
</mgrwt>
</event>
<event>
 6    1  0.2415530E-005  0.9548360E+03  0.7818608E-02  0.1015006E+00
          4   -1    0    0  502    0 -0.00000000000E+00  0.00000000000E+00  0.29623089944E+03  0.29623089944E+03  0.00000000000E+00 0.  1.
         21   -1    0    0  501  502  0.00000000000E+00 -0.00000000000E+00 -0.88540972286E+03  0.88540972286E+03  0.00000000000E+00 0.  1.
    9000010    2    1    2  501    0 -0.21932784195E+02  0.65577489940E+02 -0.55634008143E+03  0.11050909760E+04  0.95232889530E+03 0.  0.
        -13    1    3    3    0    0  0.88015784283E+02  0.47934509120E+03 -0.45140322217E+03  0.66429163391E+03  0.10566000000E+00 0.  1.
          4    1    3    3  501    0 -0.10994856848E+03 -0.41376760126E+03 -0.10493685927E+03  0.44079934210E+03  0.00000000000E+00 0.  1.
         13    1    1    2    0    0  0.21932784195E+02 -0.65577489940E+02 -0.32838741986E+02  0.76549646300E+02  0.10566000000E+00 0. -1.
<mgrwt>
<rscale>  1 0.49532667E+03</rscale>
<asrwt>0</asrwt>
<pdfrwt beam="2">  1       21 0.13621688E+00 0.95483600E+03</pdfrwt>
<pdfrwt beam="1">  1        4 0.45573985E-01 0.95483600E+03</pdfrwt>
<totfact> 0.66397228E+01</totfact>
</mgrwt>
</event>
<event>
 6    1  0.2415530E-005  0.1026481E+04  0.7818608E-02  0.9700694E-01
          4   -1    0    0  502    0 -0.00000000000E+00  0.00000000000E+00  0.57369522104E+03  0.57369522104E+03  0.00000000000E+00 0.  1.
         21   -1    0    0  501  502  0.00000000000E+00 -0.00000000000E+00 -0.72756949151E+03  0.72756949151E+03  0.00000000000E+00 0.  1.
    9000010    2    1    2  501    0  0.18409235431E+03 -0.14546595864E+03 -0.23494428978E+03  0.10530255149E+04  0.99930654744E+03 0.  0.
        -13    1    3    3    0    0  0.50332560693E+03  0.21068062596E+03 -0.16226458372E+03  0.56925635617E+03  0.10566000000E+00 0.  1.
          4    1    3    3  501    0 -0.31923325262E+03 -0.35614658460E+03 -0.72679706065E+02  0.48376915877E+03  0.00000000000E+00 0.  1.
         13    1    1    2    0    0 -0.18409235431E+03  0.14546595864E+03  0.81070019320E+02  0.24823919762E+03  0.10566000000E+00 0. -1.
<mgrwt>
<rscale>  1 0.70975474E+03</rscale>
<asrwt>0</asrwt>
<pdfrwt beam="2">  1       21 0.11193377E+00 0.10264813E+04</pdfrwt>
<pdfrwt beam="1">  1        4 0.88260804E-01 0.10264813E+04</pdfrwt>
<totfact> 0.25697589E+01</totfact>
</mgrwt>
</event>
<event>
 6    1  0.2415530E-005  0.1011952E+04  0.7818608E-02  0.9978827E-01
          4   -1    0    0  502    0 -0.00000000000E+00  0.00000000000E+00  0.56165625417E+03  0.56165625417E+03  0.00000000000E+00 0.  1.
         21   -1    0    0  501  502  0.00000000000E+00 -0.00000000000E+00 -0.93579114939E+03  0.93579114939E+03  0.00000000000E+00 0.  1.
    9000010    2    1    2  501    0  0.12971040774E+02 -0.98099874887E+02 -0.65111117093E+03  0.12033254870E+04  0.10071020988E+04 0.  0.
        -13    1    3    3    0    0  0.32230185867E+03  0.31823668510E+03 -0.13742134083E+03  0.47332622146E+03  0.10566000000E+00 0.  1.
          4    1    3    3  501    0 -0.30933081790E+03 -0.41633655999E+03 -0.51368983010E+03  0.72999926550E+03  0.00000000000E+00 0.  1.
         13    1    1    2    0    0 -0.12971040774E+02  0.98099874887E+02  0.27697627571E+03  0.29412191659E+03  0.10566000000E+00 0. -1.
<mgrwt>
<rscale>  1 0.56588468E+03</rscale>
<asrwt>0</asrwt>
<pdfrwt beam="2">  1       21 0.14396787E+00 0.10119518E+04</pdfrwt>
<pdfrwt beam="1">  1        4 0.86408655E-01 0.10119518E+04</pdfrwt>
<totfact> 0.13910456E+01</totfact>
</mgrwt>
</event>
<event>
 6    1  0.2415530E-005  0.1303483E+04  0.7818608E-02  0.9110366E-01
          4   -1    0    0  502    0 -0.00000000000E+00  0.00000000000E+00  0.98508152547E+03  0.98508152547E+03  0.00000000000E+00 0.  1.
         21   -1    0    0  501  502  0.00000000000E+00 -0.00000000000E+00 -0.16384650299E+04  0.16384650299E+04  0.00000000000E+00 0.  1.
    9000010    2    1    2  501    0  0.84594268834E+03 -0.42166759780E+03 -0.97209562474E+03  0.16260496773E+04  0.89757732503E+03 0.  0.
        -13    1    3    3    0    0  0.75548978464E+03 -0.41847759688E+03 -0.11430358212E+04  0.14326266832E+04  0.10566000000E+00 0.  1.
          4    1    3    3  501    0  0.90452903707E+02 -0.31900009143E+01  0.17094019642E+03  0.19342299410E+03  0.00000000000E+00 0.  1.
         13    1    1    2    0    0 -0.84594268834E+03  0.42166759780E+03  0.31871212029E+03  0.99749687808E+03  0.10566000000E+00 0. -1.
<mgrwt>
<rscale>  1 0.12028490E+04</rscale>
<asrwt>0</asrwt>
<pdfrwt beam="2">  1       21 0.25207154E+00 0.13034829E+04</pdfrwt>
<pdfrwt beam="1">  1        4 0.15155100E+00 0.13034829E+04</pdfrwt>
<totfact> 0.56332181E-01</totfact>
</mgrwt>
</event>
<event>
 6    1  0.2415530E-005  0.9556890E+03  0.7818608E-02  0.1006485E+00
         21   -1    0    0  501  502  0.00000000000E+00  0.00000000000E+00  0.35925335501E+03  0.35925335501E+03  0.00000000000E+00 0.  1.
          4   -1    0    0  502    0 -0.00000000000E+00 -0.00000000000E+00 -0.88607160239E+03  0.88607160239E+03  0.00000000000E+00 0.  1.
    9000010    2    1    2  501    0 -0.31629615371E+02  0.83925292801E+02 -0.30039830067E+03  0.10017887367E+04  0.95147130627E+03 0.  0.
        -13    1    3    3    0    0  0.15916550911E+03  0.43987938111E+02  0.31532425702E+03  0.35594661990E+03  0.10566000000E+00 0.  1.
          4    1    3    3  501    0 -0.19079512448E+03  0.39937354690E+02 -0.61572255769E+03  0.64584211683E+03  0.00000000000E+00 0.  1.
         13    1    1    2    0    0  0.31629615371E+02 -0.83925292801E+02 -0.22641994672E+03  0.24353622066E+03  0.10566000000E+00 0. -1.
<mgrwt>
<rscale>  1 0.52895750E+03</rscale>
<asrwt>0</asrwt>
<pdfrwt beam="1">  1       21 0.55269748E-01 0.95568904E+03</pdfrwt>
<pdfrwt beam="2">  1        4 0.13631871E+00 0.95568904E+03</pdfrwt>
<totfact> 0.46659178E+01</totfact>
</mgrwt>
</event>
<event>
 6    1  0.2415530E-005  0.1012730E+04  0.7818608E-02  0.1009821E+00
         21   -1    0    0  501  502  0.00000000000E+00  0.00000000000E+00  0.98987807623E+03  0.98987807623E+03  0.00000000000E+00 0.  1.
          4   -1    0    0  502    0 -0.00000000000E+00 -0.00000000000E+00 -0.29839197779E+03  0.29839197779E+03  0.00000000000E+00 0.  1.
    9000010    2    1    2  501    0  0.19681737963E+02  0.65053988489E+02  0.67867475565E+03  0.12191069577E+04  0.10104469101E+04 0.  0.
        -13    1    3    3    0    0 -0.17387298526E+03  0.40633417950E+03  0.79345816770E+01  0.44204326619E+03  0.10566000000E+00 0.  1.
          4    1    3    3  501    0  0.19355472322E+03 -0.34128019101E+03  0.67074017397E+03  0.77706369149E+03  0.00000000000E+00 0.  1.
         13    1    1    2    0    0 -0.19681737963E+02 -0.65053988489E+02  0.12811342794E+02  0.69163096343E+02  0.10566000000E+00 0. -1.
<mgrwt>
<rscale>  1 0.51545830E+03</rscale>
<asrwt>0</asrwt>
<pdfrwt beam="1">  1       21 0.15228893E+00 0.10127301E+04</pdfrwt>
<pdfrwt beam="2">  1        4 0.45906459E-01 0.10127301E+04</pdfrwt>
<totfact> 0.47870146E+01</totfact>
</mgrwt>
</event>
<event>
 6    1  0.2415530E-005  0.1004673E+04  0.7818608E-02  0.9838815E-01
         21   -1    0    0  501  502  0.00000000000E+00  0.00000000000E+00  0.70144921877E+03  0.70144921877E+03  0.00000000000E+00 0.  1.
          4   -1    0    0  502    0 -0.00000000000E+00 -0.00000000000E+00 -0.56081703166E+03  0.56081703166E+03  0.00000000000E+00 0.  1.
    9000010    2    1    2  501    0 -0.51466073239E+02  0.14994014980E+03  0.28871544101E+03  0.10453343107E+04  0.99208689643E+03 0.  0.
        -13    1    3    3    0    0  0.13157870435E+03  0.53034688171E+03  0.29934142858E+03  0.62304580282E+03  0.10566000000E+00 0.  1.
          4    1    3    3  501    0 -0.18304477758E+03 -0.38040673192E+03 -0.10625987569E+02  0.42228850790E+03  0.00000000000E+00 0.  1.
         13    1    1    2    0    0  0.51466073239E+02 -0.14994014980E+03 -0.14808325391E+03  0.21693193971E+03  0.10566000000E+00 0. -1.
<mgrwt>
<rscale>  1 0.63320491E+03</rscale>
<asrwt>0</asrwt>
<pdfrwt beam="1">  1       21 0.10791526E+00 0.10046727E+04</pdfrwt>
<pdfrwt beam="2">  1        4 0.86279544E-01 0.10046727E+04</pdfrwt>
<totfact> 0.29790402E+01</totfact>
</mgrwt>
</event>
<event>
 6    1  0.2415530E-005  0.9244348E+03  0.7818608E-02  0.1035033E+00
          4   -1    0    0  502    0 -0.00000000000E+00  0.00000000000E+00  0.29848231548E+03  0.29848231548E+03  0.00000000000E+00 0.  1.
         21   -1    0    0  501  502  0.00000000000E+00 -0.00000000000E+00 -0.10264702992E+04  0.10264702992E+04  0.00000000000E+00 0.  1.
    9000010    2    1    2  501    0  0.23258056302E+02 -0.34741957521E+02 -0.81244762056E+03  0.12307115291E+04  0.92348892298E+03 0.  0.
        -13    1    3    3    0    0 -0.17718059867E+03 -0.17970412391E+03 -0.92509890876E+03  0.95890277862E+03  0.10566000000E+00 0.  1.
          4    1    3    3  501    0  0.20043865497E+03  0.14496216639E+03  0.11265128820E+03  0.27180875046E+03  0.00000000000E+00 0.  1.
         13    1    1    2    0    0 -0.23258056302E+02  0.34741957521E+02  0.84459636840E+02  0.94241085597E+02  0.10566000000E+00 0. -1.
<mgrwt>
<rscale>  1 0.42630793E+03</rscale>
<asrwt>0</asrwt>
<pdfrwt beam="2">  1       21 0.15791851E+00 0.92443482E+03</pdfrwt>
<pdfrwt beam="1">  1        4 0.45920356E-01 0.92443482E+03</pdfrwt>
<totfact> 0.43573280E+01</totfact>
</mgrwt>
</event>
<event>
 6    1  0.2415530E-005  0.9693594E+03  0.7818608E-02  0.1015014E+00
         21   -1    0    0  501  502  0.00000000000E+00  0.00000000000E+00  0.18673650896E+03  0.18673650896E+03  0.00000000000E+00 0.  1.
          4   -1    0    0  502    0 -0.00000000000E+00 -0.00000000000E+00 -0.14402141803E+04  0.14402141803E+04  0.00000000000E+00 0.  1.
    9000010    2    1    2  501    0  0.64665928685E+02 -0.13551711619E+02 -0.11483630517E+04  0.15027958438E+04  0.96710512275E+03 0.  0.
        -13    1    3    3    0    0 -0.28976046436E+03  0.25815460049E+03 -0.16293657068E+03  0.42089578483E+03  0.10566000000E+00 0.  1.
          4    1    3    3  501    0  0.35442639304E+03 -0.27170631211E+03 -0.98542648099E+03  0.10819000590E+04  0.00000000000E+00 0.  1.
         13    1    1    2    0    0 -0.64665928685E+02  0.13551711619E+02 -0.10511461963E+03  0.12415484543E+03  0.10566000000E+00 0. -1.
<mgrwt>
<rscale>  1 0.49529724E+03</rscale>
<asrwt>0</asrwt>
<pdfrwt beam="1">  1       21 0.28728693E-01 0.96935940E+03</pdfrwt>
<pdfrwt beam="2">  1        4 0.22157142E+00 0.96935940E+03</pdfrwt>
<totfact> 0.45518997E+01</totfact>
</mgrwt>
</event>
<event>
 6    1  0.2415530E-005  0.1016603E+04  0.7818608E-02  0.9783961E-01
          4   -1    0    0  502    0 -0.00000000000E+00  0.00000000000E+00  0.25597450890E+04  0.25597450890E+04  0.00000000000E+00 0.  1.
         21   -1    0    0  501  502  0.00000000000E+00 -0.00000000000E+00 -0.15784437528E+03  0.15784437528E+03  0.00000000000E+00 0.  1.
    9000010    2    1    2  501    0 -0.14474852147E+02 -0.18256433940E+03  0.22833401212E+04  0.24994246536E+04  0.99997111486E+03 0.  0.
        -13    1    3    3    0    0 -0.39475117639E+03 -0.41350584523E+03  0.12770760267E+04  0.13991921828E+04  0.10566000000E+00 0.  1.
          4    1    3    3  501    0  0.38027632424E+03  0.23094150582E+03  0.10062640945E+04  0.11002324708E+04  0.00000000000E+00 0.  1.
         13    1    1    2    0    0  0.14474852147E+02  0.18256433940E+03  0.11856059256E+03  0.21816481072E+03  0.10566000000E+00 0. -1.
<mgrwt>
<rscale>  1 0.66230460E+03</rscale>
<asrwt>0</asrwt>
<pdfrwt beam="2">  1       21 0.24283752E-01 0.10166029E+04</pdfrwt>
<pdfrwt beam="1">  1        4 0.39380691E+00 0.10166029E+04</pdfrwt>
<totfact> 0.50991556E+00</totfact>
</mgrwt>
</event>
<event>
 6    1  0.2415530E-005  0.1069975E+04  0.7818608E-02  0.9524306E-01
          4   -1    0    0  502    0 -0.00000000000E+00  0.00000000000E+00  0.34307653030E+03  0.34307653030E+03  0.00000000000E+00 0.  1.
         21   -1    0    0  501  502  0.00000000000E+00 -0.00000000000E+00 -0.17187189176E+04  0.17187189176E+04  0.00000000000E+00 0.  1.
    9000010    2    1    2  501    0 -0.37725020760E+03  0.30216117178E+02 -0.12859093781E+04  0.16728446066E+04  0.10008073822E+04 0.  0.
        -13    1    3    3    0    0 -0.34600133000E+03  0.47538909970E+03 -0.51279319528E+03  0.78017215329E+03  0.10566000000E+00 0.  1.
          4    1    3    3  501    0 -0.31248877601E+02 -0.44517298253E+03 -0.77311618280E+03  0.89267245327E+03  0.00000000000E+00 0.  1.
         13    1    1    2    0    0  0.37725020760E+03 -0.30216117178E+02 -0.89733009222E+02  0.38895084134E+03  0.10566000000E+00 0. -1.
<mgrwt>
<rscale>  1 0.82515342E+03</rscale>
<asrwt>0</asrwt>
<pdfrwt beam="2">  1       21 0.26441829E+00 0.10699748E+04</pdfrwt>
<pdfrwt beam="1">  1        4 0.52781005E-01 0.10699748E+04</pdfrwt>
<totfact> 0.59794258E+00</totfact>
</mgrwt>
</event>
<event>
 6    1  0.2415530E-005  0.1110139E+04  0.7818608E-02  0.9725495E-01
         21   -1    0    0  501  502  0.00000000000E+00  0.00000000000E+00  0.77091126645E+03  0.77091126645E+03  0.00000000000E+00 0.  1.
          4   -1    0    0  502    0 -0.00000000000E+00 -0.00000000000E+00 -0.53236387519E+03  0.53236387519E+03  0.00000000000E+00 0.  1.
    9000010    2    1    2  501    0 -0.83851213774E+02  0.14870626413E+03  0.19562091748E+03  0.11272431208E+04  0.10969343330E+04 0.  0.
        -13    1    3    3    0    0 -0.19199906732E+03  0.41287019815E+03 -0.30704609711E+03  0.54918372089E+03  0.10566000000E+00 0.  1.
          4    1    3    3  501    0  0.10814785355E+03 -0.26416393403E+03  0.50266701460E+03  0.57805939992E+03  0.00000000000E+00 0.  1.
         13    1    1    2    0    0  0.83851213774E+02 -0.14870626413E+03  0.42926473776E+02  0.17603202083E+03  0.10566000000E+00 0. -1.
<mgrwt>
<rscale>  1 0.69518908E+03</rscale>
<asrwt>0</asrwt>
<pdfrwt beam="1">  1       21 0.11860173E+00 0.11101394E+04</pdfrwt>
<pdfrwt beam="2">  1        4 0.81902134E-01 0.11101394E+04</pdfrwt>
<totfact> 0.26172144E+01</totfact>
</mgrwt>
</event>
<event>
 6    1  0.2415530E-005  0.9997024E+03  0.7818608E-02  0.9785848E-01
         21   -1    0    0  501  502  0.00000000000E+00  0.00000000000E+00  0.52454051544E+03  0.52454051544E+03  0.00000000000E+00 0.  1.
          4   -1    0    0  502    0 -0.00000000000E+00 -0.00000000000E+00 -0.69886284187E+03  0.69886284187E+03  0.00000000000E+00 0.  1.
    9000010    2    1    2  501    0  0.53112358852E+02 -0.18387256212E+03 -0.62304262036E+02  0.10016419998E+04  0.98121090136E+03 0.  0.
        -13    1    3    3    0    0 -0.30564434834E+03  0.82002615659E+02  0.29279105037E+03  0.43112585980E+03  0.10566000000E+00 0.  1.
          4    1    3    3  501    0  0.35875670719E+03 -0.26587517778E+03 -0.35509531241E+03  0.57051614001E+03  0.00000000000E+00 0.  1.
         13    1    1    2    0    0 -0.53112358852E+02  0.18387256212E+03 -0.11201806439E+03  0.22176135749E+03  0.10566000000E+00 0. -1.
<mgrwt>
<rscale>  1 0.66127597E+03</rscale>
<asrwt>0</asrwt>
<pdfrwt beam="1">  1       21 0.80698541E-01 0.99970239E+03</pdfrwt>
<pdfrwt beam="2">  1        4 0.10751736E+00 0.99970239E+03</pdfrwt>
<totfact> 0.35770481E+01</totfact>
</mgrwt>
</event>
<event>
 6    1  0.2415530E-005  0.1009893E+04  0.7818608E-02  0.9976263E-01
         21   -1    0    0  501  502  0.00000000000E+00  0.00000000000E+00  0.47783279764E+03  0.47783279764E+03  0.00000000000E+00 0.  1.
          4   -1    0    0  502    0 -0.00000000000E+00 -0.00000000000E+00 -0.65952079216E+03  0.65952079216E+03  0.00000000000E+00 0.  1.
    9000010    2    1    2  501    0  0.94545307483E+02 -0.33699262790E+02 -0.11403478950E+03  0.10163105281E+04  0.10048923827E+04 0.  0.
        -13    1    3    3    0    0 -0.40873111019E+03  0.15006186375E+03 -0.19021997758E+03  0.47514559287E+03  0.10566000000E+00 0.  1.
          4    1    3    3  501    0  0.50327641767E+03 -0.18376112654E+03  0.76185188083E+02  0.54116493520E+03  0.00000000000E+00 0.  1.
         13    1    1    2    0    0 -0.94545307483E+02  0.33699262790E+02 -0.67653205028E+02  0.12104306173E+03  0.10566000000E+00 0. -1.
<mgrwt>
<rscale>  1 0.56703408E+03</rscale>
<asrwt>0</asrwt>
<pdfrwt beam="1">  1       21 0.73512738E-01 0.10098926E+04</pdfrwt>
<pdfrwt beam="2">  1        4 0.10146474E+00 0.10098926E+04</pdfrwt>
<totfact> 0.51180255E+01</totfact>
</mgrwt>
</event>
<event>
 6    1  0.2415530E-005  0.1005478E+04  0.7818608E-02  0.9806963E-01
         21   -1    0    0  501  502  0.00000000000E+00  0.00000000000E+00  0.13838172676E+04  0.13838172676E+04  0.00000000000E+00 0.  1.
          4   -1    0    0  502    0 -0.00000000000E+00 -0.00000000000E+00 -0.26056445247E+03  0.26056445247E+03  0.00000000000E+00 0.  1.
    9000010    2    1    2  501    0 -0.54654820675E+01  0.17541332542E+03  0.10512515017E+04  0.14546874752E+04  0.99004354674E+03 0.  0.
        -13    1    3    3    0    0 -0.25527255938E+03  0.80447254986E+02 -0.90144711646E+02  0.28242153001E+03  0.10566000000E+00 0.  1.
          4    1    3    3  501    0  0.24980707732E+03  0.94966070432E+02  0.11413962133E+04  0.11722659452E+04  0.00000000000E+00 0.  1.
         13    1    1    2    0    0  0.54654820675E+01 -0.17541332542E+03  0.72001313395E+02  0.18969424483E+03  0.10566000000E+00 0. -1.
<mgrwt>
<rscale>  1 0.64990183E+03</rscale>
<asrwt>0</asrwt>
<pdfrwt beam="1">  1       21 0.21289496E+00 0.10054780E+04</pdfrwt>
<pdfrwt beam="2">  1        4 0.40086840E-01 0.10054780E+04</pdfrwt>
<totfact> 0.23039612E+01</totfact>
</mgrwt>
</event>
<event>
 6    1  0.2415530E-005  0.1119672E+04  0.7818608E-02  0.9404153E-01
         21   -1    0    0  501  502  0.00000000000E+00  0.00000000000E+00  0.66026506309E+03  0.66026506309E+03  0.00000000000E+00 0.  1.
          4   -1    0    0  502    0 -0.00000000000E+00 -0.00000000000E+00 -0.10594125453E+04  0.10594125453E+04  0.00000000000E+00 0.  1.
    9000010    2    1    2  501    0 -0.32368981276E+02  0.50346262849E+03 -0.79616049577E+02  0.11224986429E+04  0.99957096733E+03 0.  0.
        -13    1    3    3    0    0 -0.27706823030E+03  0.28423170781E+03  0.38531992918E+03  0.55319610172E+03  0.10566000000E+00 0.  1.
          4    1    3    3  501    0  0.24469924903E+03  0.21923092068E+03 -0.46493597876E+03  0.56930254118E+03  0.00000000000E+00 0.  1.
         13    1    1    2    0    0  0.32368981276E+02 -0.50346262849E+03 -0.31953143265E+03  0.59717896551E+03  0.10566000000E+00 0. -1.
<mgrwt>
<rscale>  1 0.91734721E+03</rscale>
<asrwt>0</asrwt>
<pdfrwt beam="1">  1       21 0.10157924E+00 0.11196716E+04</pdfrwt>
<pdfrwt beam="2">  1        4 0.16298654E+00 0.11196716E+04</pdfrwt>
<totfact> 0.68790477E+00</totfact>
</mgrwt>
</event>
<event>
 6    1  0.2415530E-005  0.1179089E+04  0.7818608E-02  0.9263815E-01
         21   -1    0    0  501  502  0.00000000000E+00  0.00000000000E+00  0.16079125268E+04  0.16079125268E+04  0.00000000000E+00 0. -1.
          4   -1    0    0  502    0 -0.00000000000E+00 -0.00000000000E+00 -0.56361453469E+03  0.56361453469E+03  0.00000000000E+00 0.  1.
    9000010    2    1    2  501    0  0.40140531480E+03 -0.59617233528E+03  0.56349542980E+03  0.13068197149E+04  0.93472080741E+03 0.  0.
        -13    1    3    3    0    0 -0.15382968378E+03 -0.33099734837E+03  0.58681771894E+03  0.69107008521E+03  0.10566000000E+00 0.  1.
          4    1    3    3  501    0  0.55523499858E+03 -0.26517498691E+03 -0.23322289146E+02  0.61574962972E+03  0.00000000000E+00 0.  1.
         13    1    1    2    0    0 -0.40140531480E+03  0.59617233528E+03  0.48080256229E+03  0.86470734655E+03  0.10566000000E+00 0. -1.
<mgrwt>
<rscale>  1 0.10418346E+04</rscale>
<asrwt>0</asrwt>
<pdfrwt beam="1">  1       21 0.24737116E+00 0.11790889E+04</pdfrwt>
<pdfrwt beam="2">  1        4 0.86709929E-01 0.11790889E+04</pdfrwt>
<totfact> 0.24934170E+00</totfact>
</mgrwt>
</event>
<event>
 6    1  0.2415530E-005  0.1003978E+04  0.7818608E-02  0.1004104E+00
          4   -1    0    0  502    0 -0.00000000000E+00  0.00000000000E+00  0.52724369870E+03  0.52724369870E+03  0.00000000000E+00 0.  1.
         21   -1    0    0  501  502  0.00000000000E+00 -0.00000000000E+00 -0.78167492149E+03  0.78167492149E+03  0.00000000000E+00 0.  1.
    9000010    2    1    2  501    0  0.79427282987E+02  0.25173986513E+02 -0.44707981938E+03  0.10990236088E+04  0.10005149199E+04 0.  0.
        -13    1    3    3    0    0  0.24492714506E+03  0.20695991287E+03 -0.68535680062E+03  0.75666086673E+03  0.10566000000E+00 0.  1.
          4    1    3    3  501    0 -0.16549986207E+03 -0.18178592635E+03  0.23827698124E+03  0.34236274207E+03  0.00000000000E+00 0.  1.
         13    1    1    2    0    0 -0.79427282987E+02 -0.25173986513E+02  0.19264859659E+03  0.20989501140E+03  0.10566000000E+00 0. -1.
<mgrwt>
<rscale>  1 0.53886780E+03</rscale>
<asrwt>0</asrwt>
<pdfrwt beam="2">  1       21 0.12025768E+00 0.10039784E+04</pdfrwt>
<pdfrwt beam="1">  1        4 0.81114416E-01 0.10039784E+04</pdfrwt>
<totfact> 0.26068259E+01</totfact>
</mgrwt>
</event>
<event>
 6    1  0.2415530E-005  0.1039386E+04  0.7818608E-02  0.9886702E-01
         21   -1    0    0  501  502  0.00000000000E+00  0.00000000000E+00  0.29201244081E+03  0.29201244081E+03  0.00000000000E+00 0.  1.
          4   -1    0    0  502    0 -0.00000000000E+00 -0.00000000000E+00 -0.12801888667E+04  0.12801888667E+04  0.00000000000E+00 0.  1.
    9000010    2    1    2  501    0 -0.11749666668E+03 -0.34941887535E+02 -0.10081590362E+04  0.14480009932E+04  0.10321316931E+04 0.  0.
        -13    1    3    3    0    0 -0.28308702469E+03  0.29468808423E+03 -0.99862212431E+03  0.10789928122E+04  0.10566000000E+00 0.  1.
          4    1    3    3  501    0  0.16559035801E+03 -0.32962997177E+03 -0.95369118895E+01  0.36900818099E+03  0.00000000000E+00 0.  1.
         13    1    1    2    0    0  0.11749666668E+03  0.34941887535E+02  0.19982610317E+02  0.12420031427E+03  0.10566000000E+00 0. -1.
<mgrwt>
<rscale>  1 0.60910121E+03</rscale>
<asrwt>0</asrwt>
<pdfrwt beam="1">  1       21 0.44924990E-01 0.10393855E+04</pdfrwt>
<pdfrwt beam="2">  1        4 0.19695214E+00 0.10393855E+04</pdfrwt>
<totfact> 0.25969430E+01</totfact>
</mgrwt>
</event>
<event>
 6    1  0.2415530E-005  0.1001730E+04  0.7818608E-02  0.9929220E-01
         21   -1    0    0  501  502  0.00000000000E+00  0.00000000000E+00  0.51598192264E+03  0.51598192264E+03  0.00000000000E+00 0.  1.
          4   -1    0    0  502    0 -0.00000000000E+00 -0.00000000000E+00 -0.78905515905E+03  0.78905515905E+03  0.00000000000E+00 0.  1.
    9000010    2    1    2  501    0 -0.88811858322E+02  0.79885773085E+02  0.57027534879E+01  0.10017462203E+04  0.99458216629E+03 0.  0.
        -13    1    3    3    0    0  0.29567063040E+03 -0.56914092282E+02 -0.34907944435E+03  0.46099545032E+03  0.10566000000E+00 0.  1.
          4    1    3    3  501    0 -0.38448248872E+03  0.13679986537E+03  0.35478219784E+03  0.54075076995E+03  0.00000000000E+00 0.  1.
         13    1    1    2    0    0  0.88811858322E+02 -0.79885773085E+02 -0.27877598990E+03  0.30329086143E+03  0.10566000000E+00 0. -1.
<mgrwt>
<rscale>  1 0.58865836E+03</rscale>
<asrwt>0</asrwt>
<pdfrwt beam="1">  1       21 0.79381835E-01 0.10017300E+04</pdfrwt>
<pdfrwt beam="2">  1        4 0.12139310E+00 0.10017300E+04</pdfrwt>
<totfact> 0.27504697E+01</totfact>
</mgrwt>
</event>
<event>
 6    1  0.2415530E-005  0.9931799E+03  0.7818608E-02  0.1022702E+00
         21   -1    0    0  501  502  0.00000000000E+00  0.00000000000E+00  0.22968268203E+03  0.22968268203E+03  0.00000000000E+00 0.  1.
          4   -1    0    0  502    0 -0.00000000000E+00 -0.00000000000E+00 -0.11922770090E+04  0.11922770090E+04  0.00000000000E+00 0.  1.
    9000010    2    1    2  501    0  0.21957227094E+02  0.43411976029E+02 -0.94289567152E+03  0.13694738103E+04  0.99198767645E+03 0.  0.
        -13    1    3    3    0    0 -0.22258949137E+03 -0.65408594285E+01 -0.10675167319E+04  0.10904956893E+04  0.10566000000E+00 0.  1.
          4    1    3    3  501    0  0.24454671847E+03  0.49952835457E+02  0.12462106035E+03  0.27897812094E+03  0.00000000000E+00 0.  1.
         13    1    1    2    0    0 -0.21957227094E+02 -0.43411976029E+02 -0.19698655413E+02  0.52485880706E+02  0.10566000000E+00 0. -1.
<mgrwt>
<rscale>  1 0.46723955E+03</rscale>
<asrwt>0</asrwt>
<pdfrwt beam="1">  1       21 0.35335798E-01 0.99317988E+03</pdfrwt>
<pdfrwt beam="2">  1        4 0.18342723E+00 0.99317988E+03</pdfrwt>
<totfact> 0.53238034E+01</totfact>
</mgrwt>
</event>
<event>
 6    1  0.2415530E-005  0.9729587E+03  0.7818608E-02  0.9984084E-01
         21   -1    0    0  501  502  0.00000000000E+00  0.00000000000E+00  0.17272128619E+03  0.17272128619E+03  0.00000000000E+00 0.  1.
          4   -1    0    0  502    0 -0.00000000000E+00 -0.00000000000E+00 -0.17833451029E+04  0.17833451029E+04  0.00000000000E+00 0.  1.
    9000010    2    1    2  501    0 -0.27105153918E+02  0.10609005715E+03 -0.12801730967E+04  0.16079464684E+04  0.96677758476E+03 0.  0.
        -13    1    3    3    0    0 -0.73797221897E+01 -0.43321931364E+03 -0.57303359599E+03  0.71840166154E+03  0.10566000000E+00 0.  1.
          4    1    3    3  501    0 -0.19725431728E+02  0.53930937080E+03 -0.70713950066E+03  0.88954480690E+03  0.00000000000E+00 0.  1.
         13    1    1    2    0    0  0.27105153918E+02 -0.10609005715E+03 -0.33045072011E+03  0.34811992069E+03  0.10566000000E+00 0. -1.
<mgrwt>
<rscale>  1 0.56353684E+03</rscale>
<asrwt>0</asrwt>
<pdfrwt beam="1">  1       21 0.26572507E-01 0.97295873E+03</pdfrwt>
<pdfrwt beam="2">  1        4 0.27436077E+00 0.97295873E+03</pdfrwt>
<totfact> 0.24991785E+01</totfact>
</mgrwt>
</event>
<event>
 6    1  0.2415530E-005  0.1042537E+04  0.7818608E-02  0.9650364E-01
         21   -1    0    0  501  502  0.00000000000E+00  0.00000000000E+00  0.22077604558E+03  0.22077604558E+03  0.00000000000E+00 0.  1.
          4   -1    0    0  502    0 -0.00000000000E+00 -0.00000000000E+00 -0.19881127628E+04  0.19881127628E+04  0.00000000000E+00 0.  1.
    9000010    2    1    2  501    0  0.38009156592E+02  0.26262585693E+03 -0.15386505784E+04  0.18585826594E+04  0.10081998130E+04 0.  0.
        -13    1    3    3    0    0  0.43681980200E+03  0.36598951505E+03 -0.57026511214E+03  0.80620231569E+03  0.10566000000E+00 0.  1.
          4    1    3    3  501    0 -0.39881064540E+03 -0.10336365812E+03 -0.96838546622E+03  0.10523803437E+04  0.00000000000E+00 0.  1.
         13    1    1    2    0    0 -0.38009156592E+02 -0.26262585693E+03 -0.22868613882E+03  0.35030614891E+03  0.10566000000E+00 0. -1.
<mgrwt>
<rscale>  1 0.74050580E+03</rscale>
<asrwt>0</asrwt>
<pdfrwt beam="1">  1       21 0.33965544E-01 0.10425372E+04</pdfrwt>
<pdfrwt beam="2">  1        4 0.30586351E+00 0.10425372E+04</pdfrwt>
<totfact> 0.96486076E+00</totfact>
</mgrwt>
</event>
<event>
 6    1  0.2415530E-005  0.1020020E+04  0.7818608E-02  0.9958737E-01
          4   -1    0    0  502    0 -0.00000000000E+00  0.00000000000E+00  0.36410486260E+03  0.36410486260E+03  0.00000000000E+00 0.  1.
         21   -1    0    0  501  502  0.00000000000E+00 -0.00000000000E+00 -0.99581744983E+03  0.99581744983E+03  0.00000000000E+00 0.  1.
    9000010    2    1    2  501    0 -0.45748097841E+02 -0.92262306574E+02 -0.69932563718E+03  0.12367283298E+04  0.10148080573E+04 0.  0.
        -13    1    3    3    0    0  0.43064044669E+02  0.38703723213E+03 -0.63519831100E+03  0.74506995407E+03  0.10566000000E+00 0.  1.
          4    1    3    3  501    0 -0.88812142510E+02 -0.47929953870E+03 -0.64127326178E+02  0.49165837572E+03  0.00000000000E+00 0.  1.
         13    1    1    2    0    0  0.45748097841E+02  0.92262306574E+02  0.67613049948E+02  0.12319398264E+03  0.10566000000E+00 0. -1.
<mgrwt>
<rscale>  1 0.57497176E+03</rscale>
<asrwt>0</asrwt>
<pdfrwt beam="2">  1       21 0.15320269E+00 0.10200199E+04</pdfrwt>
<pdfrwt beam="1">  1        4 0.56016133E-01 0.10200199E+04</pdfrwt>
<totfact> 0.30866957E+01</totfact>
</mgrwt>
</event>
<event>
 6    1  0.2415530E-005  0.1011770E+04  0.7818608E-02  0.9871807E-01
         21   -1    0    0  501  502  0.00000000000E+00  0.00000000000E+00  0.48091136077E+03  0.48091136077E+03  0.00000000000E+00 0.  1.
          4   -1    0    0  502    0 -0.00000000000E+00 -0.00000000000E+00 -0.69936022391E+03  0.69936022391E+03  0.00000000000E+00 0.  1.
    9000010    2    1    2  501    0 -0.48299810436E+02 -0.13081569125E+03 -0.14331133475E+03  0.10218693243E+04  0.10021143450E+04 0.  0.
        -13    1    3    3    0    0  0.56874202561E+02  0.99992389357E+01 -0.56347524662E+03  0.56642653929E+03  0.10566000000E+00 0.  1.
          4    1    3    3  501    0 -0.10517401300E+03 -0.14081493019E+03  0.42016391186E+03  0.45544278499E+03  0.00000000000E+00 0.  1.
         13    1    1    2    0    0  0.48299810436E+02  0.13081569125E+03 -0.75137528382E+02  0.15840226040E+03  0.10566000000E+00 0. -1.
<mgrwt>
<rscale>  1 0.61647310E+03</rscale>
<asrwt>0</asrwt>
<pdfrwt beam="1">  1       21 0.73986363E-01 0.10117701E+04</pdfrwt>
<pdfrwt beam="2">  1        4 0.10759388E+00 0.10117701E+04</pdfrwt>
<totfact> 0.43695068E+01</totfact>
</mgrwt>
</event>
<event>
 6    1  0.2415530E-005  0.1001487E+04  0.7818608E-02  0.9822817E-01
          4   -1    0    0  502    0 -0.00000000000E+00  0.00000000000E+00  0.49898571459E+03  0.49898571459E+03  0.00000000000E+00 0.  1.
         21   -1    0    0  501  502  0.00000000000E+00 -0.00000000000E+00 -0.71444999118E+03  0.71444999118E+03  0.00000000000E+00 0.  1.
    9000010    2    1    2  501    0  0.11517270240E+03  0.12315974900E+03 -0.26816876906E+03  0.10367697786E+04  0.98718995633E+03 0.  0.
        -13    1    3    3    0    0 -0.12237011855E+03  0.21344546509E+01 -0.59929243794E+03  0.61166203016E+03  0.10566000000E+00 0.  1.
          4    1    3    3  501    0  0.23754282095E+03  0.12102529435E+03  0.33112366887E+03  0.42510774839E+03  0.00000000000E+00 0.  1.
         13    1    1    2    0    0 -0.11517270240E+03 -0.12315974900E+03  0.52704492473E+02  0.17666592722E+03  0.10566000000E+00 0. -1.
<mgrwt>
<rscale>  1 0.64152285E+03</rscale>
<asrwt>0</asrwt>
<pdfrwt beam="2">  1       21 0.10991538E+00 0.10014874E+04</pdfrwt>
<pdfrwt beam="1">  1        4 0.76767033E-01 0.10014874E+04</pdfrwt>
<totfact> 0.37238427E+01</totfact>
</mgrwt>
</event>
<event>
 6    1  0.2415530E-005  0.1362746E+04  0.7818608E-02  0.9157422E-01
          4   -1    0    0  502    0 -0.00000000000E+00  0.00000000000E+00  0.13542236532E+04  0.13542236532E+04  0.00000000000E+00 0.  1.
         21   -1    0    0  501  502  0.00000000000E+00 -0.00000000000E+00 -0.79075864235E+03  0.79075864235E+03  0.00000000000E+00 0. -1.
    9000010    2    1    2  501    0  0.44510170595E+03  0.52992401263E+03  0.49371864618E+03  0.14494252855E+04  0.11739423192E+04 0.  0.
        -13    1    3    3    0    0 -0.28166330461E+03  0.50873459707E+03  0.42267757651E+03  0.71888904030E+03  0.10566000000E+00 0.  1.
          4    1    3    3  501    0  0.72676501056E+03  0.21189415553E+02  0.71041069675E+02  0.73053624516E+03  0.00000000000E+00 0.  1.
         13    1    1    2    0    0 -0.44510170595E+03 -0.52992401263E+03  0.69746364717E+02  0.69555701014E+03  0.10566000000E+00 0. -1.
<mgrwt>
<rscale>  1 0.11503916E+04</rscale>
<asrwt>0</asrwt>
<pdfrwt beam="2">  1       21 0.12165518E+00 0.13627456E+04</pdfrwt>
<pdfrwt beam="1">  1        4 0.20834210E+00 0.13627456E+04</pdfrwt>
<totfact> 0.20494031E+00</totfact>
</mgrwt>
</event>
<event>
 6    1  0.2415530E-005  0.1199343E+04  0.7818608E-02  0.9669584E-01
          4   -1    0    0  502    0 -0.00000000000E+00  0.00000000000E+00  0.67171354672E+03  0.67171354672E+03  0.00000000000E+00 0.  1.
         21   -1    0    0  501  502  0.00000000000E+00 -0.00000000000E+00 -0.75237927747E+03  0.75237927747E+03  0.00000000000E+00 0.  1.
    9000010    2    1    2  501    0 -0.13025432965E+03  0.98534770183E+02 -0.20768139095E+03  0.12171912040E+04  0.11881698429E+04 0.  0.
        -13    1    3    3    0    0 -0.26665444843E+03 -0.16979959600E+03  0.41728566073E+03  0.52351106147E+03  0.10566000000E+00 0.  1.
          4    1    3    3  501    0  0.13640011878E+03  0.26833436618E+03 -0.62496705169E+03  0.69368014255E+03  0.00000000000E+00 0.  1.
         13    1    1    2    0    0  0.13025432965E+03 -0.98534770183E+02  0.12701566020E+03  0.20690162017E+03  0.10566000000E+00 0. -1.
<mgrwt>
<rscale>  1 0.72856975E+03</rscale>
<asrwt>0</asrwt>
<pdfrwt beam="2">  1       21 0.11575066E+00 0.11993427E+04</pdfrwt>
<pdfrwt beam="1">  1        4 0.10334055E+00 0.11993427E+04</pdfrwt>
<totfact> 0.15926779E+01</totfact>
</mgrwt>
</event>
<event>
 6    1  0.2415530E-005  0.1004503E+04  0.7818608E-02  0.1004228E+00
          4   -1    0    0  502    0 -0.00000000000E+00  0.00000000000E+00  0.77654249522E+03  0.77654249522E+03  0.00000000000E+00 0.  1.
         21   -1    0    0  501  502  0.00000000000E+00 -0.00000000000E+00 -0.41084129000E+03  0.41084129000E+03  0.00000000000E+00 0.  1.
    9000010    2    1    2  501    0  0.56704575821E+02  0.60430887989E+02  0.23338509455E+03  0.10312592662E+04  0.10010793028E+04 0.  0.
        -13    1    3    3    0    0  0.35608872210E+03 -0.72474731026E+02  0.49358851828E+03  0.61292854493E+03  0.10566000000E+00 0.  1.
          4    1    3    3  501    0 -0.29938414628E+03  0.13290561902E+03 -0.26020342374E+03  0.41833072124E+03  0.00000000000E+00 0.  1.
         13    1    1    2    0    0 -0.56704575821E+02 -0.60430887989E+02  0.13231611067E+03  0.15612451905E+03  0.10566000000E+00 0. -1.
<mgrwt>
<rscale>  1 0.53834652E+03</rscale>
<asrwt>0</asrwt>
<pdfrwt beam="2">  1       21 0.63206352E-01 0.10045034E+04</pdfrwt>
<pdfrwt beam="1">  1        4 0.11946808E+00 0.10045034E+04</pdfrwt>
<totfact> 0.48328621E+01</totfact>
</mgrwt>
</event>
<event>
 6    1  0.2415530E-005  0.1054773E+04  0.7818608E-02  0.9866408E-01
          4   -1    0    0  502    0 -0.00000000000E+00  0.00000000000E+00  0.49626008549E+03  0.49626008549E+03  0.00000000000E+00 0.  1.
         21   -1    0    0  501  502  0.00000000000E+00 -0.00000000000E+00 -0.14017971023E+04  0.14017971023E+04  0.00000000000E+00 0.  1.
    9000010    2    1    2  501    0 -0.78237874183E+02  0.97805219614E+02 -0.11882380221E+04  0.15888535405E+04  0.10473103409E+04 0.  0.
        -13    1    3    3    0    0 -0.33739925249E+03  0.26977347708E+03 -0.12022555062E+04  0.12775109776E+04  0.10566000000E+00 0.  1.
          4    1    3    3  501    0  0.25916137831E+03 -0.17196825746E+03  0.14017484184E+02  0.31134256285E+03  0.00000000000E+00 0.  1.
         13    1    1    2    0    0  0.78237874183E+02 -0.97805219614E+02  0.28270100528E+03  0.30920364728E+03  0.10566000000E+00 0. -1.
<mgrwt>
<rscale>  1 0.61917278E+03</rscale>
<asrwt>0</asrwt>
<pdfrwt beam="2">  1       21 0.21566109E+00 0.10547730E+04</pdfrwt>
<pdfrwt beam="1">  1        4 0.76347707E-01 0.10547730E+04</pdfrwt>
<totfact> 0.54830802E+00</totfact>
</mgrwt>
</event>
<event>
 6    1  0.2415530E-005  0.1019585E+04  0.7818608E-02  0.9797056E-01
         21   -1    0    0  501  502  0.00000000000E+00  0.00000000000E+00  0.37925443210E+03  0.37925443210E+03  0.00000000000E+00 0.  1.
          4   -1    0    0  502    0 -0.00000000000E+00 -0.00000000000E+00 -0.10922044093E+04  0.10922044093E+04  0.00000000000E+00 0.  1.
    9000010    2    1    2  501    0  0.10804822184E+03  0.13623243428E+03 -0.36583911220E+03  0.10832325438E+04  0.10046495874E+04 0.  0.
        -13    1    3    3    0    0  0.18878677440E+03  0.52092496147E+03 -0.11770779815E+02  0.55420377488E+03  0.10566000000E+00 0.  1.
          4    1    3    3  501    0 -0.80738552561E+02 -0.38469252719E+03 -0.35406833239E+03  0.52902876892E+03  0.00000000000E+00 0.  1.
         13    1    1    2    0    0 -0.10804822184E+03 -0.13623243428E+03 -0.34711086499E+03  0.38822629760E+03  0.10566000000E+00 0. -1.
<mgrwt>
<rscale>  1 0.65520793E+03</rscale>
<asrwt>0</asrwt>
<pdfrwt beam="1">  1       21 0.58346836E-01 0.10195854E+04</pdfrwt>
<pdfrwt beam="2">  1        4 0.16803145E+00 0.10195854E+04</pdfrwt>
<totfact> 0.23406856E+01</totfact>
</mgrwt>
</event>
<event>
 6    1  0.2415530E-005  0.1034312E+04  0.7818608E-02  0.9655028E-01
          4   -1    0    0  502    0 -0.00000000000E+00  0.00000000000E+00  0.44191909532E+03  0.44191909532E+03  0.00000000000E+00 0.  1.
         21   -1    0    0  501  502  0.00000000000E+00 -0.00000000000E+00 -0.12782102060E+04  0.12782102060E+04  0.00000000000E+00 0.  1.
    9000010    2    1    2  501    0 -0.21661305139E+03 -0.15692928844E+03 -0.97272635096E+03  0.14198584211E+04  0.99912630154E+03 0.  0.
        -13    1    3    3    0    0 -0.56228401550E+03 -0.31858345773E+03 -0.53354896701E+03  0.83805324711E+03  0.10566000000E+00 0.  1.
          4    1    3    3  501    0  0.34567096411E+03  0.16165416929E+03 -0.43917738395E+03  0.58180517396E+03  0.00000000000E+00 0.  1.
         13    1    1    2    0    0  0.21661305139E+03  0.15692928844E+03  0.13643524025E+03  0.30027088028E+03  0.10566000000E+00 0. -1.
<mgrwt>
<rscale>  1 0.73758723E+03</rscale>
<asrwt>0</asrwt>
<pdfrwt beam="2">  1       21 0.19664772E+00 0.10343120E+04</pdfrwt>
<pdfrwt beam="1">  1        4 0.67987555E-01 0.10343120E+04</pdfrwt>
<totfact> 0.96162244E+00</totfact>
</mgrwt>
</event>
<event>
 6    1  0.2415530E-005  0.9667175E+03  0.7818608E-02  0.9674932E-01
         21   -1    0    0  501  502  0.00000000000E+00  0.00000000000E+00  0.14426011945E+04  0.14426011945E+04  0.00000000000E+00 0.  1.
          4   -1    0    0  502    0 -0.00000000000E+00 -0.00000000000E+00 -0.28096827012E+03  0.28096827012E+03  0.00000000000E+00 0.  1.
    9000010    2    1    2  501    0 -0.27458420679E+03 -0.13573794912E+03  0.86646448127E+03  0.12981923397E+04  0.91690859745E+03 0.  0.
        -13    1    3    3    0    0 -0.42213700888E+03 -0.25423710111E+03  0.96595240812E+03  0.10843893322E+04  0.10566000000E+00 0.  1.
          4    1    3    3  501    0  0.14755280209E+03  0.11849915199E+03 -0.99487926850E+02  0.21380300750E+03  0.00000000000E+00 0.  1.
         13    1    1    2    0    0  0.27458420679E+03  0.13573794912E+03  0.29516844312E+03  0.42537712495E+03  0.10566000000E+00 0. -1.
<mgrwt>
<rscale>  1 0.72529119E+03</rscale>
<asrwt>0</asrwt>
<pdfrwt beam="1">  1       21 0.22193864E+00 0.96671746E+03</pdfrwt>
<pdfrwt beam="2">  1        4 0.43225889E-01 0.96671746E+03</pdfrwt>
<totfact> 0.17280079E+01</totfact>
</mgrwt>
</event>
<event>
 6    1  0.2415530E-005  0.1012597E+04  0.7818608E-02  0.9792478E-01
          4   -1    0    0  502    0 -0.00000000000E+00  0.00000000000E+00  0.76533021922E+03  0.76533021922E+03  0.00000000000E+00 0.  1.
         21   -1    0    0  501  502  0.00000000000E+00 -0.00000000000E+00 -0.18241662930E+04  0.18241662930E+04  0.00000000000E+00 0.  1.
    9000010    2    1    2  501    0  0.10540031744E+03  0.14615414312E+03 -0.16696200496E+04  0.19526862292E+04  0.99643471398E+03 0.  0.
        -13    1    3    3    0    0 -0.12889254287E+03  0.53125896658E+03 -0.74518520724E+03  0.92420256515E+03  0.10566000000E+00 0.  1.
          4    1    3    3  501    0  0.23429286031E+03 -0.38510482347E+03 -0.92443484233E+03  0.10284836640E+04  0.00000000000E+00 0.  1.
         13    1    1    2    0    0 -0.10540031744E+03 -0.14615414312E+03  0.61078397574E+03  0.63681028309E+03  0.10566000000E+00 0. -1.
<mgrwt>
<rscale>  1 0.65767778E+03</rscale>
<asrwt>0</asrwt>
<pdfrwt beam="2">  1       21 0.28064097E+00 0.10125969E+04</pdfrwt>
<pdfrwt beam="1">  1        4 0.11774311E+00 0.10125969E+04</pdfrwt>
<totfact> 0.75454965E-01</totfact>
</mgrwt>
</event>
<event>
 6    1  0.2415530E-005  0.1006093E+04  0.7818608E-02  0.9974893E-01
          4   -1    0    0  502    0 -0.00000000000E+00  0.00000000000E+00  0.94892150576E+03  0.94892150576E+03  0.00000000000E+00 0.  1.
         21   -1    0    0  501  502  0.00000000000E+00 -0.00000000000E+00 -0.37247318657E+03  0.37247318657E+03  0.00000000000E+00 0.  1.
    9000010    2    1    2  501    0 -0.93675848431E+02 -0.40244574841E+02  0.33681554209E+03  0.10609745138E+04  0.10009132925E+04 0.  0.
        -13    1    3    3    0    0  0.10879578898E+03 -0.18465890035E+03  0.63645455505E+03  0.67157266546E+03  0.10566000000E+00 0.  1.
          4    1    3    3  501    0 -0.20247163741E+03  0.14441432551E+03 -0.29963901296E+03  0.38940184830E+03  0.00000000000E+00 0.  1.
         13    1    1    2    0    0  0.93675848431E+02  0.40244574841E+02  0.23963277710E+03  0.26042017857E+03  0.10566000000E+00 0. -1.
<mgrwt>
<rscale>  1 0.56764978E+03</rscale>
<asrwt>0</asrwt>
<pdfrwt beam="2">  1       21 0.57303568E-01 0.10060925E+04</pdfrwt>
<pdfrwt beam="1">  1        4 0.14598792E+00 0.10060925E+04</pdfrwt>
<totfact> 0.35813541E+01</totfact>
</mgrwt>
</event>
<event>
 6    1  0.2415530E-005  0.1053481E+04  0.7818608E-02  0.9601307E-01
         21   -1    0    0  501  502  0.00000000000E+00  0.00000000000E+00  0.40643393234E+03  0.40643393234E+03  0.00000000000E+00 0. -1.
          4   -1    0    0  502    0 -0.00000000000E+00 -0.00000000000E+00 -0.17364235585E+04  0.17364235585E+04  0.00000000000E+00 0.  1.
    9000010    2    1    2  501    0 -0.30047996584E+03 -0.45826756397E+02 -0.14697503760E+04  0.18083109622E+04  0.10086793677E+04 0.  0.
        -13    1    3    3    0    0  0.27789408258E+03  0.25872755673E+03 -0.37755555126E+03  0.53545613751E+03  0.10566000000E+00 0.  1.
          4    1    3    3  501    0 -0.57837404843E+03 -0.30455431313E+03 -0.10921948248E+04  0.12728548247E+04  0.00000000000E+00 0.  1.
         13    1    1    2    0    0  0.30047996584E+03  0.45826756397E+02  0.13976074983E+03  0.33454652865E+03  0.10566000000E+00 0. -1.
<mgrwt>
<rscale>  1 0.77209766E+03</rscale>
<asrwt>0</asrwt>
<pdfrwt beam="1">  1       21 0.62528297E-01 0.10534811E+04</pdfrwt>
<pdfrwt beam="2">  1        4 0.26714209E+00 0.10534811E+04</pdfrwt>
<totfact> 0.45235610E+00</totfact>
</mgrwt>
</event>
<event>
 6    1  0.2415530E-005  0.1090098E+04  0.7818608E-02  0.9477337E-01
          4   -1    0    0  502    0 -0.00000000000E+00  0.00000000000E+00  0.56267052967E+03  0.56267052967E+03  0.00000000000E+00 0.  1.
         21   -1    0    0  501  502  0.00000000000E+00 -0.00000000000E+00 -0.10672733981E+04  0.10672733981E+04  0.00000000000E+00 0.  1.
    9000010    2    1    2  501    0  0.28592006583E+03  0.31009852252E+03 -0.52020473342E+03  0.12078600415E+04  0.10051873146E+04 0.  0.
        -13    1    3    3    0    0 -0.16293638317E+03  0.32139897567E+03 -0.64763197473E+03  0.74112937628E+03  0.10566000000E+00 0.  1.
          4    1    3    3  501    0  0.44885644900E+03 -0.11300453142E+02  0.12742724132E+03  0.46673066525E+03  0.00000000000E+00 0.  1.
         13    1    1    2    0    0 -0.28592006583E+03 -0.31009852252E+03  0.15601864937E+02  0.42208388629E+03  0.10566000000E+00 0. -1.
<mgrwt>
<rscale>  1 0.85975463E+03</rscale>
<asrwt>0</asrwt>
<pdfrwt beam="2">  1       21 0.16419591E+00 0.10900977E+04</pdfrwt>
<pdfrwt beam="1">  1        4 0.86564697E-01 0.10900977E+04</pdfrwt>
<totfact> 0.94769250E+00</totfact>
</mgrwt>
</event>
<event>
 6    1  0.2415530E-005  0.1021879E+04  0.7818608E-02  0.9690340E-01
         21   -1    0    0  501  502  0.00000000000E+00  0.00000000000E+00  0.77488667651E+03  0.77488667651E+03  0.00000000000E+00 0.  1.
          4   -1    0    0  502    0 -0.00000000000E+00 -0.00000000000E+00 -0.70518917019E+03  0.70518917019E+03  0.00000000000E+00 0.  1.
    9000010    2    1    2  501    0  0.71962638355E+02 -0.23547262084E+03  0.37441481587E+03  0.10883123640E+04  0.99177183403E+03 0.  0.
        -13    1    3    3    0    0  0.34898551655E+03  0.17969072486E+03  0.43456525812E+03  0.58559936996E+03  0.10566000000E+00 0.  1.
          4    1    3    3  501    0 -0.27702287820E+03 -0.41516334570E+03 -0.60150442257E+02  0.50271299402E+03  0.00000000000E+00 0.  1.
         13    1    1    2    0    0 -0.71962638355E+02  0.23547262084E+03 -0.30471730955E+03  0.39176348271E+03  0.10566000000E+00 0. -1.
<mgrwt>
<rscale>  1 0.71594896E+03</rscale>
<asrwt>0</asrwt>
<pdfrwt beam="1">  1       21 0.11921333E+00 0.10218793E+04</pdfrwt>
<pdfrwt beam="2">  1        4 0.10849064E+00 0.10218793E+04</pdfrwt>
<totfact> 0.13331121E+01</totfact>
</mgrwt>
</event>
<event>
 6    1  0.2415530E-005  0.1134376E+04  0.7818608E-02  0.9364102E-01
          4   -1    0    0  502    0 -0.00000000000E+00  0.00000000000E+00  0.22357856825E+04  0.22357856825E+04  0.00000000000E+00 0.  1.
         21   -1    0    0  501  502  0.00000000000E+00 -0.00000000000E+00 -0.43641091606E+03  0.43641091606E+03  0.00000000000E+00 0.  1.
    9000010    2    1    2  501    0  0.38868846965E+03 -0.40327558462E+03  0.46674105720E+03  0.12266439230E+04  0.98645738672E+03 0.  0.
        -13    1    3    3    0    0  0.54201698695E+03 -0.16041713558E+03  0.66865148840E+03  0.87556318769E+03  0.10566000000E+00 0.  1.
          4    1    3    3  501    0 -0.15332851731E+03 -0.24285844904E+03 -0.20191043120E+03  0.35108073533E+03  0.00000000000E+00 0.  1.
         13    1    1    2    0    0 -0.38868846965E+03  0.40327558462E+03  0.13326337092E+04  0.14455526755E+04  0.10566000000E+00 0. -1.
<mgrwt>
<rscale>  1 0.95089750E+03</rscale>
<asrwt>0</asrwt>
<pdfrwt beam="2">  1       21 0.67140142E-01 0.11343756E+04</pdfrwt>
<pdfrwt beam="1">  1        4 0.34396702E+00 0.11343756E+04</pdfrwt>
<totfact> 0.12592744E+00</totfact>
</mgrwt>
</event>
<event>
 6    1  0.2415530E-005  0.1508602E+04  0.7818608E-02  0.8946586E-01
          4   -1    0    0  502    0 -0.00000000000E+00  0.00000000000E+00  0.15557682194E+04  0.15557682194E+04  0.00000000000E+00 0.  1.
         21   -1    0    0  501  502  0.00000000000E+00 -0.00000000000E+00 -0.12235447912E+04  0.12235447912E+04  0.00000000000E+00 0. -1.
    9000010    2    1    2  501    0  0.81061679828E+03  0.81757951382E+03  0.55347557504E+03  0.16069272470E+04  0.97485594317E+03 0.  0.
        -13    1    3    3    0    0  0.43179925784E+03  0.26355408208E+02 -0.17499899914E+03  0.46665819127E+03  0.10566000000E+00 0.  1.
          4    1    3    3  501    0  0.37881754044E+03  0.79122410561E+03  0.72847457418E+03  0.11402690557E+04  0.00000000000E+00 0.  1.
         13    1    1    2    0    0 -0.81061679828E+03 -0.81757951382E+03 -0.22125214685E+03  0.11723857636E+04  0.10566000000E+00 0. -1.
<mgrwt>
<rscale>  1 0.14100353E+04</rscale>
<asrwt>0</asrwt>
<pdfrwt beam="2">  1       21 0.18823766E+00 0.15086020E+04</pdfrwt>
<pdfrwt beam="1">  1        4 0.23934896E+00 0.15086020E+04</pdfrwt>
<totfact> 0.36845589E-01</totfact>
</mgrwt>
</event>
<event>
 6    1  0.2415530E-005  0.7968010E+03  0.7818608E-02  0.1003992E+00
          4   -1    0    0  502    0 -0.00000000000E+00  0.00000000000E+00  0.65138556894E+03  0.65138556894E+03  0.00000000000E+00 0.  1.
         21   -1    0    0  501  502  0.00000000000E+00 -0.00000000000E+00 -0.76042967330E+03  0.76042967330E+03  0.00000000000E+00 0.  1.
    9000010    2    1    2  501    0  0.16600758011E+03 -0.20452732844E+02 -0.53126451889E+03  0.95767107950E+03  0.77904754447E+03 0.  0.
        -13    1    3    3    0    0 -0.61433136757E+02 -0.28141401567E+03 -0.53931220258E+03  0.61141274236E+03  0.10566000000E+00 0.  1.
          4    1    3    3  501    0  0.22744071687E+03  0.26096128283E+03  0.80476836862E+01  0.34625833714E+03  0.00000000000E+00 0.  1.
         13    1    1    2    0    0 -0.16600758011E+03  0.20452732844E+02  0.42222041454E+03  0.45414416274E+03  0.10566000000E+00 0. -1.
<mgrwt>
<rscale>  1 0.53933954E+03</rscale>
<asrwt>0</asrwt>
<pdfrwt beam="2">  1       21 0.11698918E+00 0.79680105E+03</pdfrwt>
<pdfrwt beam="1">  1        4 0.10021316E+00 0.79680105E+03</pdfrwt>
<totfact> 0.17432421E+01</totfact>
</mgrwt>
</event>
<event>
 6    1  0.2415530E-005  0.1199396E+04  0.7818608E-02  0.9277960E-01
          4   -1    0    0  502    0 -0.00000000000E+00  0.00000000000E+00  0.34309003796E+03  0.34309003796E+03  0.00000000000E+00 0.  1.
         21   -1    0    0  501  502  0.00000000000E+00 -0.00000000000E+00 -0.29138440421E+04  0.29138440421E+04  0.00000000000E+00 0.  1.
    9000010    2    1    2  501    0 -0.29250083071E+03 -0.57846762271E+03 -0.22115430933E+04  0.25158443310E+04  0.10091423675E+04 0.  0.
        -13    1    3    3    0    0 -0.10628898123E+03 -0.80125825874E+03 -0.19983370109E+04  0.21556119699E+04  0.10566000000E+00 0.  1.
          4    1    3    3  501    0 -0.18621184947E+03  0.22279063602E+03 -0.21320608242E+03  0.36023236107E+03  0.00000000000E+00 0.  1.
         13    1    1    2    0    0  0.29250083071E+03  0.57846762271E+03 -0.35921091082E+03  0.74108974902E+03  0.10566000000E+00 0. -1.
<mgrwt>
<rscale>  1 0.10283749E+04</rscale>
<asrwt>0</asrwt>
<pdfrwt beam="2">  1       21 0.44828373E+00 0.11993956E+04</pdfrwt>
<pdfrwt beam="1">  1        4 0.52783079E-01 0.11993956E+04</pdfrwt>
<totfact> 0.38241957E-01</totfact>
</mgrwt>
</event>
<event>
 6    1  0.2415530E-005  0.1070227E+04  0.7818608E-02  0.9957418E-01
          4   -1    0    0  502    0 -0.00000000000E+00  0.00000000000E+00  0.35727223600E+03  0.35727223600E+03  0.00000000000E+00 0.  1.
         21   -1    0    0  501  502  0.00000000000E+00 -0.00000000000E+00 -0.13641132054E+04  0.13641132054E+04  0.00000000000E+00 0.  1.
    9000010    2    1    2  501    0  0.64866017722E+02  0.61712292268E+02 -0.11382533420E+04  0.15623721397E+04  0.10664755154E+04 0.  0.
        -13    1    3    3    0    0  0.30357649300E+03 -0.28924920849E+03 -0.86417970831E+02  0.42812599613E+03  0.10566000000E+00 0.  1.
          4    1    3    3  501    0 -0.23871047528E+03  0.35096150076E+03 -0.10518353712E+04  0.11342461435E+04  0.00000000000E+00 0.  1.
         13    1    1    2    0    0 -0.64866017722E+02 -0.61712292268E+02  0.13141237265E+03  0.15901330171E+03  0.10566000000E+00 0. -1.
<mgrwt>
<rscale>  1 0.57557483E+03</rscale>
<asrwt>0</asrwt>
<pdfrwt beam="2">  1       21 0.20986357E+00 0.10702271E+04</pdfrwt>
<pdfrwt beam="1">  1        4 0.54964959E-01 0.10702271E+04</pdfrwt>
<totfact> 0.12376203E+01</totfact>
</mgrwt>
</event>
<event>
 6    1  0.2415530E-005  0.1105171E+04  0.7818608E-02  0.9469287E-01
          4   -1    0    0  502    0 -0.00000000000E+00  0.00000000000E+00  0.72020571855E+03  0.72020571855E+03  0.00000000000E+00 0.  1.
         21   -1    0    0  501  502  0.00000000000E+00 -0.00000000000E+00 -0.80395776975E+03  0.80395776975E+03  0.00000000000E+00 0.  1.
    9000010    2    1    2  501    0  0.33527833177E+03  0.24694040758E+03 -0.47621688558E+02  0.11061963378E+04  0.10237242733E+04 0.  0.
        -13    1    3    3    0    0 -0.26295012693E+03 -0.21643745955E+03 -0.76064664609E+02  0.34896101145E+03  0.10566000000E+00 0.  1.
          4    1    3    3  501    0  0.59822845870E+03  0.46337786713E+03  0.28442976051E+02  0.75723532632E+03  0.00000000000E+00 0.  1.
         13    1    1    2    0    0 -0.33527833177E+03 -0.24694040758E+03 -0.36130362647E+02  0.41796715052E+03  0.10566000000E+00 0. -1.
<mgrwt>
<rscale>  1 0.86586557E+03</rscale>
<asrwt>0</asrwt>
<pdfrwt beam="2">  1       21 0.12368581E+00 0.11051708E+04</pdfrwt>
<pdfrwt beam="1">  1        4 0.11080088E+00 0.11051708E+04</pdfrwt>
<totfact> 0.11394671E+01</totfact>
</mgrwt>
</event>
<event>
 6    1  0.2415530E-005  0.1074726E+04  0.7818608E-02  0.9956493E-01
         21   -1    0    0  501  502  0.00000000000E+00  0.00000000000E+00  0.17392990387E+04  0.17392990387E+04  0.00000000000E+00 0.  1.
          4   -1    0    0  502    0 -0.00000000000E+00 -0.00000000000E+00 -0.32713928216E+03  0.32713928216E+03  0.00000000000E+00 0.  1.
    9000010    2    1    2  501    0 -0.79435665418E+02  0.39405917251E+02  0.15598067066E+04  0.18942103199E+04  0.10710615869E+04 0.  0.
        -13    1    3    3    0    0 -0.25835552266E+02 -0.27994455148E+03  0.15446637919E+04  0.15700390660E+04  0.10566000000E+00 0.  1.
          4    1    3    3  501    0 -0.53600113152E+02  0.31935046874E+03  0.15142914735E+02  0.32417125394E+03  0.00000000000E+00 0.  1.
         13    1    1    2    0    0  0.79435665418E+02 -0.39405917251E+02 -0.14764695010E+03  0.17222800089E+03  0.10566000000E+00 0. -1.
<mgrwt>
<rscale>  1 0.57599786E+03</rscale>
<asrwt>0</asrwt>
<pdfrwt beam="1">  1       21 0.26758446E+00 0.10747259E+04</pdfrwt>
<pdfrwt beam="2">  1        4 0.50329121E-01 0.10747259E+04</pdfrwt>
<totfact> 0.63138516E+00</totfact>
</mgrwt>
</event>
<event>
 6    1  0.2415530E-005  0.1058721E+04  0.7818608E-02  0.9635953E-01
          4   -1    0    0  502    0 -0.00000000000E+00  0.00000000000E+00  0.69912214330E+03  0.69912214330E+03  0.00000000000E+00 0.  1.
         21   -1    0    0  501  502  0.00000000000E+00 -0.00000000000E+00 -0.65658910478E+03  0.65658910478E+03  0.00000000000E+00 0.  1.
    9000010    2    1    2  501    0 -0.10946227089E+03 -0.24251994210E+03 -0.82079925971E+02  0.10618978496E+04  0.10247399756E+04 0.  0.
        -13    1    3    3    0    0  0.92790799907E+02  0.37485216177E+03  0.75324447431E+02  0.39344384513E+03  0.10566000000E+00 0.  1.
          4    1    3    3  501    0 -0.20225307080E+03 -0.61737210386E+03 -0.15740437340E+03  0.66845400443E+03  0.00000000000E+00 0.  1.
         13    1    1    2    0    0  0.10946227089E+03  0.24251994210E+03  0.12461296450E+03  0.29381339852E+03  0.10566000000E+00 0. -1.
<mgrwt>
<rscale>  1 0.74961570E+03</rscale>
<asrwt>0</asrwt>
<pdfrwt beam="2">  1       21 0.10101371E+00 0.10587209E+04</pdfrwt>
<pdfrwt beam="1">  1        4 0.10755725E+00 0.10587209E+04</pdfrwt>
<totfact> 0.20650325E+01</totfact>
</mgrwt>
</event>
<event>
 6    1  0.2415530E-005  0.1056498E+04  0.7818608E-02  0.9535542E-01
         21   -1    0    0  501  502  0.00000000000E+00  0.00000000000E+00  0.29897744812E+03  0.29897744812E+03  0.00000000000E+00 0.  1.
          4   -1    0    0  502    0 -0.00000000000E+00 -0.00000000000E+00 -0.17552577010E+04  0.17552577010E+04  0.00000000000E+00 0.  1.
    9000010    2    1    2  501    0  0.37771384480E+03  0.16310856073E+02 -0.93866325741E+03  0.14132506269E+04  0.98653678643E+03 0.  0.
        -13    1    3    3    0    0 -0.10672249835E+03  0.38548713876E+03 -0.58584259509E+03  0.70936702995E+03  0.10566000000E+00 0.  1.
          4    1    3    3  501    0  0.48443634314E+03 -0.36917628269E+03 -0.35282066232E+03  0.70388359692E+03  0.00000000000E+00 0.  1.
         13    1    1    2    0    0 -0.37771384480E+03 -0.16310856073E+02 -0.51761699543E+03  0.64098452220E+03  0.10566000000E+00 0. -1.
<mgrwt>
<rscale>  1 0.81713435E+03</rscale>
<asrwt>0</asrwt>
<pdfrwt beam="1">  1       21 0.45996531E-01 0.10564983E+04</pdfrwt>
<pdfrwt beam="2">  1        4 0.27003965E+00 0.10564983E+04</pdfrwt>
<totfact> 0.85015988E+00</totfact>
</mgrwt>
</event>
<event>
 6    1  0.2415530E-005  0.1007836E+04  0.7818608E-02  0.9743056E-01
         21   -1    0    0  501  502  0.00000000000E+00  0.00000000000E+00  0.77525551422E+03  0.77525551422E+03  0.00000000000E+00 0.  1.
          4   -1    0    0  502    0 -0.00000000000E+00 -0.00000000000E+00 -0.62443473535E+03  0.62443473535E+03  0.00000000000E+00 0.  1.
    9000010    2    1    2  501    0  0.48348766221E+02  0.20970193810E+03  0.38753318821E+03  0.10797757580E+04  0.98459189998E+03 0.  0.
        -13    1    3    3    0    0  0.38865566762E+03  0.40673043705E+03  0.39344949986E+03  0.68650229169E+03  0.10566000000E+00 0.  1.
          4    1    3    3  501    0 -0.34030690140E+03 -0.19702849894E+03 -0.59163116521E+01  0.39327346628E+03  0.00000000000E+00 0.  1.
         13    1    1    2    0    0 -0.48348766221E+02 -0.20970193810E+03 -0.23671240934E+03  0.31991449160E+03  0.10566000000E+00 0. -1.
<mgrwt>
<rscale>  1 0.68510123E+03</rscale>
<asrwt>0</asrwt>
<pdfrwt beam="1">  1       21 0.11927008E+00 0.10078362E+04</pdfrwt>
<pdfrwt beam="2">  1        4 0.96066882E-01 0.10078362E+04</pdfrwt>
<totfact> 0.17908111E+01</totfact>
</mgrwt>
</event>
<event>
 6    1  0.2415530E-005  0.1061966E+04  0.7818608E-02  0.9683634E-01
          4   -1    0    0  502    0 -0.00000000000E+00  0.00000000000E+00  0.45932223457E+03  0.45932223457E+03  0.00000000000E+00 0.  1.
         21   -1    0    0  501  502  0.00000000000E+00 -0.00000000000E+00 -0.16180813298E+04  0.16180813298E+04  0.00000000000E+00 0.  1.
    9000010    2    1    2  501    0 -0.19546339951E+03 -0.11018879487E+03 -0.13939217267E+04  0.17523666657E+04  0.10379901927E+04 0.  0.
        -13    1    3    3    0    0  0.37335522814E+03 -0.83604660254E+02 -0.20488187263E+03  0.43400513648E+03  0.10566000000E+00 0.  1.
          4    1    3    3  501    0 -0.56881862765E+03 -0.26584134620E+02 -0.11890398540E+04  0.13183615293E+04  0.00000000000E+00 0.  1.
         13    1    1    2    0    0  0.19546339951E+03  0.11018879487E+03  0.23516263145E+03  0.32503689861E+03  0.10566000000E+00 0. -1.
<mgrwt>
<rscale>  1 0.71999608E+03</rscale>
<asrwt>0</asrwt>
<pdfrwt beam="2">  1       21 0.24893559E+00 0.10619657E+04</pdfrwt>
<pdfrwt beam="1">  1        4 0.70664958E-01 0.10619657E+04</pdfrwt>
<totfact> 0.39633343E+00</totfact>
</mgrwt>
</event>
<event>
 6    1  0.2415530E-005  0.1049182E+04  0.7818608E-02  0.9617846E-01
         21   -1    0    0  501  502  0.00000000000E+00  0.00000000000E+00  0.16459672508E+04  0.16459672508E+04  0.00000000000E+00 0.  1.
          4   -1    0    0  502    0 -0.00000000000E+00 -0.00000000000E+00 -0.27331092637E+03  0.27331092637E+03  0.00000000000E+00 0.  1.
    9000010    2    1    2  501    0 -0.19964429360E+03 -0.21143094337E+03  0.11108234040E+04  0.15279760213E+04  0.10080779727E+04 0.  0.
        -13    1    3    3    0    0 -0.54424939657E+03  0.20925909994E+02  0.31248237786E+03  0.62792559034E+03  0.10566000000E+00 0.  1.
          4    1    3    3  501    0  0.34460510297E+03 -0.23235685336E+03  0.79834102612E+03  0.90005043096E+03  0.00000000000E+00 0.  1.
         13    1    1    2    0    0  0.19964429360E+03  0.21143094337E+03  0.26183292043E+03  0.39130215584E+03  0.10566000000E+00 0. -1.
<mgrwt>
<rscale>  1 0.76126210E+03</rscale>
<asrwt>0</asrwt>
<pdfrwt beam="1">  1       21 0.25322572E+00 0.10491816E+04</pdfrwt>
<pdfrwt beam="2">  1        4 0.42047836E-01 0.10491816E+04</pdfrwt>
<totfact> 0.11360219E+01</totfact>
</mgrwt>
</event>
<event>
 6    1  0.2415530E-005  0.1044115E+04  0.7818608E-02  0.9606016E-01
         21   -1    0    0  501  502  0.00000000000E+00  0.00000000000E+00  0.29902585261E+03  0.29902585261E+03  0.00000000000E+00 0. -1.
          4   -1    0    0  502    0 -0.00000000000E+00 -0.00000000000E+00 -0.16677358075E+04  0.16677358075E+04  0.00000000000E+00 0.  1.
    9000010    2    1    2  501    0  0.18273351039E+03  0.24696188133E+03 -0.12699439338E+04  0.16440598710E+04  0.99789456234E+03 0.  0.
        -13    1    3    3    0    0  0.22192303609E+03  0.51347219766E+03 -0.12552915368E+04  0.13742854089E+04  0.10566000000E+00 0.  1.
          4    1    3    3  501    0 -0.39189525698E+02 -0.26651031633E+03 -0.14652397077E+02  0.26977446205E+03  0.00000000000E+00 0.  1.
         13    1    1    2    0    0 -0.18273351039E+03 -0.24696188133E+03 -0.98766021069E+02  0.32270178917E+03  0.10566000000E+00 0. -1.
<mgrwt>
<rscale>  1 0.76899260E+03</rscale>
<asrwt>0</asrwt>
<pdfrwt beam="1">  1       21 0.46003977E-01 0.10441146E+04</pdfrwt>
<pdfrwt beam="2">  1        4 0.25657474E+00 0.10441146E+04</pdfrwt>
<totfact> 0.10304599E+01</totfact>
</mgrwt>
</event>
<event>
 6    1  0.2415530E-005  0.1251804E+04  0.7818608E-02  0.9225173E-01
         21   -1    0    0  501  502  0.00000000000E+00  0.00000000000E+00  0.12895052051E+04  0.12895052051E+04  0.00000000000E+00 0. -1.
          4   -1    0    0  502    0 -0.00000000000E+00 -0.00000000000E+00 -0.74865019747E+03  0.74865019747E+03  0.00000000000E+00 0.  1.
    9000010    2    1    2  501    0 -0.32196879424E+02 -0.69213169007E+03  0.20613777940E+03  0.12686630053E+04  0.10425594091E+04 0.  0.
        -13    1    3    3    0    0 -0.43906695750E+02 -0.52518007169E+03  0.62503866158E+03  0.81756666105E+03  0.10566000000E+00 0.  1.
          4    1    3    3  501    0  0.11709816326E+02 -0.16695161838E+03 -0.41890088218E+03  0.45109634422E+03  0.00000000000E+00 0.  1.
         13    1    1    2    0    0  0.32196879424E+02  0.69213169007E+03  0.33471722824E+03  0.76949239729E+03  0.10566000000E+00 0. -1.
<mgrwt>
<rscale>  1 0.10797341E+04</rscale>
<asrwt>0</asrwt>
<pdfrwt beam="1">  1       21 0.19838542E+00 0.12518039E+04</pdfrwt>
<pdfrwt beam="2">  1        4 0.11517695E+00 0.12518039E+04</pdfrwt>
<totfact> 0.26287697E+00</totfact>
</mgrwt>
</event>
<event>
 6    1  0.2415530E-005  0.1070766E+04  0.7818608E-02  0.9420274E-01
          4   -1    0    0  502    0 -0.00000000000E+00  0.00000000000E+00  0.72018639363E+03  0.72018639363E+03  0.00000000000E+00 0.  1.
         21   -1    0    0  501  502  0.00000000000E+00 -0.00000000000E+00 -0.90706330957E+03  0.90706330957E+03  0.00000000000E+00 0.  1.
    9000010    2    1    2  501    0 -0.13285809098E+03  0.52815518598E+03 -0.15230838709E+03  0.10815445015E+04  0.92192271429E+03 0.  0.
        -13    1    3    3    0    0  0.10761868135E+03  0.49625983390E+03  0.28437888440E+03  0.58200254671E+03  0.10566000000E+00 0.  1.
          4    1    3    3  501    0 -0.24047677233E+03  0.31895352081E+02 -0.43668727148E+03  0.49954195479E+03  0.00000000000E+00 0.  1.
         13    1    1    2    0    0  0.13285809098E+03 -0.52815518598E+03 -0.34568528860E+02  0.54570520171E+03  0.10566000000E+00 0. -1.
<mgrwt>
<rscale>  1 0.90425786E+03</rscale>
<asrwt>0</asrwt>
<pdfrwt beam="2">  1       21 0.13954820E+00 0.10707664E+04</pdfrwt>
<pdfrwt beam="1">  1        4 0.11079791E+00 0.10707664E+04</pdfrwt>
<totfact> 0.82853949E+00</totfact>
</mgrwt>
</event>
<event>
 6    1  0.2415530E-005  0.1017108E+04  0.7818608E-02  0.9933659E-01
          4   -1    0    0  502    0 -0.00000000000E+00  0.00000000000E+00  0.17860985758E+03  0.17860985758E+03  0.00000000000E+00 0.  1.
         21   -1    0    0  501  502  0.00000000000E+00 -0.00000000000E+00 -0.18209927300E+04  0.18209927300E+04  0.00000000000E+00 0.  1.
    9000010    2    1    2  501    0  0.89060298278E+02  0.68750732497E+02 -0.13818508244E+04  0.17158150629E+04  0.10108665734E+04 0.  0.
        -13    1    3    3    0    0 -0.28144058601E+03  0.38224212824E+03 -0.40070549244E+03  0.62119461596E+03  0.10566000000E+00 0.  1.
          4    1    3    3  501    0  0.37050088429E+03 -0.31349139575E+03 -0.98114533196E+03  0.10946204470E+04  0.00000000000E+00 0.  1.
         13    1    1    2    0    0 -0.89060298278E+02 -0.68750732497E+02 -0.26053204803E+03  0.28378752468E+03  0.10566000000E+00 0. -1.
<mgrwt>
<rscale>  1 0.58657413E+03</rscale>
<asrwt>0</asrwt>
<pdfrwt beam="2">  1       21 0.28015273E+00 0.10171085E+04</pdfrwt>
<pdfrwt beam="1">  1        4 0.27478440E-01 0.10171085E+04</pdfrwt>
<totfact> 0.18048911E+01</totfact>
</mgrwt>
</event>
<event>
 6    1  0.2415530E-005  0.1040347E+04  0.7818608E-02  0.9640785E-01
         21   -1    0    0  501  502  0.00000000000E+00  0.00000000000E+00  0.17766113996E+04  0.17766113996E+04  0.00000000000E+00 0. -1.
          4   -1    0    0  502    0 -0.00000000000E+00 -0.00000000000E+00 -0.26924240870E+03  0.26924240870E+03  0.00000000000E+00 0.  1.
    9000010    2    1    2  501    0 -0.13082015117E+03 -0.24286966233E+03  0.88787392517E+03  0.13677139020E+04  0.10031059894E+04 0.  0.
        -13    1    3    3    0    0 -0.11512987231E+03 -0.29716920623E+03  0.11015315380E+04  0.11467066604E+04  0.10566000000E+00 0.  1.
          4    1    3    3  501    0 -0.15690278863E+02  0.54299543898E+02 -0.21365761286E+03  0.22100724162E+03  0.00000000000E+00 0.  1.
         13    1    1    2    0    0  0.13082015117E+03  0.24286966233E+03  0.61949506574E+03  0.67813990627E+03  0.10566000000E+00 0. -1.
<mgrwt>
<rscale>  1 0.74654572E+03</rscale>
<asrwt>0</asrwt>
<pdfrwt beam="1">  1       21 0.27332482E+00 0.10403467E+04</pdfrwt>
<pdfrwt beam="2">  1        4 0.41421910E-01 0.10403467E+04</pdfrwt>
<totfact> 0.87639161E+00</totfact>
</mgrwt>
</event>
<event>
 6    1  0.2415530E-005  0.1006828E+04  0.7818608E-02  0.9743043E-01
         21   -1    0    0  501  502  0.00000000000E+00  0.00000000000E+00  0.16087310536E+04  0.16087310536E+04  0.00000000000E+00 0.  1.
          4   -1    0    0  502    0 -0.00000000000E+00 -0.00000000000E+00 -0.23252378086E+03  0.23252378086E+03  0.00000000000E+00 0.  1.
    9000010    2    1    2  501    0 -0.16269773640E+03  0.14186185728E+03  0.11120922402E+04  0.15001505959E+04  0.98341614777E+03 0.  0.
        -13    1    3    3    0    0 -0.45611976776E+03  0.11537147193E+03  0.11099279852E+04  0.12055272550E+04  0.10566000000E+00 0.  1.
          4    1    3    3  501    0  0.29342203136E+03  0.26490385355E+02  0.21642550090E+01  0.29462334090E+03  0.00000000000E+00 0.  1.
         13    1    1    2    0    0  0.16269773640E+03 -0.14186185728E+03  0.26411503256E+03  0.34110423857E+03  0.10566000000E+00 0. -1.
<mgrwt>
<rscale>  1 0.68510849E+03</rscale>
<asrwt>0</asrwt>
<pdfrwt beam="1">  1       21 0.24749708E+00 0.10068280E+04</pdfrwt>
<pdfrwt beam="2">  1        4 0.35772890E-01 0.10068280E+04</pdfrwt>
<totfact> 0.17258277E+01</totfact>
</mgrwt>
</event>
<event>
 6    1  0.2415530E-005  0.1024895E+04  0.7818608E-02  0.9685542E-01
         21   -1    0    0  501  502  0.00000000000E+00  0.00000000000E+00  0.89830589177E+03  0.89830589177E+03  0.00000000000E+00 0.  1.
          4   -1    0    0  502    0 -0.00000000000E+00 -0.00000000000E+00 -0.51538410391E+03  0.51538410391E+03  0.00000000000E+00 0.  1.
    9000010    2    1    2  501    0  0.23579770898E+03  0.76913959974E+02  0.49891758572E+03  0.11398810238E+04  0.99443133210E+03 0.  0.
        -13    1    3    3    0    0  0.31233283295E+03  0.25262748365E+02  0.78182733725E+03  0.84228498825E+03  0.10566000000E+00 0.  1.
          4    1    3    3  501    0 -0.76535123976E+02  0.51651211609E+02 -0.28290975153E+03  0.29759603555E+03  0.00000000000E+00 0.  1.
         13    1    1    2    0    0 -0.23579770898E+03 -0.76913959974E+02 -0.11599579786E+03  0.27380897188E+03  0.10566000000E+00 0. -1.
<mgrwt>
<rscale>  1 0.71884187E+03</rscale>
<asrwt>0</asrwt>
<pdfrwt beam="1">  1       21 0.13820091E+00 0.10248951E+04</pdfrwt>
<pdfrwt beam="2">  1        4 0.79289862E-01 0.10248951E+04</pdfrwt>
<totfact> 0.18953310E+01</totfact>
</mgrwt>
</event>
<event>
 6    1  0.2415530E-005  0.1461262E+04  0.7818608E-02  0.8989326E-01
         21   -1    0    0  501  502  0.00000000000E+00  0.00000000000E+00  0.81796206185E+03  0.81796206185E+03  0.00000000000E+00 0.  1.
          4   -1    0    0  502    0 -0.00000000000E+00 -0.00000000000E+00 -0.21554552980E+04  0.21554552980E+04  0.00000000000E+00 0.  1.
    9000010    2    1    2  501    0  0.10532668305E+04 -0.19292904357E+03 -0.31914338331E+03  0.14957066081E+04  0.99433049145E+03 0.  0.
        -13    1    3    3    0    0  0.45983023963E+03 -0.44701961617E+03 -0.51348121320E+03  0.82154327579E+03  0.10566000000E+00 0.  1.
          4    1    3    3  501    0  0.59343659085E+03  0.25409057260E+03  0.19433782989E+03  0.67416333227E+03  0.00000000000E+00 0.  1.
         13    1    1    2    0    0 -0.10532668305E+04  0.19292904357E+03 -0.10183498529E+04  0.14777107518E+04  0.10566000000E+00 0. -1.
<mgrwt>
<rscale>  1 0.13519858E+04</rscale>
<asrwt>0</asrwt>
<pdfrwt beam="1">  1       21 0.12584032E+00 0.14612617E+04</pdfrwt>
<pdfrwt beam="2">  1        4 0.33160851E+00 0.14612617E+04</pdfrwt>
<totfact> 0.30966936E-01</totfact>
</mgrwt>
</event>
<event>
 6    1  0.2415530E-005  0.1032159E+04  0.7818608E-02  0.9677287E-01
         21   -1    0    0  501  502  0.00000000000E+00  0.00000000000E+00  0.48168485428E+03  0.48168485428E+03  0.00000000000E+00 0.  1.
          4   -1    0    0  502    0 -0.00000000000E+00 -0.00000000000E+00 -0.10657687890E+04  0.10657687890E+04  0.00000000000E+00 0.  1.
    9000010    2    1    2  501    0 -0.23232973762E+03 -0.91418190095E+02 -0.14492275819E+03  0.10422834318E+04  0.10015077403E+04 0.  0.
        -13    1    3    3    0    0 -0.14734049900E+03 -0.33979628485E+03 -0.48652947217E+03  0.61145864643E+03  0.10566000000E+00 0.  1.
          4    1    3    3  501    0 -0.84989238613E+02  0.24837809475E+03  0.34160671397E+03  0.43082478534E+03  0.00000000000E+00 0.  1.
         13    1    1    2    0    0  0.23232973762E+03  0.91418190095E+02 -0.43916117651E+03  0.50517021149E+03  0.10566000000E+00 0. -1.
<mgrwt>
<rscale>  1 0.72385390E+03</rscale>
<asrwt>0</asrwt>
<pdfrwt beam="1">  1       21 0.74105363E-01 0.10321590E+04</pdfrwt>
<pdfrwt beam="2">  1        4 0.16396443E+00 0.10321590E+04</pdfrwt>
<totfact> 0.14557860E+01</totfact>
</mgrwt>
</event>
<event>
 6    1  0.2415530E-005  0.1016824E+04  0.7818608E-02  0.9702239E-01
          4   -1    0    0  502    0 -0.00000000000E+00  0.00000000000E+00  0.11490723433E+04  0.11490723433E+04  0.00000000000E+00 0.  1.
         21   -1    0    0  501  502  0.00000000000E+00 -0.00000000000E+00 -0.59558638933E+03  0.59558638933E+03  0.00000000000E+00 0.  1.
    9000010    2    1    2  501    0  0.67392372938E+02 -0.23047897327E+03 -0.12542642834E+03  0.10245307419E+04  0.98806333960E+03 0.  0.
        -13    1    3    3    0    0  0.40154559502E+03 -0.83556553928E+02  0.26636020845E+03  0.48904839678E+03  0.10566000000E+00 0.  1.
          4    1    3    3  501    0 -0.33415322209E+03 -0.14692241934E+03 -0.39178663679E+03  0.53548234509E+03  0.00000000000E+00 0.  1.
         13    1    1    2    0    0 -0.67392372938E+02  0.23047897327E+03  0.67891238228E+03  0.72012799072E+03  0.10566000000E+00 0. -1.
<mgrwt>
<rscale>  1 0.70883622E+03</rscale>
<asrwt>0</asrwt>
<pdfrwt beam="2">  1       21 0.91628676E-01 0.10168242E+04</pdfrwt>
<pdfrwt beam="1">  1        4 0.17678036E+00 0.10168242E+04</pdfrwt>
<totfact> 0.71311566E+00</totfact>
</mgrwt>
</event>
<event>
 6    1  0.2415530E-005  0.1264500E+04  0.7818608E-02  0.9328113E-01
          4   -1    0    0  502    0 -0.00000000000E+00  0.00000000000E+00  0.13442168298E+04  0.13442168298E+04  0.00000000000E+00 0.  1.
         21   -1    0    0  501  502  0.00000000000E+00 -0.00000000000E+00 -0.56976569537E+03  0.56976569537E+03  0.00000000000E+00 0.  1.
    9000010    2    1    2  501    0 -0.45011486585E+03 -0.97678234657E+02  0.70627400454E+03  0.14483726432E+04  0.11776314849E+04 0.  0.
        -13    1    3    3    0    0 -0.21707668688E+03 -0.61683855562E+03  0.19243050938E+03  0.68164624534E+03  0.10566000000E+00 0.  1.
          4    1    3    3  501    0 -0.23303817897E+03  0.51916032096E+03  0.51384349516E+03  0.76672639790E+03  0.00000000000E+00 0.  1.
         13    1    1    2    0    0  0.45011486585E+03  0.97678234657E+02  0.68177129931E+02  0.46560988198E+03  0.10566000000E+00 0. -1.
<mgrwt>
<rscale>  1 0.98235429E+03</rscale>
<asrwt>0</asrwt>
<pdfrwt beam="2">  1       21 0.87656261E-01 0.12645000E+04</pdfrwt>
<pdfrwt beam="1">  1        4 0.20680259E+00 0.12645000E+04</pdfrwt>
<totfact> 0.48315101E+00</totfact>
</mgrwt>
</event>
<event>
 6    1  0.2415530E-005  0.1040067E+04  0.7818608E-02  0.9706190E-01
         21   -1    0    0  501  502  0.00000000000E+00  0.00000000000E+00  0.16429407372E+03  0.16429407372E+03  0.00000000000E+00 0.  1.
          4   -1    0    0  502    0 -0.00000000000E+00 -0.00000000000E+00 -0.29442288245E+04  0.29442288245E+04  0.00000000000E+00 0.  1.
    9000010    2    1    2  501    0  0.21888296017E+03 -0.33538241353E+02 -0.16023905723E+04  0.19103389109E+04  0.10162207657E+04 0.  0.
        -13    1    3    3    0    0  0.14904440902E+03 -0.30662912198E+03 -0.64690877882E+02  0.34701667849E+03  0.10566000000E+00 0.  1.
          4    1    3    3  501    0  0.69838551148E+02  0.27309088063E+03 -0.15376996944E+04  0.15633222324E+04  0.00000000000E+00 0.  1.
         13    1    1    2    0    0 -0.21888296017E+03  0.33538241353E+02 -0.11775441785E+04  0.11981839873E+04  0.10566000000E+00 0. -1.
<mgrwt>
<rscale>  1 0.70649447E+03</rscale>
<asrwt>0</asrwt>
<pdfrwt beam="1">  1       21 0.25276014E-01 0.10400669E+04</pdfrwt>
<pdfrwt beam="2">  1        4 0.45295824E+00 0.10400669E+04</pdfrwt>
<totfact> 0.17675342E+00</totfact>
</mgrwt>
</event>
<event>
 6    1  0.2415530E-005  0.1067329E+04  0.7818608E-02  0.9538464E-01
         21   -1    0    0  501  502  0.00000000000E+00  0.00000000000E+00  0.12193922071E+04  0.12193922071E+04  0.00000000000E+00 0. -1.
          4   -1    0    0  502    0 -0.00000000000E+00 -0.00000000000E+00 -0.44058921964E+03  0.44058921964E+03  0.00000000000E+00 0.  1.
    9000010    2    1    2  501    0 -0.34458431529E+03  0.11406227313E+03  0.41240460285E+03  0.11442330967E+04  0.10037147357E+04 0.  0.
        -13    1    3    3    0    0 -0.34024294099E+03 -0.41279526682E+03  0.14969764453E+03  0.55549490290E+03  0.10566000000E+00 0.  1.
          4    1    3    3  501    0 -0.43413742970E+01  0.52685753995E+03  0.26270695832E+03  0.58873819383E+03  0.00000000000E+00 0.  1.
         13    1    1    2    0    0  0.34458431529E+03 -0.11406227313E+03  0.36639838460E+03  0.51574833000E+03  0.10566000000E+00 0. -1.
<mgrwt>
<rscale>  1 0.81506475E+03</rscale>
<asrwt>0</asrwt>
<pdfrwt beam="1">  1       21 0.18759880E+00 0.10673293E+04</pdfrwt>
<pdfrwt beam="2">  1        4 0.67782957E-01 0.10673293E+04</pdfrwt>
<totfact> 0.11160822E+01</totfact>
</mgrwt>
</event>
<event>
 6    1  0.2415530E-005  0.1126729E+04  0.7818608E-02  0.9380735E-01
         21   -1    0    0  501  502  0.00000000000E+00  0.00000000000E+00  0.10814171384E+04  0.10814171384E+04  0.00000000000E+00 0.  1.
          4   -1    0    0  502    0 -0.00000000000E+00 -0.00000000000E+00 -0.75156668462E+03  0.75156668462E+03  0.00000000000E+00 0.  1.
    9000010    2    1    2  501    0 -0.51657858811E+03 -0.15168682848E+03 -0.11770894653E+03  0.11328611483E+04  0.98977606239E+03 0.  0.
        -13    1    3    3    0    0 -0.64710493925E+03 -0.16771329174E+03  0.27189278271E+03  0.72166352761E+03  0.10566000000E+00 0.  1.
          4    1    3    3  501    0  0.13052635114E+03  0.16026463257E+02 -0.38960172924E+03  0.41119762072E+03  0.00000000000E+00 0.  1.
         13    1    1    2    0    0  0.51657858811E+03  0.15168682848E+03  0.44755940028E+03  0.70012267466E+03  0.10566000000E+00 0. -1.
<mgrwt>
<rscale>  1 0.93678241E+03</rscale>
<asrwt>0</asrwt>
<pdfrwt beam="1">  1       21 0.16637187E+00 0.11267293E+04</pdfrwt>
<pdfrwt beam="2">  1        4 0.11562564E+00 0.11267293E+04</pdfrwt>
<totfact> 0.45142307E+00</totfact>
</mgrwt>
</event>
<event>
 6    1  0.2415530E-005  0.1007880E+04  0.7818608E-02  0.9914824E-01
          4   -1    0    0  502    0 -0.00000000000E+00  0.00000000000E+00  0.30037662398E+03  0.30037662398E+03  0.00000000000E+00 0.  1.
         21   -1    0    0  501  502  0.00000000000E+00 -0.00000000000E+00 -0.13560805534E+04  0.13560805534E+04  0.00000000000E+00 0.  1.
    9000010    2    1    2  501    0 -0.68815403349E+02 -0.10172397508E+03 -0.11290052519E+04  0.15134312290E+04  0.10003688817E+04 0.  0.
        -13    1    3    3    0    0 -0.52558322626E+03  0.42688981010E+02 -0.55010109810E+03  0.76201791719E+03  0.10566000000E+00 0.  1.
          4    1    3    3  501    0  0.45676782291E+03 -0.14441295609E+03 -0.57890415377E+03  0.75141331183E+03  0.00000000000E+00 0.  1.
         13    1    1    2    0    0  0.68815403349E+02  0.10172397508E+03  0.73301322505E+02  0.14302594831E+03  0.10566000000E+00 0. -1.
<mgrwt>
<rscale>  1 0.59548204E+03</rscale>
<asrwt>0</asrwt>
<pdfrwt beam="2">  1       21 0.20862778E+00 0.10078796E+04</pdfrwt>
<pdfrwt beam="1">  1        4 0.46211789E-01 0.10078796E+04</pdfrwt>
<totfact> 0.18352869E+01</totfact>
</mgrwt>
</event>
<event>
 6    1  0.2415530E-005  0.1050563E+04  0.7818608E-02  0.9567400E-01
          4   -1    0    0  502    0 -0.00000000000E+00  0.00000000000E+00  0.86926673505E+03  0.86926673505E+03  0.00000000000E+00 0.  1.
         21   -1    0    0  501  502  0.00000000000E+00 -0.00000000000E+00 -0.56008691779E+03  0.56008691779E+03  0.00000000000E+00 0.  1.
    9000010    2    1    2  501    0 -0.24173751974E+03 -0.24526241340E+03  0.25057001637E+03  0.10800317386E+04  0.99251828361E+03 0.  0.
        -13    1    3    3    0    0  0.28583614491E+03 -0.32358587564E+03 -0.98181438186E+02  0.44277502935E+03  0.10566000000E+00 0.  1.
          4    1    3    3  501    0 -0.52757366465E+03  0.78323462245E+02  0.34875145455E+03  0.63725670920E+03  0.00000000000E+00 0.  1.
         13    1    1    2    0    0  0.24173751974E+03  0.24526241340E+03  0.58609800887E+02  0.34932191429E+03  0.10566000000E+00 0. -1.
<mgrwt>
<rscale>  1 0.79491931E+03</rscale>
<asrwt>0</asrwt>
<pdfrwt beam="2">  1       21 0.86167218E-01 0.10505633E+04</pdfrwt>
<pdfrwt beam="1">  1        4 0.13373334E+00 0.10505633E+04</pdfrwt>
<totfact> 0.17595556E+01</totfact>
</mgrwt>
</event>
<event>
 6    1  0.2415530E-005  0.1009705E+04  0.7818608E-02  0.9770236E-01
         21   -1    0    0  501  502  0.00000000000E+00  0.00000000000E+00  0.15772127288E+04  0.15772127288E+04  0.00000000000E+00 0.  1.
          4   -1    0    0  502    0 -0.00000000000E+00 -0.00000000000E+00 -0.23320962021E+03  0.23320962021E+03  0.00000000000E+00 0.  1.
    9000010    2    1    2  501    0  0.16050010908E+03 -0.11175764341E+03  0.10447727971E+04  0.14529466906E+04  0.99058257218E+03 0.  0.
        -13    1    3    3    0    0  0.95148238037E+02 -0.31341050204E+03 -0.55705323831E+02  0.33223850508E+03  0.10566000000E+00 0.  1.
          4    1    3    3  501    0  0.65351871041E+02  0.20165285864E+03  0.11004781209E+04  0.11207081855E+04  0.00000000000E+00 0.  1.
         13    1    1    2    0    0 -0.16050010908E+03  0.11175764341E+03  0.29923031152E+03  0.35747565843E+03  0.10566000000E+00 0. -1.
<mgrwt>
<rscale>  1 0.66984591E+03</rscale>
<asrwt>0</asrwt>
<pdfrwt beam="1">  1       21 0.24264811E+00 0.10097049E+04</pdfrwt>
<pdfrwt beam="2">  1        4 0.35878404E-01 0.10097049E+04</pdfrwt>
<totfact> 0.18416564E+01</totfact>
</mgrwt>
</event>
<event>
 6    1  0.2415530E-005  0.1086796E+04  0.7818608E-02  0.9407395E-01
          4   -1    0    0  502    0 -0.00000000000E+00  0.00000000000E+00  0.13242287525E+04  0.13242287525E+04  0.00000000000E+00 0.  1.
         21   -1    0    0  501  502  0.00000000000E+00 -0.00000000000E+00 -0.54027124711E+03  0.54027124711E+03  0.00000000000E+00 0. -1.
    9000010    2    1    2  501    0 -0.47109975877E+03  0.27468758513E+03  0.74529578532E+03  0.13177980772E+04  0.94007324851E+03 0.  0.
        -13    1    3    3    0    0 -0.53470737398E+03 -0.13686112974E+03  0.71080490831E+03  0.89993698305E+03  0.10566000000E+00 0.  1.
          4    1    3    3  501    0  0.63607615206E+02  0.41154871487E+03  0.34490877011E+02  0.41786109417E+03  0.00000000000E+00 0.  1.
         13    1    1    2    0    0  0.47109975877E+03 -0.27468758513E+03  0.38661720014E+02  0.54670192235E+03  0.10566000000E+00 0. -1.
<mgrwt>
<rscale>  1 0.91469565E+03</rscale>
<asrwt>0</asrwt>
<pdfrwt beam="2">  1       21 0.83118654E-01 0.10867962E+04</pdfrwt>
<pdfrwt beam="1">  1        4 0.20372750E+00 0.10867962E+04</pdfrwt>
<totfact> 0.58623368E+00</totfact>
</mgrwt>
</event>
<event>
 6    1  0.2415530E-005  0.1043059E+04  0.7818608E-02  0.9639568E-01
         21   -1    0    0  501  502  0.00000000000E+00  0.00000000000E+00  0.58841087034E+03  0.58841087034E+03  0.00000000000E+00 0.  1.
          4   -1    0    0  502    0 -0.00000000000E+00 -0.00000000000E+00 -0.90369568734E+03  0.90369568734E+03  0.00000000000E+00 0.  1.
    9000010    2    1    2  501    0  0.16521740216E+03 -0.21964782024E+03  0.38905837299E+02  0.10437841451E+04  0.10061956680E+04 0.  0.
        -13    1    3    3    0    0  0.15502184508E+03  0.23981502703E+03 -0.34294888067E+03  0.44627005900E+03  0.10566000000E+00 0.  1.
          4    1    3    3  501    0  0.10195557075E+02 -0.45946284727E+03  0.38185471797E+03  0.59751408606E+03  0.00000000000E+00 0.  1.
         13    1    1    2    0    0 -0.16521740216E+03  0.21964782024E+03 -0.35419065430E+03  0.44832241263E+03  0.10566000000E+00 0. -1.
<mgrwt>
<rscale>  1 0.74731746E+03</rscale>
<asrwt>0</asrwt>
<pdfrwt beam="1">  1       21 0.90524750E-01 0.10430588E+04</pdfrwt>
<pdfrwt beam="2">  1        4 0.13903010E+00 0.10430588E+04</pdfrwt>
<totfact> 0.14131651E+01</totfact>
</mgrwt>
</event>
<event>
 6    1  0.2415530E-005  0.1036423E+04  0.7818608E-02  0.9703205E-01
          4   -1    0    0  502    0 -0.00000000000E+00  0.00000000000E+00  0.48555878717E+03  0.48555878717E+03  0.00000000000E+00 0.  1.
         21   -1    0    0  501  502  0.00000000000E+00 -0.00000000000E+00 -0.95588889269E+03  0.95588889269E+03  0.00000000000E+00 0.  1.
    9000010    2    1    2  501    0 -0.15827266573E+03  0.16136746024E+03 -0.58273217946E+03  0.11890116853E+04  0.10114753091E+04 0.  0.
        -13    1    3    3    0    0  0.20758837885E+03  0.46853858186E+03 -0.12519454378E+03  0.52753675008E+03  0.10566000000E+00 0.  1.
          4    1    3    3  501    0 -0.36586104458E+03 -0.30717112163E+03 -0.45753763569E+03  0.66147493526E+03  0.00000000000E+00 0.  1.
         13    1    1    2    0    0  0.15827266573E+03 -0.16136746024E+03  0.11240207394E+03  0.25243599453E+03  0.10566000000E+00 0. -1.
<mgrwt>
<rscale>  1 0.70826268E+03</rscale>
<asrwt>0</asrwt>
<pdfrwt beam="2">  1       21 0.14705983E+00 0.10364227E+04</pdfrwt>
<pdfrwt beam="1">  1        4 0.74701352E-01 0.10364227E+04</pdfrwt>
<totfact> 0.18286994E+01</totfact>
</mgrwt>
</event>
<event>
 6    1  0.2415530E-005  0.1041354E+04  0.7818608E-02  0.9580229E-01
          4   -1    0    0  502    0 -0.00000000000E+00  0.00000000000E+00  0.37249532723E+03  0.37249532723E+03  0.00000000000E+00 0.  1.
         21   -1    0    0  501  502  0.00000000000E+00 -0.00000000000E+00 -0.13028868170E+04  0.13028868170E+04  0.00000000000E+00 0. -1.
    9000010    2    1    2  501    0 -0.25147810038E+02 -0.33736893619E+03 -0.59668796346E+03  0.12001892717E+04  0.98486930644E+03 0.  0.
        -13    1    3    3    0    0  0.44565856444E+03  0.26310111876E+02 -0.25369008788E+03  0.51348072008E+03  0.10566000000E+00 0.  1.
          4    1    3    3  501    0 -0.47080637447E+03 -0.36367904807E+03 -0.34299787558E+03  0.68670855164E+03  0.00000000000E+00 0.  1.
         13    1    1    2    0    0  0.25147810038E+02  0.33736893619E+03 -0.33370352634E+03  0.47519287254E+03  0.10566000000E+00 0. -1.
<mgrwt>
<rscale>  1 0.78618702E+03</rscale>
<asrwt>0</asrwt>
<pdfrwt beam="2">  1       21 0.20044412E+00 0.10413538E+04</pdfrwt>
<pdfrwt beam="1">  1        4 0.57306974E-01 0.10413538E+04</pdfrwt>
<totfact> 0.13159834E+01</totfact>
</mgrwt>
</event>
<event>
 6    1  0.2415530E-005  0.1022568E+04  0.7818608E-02  0.9750286E-01
          4   -1    0    0  502    0 -0.00000000000E+00  0.00000000000E+00  0.20598868377E+04  0.20598868377E+04  0.00000000000E+00 0.  1.
         21   -1    0    0  501  502  0.00000000000E+00 -0.00000000000E+00 -0.19521307718E+03  0.19521307718E+03  0.00000000000E+00 0.  1.
    9000010    2    1    2  501    0 -0.18711505650E+03 -0.73812863786E+02  0.12893156407E+04  0.16455940819E+04  0.10025889875E+04 0.  0.
        -13    1    3    3    0    0 -0.15630729412E+03 -0.21578526783E+03  0.14232637586E+04  0.14479899826E+04  0.10566000000E+00 0.  1.
          4    1    3    3  501    0 -0.30807762385E+02  0.14197240405E+03 -0.13394811795E+03  0.19760409924E+03  0.00000000000E+00 0.  1.
         13    1    1    2    0    0  0.18711505650E+03  0.73812863786E+02  0.57535811980E+03  0.60950583296E+03  0.10566000000E+00 0. -1.
<mgrwt>
<rscale>  1 0.68100119E+03</rscale>
<asrwt>0</asrwt>
<pdfrwt beam="2">  1       21 0.30032783E-01 0.10225679E+04</pdfrwt>
<pdfrwt beam="1">  1        4 0.31690565E+00 0.10225679E+04</pdfrwt>
<totfact> 0.10601703E+01</totfact>
</mgrwt>
</event>
<event>
 6    1  0.2415530E-005  0.1077110E+04  0.7818608E-02  0.9487587E-01
          4   -1    0    0  502    0 -0.00000000000E+00  0.00000000000E+00  0.30791633425E+04  0.30791633425E+04  0.00000000000E+00 0.  1.
         21   -1    0    0  501  502  0.00000000000E+00 -0.00000000000E+00 -0.22564984768E+03  0.22564984768E+03  0.00000000000E+00 0.  1.
    9000010    2    1    2  501    0 -0.31328206682E+03  0.28240408615E+03  0.25961301484E+04  0.28107039721E+04  0.99109401655E+03 0.  0.
        -13    1    3    3    0    0  0.29398704293E+03  0.36753101265E+02  0.15375093955E+04  0.15657951093E+04  0.10566000000E+00 0.  1.
          4    1    3    3  501    0 -0.60726910975E+03  0.24565098488E+03  0.10586207529E+04  0.12449088627E+04  0.00000000000E+00 0.  1.
         13    1    1    2    0    0  0.31328206682E+03 -0.28240408615E+03  0.25738334637E+03  0.49410921810E+03  0.10566000000E+00 0. -1.
<mgrwt>
<rscale>  1 0.85205234E+03</rscale>
<asrwt>0</asrwt>
<pdfrwt beam="2">  1       21 0.34715363E-01 0.10771096E+04</pdfrwt>
<pdfrwt beam="1">  1        4 0.47371741E+00 0.10771096E+04</pdfrwt>
<totfact> 0.64353667E-01</totfact>
</mgrwt>
</event>
<event>
 6    1  0.2415530E-005  0.1375034E+04  0.7818608E-02  0.9066211E-01
         21   -1    0    0  501  502  0.00000000000E+00  0.00000000000E+00  0.12639498313E+04  0.12639498313E+04  0.00000000000E+00 0.  1.
          4   -1    0    0  502    0 -0.00000000000E+00 -0.00000000000E+00 -0.16770799422E+04  0.16770799422E+04  0.00000000000E+00 0.  1.
    9000010    2    1    2  501    0  0.66418812981E+03  0.68415997869E+03  0.64315924787E+03  0.15180160811E+04  0.99070593825E+03 0.  0.
        -13    1    3    3    0    0  0.40292307586E+03  0.92992495357E+03  0.51755977369E+03  0.11379699270E+04  0.10566000000E+00 0.  1.
          4    1    3    3  501    0  0.26126505396E+03 -0.24576497488E+03  0.12559947418E+03  0.38004615405E+03  0.00000000000E+00 0.  1.
         13    1    1    2    0    0 -0.66418812981E+03 -0.68415997869E+03 -0.10562893588E+04  0.14230136924E+04  0.10566000000E+00 0. -1.
<mgrwt>
<rscale>  1 0.12547835E+04</rscale>
<asrwt>0</asrwt>
<pdfrwt beam="1">  1       21 0.19445382E+00 0.13750342E+04</pdfrwt>
<pdfrwt beam="2">  1        4 0.25801230E+00 0.13750342E+04</pdfrwt>
<totfact> 0.25914624E-01</totfact>
</mgrwt>
</event>
<event>
 6    1  0.2415530E-005  0.1033165E+04  0.7818608E-02  0.9632221E-01
         21   -1    0    0  501  502  0.00000000000E+00  0.00000000000E+00  0.16094049590E+03  0.16094049590E+03  0.00000000000E+00 0.  1.
          4   -1    0    0  502    0 -0.00000000000E+00 -0.00000000000E+00 -0.28914868849E+04  0.28914868849E+04  0.00000000000E+00 0.  1.
    9000010    2    1    2  501    0 -0.30288391238E+02 -0.28838703882E+03 -0.17743396375E+04  0.20532197779E+04  0.99163795640E+03 0.  0.
        -13    1    3    3    0    0  0.20357860787E+03 -0.18057042704E+03 -0.12234398158E+02  0.27239607260E+03  0.10566000000E+00 0.  1.
          4    1    3    3  501    0 -0.23386699911E+03 -0.10781661178E+03 -0.17621052393E+04  0.17808237053E+04  0.00000000000E+00 0.  1.
         13    1    1    2    0    0  0.30288391238E+02  0.28838703882E+03 -0.95620675154E+03  0.99920760288E+03  0.10566000000E+00 0. -1.
<mgrwt>
<rscale>  1 0.75199821E+03</rscale>
<asrwt>0</asrwt>
<pdfrwt beam="1">  1       21 0.24760077E-01 0.10331652E+04</pdfrwt>
<pdfrwt beam="2">  1        4 0.44484412E+00 0.10331652E+04</pdfrwt>
<totfact> 0.21184443E+00</totfact>
</mgrwt>
</event>
<event>
 6    1  0.2415530E-005  0.1021028E+04  0.7818608E-02  0.9744341E-01
         21   -1    0    0  501  502  0.00000000000E+00  0.00000000000E+00  0.39212875589E+03  0.39212875589E+03  0.00000000000E+00 0.  1.
          4   -1    0    0  502    0 -0.00000000000E+00 -0.00000000000E+00 -0.10116239045E+04  0.10116239045E+04  0.00000000000E+00 0.  1.
    9000010    2    1    2  501    0  0.20400837729E+03 -0.29196228092E+02 -0.38408784209E+03  0.10908813628E+04  0.10000134197E+04 0.  0.
        -13    1    3    3    0    0  0.15279690546E+03 -0.23544449534E+03  0.27828608402E+03  0.39525202141E+03  0.10566000000E+00 0.  1.
          4    1    3    3  501    0  0.51211471821E+02  0.20624826725E+03 -0.66237392611E+03  0.69562934137E+03  0.00000000000E+00 0.  1.
         13    1    1    2    0    0 -0.20400837729E+03  0.29196228092E+02 -0.23540730654E+03  0.31287129762E+03  0.10566000000E+00 0. -1.
<mgrwt>
<rscale>  1 0.68437000E+03</rscale>
<asrwt>0</asrwt>
<pdfrwt beam="1">  1       21 0.60327502E-01 0.10210282E+04</pdfrwt>
<pdfrwt beam="2">  1        4 0.15563444E+00 0.10210282E+04</pdfrwt>
<totfact> 0.26859643E+01</totfact>
</mgrwt>
</event>
<event>
 6    1  0.2415530E-005  0.1019674E+04  0.7818608E-02  0.9752004E-01
         21   -1    0    0  501  502  0.00000000000E+00  0.00000000000E+00  0.40505861496E+03  0.40505861496E+03  0.00000000000E+00 0.  1.
          4   -1    0    0  502    0 -0.00000000000E+00 -0.00000000000E+00 -0.96253169083E+03  0.96253169083E+03  0.00000000000E+00 0.  1.
    9000010    2    1    2  501    0  0.58295429809E+02 -0.19310489888E+03 -0.34960790889E+03  0.10779425923E+04  0.99952322798E+03 0.  0.
        -13    1    3    3    0    0 -0.14963643756E+03 -0.51964015856E+03 -0.41971441526E+03  0.68452696030E+03  0.10566000000E+00 0.  1.
          4    1    3    3  501    0  0.20793186737E+03  0.32653525968E+03  0.70106506370E+02  0.39341563202E+03  0.00000000000E+00 0.  1.
         13    1    1    2    0    0 -0.58295429809E+02  0.19310489888E+03 -0.20786516698E+03  0.28964771346E+03  0.10566000000E+00 0. -1.
<mgrwt>
<rscale>  1 0.68003153E+03</rscale>
<asrwt>0</asrwt>
<pdfrwt beam="1">  1       21 0.62316710E-01 0.10196737E+04</pdfrwt>
<pdfrwt beam="2">  1        4 0.14808180E+00 0.10196737E+04</pdfrwt>
<totfact> 0.28566485E+01</totfact>
</mgrwt>
</event>
<event>
 6    1  0.2415530E-005  0.1038176E+04  0.7818608E-02  0.9831548E-01
         21   -1    0    0  501  502  0.00000000000E+00  0.00000000000E+00  0.56220447669E+03  0.56220447669E+03  0.00000000000E+00 0.  1.
          4   -1    0    0  502    0 -0.00000000000E+00 -0.00000000000E+00 -0.62477750485E+03  0.62477750485E+03  0.00000000000E+00 0.  1.
    9000010    2    1    2  501    0 -0.10220145600E+03  0.10581689548E+03 -0.58106661950E+02  0.10398007580E+04  0.10276998001E+04 0.  0.
        -13    1    3    3    0    0  0.36269421493E+03 -0.96766903380E+02  0.24570182718E+03  0.44864276008E+03  0.10566000000E+00 0.  1.
          4    1    3    3  501    0 -0.46489567093E+03  0.20258379886E+03 -0.30380848913E+03  0.59115799790E+03  0.00000000000E+00 0.  1.
         13    1    1    2    0    0  0.10220145600E+03 -0.10581689548E+03 -0.44663662111E+01  0.14718122356E+03  0.10566000000E+00 0. -1.
<mgrwt>
<rscale>  1 0.63696615E+03</rscale>
<asrwt>0</asrwt>
<pdfrwt beam="1">  1       21 0.86492997E-01 0.10381759E+04</pdfrwt>
<pdfrwt beam="2">  1        4 0.96119615E-01 0.10381759E+04</pdfrwt>
<totfact> 0.39670491E+01</totfact>
</mgrwt>
</event>
<event>
 6    1  0.2415530E-005  0.1034583E+04  0.7818608E-02  0.9652984E-01
         21   -1    0    0  501  502  0.00000000000E+00  0.00000000000E+00  0.59741183125E+03  0.59741183125E+03  0.00000000000E+00 0.  1.
          4   -1    0    0  502    0 -0.00000000000E+00 -0.00000000000E+00 -0.13225027988E+04  0.13225027988E+04  0.00000000000E+00 0.  1.
    9000010    2    1    2  501    0  0.17503226922E+03 -0.20443807910E+03  0.11199589522E+03  0.10406276175E+04  0.99896523179E+03 0.  0.
        -13    1    3    3    0    0  0.34196704058E+03 -0.33976719587E+03 -0.30575076486E+03  0.57084739257E+03  0.10566000000E+00 0.  1.
          4    1    3    3  501    0 -0.16693477136E+03  0.13532911677E+03  0.41774666008E+03  0.46978022494E+03  0.00000000000E+00 0.  1.
         13    1    1    2    0    0 -0.17503226922E+03  0.20443807910E+03 -0.83708686272E+03  0.87928701251E+03  0.10566000000E+00 0. -1.
<mgrwt>
<rscale>  1 0.73886460E+03</rscale>
<asrwt>0</asrwt>
<pdfrwt beam="1">  1       21 0.91909514E-01 0.10345834E+04</pdfrwt>
<pdfrwt beam="2">  1        4 0.20346197E+00 0.10345834E+04</pdfrwt>
<totfact> 0.46527359E+00</totfact>
</mgrwt>
</event>
<event>
 6    1  0.2415530E-005  0.1056547E+04  0.7818608E-02  0.9551165E-01
         21   -1    0    0  501  502  0.00000000000E+00  0.00000000000E+00  0.15845448804E+04  0.15845448804E+04  0.00000000000E+00 0. -1.
          4   -1    0    0  502    0 -0.00000000000E+00 -0.00000000000E+00 -0.32149539272E+03  0.32149539272E+03  0.00000000000E+00 0.  1.
    9000010    2    1    2  501    0 -0.95455370800E+02  0.34512768328E+03  0.10490019357E+04  0.14888578056E+04  0.99401592466E+03 0.  0.
        -13    1    3    3    0    0 -0.73311151563E+02  0.59524145482E+03  0.10805117049E+04  0.12357962899E+04  0.10566000000E+00 0.  1.
          4    1    3    3  501    0 -0.22144219237E+02 -0.25011377154E+03 -0.31509769206E+02  0.25306151567E+03  0.00000000000E+00 0.  1.
         13    1    1    2    0    0  0.95455370800E+02 -0.34512768328E+03  0.21404755197E+03  0.41718246757E+03  0.10566000000E+00 0. -1.
<mgrwt>
<rscale>  1 0.80614522E+03</rscale>
<asrwt>0</asrwt>
<pdfrwt beam="1">  1       21 0.24377613E+00 0.10565474E+04</pdfrwt>
<pdfrwt beam="2">  1        4 0.49460831E-01 0.10565474E+04</pdfrwt>
<totfact> 0.92978603E+00</totfact>
</mgrwt>
</event>
<event>
 6    1  0.2415530E-005  0.1013412E+04  0.7818608E-02  0.9789031E-01
          4   -1    0    0  502    0 -0.00000000000E+00  0.00000000000E+00  0.80716482653E+03  0.80716482653E+03  0.00000000000E+00 0.  1.
         21   -1    0    0  501  502  0.00000000000E+00 -0.00000000000E+00 -0.63719092828E+03  0.63719092828E+03  0.00000000000E+00 0.  1.
    9000010    2    1    2  501    0 -0.18011923929E+03  0.24743681326E+02 -0.19923319026E+03  0.10328110118E+04  0.99697017601E+03 0.  0.
        -13    1    3    3    0    0  0.14801942121E+03 -0.41091012952E+03  0.37248028681E+02  0.43834268604E+03  0.10566000000E+00 0.  1.
          4    1    3    3  501    0 -0.32813866049E+03  0.43565381085E+03 -0.23648121894E+03  0.59446832576E+03  0.00000000000E+00 0.  1.
         13    1    1    2    0    0  0.18011923929E+03 -0.24743681326E+02  0.36920708852E+03  0.41154474301E+03  0.10566000000E+00 0. -1.
<mgrwt>
<rscale>  1 0.65954532E+03</rscale>
<asrwt>0</asrwt>
<pdfrwt beam="2">  1       21 0.98029373E-01 0.10134124E+04</pdfrwt>
<pdfrwt beam="1">  1        4 0.12417920E+00 0.10134124E+04</pdfrwt>
<totfact> 0.15616193E+01</totfact>
</mgrwt>
</event>
<event>
 6    1  0.2415530E-005  0.9887457E+03  0.7818608E-02  0.1011752E+00
         21   -1    0    0  501  502  0.00000000000E+00  0.00000000000E+00  0.51207277830E+03  0.51207277830E+03  0.00000000000E+00 0.  1.
          4   -1    0    0  502    0 -0.00000000000E+00 -0.00000000000E+00 -0.64889270408E+03  0.64889270408E+03  0.00000000000E+00 0.  1.
    9000010    2    1    2  501    0  0.68755017643E+02 -0.27735185132E+01  0.20816657698E+02  0.98896476009E+03  0.98634832519E+03 0.  0.
        -13    1    3    3    0    0  0.22944633858E+03  0.45163795169E+03  0.20084701784E+02  0.50697718697E+03  0.10566000000E+00 0.  1.
          4    1    3    3  501    0 -0.16069132094E+03 -0.45441147021E+03  0.73195591434E+00  0.48198757312E+03  0.00000000000E+00 0.  1.
         13    1    1    2    0    0 -0.68755017643E+02  0.27735185132E+01 -0.15763658347E+03  0.17200072229E+03  0.10566000000E+00 0. -1.
<mgrwt>
<rscale>  1 0.50784120E+03</rscale>
<asrwt>0</asrwt>
<pdfrwt beam="1">  1       21 0.78780427E-01 0.98874565E+03</pdfrwt>
<pdfrwt beam="2">  1        4 0.99829647E-01 0.98874565E+03</pdfrwt>
<totfact> 0.45387202E+01</totfact>
</mgrwt>
</event>
<event>
 6    1  0.2415530E-005  0.1080831E+04  0.7818608E-02  0.9490770E-01
          4   -1    0    0  502    0 -0.00000000000E+00  0.00000000000E+00  0.35014330299E+03  0.35014330299E+03  0.00000000000E+00 0.  1.
         21   -1    0    0  501  502  0.00000000000E+00 -0.00000000000E+00 -0.16304102843E+04  0.16304102843E+04  0.00000000000E+00 0.  1.
    9000010    2    1    2  501    0  0.33446098412E+03  0.24195468289E+03 -0.78507208610E+03  0.13358643490E+04  0.99889396846E+03 0.  0.
        -13    1    3    3    0    0  0.84350140167E+02  0.48465635029E+03 -0.16786627021E+02  0.49222812398E+03  0.10566000000E+00 0.  1.
          4    1    3    3  501    0  0.25011084396E+03 -0.24270166740E+03 -0.76828545908E+03  0.84363622507E+03  0.00000000000E+00 0.  1.
         13    1    1    2    0    0 -0.33446098412E+03 -0.24195468289E+03 -0.49519489517E+03  0.64468923819E+03  0.10566000000E+00 0. -1.
<mgrwt>
<rscale>  1 0.84967736E+03</rscale>
<asrwt>0</asrwt>
<pdfrwt beam="2">  1       21 0.25083235E+00 0.10808309E+04</pdfrwt>
<pdfrwt beam="1">  1        4 0.53868200E-01 0.10808309E+04</pdfrwt>
<totfact> 0.69674511E+00</totfact>
</mgrwt>
</event>
<event>
 6    1  0.2415530E-005  0.1184262E+04  0.7818608E-02  0.9295456E-01
          4   -1    0    0  502    0 -0.00000000000E+00  0.00000000000E+00  0.10154397576E+04  0.10154397576E+04  0.00000000000E+00 0.  1.
         21   -1    0    0  501  502  0.00000000000E+00 -0.00000000000E+00 -0.10518284081E+04  0.10518284081E+04  0.00000000000E+00 0.  1.
    9000010    2    1    2  501    0 -0.92552232523E+02  0.62474716068E+03 -0.49828563475E+03  0.12848208731E+04  0.10017989676E+04 0.  0.
        -13    1    3    3    0    0 -0.47145771974E+03  0.41683723035E+03 -0.54640327947E+01  0.62932942481E+03  0.10566000000E+00 0.  1.
          4    1    3    3  501    0  0.37890548722E+03  0.20790993034E+03 -0.49282160195E+03  0.65549144825E+03  0.00000000000E+00 0.  1.
         13    1    1    2    0    0  0.92552232523E+02 -0.62474716068E+03  0.46189698419E+03  0.78244729260E+03  0.10566000000E+00 0. -1.
<mgrwt>
<rscale>  1 0.10120230E+04</rscale>
<asrwt>0</asrwt>
<pdfrwt beam="2">  1       21 0.16181975E+00 0.11842618E+04</pdfrwt>
<pdfrwt beam="1">  1        4 0.15622150E+00 0.11842618E+04</pdfrwt>
<totfact> 0.22166281E+00</totfact>
</mgrwt>
</event>
<event>
 6    1  0.2415530E-005  0.1098038E+04  0.7818608E-02  0.9483836E-01
          4   -1    0    0  502    0 -0.00000000000E+00  0.00000000000E+00  0.67816446544E+03  0.67816446544E+03  0.00000000000E+00 0.  1.
         21   -1    0    0  501  502  0.00000000000E+00 -0.00000000000E+00 -0.88575510054E+03  0.88575510054E+03  0.00000000000E+00 0.  1.
    9000010    2    1    2  501    0 -0.39229002295E+03 -0.93992945311E+02  0.24909040880E+02  0.10983207619E+04  0.10212550611E+04 0.  0.
        -13    1    3    3    0    0 -0.19514259843E+03 -0.71868805679E+02 -0.49766001743E+03  0.53936190361E+03  0.10566000000E+00 0.  1.
          4    1    3    3  501    0 -0.19714742452E+03 -0.22124139631E+02  0.52256905831E+03  0.55895885828E+03  0.00000000000E+00 0.  1.
         13    1    1    2    0    0  0.39229002295E+03  0.93992945311E+02 -0.23249967598E+03  0.46559880409E+03  0.10566000000E+00 0. -1.
<mgrwt>
<rscale>  1 0.85486065E+03</rscale>
<asrwt>0</asrwt>
<pdfrwt beam="2">  1       21 0.13627002E+00 0.10980383E+04</pdfrwt>
<pdfrwt beam="1">  1        4 0.10433299E+00 0.10980383E+04</pdfrwt>
<totfact> 0.10213925E+01</totfact>
</mgrwt>
</event>
<event>
 6    1  0.2415530E-005  0.1071570E+04  0.7818608E-02  0.9502067E-01
          4   -1    0    0  502    0 -0.00000000000E+00  0.00000000000E+00  0.12640023209E+04  0.12640023209E+04  0.00000000000E+00 0.  1.
         21   -1    0    0  501  502  0.00000000000E+00 -0.00000000000E+00 -0.46787932301E+03  0.46787932301E+03  0.00000000000E+00 0. -1.
    9000010    2    1    2  501    0 -0.25085069562E+03  0.32071792698E+03  0.77817442371E+03  0.13243178788E+04  0.99119945024E+03 0.  0.
        -13    1    3    3    0    0  0.29357902194E+03  0.22178214334E+03  0.66428176899E+03  0.75937226773E+03  0.10566000000E+00 0.  1.
          4    1    3    3  501    0 -0.54442971756E+03  0.98935783642E+02  0.11389265472E+03  0.56494561105E+03  0.00000000000E+00 0.  1.
         13    1    1    2    0    0  0.25085069562E+03 -0.32071792698E+03  0.17948574188E+02  0.40756376514E+03  0.10566000000E+00 0. -1.
<mgrwt>
<rscale>  1 0.84131569E+03</rscale>
<asrwt>0</asrwt>
<pdfrwt beam="2">  1       21 0.71981435E-01 0.10715701E+04</pdfrwt>
<pdfrwt beam="1">  1        4 0.19446189E+00 0.10715701E+04</pdfrwt>
<totfact> 0.94766009E+00</totfact>
</mgrwt>
</event>
<event>
 6    1  0.2415530E-005  0.1014521E+04  0.7818608E-02  0.9896267E-01
         21   -1    0    0  501  502  0.00000000000E+00  0.00000000000E+00  0.43011267403E+03  0.43011267403E+03  0.00000000000E+00 0.  1.
          4   -1    0    0  502    0 -0.00000000000E+00 -0.00000000000E+00 -0.77219525793E+03  0.77219525793E+03  0.00000000000E+00 0.  1.
    9000010    2    1    2  501    0  0.12717007008E+03  0.12843668676E+02 -0.25027196835E+03  0.10449345326E+04  0.10064367504E+04 0.  0.
        -13    1    3    3    0    0 -0.42603921782E+02 -0.16050742896E+03  0.35550029445E+03  0.39237507492E+03  0.10566000000E+00 0.  1.
          4    1    3    3  501    0  0.16977399187E+03  0.17335109764E+03 -0.60577226280E+03  0.65255945763E+03  0.00000000000E+00 0.  1.
         13    1    1    2    0    0 -0.12717007008E+03 -0.12843668676E+02 -0.91810615549E+02  0.15737339941E+03  0.10566000000E+00 0. -1.
<mgrwt>
<rscale>  1 0.60442561E+03</rscale>
<asrwt>0</asrwt>
<pdfrwt beam="1">  1       21 0.66171181E-01 0.10145206E+04</pdfrwt>
<pdfrwt beam="2">  1        4 0.11879927E+00 0.10145206E+04</pdfrwt>
<totfact> 0.44159456E+01</totfact>
</mgrwt>
</event>
<event>
 6    1  0.2415530E-005  0.1259655E+04  0.7818608E-02  0.9116081E-01
          4   -1    0    0  502    0 -0.00000000000E+00  0.00000000000E+00  0.13807474970E+04  0.13807474970E+04  0.00000000000E+00 0.  1.
         21   -1    0    0  501  502  0.00000000000E+00 -0.00000000000E+00 -0.12288340425E+04  0.12288340425E+04  0.00000000000E+00 0. -1.
    9000010    2    1    2  501    0 -0.10230626963E+04  0.59678113125E+02  0.70658933427E+03  0.14442986981E+04  0.73246944264E+03 0.  0.
        -13    1    3    3    0    0 -0.17046821411E+03  0.32469892702E+03  0.19776797260E+03  0.41665451802E+03  0.10566000000E+00 0.  1.
          4    1    3    3  501    0 -0.85259448219E+03 -0.26502081390E+03  0.50882136166E+03  0.10276441801E+04  0.00000000000E+00 0.  1.
         13    1    1    2    0    0  0.10230626963E+04 -0.59678113125E+02 -0.55467587977E+03  0.11652828414E+04  0.10566000000E+00 0. -1.
<mgrwt>
<rscale>  1 0.11963237E+04</rscale>
<asrwt>0</asrwt>
<pdfrwt beam="2">  1       21 0.18905139E+00 0.12596548E+04</pdfrwt>
<pdfrwt beam="1">  1        4 0.21242269E+00 0.12596548E+04</pdfrwt>
<totfact> 0.55942110E-01</totfact>
</mgrwt>
</event>
<event>
 6    1  0.2415530E-005  0.9926008E+03  0.7818608E-02  0.9777508E-01
          4   -1    0    0  502    0 -0.00000000000E+00  0.00000000000E+00  0.52908656147E+03  0.52908656147E+03  0.00000000000E+00 0.  1.
         21   -1    0    0  501  502  0.00000000000E+00 -0.00000000000E+00 -0.12063861000E+04  0.12063861000E+04  0.00000000000E+00 0.  1.
    9000010    2    1    2  501    0 -0.20091021496E+03  0.51888939935E+01 -0.96510272495E+03  0.13844420013E+04  0.97204143235E+03 0.  0.
        -13    1    3    3    0    0 -0.32776445500E+02  0.20420936807E+03  0.13953816874E+03  0.24949283173E+03  0.10566000000E+00 0.  1.
          4    1    3    3  501    0 -0.16813376946E+03 -0.19902047408E+03 -0.11046408937E+04  0.11349491696E+04  0.00000000000E+00 0.  1.
         13    1    1    2    0    0  0.20091021496E+03 -0.51888939935E+01  0.28780318641E+03  0.35103066016E+03  0.10566000000E+00 0. -1.
<mgrwt>
<rscale>  1 0.66583664E+03</rscale>
<asrwt>0</asrwt>
<pdfrwt beam="2">  1       21 0.18559786E+00 0.99260082E+03</pdfrwt>
<pdfrwt beam="1">  1        4 0.81397934E-01 0.99260082E+03</pdfrwt>
<totfact> 0.76907671E+00</totfact>
</mgrwt>
</event>
<event>
 6    1  0.2415530E-005  0.1000820E+04  0.7818608E-02  0.1002286E+00
         21   -1    0    0  501  502  0.00000000000E+00  0.00000000000E+00  0.55304223482E+03  0.55304223482E+03  0.00000000000E+00 0.  1.
          4   -1    0    0  502    0 -0.00000000000E+00 -0.00000000000E+00 -0.62811119762E+03  0.62811119762E+03  0.00000000000E+00 0.  1.
    9000010    2    1    2  501    0 -0.26489781969E+02  0.85008727495E+02  0.78228855770E+02  0.10038727944E+04  0.99685136358E+03 0.  0.
        -13    1    3    3    0    0  0.17015282132E+03  0.64381303584E+02 -0.42548304629E+03  0.46274482029E+03  0.10566000000E+00 0.  1.
          4    1    3    3  501    0 -0.19664260329E+03  0.20627423911E+02  0.50371190206E+03  0.54112797407E+03  0.00000000000E+00 0.  1.
         13    1    1    2    0    0  0.26489781969E+02 -0.85008727495E+02 -0.15329781857E+03  0.17728063809E+03  0.10566000000E+00 0. -1.
<mgrwt>
<rscale>  1 0.54659274E+03</rscale>
<asrwt>0</asrwt>
<pdfrwt beam="1">  1       21 0.85083421E-01 0.10008201E+04</pdfrwt>
<pdfrwt beam="2">  1        4 0.96632492E-01 0.10008201E+04</pdfrwt>
<totfact> 0.40865886E+01</totfact>
</mgrwt>
</event>
<event>
 6    1  0.2415530E-005  0.1217239E+04  0.7818608E-02  0.9256789E-01
          4   -1    0    0  502    0 -0.00000000000E+00  0.00000000000E+00  0.88476487527E+03  0.88476487527E+03  0.00000000000E+00 0.  1.
         21   -1    0    0  501  502  0.00000000000E+00 -0.00000000000E+00 -0.10764537542E+04  0.10764537542E+04  0.00000000000E+00 0. -1.
    9000010    2    1    2  501    0 -0.31531369976E+03 -0.59158522387E+03 -0.36129426957E+03  0.12697261812E+04  0.10160094584E+04 0.  0.
        -13    1    3    3    0    0 -0.27862952360E+03 -0.50871152464E+03 -0.70576995499E+03  0.91352781416E+03  0.10566000000E+00 0.  1.
          4    1    3    3  501    0 -0.36684176155E+02 -0.82873699236E+02  0.34447568542E+03  0.35619836700E+03  0.00000000000E+00 0.  1.
         13    1    1    2    0    0  0.31531369976E+03  0.59158522387E+03  0.16960539065E+03  0.69149244830E+03  0.10566000000E+00 0. -1.
<mgrwt>
<rscale>  1 0.10486017E+04</rscale>
<asrwt>0</asrwt>
<pdfrwt beam="2">  1       21 0.16560827E+00 0.12172391E+04</pdfrwt>
<pdfrwt beam="1">  1        4 0.13611767E+00 0.12172391E+04</pdfrwt>
<totfact> 0.29834733E+00</totfact>
</mgrwt>
</event>
<event>
 6    1  0.2415530E-005  0.1053084E+04  0.7818608E-02  0.9634495E-01
         21   -1    0    0  501  502  0.00000000000E+00  0.00000000000E+00  0.11816894396E+04  0.11816894396E+04  0.00000000000E+00 0.  1.
          4   -1    0    0  502    0 -0.00000000000E+00 -0.00000000000E+00 -0.43738551248E+03  0.43738551248E+03  0.00000000000E+00 0.  1.
    9000010    2    1    2  501    0 -0.44096011600E+02  0.26811662812E+03  0.82261826063E+03  0.13362956556E+04  0.10174253250E+04 0.  0.
        -13    1    3    3    0    0 -0.17548582792E+03  0.63737097340E+03  0.50940815591E+03  0.83458595363E+03  0.10566000000E+00 0.  1.
          4    1    3    3  501    0  0.13138981632E+03 -0.36925434527E+03  0.31321010472E+03  0.50170970195E+03  0.00000000000E+00 0.  1.
         13    1    1    2    0    0  0.44096011600E+02 -0.26811662812E+03 -0.78314333534E+02  0.28277929648E+03  0.10566000000E+00 0. -1.
<mgrwt>
<rscale>  1 0.75054547E+03</rscale>
<asrwt>0</asrwt>
<pdfrwt beam="1">  1       21 0.18179837E+00 0.10530837E+04</pdfrwt>
<pdfrwt beam="2">  1        4 0.67290079E-01 0.10530837E+04</pdfrwt>
<totfact> 0.12504097E+01</totfact>
</mgrwt>
</event>
<event>
 6    1  0.2415530E-005  0.9812709E+03  0.7818608E-02  0.1021130E+00
         21   -1    0    0  501  502  0.00000000000E+00  0.00000000000E+00  0.45937083958E+03  0.45937083958E+03  0.00000000000E+00 0.  1.
          4   -1    0    0  502    0 -0.00000000000E+00 -0.00000000000E+00 -0.60228123610E+03  0.60228123610E+03  0.00000000000E+00 0.  1.
    9000010    2    1    2  501    0  0.52434340272E+02 -0.69299186804E+01 -0.87678606142E+02  0.98518021389E+03  0.97984444278E+03 0.  0.
        -13    1    3    3    0    0 -0.13945537914E+03 -0.65897168138E+02 -0.50179889940E+03  0.52496893826E+03  0.10566000000E+00 0.  1.
          4    1    3    3  501    0  0.19188971941E+03  0.58967249457E+02  0.41412029326E+03  0.46021127562E+03  0.00000000000E+00 0.  1.
         13    1    1    2    0    0 -0.52434340272E+02  0.69299186804E+01 -0.55231790379E+02  0.76471861787E+02  0.10566000000E+00 0. -1.
<mgrwt>
<rscale>  1 0.47280918E+03</rscale>
<asrwt>0</asrwt>
<pdfrwt beam="1">  1       21 0.70672437E-01 0.98127087E+03</pdfrwt>
<pdfrwt beam="2">  1        4 0.92658651E-01 0.98127087E+03</pdfrwt>
<totfact> 0.69794174E+01</totfact>
</mgrwt>
</event>
<event>
 6    1  0.2415530E-005  0.1272063E+04  0.7818608E-02  0.9201908E-01
          4   -1    0    0  502    0 -0.00000000000E+00  0.00000000000E+00  0.88808213698E+03  0.88808213698E+03  0.00000000000E+00 0.  1.
         21   -1    0    0  501  502  0.00000000000E+00 -0.00000000000E+00 -0.12016436181E+04  0.12016436181E+04  0.00000000000E+00 0. -1.
    9000010    2    1    2  501    0 -0.70122093164E+03  0.16362084794E+03 -0.46413740698E+03  0.13540929000E+04  0.10486474490E+04 0.  0.
        -13    1    3    3    0    0  0.78798284416E+02 -0.22524108887E+03  0.15539544202E+03  0.28476388870E+03  0.10566000000E+00 0.  1.
          4    1    3    3  501    0 -0.78001921606E+03  0.38886193681E+03 -0.61953284900E+03  0.10693290113E+04  0.00000000000E+00 0.  1.
         13    1    1    2    0    0  0.70122093164E+03 -0.16362084794E+03  0.15057592591E+03  0.73563285508E+03  0.10566000000E+00 0. -1.
<mgrwt>
<rscale>  1 0.11033752E+04</rscale>
<asrwt>0</asrwt>
<pdfrwt beam="2">  1       21 0.18486825E+00 0.12720629E+04</pdfrwt>
<pdfrwt beam="1">  1        4 0.13662802E+00 0.12720629E+04</pdfrwt>
<totfact> 0.21121565E+00</totfact>
</mgrwt>
</event>
<event>
 6    1  0.2415530E-005  0.9842911E+03  0.7818608E-02  0.9605037E-01
         21   -1    0    0  501  502  0.00000000000E+00  0.00000000000E+00  0.16864397386E+04  0.16864397386E+04  0.00000000000E+00 0. -1.
          4   -1    0    0  502    0 -0.00000000000E+00 -0.00000000000E+00 -0.34532583782E+03  0.34532583782E+03  0.00000000000E+00 0.  1.
    9000010    2    1    2  501    0 -0.17259877639E+03  0.32494164546E+03  0.47948917430E+03  0.10948693223E+04  0.91293567902E+03 0.  0.
        -13    1    3    3    0    0  0.87225140265E+02 -0.25456010952E+03 -0.42969390817E+02  0.27249853975E+03  0.10566000000E+00 0.  1.
          4    1    3    3  501    0 -0.25982391665E+03  0.57950175498E+03  0.52245856512E+03  0.82237078253E+03  0.00000000000E+00 0.  1.
         13    1    1    2    0    0  0.17259877639E+03 -0.32494164546E+03  0.86162472644E+03  0.93689625410E+03  0.10566000000E+00 0. -1.
<mgrwt>
<rscale>  1 0.76963711E+03</rscale>
<asrwt>0</asrwt>
<pdfrwt beam="1">  1       21 0.25945226E+00 0.98429110E+03</pdfrwt>
<pdfrwt beam="2">  1        4 0.53127053E-01 0.98429110E+03</pdfrwt>
<totfact> 0.64241269E+00</totfact>
</mgrwt>
</event>
<event>
 6    1  0.2415530E-005  0.9720324E+03  0.7818608E-02  0.1006676E+00
          4   -1    0    0  502    0 -0.00000000000E+00  0.00000000000E+00  0.56491157390E+03  0.56491157390E+03  0.00000000000E+00 0.  1.
         21   -1    0    0  501  502  0.00000000000E+00 -0.00000000000E+00 -0.83187900812E+03  0.83187900812E+03  0.00000000000E+00 0.  1.
    9000010    2    1    2  501    0  0.71247104638E+02  0.45866480923E+02 -0.53927479539E+03  0.11116043374E+04  0.96833207839E+03 0.  0.
        -13    1    3    3    0    0 -0.33361837763E+03 -0.28767410047E+03 -0.31259052248E+03  0.54015780646E+03  0.10566000000E+00 0.  1.
          4    1    3    3  501    0  0.40486548227E+03  0.33354058139E+03 -0.22668427291E+03  0.57144653096E+03  0.00000000000E+00 0.  1.
         13    1    1    2    0    0 -0.71247104638E+02 -0.45866480923E+02  0.27230736118E+03  0.28518624460E+03  0.10566000000E+00 0. -1.
<mgrwt>
<rscale>  1 0.52817191E+03</rscale>
<asrwt>0</asrwt>
<pdfrwt beam="2">  1       21 0.12798139E+00 0.97203235E+03</pdfrwt>
<pdfrwt beam="1">  1        4 0.86909473E-01 0.97203235E+03</pdfrwt>
<totfact> 0.18927293E+01</totfact>
</mgrwt>
</event>
<event>
 6    1  0.2415530E-005  0.1052145E+04  0.7818608E-02  0.9535861E-01
          4   -1    0    0  502    0 -0.00000000000E+00  0.00000000000E+00  0.37816600812E+03  0.37816600812E+03  0.00000000000E+00 0.  1.
         21   -1    0    0  501  502  0.00000000000E+00 -0.00000000000E+00 -0.14093717282E+04  0.14093717282E+04  0.00000000000E+00 0.  1.
    9000010    2    1    2  501    0 -0.24000699926E+03  0.29764291722E+03 -0.89605611709E+03  0.13820009412E+04  0.98021190086E+03 0.  0.
        -13    1    3    3    0    0 -0.24505812889E+03 -0.18245499784E+02 -0.10150754326E+04  0.10443967301E+04  0.10566000000E+00 0.  1.
          4    1    3    3  501    0  0.50511296284E+01  0.31588841700E+03  0.11901931548E+03  0.33760421112E+03  0.00000000000E+00 0.  1.
         13    1    1    2    0    0  0.24000699926E+03 -0.29764291722E+03 -0.13514960299E+03  0.40553679514E+03  0.10566000000E+00 0. -1.
<mgrwt>
<rscale>  1 0.81690825E+03</rscale>
<asrwt>0</asrwt>
<pdfrwt beam="2">  1       21 0.21682642E+00 0.10521454E+04</pdfrwt>
<pdfrwt beam="1">  1        4 0.58179386E-01 0.10521454E+04</pdfrwt>
<totfact> 0.98546119E+00</totfact>
</mgrwt>
</event>
<event>
 6    1  0.2415530E-005  0.1005999E+04  0.7818608E-02  0.1019552E+00
          4   -1    0    0  502    0 -0.00000000000E+00  0.00000000000E+00  0.92766035790E+03  0.92766035790E+03  0.00000000000E+00 0.  1.
         21   -1    0    0  501  502  0.00000000000E+00 -0.00000000000E+00 -0.33659887112E+03  0.33659887112E+03  0.00000000000E+00 0.  1.
    9000010    2    1    2  501    0  0.50070185531E+02 -0.11990276857E+02  0.42799532082E+03  0.10932581300E+04  0.10046803243E+04 0.  0.
        -13    1    3    3    0    0  0.45004187676E+03 -0.74074545815E+02 -0.59131415539E+02  0.45991441013E+03  0.10566000000E+00 0.  1.
          4    1    3    3  501    0 -0.39997169123E+03  0.62084268958E+02  0.48712673636E+03  0.63334371988E+03  0.00000000000E+00 0.  1.
         13    1    1    2    0    0 -0.50070185531E+02  0.11990276857E+02  0.16306616595E+03  0.17100109901E+03  0.10566000000E+00 0. -1.
<mgrwt>
<rscale>  1 0.47848707E+03</rscale>
<asrwt>0</asrwt>
<pdfrwt beam="2">  1       21 0.51784442E-01 0.10059987E+04</pdfrwt>
<pdfrwt beam="1">  1        4 0.14271698E+00 0.10059987E+04</pdfrwt>
<totfact> 0.47487526E+01</totfact>
</mgrwt>
</event>
<event>
 6    1  0.2415530E-005  0.1010983E+04  0.7818608E-02  0.9668990E-01
         21   -1    0    0  501  502  0.00000000000E+00  0.00000000000E+00  0.25827065005E+03  0.25827065005E+03  0.00000000000E+00 0.  1.
          4   -1    0    0  502    0 -0.00000000000E+00 -0.00000000000E+00 -0.16122341073E+04  0.16122341073E+04  0.00000000000E+00 0.  1.
    9000010    2    1    2  501    0 -0.18606289574E+03  0.20008360756E+03 -0.11381629695E+04  0.15223342347E+04  0.97336207327E+03 0.  0.
        -13    1    3    3    0    0  0.11443333440E+03  0.43570677362E+03 -0.16983779885E+03  0.48143563400E+03  0.10566000000E+00 0.  1.
          4    1    3    3  501    0 -0.30049623014E+03 -0.23562316606E+03 -0.96832517069E+03  0.10408986007E+04  0.00000000000E+00 0.  1.
         13    1    1    2    0    0  0.18606289574E+03 -0.20008360756E+03 -0.21580048768E+03  0.34817052263E+03  0.10566000000E+00 0. -1.
<mgrwt>
<rscale>  1 0.72893490E+03</rscale>
<asrwt>0</asrwt>
<pdfrwt beam="1">  1       21 0.39733946E-01 0.10109830E+04</pdfrwt>
<pdfrwt beam="2">  1        4 0.24803602E+00 0.10109830E+04</pdfrwt>
<totfact> 0.15926681E+01</totfact>
</mgrwt>
</event>
<event>
 6    1  0.2415530E-005  0.1019598E+04  0.7818608E-02  0.9646279E-01
          4   -1    0    0  502    0 -0.00000000000E+00  0.00000000000E+00  0.32468983235E+03  0.32468983235E+03  0.00000000000E+00 0.  1.
         21   -1    0    0  501  502  0.00000000000E+00 -0.00000000000E+00 -0.13388821931E+04  0.13388821931E+04  0.00000000000E+00 0.  1.
    9000010    2    1    2  501    0 -0.28194958630E+03 -0.56908006440E+02 -0.87705092772E+03  0.13449156679E+04  0.97818491781E+03 0.  0.
        -13    1    3    3    0    0 -0.49924396375E+03  0.29272893935E+03 -0.35069530495E+03  0.67669932419E+03  0.10566000000E+00 0.  1.
          4    1    3    3  501    0  0.21729437745E+03 -0.34963694579E+03 -0.52635562277E+03  0.66821634368E+03  0.00000000000E+00 0.  1.
         13    1    1    2    0    0  0.28194958630E+03  0.56908006440E+02 -0.13714143301E+03  0.31865635758E+03  0.10566000000E+00 0. -1.
<mgrwt>
<rscale>  1 0.74307433E+03</rscale>
<asrwt>0</asrwt>
<pdfrwt beam="2">  1       21 0.20598188E+00 0.10195979E+04</pdfrwt>
<pdfrwt beam="1">  1        4 0.49952282E-01 0.10195979E+04</pdfrwt>
<totfact> 0.16219265E+01</totfact>
</mgrwt>
</event>
<event>
 6    1  0.2415530E-005  0.1084017E+04  0.7818608E-02  0.9477950E-01
          4   -1    0    0  502    0 -0.00000000000E+00  0.00000000000E+00  0.59013741685E+03  0.59013741685E+03  0.00000000000E+00 0.  1.
         21   -1    0    0  501  502  0.00000000000E+00 -0.00000000000E+00 -0.10948795359E+04  0.10948795359E+04  0.00000000000E+00 0.  1.
    9000010    2    1    2  501    0  0.41011852712E+03 -0.12245807373E+03 -0.61053605510E+03  0.12441251812E+04  0.99594176834E+03 0.  0.
        -13    1    3    3    0    0  0.11687990140E+03  0.14185700940E+03 -0.78954387085E+03  0.81065643625E+03  0.10566000000E+00 0.  1.
          4    1    3    3  501    0  0.29323862573E+03 -0.26431508314E+03  0.17900781575E+03  0.43346874500E+03  0.00000000000E+00 0.  1.
         13    1    1    2    0    0 -0.41011852712E+03  0.12245807373E+03  0.10579393605E+03  0.44089177150E+03  0.10566000000E+00 0. -1.
<mgrwt>
<rscale>  1 0.85929203E+03</rscale>
<asrwt>0</asrwt>
<pdfrwt beam="2">  1       21 0.16844300E+00 0.10840172E+04</pdfrwt>
<pdfrwt beam="1">  1        4 0.90790372E-01 0.10840172E+04</pdfrwt>
<totfact> 0.78720487E+00</totfact>
</mgrwt>
</event>
<event>
 6    1  0.2415530E-005  0.1023122E+04  0.7818608E-02  0.9746100E-01
         21   -1    0    0  501  502  0.00000000000E+00  0.00000000000E+00  0.43097547622E+03  0.43097547622E+03  0.00000000000E+00 0.  1.
          4   -1    0    0  502    0 -0.00000000000E+00 -0.00000000000E+00 -0.10123704073E+04  0.10123704073E+04  0.00000000000E+00 0.  1.
    9000010    2    1    2  501    0 -0.10714430216E+03  0.17316371959E+03 -0.66819007366E+03  0.12219887440E+04  0.10026529512E+04 0.  0.
        -13    1    3    3    0    0 -0.48745585613E+03 -0.12828786060E+03 -0.18435406119E+03  0.53670980789E+03  0.10566000000E+00 0.  1.
          4    1    3    3  501    0  0.38031155396E+03  0.30145158019E+03 -0.48383601247E+03  0.68527893608E+03  0.00000000000E+00 0.  1.
         13    1    1    2    0    0  0.10714430216E+03 -0.17316371959E+03  0.86795142614E+02  0.22135713951E+03  0.10566000000E+00 0. -1.
<mgrwt>
<rscale>  1 0.68337106E+03</rscale>
<asrwt>0</asrwt>
<pdfrwt beam="1">  1       21 0.66303920E-01 0.10231219E+04</pdfrwt>
<pdfrwt beam="2">  1        4 0.15574929E+00 0.10231219E+04</pdfrwt>
<totfact> 0.21667198E+01</totfact>
</mgrwt>
</event>
<event>
 6    1  0.2415530E-005  0.1015168E+04  0.7818608E-02  0.9650315E-01
          4   -1    0    0  502    0 -0.00000000000E+00  0.00000000000E+00  0.78078207898E+03  0.78078207898E+03  0.00000000000E+00 0.  1.
         21   -1    0    0  501  502  0.00000000000E+00 -0.00000000000E+00 -0.70503736628E+03  0.70503736628E+03  0.00000000000E+00 0.  1.
    9000010    2    1    2  501    0  0.26771221924E+03 -0.10469749739E+03 -0.25591072324E+03  0.10469268187E+04  0.97361905649E+03 0.  0.
        -13    1    3    3    0    0 -0.25297457758E+03 -0.31292781012E+03 -0.27236697078E+03  0.48590506190E+03  0.10566000000E+00 0.  1.
          4    1    3    3  501    0  0.52068679682E+03  0.20823031272E+03  0.16456247537E+02  0.56102175680E+03  0.00000000000E+00 0.  1.
         13    1    1    2    0    0 -0.26771221924E+03  0.10469749739E+03  0.33165543594E+03  0.43889262655E+03  0.10566000000E+00 0. -1.
<mgrwt>
<rscale>  1 0.74053653E+03</rscale>
<asrwt>0</asrwt>
<pdfrwt beam="2">  1       21 0.10846729E+00 0.10151677E+04</pdfrwt>
<pdfrwt beam="1">  1        4 0.12012032E+00 0.10151677E+04</pdfrwt>
<totfact> 0.13188022E+01</totfact>
</mgrwt>
</event>
<event>
 6    1  0.2415530E-005  0.1059731E+04  0.7818608E-02  0.9570889E-01
          4   -1    0    0  502    0 -0.00000000000E+00  0.00000000000E+00  0.15448540692E+04  0.15448540692E+04  0.00000000000E+00 0.  1.
         21   -1    0    0  501  502  0.00000000000E+00 -0.00000000000E+00 -0.41720993962E+03  0.41720993962E+03  0.00000000000E+00 0.  1.
    9000010    2    1    2  501    0 -0.24305939412E+03 -0.22541876355E+03  0.34888272089E+03  0.11156829889E+04  0.10065475105E+04 0.  0.
        -13    1    3    3    0    0 -0.36112280630E+03 -0.31563787777E+03  0.63351936093E+03  0.79459659133E+03  0.10566000000E+00 0.  1.
          4    1    3    3  501    0  0.11806341218E+03  0.90219114225E+02 -0.28463664004E+03  0.32108639759E+03  0.00000000000E+00 0.  1.
         13    1    1    2    0    0  0.24305939412E+03  0.22541876355E+03  0.77876140871E+03  0.84638101992E+03  0.10566000000E+00 0. -1.
<mgrwt>
<rscale>  1 0.79253268E+03</rscale>
<asrwt>0</asrwt>
<pdfrwt beam="2">  1       21 0.64186145E-01 0.10597308E+04</pdfrwt>
<pdfrwt beam="1">  1        4 0.23766985E+00 0.10597308E+04</pdfrwt>
<totfact> 0.64892073E+00</totfact>
</mgrwt>
</event>
<event>
 6    1  0.2415530E-005  0.1165871E+04  0.7818608E-02  0.9318609E-01
          4   -1    0    0  502    0 -0.00000000000E+00  0.00000000000E+00  0.42481691179E+03  0.42481691179E+03  0.00000000000E+00 0.  1.
         21   -1    0    0  501  502  0.00000000000E+00 -0.00000000000E+00 -0.21515828831E+04  0.21515828831E+04  0.00000000000E+00 0.  1.
    9000010    2    1    2  501    0 -0.56890957741E+03 -0.21536952910E+03 -0.15564747500E+04  0.19447026740E+04  0.99459172607E+03 0.  0.
        -13    1    3    3    0    0  0.28518863488E+03 -0.74937960265E+02 -0.31729047306E+03  0.43315298777E+03  0.10566000000E+00 0.  1.
          4    1    3    3  501    0 -0.85409821229E+03 -0.14043156883E+03 -0.12391842770E+04  0.15115496863E+04  0.00000000000E+00 0.  1.
         13    1    1    2    0    0  0.56890957741E+03  0.21536952910E+03 -0.17029122134E+03  0.63169712091E+03  0.10566000000E+00 0. -1.
<mgrwt>
<rscale>  1 0.99087583E+03</rscale>
<asrwt>0</asrwt>
<pdfrwt beam="2">  1       21 0.33101275E+00 0.11658709E+04</pdfrwt>
<pdfrwt beam="1">  1        4 0.65356448E-01 0.11658709E+04</pdfrwt>
<totfact> 0.14166768E+00</totfact>
</mgrwt>
</event>
<event>
 6    1  0.2415530E-005  0.1061616E+04  0.7818608E-02  0.9546411E-01
         21   -1    0    0  501  502  0.00000000000E+00  0.00000000000E+00  0.47540285921E+03  0.47540285921E+03  0.00000000000E+00 0.  1.
          4   -1    0    0  502    0 -0.00000000000E+00 -0.00000000000E+00 -0.14537216990E+04  0.14537216990E+04  0.00000000000E+00 0.  1.
    9000010    2    1    2  501    0 -0.17060701024E+03  0.31568818772E+03 -0.21147293331E+03  0.10824732491E+04  0.99913049680E+03 0.  0.
        -13    1    3    3    0    0  0.79581866882E+02  0.12516610323E+03  0.38257595077E+03  0.41032206400E+03  0.10566000000E+00 0.  1.
          4    1    3    3  501    0 -0.25018887712E+03  0.19052208450E+03 -0.59404888408E+03  0.67215118507E+03  0.00000000000E+00 0.  1.
         13    1    1    2    0    0  0.17060701024E+03 -0.31568818772E+03 -0.76684590649E+03  0.84665130915E+03  0.10566000000E+00 0. -1.
<mgrwt>
<rscale>  1 0.80946954E+03</rscale>
<asrwt>0</asrwt>
<pdfrwt beam="1">  1       21 0.73138902E-01 0.10616155E+04</pdfrwt>
<pdfrwt beam="2">  1        4 0.22364949E+00 0.10616155E+04</pdfrwt>
<totfact> 0.59002589E+00</totfact>
</mgrwt>
</event>
<event>
 6    1  0.2415530E-005  0.1017527E+04  0.7818608E-02  0.9765623E-01
         21   -1    0    0  501  502  0.00000000000E+00  0.00000000000E+00  0.78864861390E+03  0.78864861390E+03  0.00000000000E+00 0.  1.
          4   -1    0    0  502    0 -0.00000000000E+00 -0.00000000000E+00 -0.46873711191E+03  0.46873711191E+03  0.00000000000E+00 0.  1.
    9000010    2    1    2  501    0  0.39757101532E+02  0.18992126455E+03  0.30739292647E+03  0.10629443728E+04  0.99885415084E+03 0.  0.
        -13    1    3    3    0    0  0.20154954570E+03 -0.35031983771E+03 -0.30852789200E+02  0.40533703733E+03  0.10566000000E+00 0.  1.
          4    1    3    3  501    0 -0.16179244417E+03  0.54024110225E+03  0.33824571567E+03  0.65760733551E+03  0.00000000000E+00 0.  1.
         13    1    1    2    0    0 -0.39757101532E+02 -0.18992126455E+03  0.12518575524E+02  0.19444135297E+03  0.10566000000E+00 0. -1.
<mgrwt>
<rscale>  1 0.67240508E+03</rscale>
<asrwt>0</asrwt>
<pdfrwt beam="1">  1       21 0.12133056E+00 0.10175266E+04</pdfrwt>
<pdfrwt beam="2">  1        4 0.72113402E-01 0.10175266E+04</pdfrwt>
<totfact> 0.33254315E+01</totfact>
</mgrwt>
</event>
<event>
 6    1  0.2415530E-005  0.8561889E+03  0.7818608E-02  0.1026781E+00
         21   -1    0    0  501  502  0.00000000000E+00  0.00000000000E+00  0.81081278382E+03  0.81081278382E+03  0.00000000000E+00 0.  1.
          4   -1    0    0  502    0 -0.00000000000E+00 -0.00000000000E+00 -0.26306609990E+03  0.26306609990E+03  0.00000000000E+00 0.  1.
    9000010    2    1    2  501    0  0.19115634511E+02 -0.64418393914E+02  0.51483671896E+03  0.99905767072E+03  0.85354803337E+03 0.  0.
        -13    1    3    3    0    0 -0.34283718371E+03  0.69656353809E+02 -0.70848321843E+01  0.34991362958E+03  0.10566000000E+00 0.  1.
          4    1    3    3  501    0  0.36195281822E+03 -0.13407474772E+03  0.52192155115E+03  0.64914404114E+03  0.00000000000E+00 0.  1.
         13    1    1    2    0    0 -0.19115634511E+02  0.64418393914E+02  0.32909964952E+02  0.74821212997E+02  0.10566000000E+00 0. -1.
<mgrwt>
<rscale>  1 0.45317003E+03</rscale>
<asrwt>0</asrwt>
<pdfrwt beam="1">  1       21 0.12474043E+00 0.85618887E+03</pdfrwt>
<pdfrwt beam="2">  1        4 0.40471708E-01 0.85618887E+03</pdfrwt>
<totfact> 0.10799387E+02</totfact>
</mgrwt>
</event>
<event>
 6    1  0.2415530E-005  0.1059037E+04  0.7818608E-02  0.9543434E-01
          4   -1    0    0  502    0 -0.00000000000E+00  0.00000000000E+00  0.33466009490E+03  0.33466009490E+03  0.00000000000E+00 0.  1.
         21   -1    0    0  501  502  0.00000000000E+00 -0.00000000000E+00 -0.15154381911E+04  0.15154381911E+04  0.00000000000E+00 0.  1.
    9000010    2    1    2  501    0 -0.35402669477E+03  0.89704746801E+02 -0.88454382715E+03  0.13798466560E+04  0.99407100837E+03 0.  0.
        -13    1    3    3    0    0 -0.65785530627E+03  0.19328573008E+03 -0.38585268434E+03  0.78677524276E+03  0.10566000000E+00 0.  1.
          4    1    3    3  501    0  0.30382861151E+03 -0.10358098328E+03 -0.49869114280E+03  0.59307141322E+03  0.00000000000E+00 0.  1.
         13    1    1    2    0    0  0.35402669477E+03 -0.89704746801E+02 -0.29623426907E+03  0.47025163003E+03  0.10566000000E+00 0. -1.
<mgrwt>
<rscale>  1 0.81155955E+03</rscale>
<asrwt>0</asrwt>
<pdfrwt beam="2">  1       21 0.23314433E+00 0.10590368E+04</pdfrwt>
<pdfrwt beam="1">  1        4 0.51486169E-01 0.10590368E+04</pdfrwt>
<totfact> 0.99977922E+00</totfact>
</mgrwt>
</event>
<event>
 6    1  0.2415530E-005  0.1038254E+04  0.7818608E-02  0.9483366E-01
          4   -1    0    0  502    0 -0.00000000000E+00  0.00000000000E+00  0.12878496266E+04  0.12878496266E+04  0.00000000000E+00 0.  1.
         21   -1    0    0  501  502  0.00000000000E+00 -0.00000000000E+00 -0.49080261706E+03  0.49080261706E+03  0.00000000000E+00 0.  1.
    9000010    2    1    2  501    0 -0.21186774607E+02 -0.47748449682E+03  0.28171440800E+03  0.10757951988E+04  0.92170059018E+03 0.  0.
        -13    1    3    3    0    0  0.27187589229E+03 -0.95454892512E+02 -0.23330716601E+03  0.37075649986E+03  0.10566000000E+00 0.  1.
          4    1    3    3  501    0 -0.29306266690E+03 -0.38202960430E+03  0.51502157401E+03  0.70503869893E+03  0.00000000000E+00 0.  1.
         13    1    1    2    0    0  0.21186774607E+02  0.47748449682E+03  0.51533260151E+03  0.70285704482E+03  0.10566000000E+00 0. -1.
<mgrwt>
<rscale>  1 0.85521331E+03</rscale>
<asrwt>0</asrwt>
<pdfrwt beam="2">  1       21 0.75508095E-01 0.10382544E+04</pdfrwt>
<pdfrwt beam="1">  1        4 0.19813071E+00 0.10382544E+04</pdfrwt>
<totfact> 0.80463220E+00</totfact>
</mgrwt>
</event>
<event>
 6    1  0.2415530E-005  0.1028991E+04  0.7818608E-02  0.9700264E-01
         21   -1    0    0  501  502  0.00000000000E+00  0.00000000000E+00  0.30570856446E+04  0.30570856446E+04  0.00000000000E+00 0.  1.
          4   -1    0    0  502    0 -0.00000000000E+00 -0.00000000000E+00 -0.13278888918E+03  0.13278888918E+03  0.00000000000E+00 0.  1.
    9000010    2    1    2  501    0  0.10109666662E+03 -0.21020433324E+03  0.25373980144E+04  0.27381035246E+04  0.10022054832E+04 0.  0.
        -13    1    3    3    0    0  0.51476676920E+03  0.34569531429E+02  0.16514583977E+04  0.17301718787E+04  0.10566000000E+00 0.  1.
          4    1    3    3  501    0 -0.41367010258E+03 -0.24477386467E+03  0.88593961664E+03  0.10079316460E+04  0.00000000000E+00 0.  1.
         13    1    1    2    0    0 -0.10109666662E+03  0.21020433324E+03  0.38689874103E+03  0.45177100913E+03  0.10566000000E+00 0. -1.
<mgrwt>
<rscale>  1 0.71001071E+03</rscale>
<asrwt>0</asrwt>
<pdfrwt beam="1">  1       21 0.47032082E+00 0.10289909E+04</pdfrwt>
<pdfrwt beam="2">  1        4 0.20429062E-01 0.10289909E+04</pdfrwt>
<totfact> 0.18425108E+00</totfact>
</mgrwt>
</event>
<event>
 6    1  0.2415530E-005  0.9897953E+03  0.7818608E-02  0.1011630E+00
         21   -1    0    0  501  502  0.00000000000E+00  0.00000000000E+00  0.25682612632E+03  0.25682612632E+03  0.00000000000E+00 0.  1.
          4   -1    0    0  502    0 -0.00000000000E+00 -0.00000000000E+00 -0.11767299473E+04  0.11767299473E+04  0.00000000000E+00 0.  1.
    9000010    2    1    2  501    0 -0.59009296309E+02  0.35474803404E+02 -0.72518841792E+03  0.12270260320E+04  0.98739763168E+03 0.  0.
        -13    1    3    3    0    0 -0.12085206927E+03 -0.43874680814E+03 -0.15038737359E+03  0.47929151631E+03  0.10566000000E+00 0.  1.
          4    1    3    3  501    0  0.61842772962E+02  0.47422161155E+03 -0.57480104433E+03  0.74773451571E+03  0.00000000000E+00 0.  1.
         13    1    1    2    0    0  0.59009296309E+02 -0.35474803404E+02 -0.19471540306E+03  0.20653004160E+03  0.10566000000E+00 0. -1.
<mgrwt>
<rscale>  1 0.50832076E+03</rscale>
<asrwt>0</asrwt>
<pdfrwt beam="1">  1       21 0.39511711E-01 0.98979525E+03</pdfrwt>
<pdfrwt beam="2">  1        4 0.18103538E+00 0.98979525E+03</pdfrwt>
<totfact> 0.43889625E+01</totfact>
</mgrwt>
</event>
<event>
 6    1  0.2415530E-005  0.1006824E+04  0.7818608E-02  0.9786931E-01
         21   -1    0    0  501  502  0.00000000000E+00  0.00000000000E+00  0.63447422804E+03  0.63447422804E+03  0.00000000000E+00 0.  1.
          4   -1    0    0  502    0 -0.00000000000E+00 -0.00000000000E+00 -0.62874074174E+03  0.62874074174E+03  0.00000000000E+00 0.  1.
    9000010    2    1    2  501    0  0.11562054317E+03  0.14657790997E+03  0.16197768956E+03  0.10197699947E+04  0.98936387463E+03 0.  0.
        -13    1    3    3    0    0  0.51384766622E+03  0.36334634089E+02  0.28490353587E+03  0.58866770391E+03  0.10566000000E+00 0.  1.
          4    1    3    3  501    0 -0.39822712305E+03  0.11024327588E+03 -0.12292584631E+03  0.43110229076E+03  0.00000000000E+00 0.  1.
         13    1    1    2    0    0 -0.11562054317E+03 -0.14657790997E+03 -0.15624420326E+03  0.24344497511E+03  0.10566000000E+00 0. -1.
<mgrwt>
<rscale>  1 0.66068650E+03</rscale>
<asrwt>0</asrwt>
<pdfrwt beam="1">  1       21 0.97611419E-01 0.10068238E+04</pdfrwt>
<pdfrwt beam="2">  1        4 0.96729345E-01 0.10068238E+04</pdfrwt>
<totfact> 0.29216304E+01</totfact>
</mgrwt>
</event>
<event>
 6    1  0.2415530E-005  0.1022996E+04  0.7818608E-02  0.9864252E-01
         21   -1    0    0  501  502  0.00000000000E+00  0.00000000000E+00  0.16898070198E+03  0.16898070198E+03  0.00000000000E+00 0.  1.
          4   -1    0    0  502    0 -0.00000000000E+00 -0.00000000000E+00 -0.20268698733E+04  0.20268698733E+04  0.00000000000E+00 0.  1.
    9000010    2    1    2  501    0 -0.13730671993E+03  0.16106076980E+02 -0.15354980577E+04  0.18450677616E+04  0.10136114733E+04 0.  0.
        -13    1    3    3    0    0 -0.51723603580E+02 -0.39397176738E+03 -0.19888808791E+03  0.44434847511E+03  0.10566000000E+00 0.  1.
          4    1    3    3  501    0 -0.85583116349E+02  0.41007784436E+03 -0.13366099698E+04  0.14007192865E+04  0.00000000000E+00 0.  1.
         13    1    1    2    0    0  0.13730671993E+03 -0.16106076980E+02 -0.32239111360E+03  0.35078281364E+03  0.10566000000E+00 0. -1.
<mgrwt>
<rscale>  1 0.62025501E+03</rscale>
<asrwt>0</asrwt>
<pdfrwt beam="1">  1       21 0.25997032E-01 0.10229960E+04</pdfrwt>
<pdfrwt beam="2">  1        4 0.31182612E+00 0.10229960E+04</pdfrwt>
<totfact> 0.15226803E+01</totfact>
</mgrwt>
</event>
<event>
 6    1  0.2415530E-005  0.1034118E+04  0.7818608E-02  0.9955142E-01
          4   -1    0    0  502    0 -0.00000000000E+00  0.00000000000E+00  0.71518191848E+03  0.71518191848E+03  0.00000000000E+00 0.  1.
         21   -1    0    0  501  502  0.00000000000E+00 -0.00000000000E+00 -0.45373857873E+03  0.45373857873E+03  0.00000000000E+00 0.  1.
    9000010    2    1    2  501    0  0.68671235877E+02  0.72641988716E+02  0.26942567761E+03  0.10686392625E+04  0.10292750266E+04 0.  0.
        -13    1    3    3    0    0  0.47923533966E+03 -0.16433016131E+03  0.30820564138E+03  0.59301065862E+03  0.10566000000E+00 0.  1.
          4    1    3    3  501    0 -0.41056410378E+03  0.23697215003E+03 -0.38779963773E+02  0.47562860384E+03  0.00000000000E+00 0.  1.
         13    1    1    2    0    0 -0.68671235877E+02 -0.72641988716E+02 -0.79823378623E+01  0.10028123475E+03  0.10566000000E+00 0. -1.
<mgrwt>
<rscale>  1 0.57661698E+03</rscale>
<asrwt>0</asrwt>
<pdfrwt beam="2">  1       21 0.69805935E-01 0.10341178E+04</pdfrwt>
<pdfrwt beam="1">  1        4 0.11002799E+00 0.10341178E+04</pdfrwt>
<totfact> 0.47203897E+01</totfact>
</mgrwt>
</event>
<event>
 6    1  0.2415530E-005  0.1056027E+04  0.7818608E-02  0.9589081E-01
         21   -1    0    0  501  502  0.00000000000E+00  0.00000000000E+00  0.12841411039E+04  0.12841411039E+04  0.00000000000E+00 0.  1.
          4   -1    0    0  502    0 -0.00000000000E+00 -0.00000000000E+00 -0.39765898873E+03  0.39765898873E+03  0.00000000000E+00 0.  1.
    9000010    2    1    2  501    0  0.25004240473E+03  0.19105471136E+03  0.86731318988E+03  0.13665373994E+04  0.10080521751E+04 0.  0.
        -13    1    3    3    0    0  0.15253264429E+03  0.29032920850E+03  0.10708693002E+04  0.11199635379E+04  0.10566000000E+00 0.  1.
          4    1    3    3  501    0  0.97509760438E+02 -0.99274497141E+02 -0.20355611030E+03  0.24657386156E+03  0.00000000000E+00 0.  1.
         13    1    1    2    0    0 -0.25004240473E+03 -0.19105471136E+03  0.19168925325E+02  0.31526269325E+03  0.10566000000E+00 0. -1.
<mgrwt>
<rscale>  1 0.78023106E+03</rscale>
<asrwt>0</asrwt>
<pdfrwt beam="1">  1       21 0.19756017E+00 0.10560267E+04</pdfrwt>
<pdfrwt beam="2">  1        4 0.61178307E-01 0.10560267E+04</pdfrwt>
<totfact> 0.11930323E+01</totfact>
</mgrwt>
</event>
<event>
 6    1  0.2415530E-005  0.1140711E+04  0.7818608E-02  0.9374280E-01
          4   -1    0    0  502    0 -0.00000000000E+00  0.00000000000E+00  0.24446027099E+04  0.24446027099E+04  0.00000000000E+00 0.  1.
         21   -1    0    0  501  502  0.00000000000E+00 -0.00000000000E+00 -0.29032301353E+03  0.29032301353E+03  0.00000000000E+00 0.  1.
    9000010    2    1    2  501    0  0.53098451298E+03 -0.46305893636E+01  0.16230463795E+04  0.19838099910E+04  0.10095823567E+04 0.  0.
        -13    1    3    3    0    0  0.25905307501E+03  0.50079552713E+02  0.16800419556E+04  0.17006344231E+04  0.10566000000E+00 0.  1.
          4    1    3    3  501    0  0.27193143797E+03 -0.54710142076E+02 -0.56995576047E+02  0.28317556797E+03  0.00000000000E+00 0.  1.
         13    1    1    2    0    0 -0.53098451298E+03  0.46305893636E+01  0.53123331688E+03  0.75111573243E+03  0.10566000000E+00 0. -1.
<mgrwt>
<rscale>  1 0.94222905E+03</rscale>
<asrwt>0</asrwt>
<pdfrwt beam="2">  1       21 0.44665080E-01 0.11407114E+04</pdfrwt>
<pdfrwt beam="1">  1        4 0.37609271E+00 0.11407114E+04</pdfrwt>
<totfact> 0.18977980E+00</totfact>
</mgrwt>
</event>
<event>
 6    1  0.2415530E-005  0.1017420E+04  0.7818608E-02  0.9791629E-01
          4   -1    0    0  502    0 -0.00000000000E+00  0.00000000000E+00  0.33695320528E+03  0.33695320528E+03  0.00000000000E+00 0.  1.
         21   -1    0    0  501  502  0.00000000000E+00 -0.00000000000E+00 -0.10621732523E+04  0.10621732523E+04  0.00000000000E+00 0.  1.
    9000010    2    1    2  501    0 -0.10782338735E+03 -0.14180379728E+03 -0.59702160234E+03  0.11796519666E+04  0.10017034336E+04 0.  0.
        -13    1    3    3    0    0  0.28300694635E+03  0.19798803624E+03 -0.56318811394E+03  0.66066107576E+03  0.10566000000E+00 0.  1.
          4    1    3    3  501    0 -0.39083033371E+03 -0.33979183352E+03 -0.33833488403E+02  0.51899089087E+03  0.00000000000E+00 0.  1.
         13    1    1    2    0    0  0.10782338735E+03  0.14180379728E+03 -0.12819844464E+03  0.21947449090E+03  0.10566000000E+00 0. -1.
<mgrwt>
<rscale>  1 0.65813699E+03</rscale>
<asrwt>0</asrwt>
<pdfrwt beam="2">  1       21 0.16341127E+00 0.10174203E+04</pdfrwt>
<pdfrwt beam="1">  1        4 0.51838954E-01 0.10174203E+04</pdfrwt>
<totfact> 0.30321170E+01</totfact>
</mgrwt>
</event>
<event>
 6    1  0.2415530E-005  0.1012637E+04  0.7818608E-02  0.9916879E-01
          4   -1    0    0  502    0 -0.00000000000E+00  0.00000000000E+00  0.66747020161E+03  0.66747020161E+03  0.00000000000E+00 0.  1.
         21   -1    0    0  501  502  0.00000000000E+00 -0.00000000000E+00 -0.62411976181E+03  0.62411976181E+03  0.00000000000E+00 0.  1.
    9000010    2    1    2  501    0  0.76911271686E+02  0.92497521558E+02 -0.18883325979E+03  0.10300934688E+04  0.10054667668E+04 0.  0.
        -13    1    3    3    0    0  0.38560103312E+03 -0.28827531159E+03 -0.23871967488E+03  0.53738059730E+03  0.10566000000E+00 0.  1.
          4    1    3    3  501    0 -0.30868976144E+03  0.38077283315E+03  0.49886415095E+02  0.49271287145E+03  0.00000000000E+00 0.  1.
         13    1    1    2    0    0 -0.76911271686E+02 -0.92497521558E+02  0.23218369959E+03  0.26149649467E+03  0.10566000000E+00 0. -1.
<mgrwt>
<rscale>  1 0.59450204E+03</rscale>
<asrwt>0</asrwt>
<pdfrwt beam="2">  1       21 0.96018424E-01 0.10126374E+04</pdfrwt>
<pdfrwt beam="1">  1        4 0.10268772E+00 0.10126374E+04</pdfrwt>
<totfact> 0.26324364E+01</totfact>
</mgrwt>
</event>
<event>
 6    1  0.2415530E-005  0.1066833E+04  0.7818608E-02  0.9513982E-01
          4   -1    0    0  502    0 -0.00000000000E+00  0.00000000000E+00  0.85285691681E+03  0.85285691681E+03  0.00000000000E+00 0.  1.
         21   -1    0    0  501  502  0.00000000000E+00 -0.00000000000E+00 -0.64898742502E+03  0.64898742502E+03  0.00000000000E+00 0.  1.
    9000010    2    1    2  501    0  0.34496265390E+03 -0.19405106570E+03  0.24024457145E+02  0.10671038487E+04  0.99069591742E+03 0.  0.
        -13    1    3    3    0    0 -0.64342114886E+02 -0.49107231743E+03  0.19643550457E+03  0.53280282217E+03  0.10566000000E+00 0.  1.
          4    1    3    3  501    0  0.40930476878E+03  0.29702125173E+03 -0.17241104743E+03  0.53430102658E+03  0.00000000000E+00 0.  1.
         13    1    1    2    0    0 -0.34496265390E+03  0.19405106570E+03  0.17984503464E+03  0.43474049309E+03  0.10566000000E+00 0. -1.
<mgrwt>
<rscale>  1 0.83260785E+03</rscale>
<asrwt>0</asrwt>
<pdfrwt beam="2">  1       21 0.99844219E-01 0.10668334E+04</pdfrwt>
<pdfrwt beam="1">  1        4 0.13120876E+00 0.10668334E+04</pdfrwt>
<totfact> 0.12891888E+01</totfact>
</mgrwt>
</event>
<event>
 6    1  0.2415530E-005  0.9750281E+03  0.7818608E-02  0.9989381E-01
         21   -1    0    0  501  502  0.00000000000E+00  0.00000000000E+00  0.36643146271E+03  0.36643146271E+03  0.00000000000E+00 0.  1.
          4   -1    0    0  502    0 -0.00000000000E+00 -0.00000000000E+00 -0.81839012516E+03  0.81839012516E+03  0.00000000000E+00 0.  1.
    9000010    2    1    2  501    0 -0.10600006192E+03  0.14562341827E+02 -0.45885722998E+03  0.10776036961E+04  0.96913966658E+03 0.  0.
        -13    1    3    3    0    0  0.25342850992E+03 -0.31776371533E+03  0.29482627984E+00  0.40644788905E+03  0.10566000000E+00 0.  1.
          4    1    3    3  501    0 -0.35942857184E+03  0.33232605716E+03 -0.45915205626E+03  0.67115580702E+03  0.00000000000E+00 0.  1.
         13    1    1    2    0    0  0.10600006192E+03 -0.14562341827E+02  0.68985675354E+01  0.10721789181E+03  0.10566000000E+00 0. -1.
<mgrwt>
<rscale>  1 0.56118300E+03</rscale>
<asrwt>0</asrwt>
<pdfrwt beam="1">  1       21 0.56374072E-01 0.97502809E+03</pdfrwt>
<pdfrwt beam="2">  1        4 0.12590617E+00 0.97502809E+03</pdfrwt>
<totfact> 0.54708650E+01</totfact>
</mgrwt>
</event>
<event>
 6    1  0.2415530E-005  0.1000258E+04  0.7818608E-02  0.9817476E-01
          4   -1    0    0  502    0 -0.00000000000E+00  0.00000000000E+00  0.75060334088E+03  0.75060334088E+03  0.00000000000E+00 0.  1.
         21   -1    0    0  501  502  0.00000000000E+00 -0.00000000000E+00 -0.60561577876E+03  0.60561577876E+03  0.00000000000E+00 0.  1.
    9000010    2    1    2  501    0 -0.67970570515E+02  0.15824557492E+03 -0.15314684639E+03  0.10119143170E+04  0.98531972876E+03 0.  0.
        -13    1    3    3    0    0 -0.10032997251E+03  0.49561970582E+03  0.17992073610E+03  0.53672756462E+03  0.10566000000E+00 0.  1.
          4    1    3    3  501    0  0.32359401998E+02 -0.33737413090E+03 -0.33306758249E+03  0.47518675235E+03  0.00000000000E+00 0.  1.
         13    1    1    2    0    0  0.67970570515E+02 -0.15824557492E+03  0.29813440851E+03  0.34430480267E+03  0.10566000000E+00 0. -1.
<mgrwt>
<rscale>  1 0.64433032E+03</rscale>
<asrwt>0</asrwt>
<pdfrwt beam="2">  1       21 0.93171659E-01 0.10002583E+04</pdfrwt>
<pdfrwt beam="1">  1        4 0.11547744E+00 0.10002583E+04</pdfrwt>
<totfact> 0.21258750E+01</totfact>
</mgrwt>
</event>
<event>
 6    1  0.2415530E-005  0.1090471E+04  0.7818608E-02  0.9466308E-01
         21   -1    0    0  501  502  0.00000000000E+00  0.00000000000E+00  0.10089294657E+04  0.10089294657E+04  0.00000000000E+00 0.  1.
          4   -1    0    0  502    0 -0.00000000000E+00 -0.00000000000E+00 -0.60281365090E+03  0.60281365090E+03  0.00000000000E+00 0.  1.
    9000010    2    1    2  501    0 -0.42791580829E+03 -0.93650119722E+02  0.43202705953E+03  0.11729337187E+04  0.99862097131E+03 0.  0.
        -13    1    3    3    0    0 -0.61951435877E+02  0.35217647860E+03 -0.11737726232E+03  0.37635579624E+03  0.10566000000E+00 0.  1.
          4    1    3    3  501    0 -0.36596437241E+03 -0.44582659833E+03  0.54940432186E+03  0.79657792244E+03  0.00000000000E+00 0.  1.
         13    1    1    2    0    0  0.42791580829E+03  0.93650119722E+02 -0.25911244765E+02  0.43880939789E+03  0.10566000000E+00 0. -1.
<mgrwt>
<rscale>  1 0.86814013E+03</rscale>
<asrwt>0</asrwt>
<pdfrwt beam="1">  1       21 0.15521992E+00 0.10904706E+04</pdfrwt>
<pdfrwt beam="2">  1        4 0.92740562E-01 0.10904706E+04</pdfrwt>
<totfact> 0.94667968E+00</totfact>
</mgrwt>
</event>
<event>
 6    1  0.2415530E-005  0.1084152E+04  0.7818608E-02  0.9429602E-01
         21   -1    0    0  501  502  0.00000000000E+00  0.00000000000E+00  0.35611343336E+03  0.35611343336E+03  0.00000000000E+00 0.  1.
          4   -1    0    0  502    0 -0.00000000000E+00 -0.00000000000E+00 -0.33166640584E+04  0.33166640584E+04  0.00000000000E+00 0.  1.
    9000010    2    1    2  501    0  0.46111457034E+03 -0.21212887276E+03 -0.56209278761E+03  0.12212014039E+04  0.95799752677E+03 0.  0.
        -13    1    3    3    0    0  0.40491817955E+02  0.13529665812E+03 -0.65302550195E+03  0.66812206249E+03  0.10566000000E+00 0.  1.
          4    1    3    3  501    0  0.42062275238E+03 -0.34742553087E+03  0.90932714343E+02  0.55307934138E+03  0.00000000000E+00 0.  1.
         13    1    1    2    0    0 -0.46111457034E+03  0.21212887276E+03 -0.23984578374E+04  0.24515760879E+04  0.10566000000E+00 0. -1.
<mgrwt>
<rscale>  1 0.89679063E+03</rscale>
<asrwt>0</asrwt>
<pdfrwt beam="1">  1       21 0.54786681E-01 0.10841515E+04</pdfrwt>
<pdfrwt beam="2">  1        4 0.51025601E+00 0.10841515E+04</pdfrwt>
<totfact> 0.12515490E-01</totfact>
</mgrwt>
</event>
<event>
 6    1  0.2415530E-005  0.1054155E+04  0.7818608E-02  0.9566008E-01
         21   -1    0    0  501  502  0.00000000000E+00  0.00000000000E+00  0.67020164542E+03  0.67020164542E+03  0.00000000000E+00 0.  1.
          4   -1    0    0  502    0 -0.00000000000E+00 -0.00000000000E+00 -0.16988415452E+04  0.16988415452E+04  0.00000000000E+00 0.  1.
    9000010    2    1    2  501    0 -0.32321651438E+03 -0.11331110390E+03  0.21778490010E+03  0.10764167503E+04  0.99696260515E+03 0.  0.
        -13    1    3    3    0    0 -0.24372556892E+03  0.35085019275E+03 -0.17650686570E+03  0.46222580576E+03  0.10566000000E+00 0.  1.
          4    1    3    3  501    0 -0.79490945457E+02 -0.46416129665E+03  0.39429176580E+03  0.61419094449E+03  0.00000000000E+00 0.  1.
         13    1    1    2    0    0  0.32321651438E+03  0.11331110390E+03 -0.12464247999E+04  0.12926264404E+04  0.10566000000E+00 0. -1.
<mgrwt>
<rscale>  1 0.79587426E+03</rscale>
<asrwt>0</asrwt>
<pdfrwt beam="1">  1       21 0.10310795E+00 0.10541550E+04</pdfrwt>
<pdfrwt beam="2">  1        4 0.26136023E+00 0.10541550E+04</pdfrwt>
<totfact> 0.15059734E+00</totfact>
</mgrwt>
</event>
<event>
 6    1  0.2415530E-005  0.9882491E+03  0.7818608E-02  0.9999728E-01
         21   -1    0    0  501  502  0.00000000000E+00  0.00000000000E+00  0.74200481923E+03  0.74200481923E+03  0.00000000000E+00 0.  1.
          4   -1    0    0  502    0 -0.00000000000E+00 -0.00000000000E+00 -0.57423195770E+03  0.57423195770E+03  0.00000000000E+00 0.  1.
    9000010    2    1    2  501    0  0.89625901968E+02  0.43117513898E+02  0.39804827750E+03  0.10654007734E+04  0.98323163823E+03 0.  0.
        -13    1    3    3    0    0 -0.22594635432E+03 -0.13203908475E+03 -0.22515681596E+03  0.34522699470E+03  0.10566000000E+00 0.  1.
          4    1    3    3  501    0  0.31557225629E+03  0.17515659865E+03  0.62320509346E+03  0.72017377869E+03  0.00000000000E+00 0.  1.
         13    1    1    2    0    0 -0.89625901968E+02 -0.43117513898E+02 -0.23027541597E+03  0.25083600354E+03  0.10566000000E+00 0. -1.
<mgrwt>
<rscale>  1 0.55662151E+03</rscale>
<asrwt>0</asrwt>
<pdfrwt beam="1">  1       21 0.11415459E+00 0.98824915E+03</pdfrwt>
<pdfrwt beam="2">  1        4 0.88343378E-01 0.98824915E+03</pdfrwt>
<totfact> 0.24480914E+01</totfact>
</mgrwt>
</event>
<event>
 6    1  0.2415530E-005  0.8476713E+03  0.7818608E-02  0.1053892E+00
          4   -1    0    0  502    0 -0.00000000000E+00  0.00000000000E+00  0.70308261459E+03  0.70308261459E+03  0.00000000000E+00 0.  1.
         21   -1    0    0  501  502  0.00000000000E+00 -0.00000000000E+00 -0.29280172035E+03  0.29280172035E+03  0.00000000000E+00 0.  1.
    9000010    2    1    2  501    0  0.88951631690E+01 -0.30192264850E+02  0.32997768924E+03  0.90963288462E+03  0.84708677985E+03 0.  0.
        -13    1    3    3    0    0 -0.30412778945E+02  0.19758592220E+03  0.55325143548E+03  0.58826209788E+03  0.10566000000E+00 0.  1.
          4    1    3    3  501    0  0.39307942114E+02 -0.22777818705E+03 -0.22327374624E+03  0.32137078674E+03  0.00000000000E+00 0.  1.
         13    1    1    2    0    0 -0.88951631690E+01  0.30192264850E+02  0.80303205001E+02  0.86251450318E+02  0.10566000000E+00 0. -1.
<mgrwt>
<rscale>  1 0.37210357E+03</rscale>
<asrwt>0</asrwt>
<pdfrwt beam="2">  1       21 0.45046419E-01 0.84767135E+03</pdfrwt>
<pdfrwt beam="1">  1        4 0.10816656E+00 0.84767135E+03</pdfrwt>
<totfact> 0.13097634E+02</totfact>
</mgrwt>
</event>
<event>
 6    1  0.2415530E-005  0.1070011E+04  0.7818608E-02  0.9597594E-01
          4   -1    0    0  502    0 -0.00000000000E+00  0.00000000000E+00  0.60823295587E+03  0.60823295587E+03  0.00000000000E+00 0.  1.
         21   -1    0    0  501  502  0.00000000000E+00 -0.00000000000E+00 -0.13542373423E+04  0.13542373423E+04  0.00000000000E+00 0.  1.
    9000010    2    1    2  501    0  0.29180635681E+03 -0.34144797329E+02 -0.10781786816E+04  0.15190105022E+04  0.10288862033E+04 0.  0.
        -13    1    3    3    0    0  0.27680529001E+03  0.45703102238E+03 -0.77588512423E+03  0.94207019970E+03  0.10566000000E+00 0.  1.
          4    1    3    3  501    0  0.15001066796E+02 -0.49117581971E+03 -0.30229355735E+03  0.57694030253E+03  0.00000000000E+00 0.  1.
         13    1    1    2    0    0 -0.29180635681E+03  0.34144797329E+02  0.33217429517E+03  0.44345979592E+03  0.10566000000E+00 0. -1.
<mgrwt>
<rscale>  1 0.77455655E+03</rscale>
<asrwt>0</asrwt>
<pdfrwt beam="2">  1       21 0.20834420E+00 0.10700110E+04</pdfrwt>
<pdfrwt beam="1">  1        4 0.93574302E-01 0.10700110E+04</pdfrwt>
<totfact> 0.38177026E+00</totfact>
</mgrwt>
</event>
<event>
 6    1  0.2415530E-005  0.9958042E+03  0.7818608E-02  0.9984958E-01
         21   -1    0    0  501  502  0.00000000000E+00  0.00000000000E+00  0.68400108454E+03  0.68400108454E+03  0.00000000000E+00 0.  1.
          4   -1    0    0  502    0 -0.00000000000E+00 -0.00000000000E+00 -0.65340747850E+03  0.65340747850E+03  0.00000000000E+00 0.  1.
    9000010    2    1    2  501    0 -0.89736882839E+02  0.48176148867E+02  0.30763305628E+03  0.10422399373E+04  0.99058181900E+03 0.  0.
        -13    1    3    3    0    0 -0.50103762715E+03 -0.14735115060E+03  0.26273742033E+03  0.58462126938E+03  0.10566000000E+00 0.  1.
          4    1    3    3  501    0  0.41130074431E+03  0.19552729947E+03  0.44895635948E+02  0.45761866793E+03  0.00000000000E+00 0.  1.
         13    1    1    2    0    0  0.89736882839E+02 -0.48176148867E+02 -0.27703945024E+03  0.29516862573E+03  0.10566000000E+00 0. -1.
<mgrwt>
<rscale>  1 0.56314725E+03</rscale>
<asrwt>0</asrwt>
<pdfrwt beam="1">  1       21 0.10523094E+00 0.99580419E+03</pdfrwt>
<pdfrwt beam="2">  1        4 0.10052423E+00 0.99580419E+03</pdfrwt>
<totfact> 0.22114927E+01</totfact>
</mgrwt>
</event>
<event>
 6    1  0.2415530E-005  0.7134853E+03  0.7818608E-02  0.1045126E+00
         21   -1    0    0  501  502  0.00000000000E+00  0.00000000000E+00  0.18615434105E+03  0.18615434105E+03  0.00000000000E+00 0.  1.
          4   -1    0    0  502    0 -0.00000000000E+00 -0.00000000000E+00 -0.82818083508E+03  0.82818083508E+03  0.00000000000E+00 0.  1.
    9000010    2    1    2  501    0 -0.62679235995E+02  0.25843411396E+02 -0.55449763687E+03  0.90361986311E+03  0.71025675581E+03 0.  0.
        -13    1    3    3    0    0 -0.60610300097E+02  0.27473915484E+03  0.15370909319E+02  0.28176495115E+03  0.10566000000E+00 0.  1.
          4    1    3    3  501    0 -0.20689358980E+01 -0.24889574344E+03 -0.56986854619E+03  0.62185491197E+03  0.00000000000E+00 0.  1.
         13    1    1    2    0    0  0.62679235995E+02 -0.25843411396E+02 -0.87528857159E+02  0.11071531302E+03  0.10566000000E+00 0. -1.
<mgrwt>
<rscale>  1 0.39613490E+03</rscale>
<asrwt>0</asrwt>
<pdfrwt beam="1">  1       21 0.28639129E-01 0.71348527E+03</pdfrwt>
<pdfrwt beam="2">  1        4 0.12741244E+00 0.71348527E+03</pdfrwt>
<totfact> 0.22308813E+02</totfact>
</mgrwt>
</event>
<event>
 6    1  0.2415530E-005  0.1124969E+04  0.7818608E-02  0.9445363E-01
         21   -1    0    0  501  502  0.00000000000E+00  0.00000000000E+00  0.32183271848E+03  0.32183271848E+03  0.00000000000E+00 0.  1.
          4   -1    0    0  502    0 -0.00000000000E+00 -0.00000000000E+00 -0.19042668366E+04  0.19042668366E+04  0.00000000000E+00 0.  1.
    9000010    2    1    2  501    0  0.35450756058E+03 -0.24266131384E+03 -0.12588042074E+04  0.16882366971E+04  0.10397090887E+04 0.  0.
        -13    1    3    3    0    0  0.33022439826E+03 -0.63610266678E+03 -0.93508081190E+03  0.11781557163E+04  0.10566000000E+00 0.  1.
          4    1    3    3  501    0  0.24283162315E+02  0.39344135295E+03 -0.32372339552E+03  0.51008098081E+03  0.00000000000E+00 0.  1.
         13    1    1    2    0    0 -0.35450756058E+03  0.24266131384E+03 -0.32362991073E+03  0.53786285801E+03  0.10566000000E+00 0. -1.
<mgrwt>
<rscale>  1 0.88434697E+03</rscale>
<asrwt>0</asrwt>
<pdfrwt beam="1">  1       21 0.49512725E-01 0.11249689E+04</pdfrwt>
<pdfrwt beam="2">  1        4 0.29296413E+00 0.11249689E+04</pdfrwt>
<totfact> 0.51946809E+00</totfact>
</mgrwt>
</event>
<event>
 6    1  0.2415530E-005  0.1018440E+04  0.7818608E-02  0.1013447E+00
          4   -1    0    0  502    0 -0.00000000000E+00  0.00000000000E+00  0.25763164121E+03  0.25763164121E+03  0.00000000000E+00 0.  1.
         21   -1    0    0  501  502  0.00000000000E+00 -0.00000000000E+00 -0.14076012161E+04  0.14076012161E+04  0.00000000000E+00 0.  1.
    9000010    2    1    2  501    0  0.58189254239E+02  0.13662523003E+02 -0.12092958489E+04  0.15810172306E+04  0.10166840115E+04 0.  0.
        -13    1    3    3    0    0  0.94711350871E+02 -0.29471552371E+03  0.22792634612E+02  0.31039812380E+03  0.10566000000E+00 0.  1.
          4    1    3    3  501    0 -0.36522096632E+02  0.30837804671E+03 -0.12320884835E+04  0.12706191068E+04  0.00000000000E+00 0.  1.
         13    1    1    2    0    0 -0.58189254239E+02 -0.13662523003E+02  0.59326273998E+02  0.84215626782E+02  0.10566000000E+00 0. -1.
<mgrwt>
<rscale>  1 0.50127433E+03</rscale>
<asrwt>0</asrwt>
<pdfrwt beam="2">  1       21 0.21655403E+00 0.10184395E+04</pdfrwt>
<pdfrwt beam="1">  1        4 0.39635637E-01 0.10184395E+04</pdfrwt>
<totfact> 0.22250829E+01</totfact>
</mgrwt>
</event>
<event>
 6    1  0.2415530E-005  0.9964141E+03  0.7818608E-02  0.1024875E+00
          4   -1    0    0  502    0 -0.00000000000E+00  0.00000000000E+00  0.46707428373E+03  0.46707428373E+03  0.00000000000E+00 0.  1.
         21   -1    0    0  501  502  0.00000000000E+00 -0.00000000000E+00 -0.66390182774E+03  0.66390182774E+03  0.00000000000E+00 0.  1.
    9000010    2    1    2  501    0  0.32492823530E+02 -0.31323072952E+02 -0.28116354415E+03  0.10353231420E+04  0.99539145634E+03 0.  0.
        -13    1    3    3    0    0  0.35288017843E+03  0.26603176345E+03 -0.38493039930E+03  0.58606206409E+03  0.10566000000E+00 0.  1.
          4    1    3    3  501    0 -0.32038735490E+03 -0.29735483640E+03  0.10376685515E+03  0.44926107793E+03  0.00000000000E+00 0.  1.
         13    1    1    2    0    0 -0.32492823530E+02  0.31323072952E+02  0.84336000141E+02  0.95652969447E+02  0.10566000000E+00 0. -1.
<mgrwt>
<rscale>  1 0.45967608E+03</rscale>
<asrwt>0</asrwt>
<pdfrwt beam="2">  1       21 0.10213874E+00 0.99641411E+03</pdfrwt>
<pdfrwt beam="1">  1        4 0.71857582E-01 0.99641411E+03</pdfrwt>
<totfact> 0.52043511E+01</totfact>
</mgrwt>
</event>
<event>
 6    1  0.2415530E-005  0.1119540E+04  0.7818608E-02  0.9434562E-01
         21   -1    0    0  501  502  0.00000000000E+00  0.00000000000E+00  0.40656592083E+03  0.40656592083E+03  0.00000000000E+00 0.  1.
          4   -1    0    0  502    0 -0.00000000000E+00 -0.00000000000E+00 -0.18236510337E+04  0.18236510337E+04  0.00000000000E+00 0.  1.
    9000010    2    1    2  501    0  0.10981945848E+03 -0.43937921105E+03 -0.53970119402E+03  0.12428381231E+04  0.10238431603E+04 0.  0.
        -13    1    3    3    0    0  0.40107850968E+03  0.36877389738E+02 -0.55335103842E+03  0.68441310310E+03  0.10566000000E+00 0.  1.
          4    1    3    3  501    0 -0.29125905119E+03 -0.47625660079E+03  0.13649844408E+02  0.55842501999E+03  0.00000000000E+00 0.  1.
         13    1    1    2    0    0 -0.10981945848E+03  0.43937921105E+03 -0.87738391885E+03  0.98737883145E+03  0.10566000000E+00 0. -1.
<mgrwt>
<rscale>  1 0.89285135E+03</rscale>
<asrwt>0</asrwt>
<pdfrwt beam="1">  1       21 0.62548603E-01 0.11195397E+04</pdfrwt>
<pdfrwt beam="2">  1        4 0.28056170E+00 0.11195397E+04</pdfrwt>
<totfact> 0.37040790E+00</totfact>
</mgrwt>
</event>
<event>
 6    1  0.2415530E-005  0.1053151E+04  0.7818608E-02  0.9585297E-01
         21   -1    0    0  501  502  0.00000000000E+00  0.00000000000E+00  0.12403462803E+04  0.12403462803E+04  0.00000000000E+00 0.  1.
          4   -1    0    0  502    0 -0.00000000000E+00 -0.00000000000E+00 -0.38447409163E+03  0.38447409163E+03  0.00000000000E+00 0.  1.
    9000010    2    1    2  501    0 -0.22429173736E+03  0.23021902005E+03  0.72068753726E+03  0.12761335758E+04  0.10029051782E+04 0.  0.
        -13    1    3    3    0    0 -0.23096773746E+03  0.41454447599E+03  0.90091442522E+03  0.10182534218E+04  0.10566000000E+00 0.  1.
          4    1    3    3  501    0  0.66760000988E+01 -0.18432545594E+03 -0.18022688797E+03  0.25788015401E+03  0.00000000000E+00 0.  1.
         13    1    1    2    0    0  0.22429173736E+03 -0.23021902005E+03  0.13518465143E+03  0.34868679612E+03  0.10566000000E+00 0. -1.
<mgrwt>
<rscale>  1 0.78277044E+03</rscale>
<asrwt>0</asrwt>
<pdfrwt beam="1">  1       21 0.19082250E+00 0.10531507E+04</pdfrwt>
<pdfrwt beam="2">  1        4 0.59149861E-01 0.10531507E+04</pdfrwt>
<totfact> 0.14316987E+01</totfact>
</mgrwt>
</event>
<event>
 6    1  0.2415530E-005  0.1057952E+04  0.7818608E-02  0.9568979E-01
          4   -1    0    0  502    0 -0.00000000000E+00  0.00000000000E+00  0.13151140764E+04  0.13151140764E+04  0.00000000000E+00 0.  1.
         21   -1    0    0  501  502  0.00000000000E+00 -0.00000000000E+00 -0.37703571001E+03  0.37703571001E+03  0.00000000000E+00 0.  1.
    9000010    2    1    2  501    0  0.19599807099E+03  0.27214118801E+03  0.60142112461E+03  0.12169506917E+04  0.10033870374E+04 0.  0.
        -13    1    3    3    0    0 -0.10683384191E+03  0.15494231326E+03  0.80962740526E+03  0.83121425441E+03  0.10566000000E+00 0.  1.
          4    1    3    3  501    0  0.30283191290E+03  0.11719887475E+03 -0.20820628065E+03  0.38573643725E+03  0.00000000000E+00 0.  1.
         13    1    1    2    0    0 -0.19599807099E+03 -0.27214118801E+03  0.33665724178E+03  0.47519909475E+03  0.10566000000E+00 0. -1.
<mgrwt>
<rscale>  1 0.79383799E+03</rscale>
<asrwt>0</asrwt>
<pdfrwt beam="2">  1       21 0.58005494E-01 0.10579516E+04</pdfrwt>
<pdfrwt beam="1">  1        4 0.20232524E+00 0.10579516E+04</pdfrwt>
<totfact> 0.13707636E+01</totfact>
</mgrwt>
</event>
<event>
 6    1  0.2415530E-005  0.1049711E+04  0.7818608E-02  0.9616170E-01
         21   -1    0    0  501  502  0.00000000000E+00  0.00000000000E+00  0.25805520076E+04  0.25805520076E+04  0.00000000000E+00 0.  1.
          4   -1    0    0  502    0 -0.00000000000E+00 -0.00000000000E+00 -0.22625357173E+03  0.22625357173E+03  0.00000000000E+00 0.  1.
    9000010    2    1    2  501    0  0.59454702253E+02  0.28590252193E+03  0.22729986901E+04  0.25036805664E+04  0.10082748731E+04 0.  0.
        -13    1    3    3    0    0 -0.34128096707E+03 -0.16738328715E+03  0.13301990978E+04  0.13834447998E+04  0.10566000000E+00 0.  1.
          4    1    3    3  501    0  0.40073566932E+03  0.45328580909E+03  0.94279959232E+03  0.11202357665E+04  0.00000000000E+00 0.  1.
         13    1    1    2    0    0 -0.59454702253E+02 -0.28590252193E+03  0.81299745823E+02  0.30312501300E+03  0.10566000000E+00 0. -1.
<mgrwt>
<rscale>  1 0.76235127E+03</rscale>
<asrwt>0</asrwt>
<pdfrwt beam="1">  1       21 0.39700798E+00 0.10497111E+04</pdfrwt>
<pdfrwt beam="2">  1        4 0.34808244E-01 0.10497111E+04</pdfrwt>
<totfact> 0.20565486E+00</totfact>
</mgrwt>
</event>
<event>
 6    1  0.2415530E-005  0.1287823E+04  0.7818608E-02  0.9342196E-01
         21   -1    0    0  501  502  0.00000000000E+00  0.00000000000E+00  0.56543301321E+03  0.56543301321E+03  0.00000000000E+00 0.  1.
          4   -1    0    0  502    0 -0.00000000000E+00 -0.00000000000E+00 -0.13075044307E+04  0.13075044307E+04  0.00000000000E+00 0.  1.
    9000010    2    1    2  501    0 -0.20541007027E+03 -0.35980672479E+03 -0.44272054545E+03  0.13617964341E+04  0.12193579747E+04 0.  0.
        -13    1    3    3    0    0 -0.19528064949E+03  0.25047537195E+03  0.27465977648E+03  0.41989337694E+03  0.10566000000E+00 0.  1.
          4    1    3    3  501    0 -0.10129420782E+02 -0.61028209674E+03 -0.71738032193E+03  0.94190305715E+03  0.00000000000E+00 0.  1.
         13    1    1    2    0    0  0.20541007027E+03  0.35980672479E+03 -0.29935087203E+03  0.51114100983E+03  0.10566000000E+00 0. -1.
<mgrwt>
<rscale>  1 0.96989323E+03</rscale>
<asrwt>0</asrwt>
<pdfrwt beam="1">  1       21 0.86989696E-01 0.12878230E+04</pdfrwt>
<pdfrwt beam="2">  1        4 0.20115452E+00 0.12878230E+04</pdfrwt>
<totfact> 0.53499819E+00</totfact>
</mgrwt>
</event>
<event>
 6    1  0.2415530E-005  0.1017741E+04  0.7818608E-02  0.9780974E-01
          4   -1    0    0  502    0 -0.00000000000E+00  0.00000000000E+00  0.50038967950E+03  0.50038967950E+03  0.00000000000E+00 0.  1.
         21   -1    0    0  501  502  0.00000000000E+00 -0.00000000000E+00 -0.72568124086E+03  0.72568124086E+03  0.00000000000E+00 0.  1.
    9000010    2    1    2  501    0  0.22960948445E+02  0.18289351598E+03 -0.22220569558E+03  0.10417158904E+04  0.10009092775E+04 0.  0.
        -13    1    3    3    0    0 -0.18598545735E+03 -0.14066339946E+02 -0.56474186301E+03  0.59474518516E+03  0.10566000000E+00 0.  1.
          4    1    3    3  501    0  0.20894640579E+03  0.19695985593E+03  0.34253616743E+03  0.44697070524E+03  0.00000000000E+00 0.  1.
         13    1    1    2    0    0 -0.22960948445E+02 -0.18289351598E+03 -0.30858657918E+01  0.18435502996E+03  0.10566000000E+00 0. -1.
<mgrwt>
<rscale>  1 0.66393639E+03</rscale>
<asrwt>0</asrwt>
<pdfrwt beam="2">  1       21 0.11164327E+00 0.10177409E+04</pdfrwt>
<pdfrwt beam="1">  1        4 0.76983028E-01 0.10177409E+04</pdfrwt>
<totfact> 0.35512679E+01</totfact>
</mgrwt>
</event>
<event>
 6    1  0.2415530E-005  0.1156350E+04  0.7818608E-02  0.9347230E-01
         21   -1    0    0  501  502  0.00000000000E+00  0.00000000000E+00  0.11387390548E+04  0.11387390548E+04  0.00000000000E+00 0.  1.
          4   -1    0    0  502    0 -0.00000000000E+00 -0.00000000000E+00 -0.66007494216E+03  0.66007494216E+03  0.00000000000E+00 0.  1.
    9000010    2    1    2  501    0  0.23924704610E+03 -0.50850484615E+03  0.43383260372E+03  0.12350532294E+04  0.10106084424E+04 0.  0.
        -13    1    3    3    0    0  0.34314129860E+03 -0.68434540566E+03  0.59927192780E+03  0.97221470863E+03  0.10566000000E+00 0.  1.
          4    1    3    3  501    0 -0.10389425250E+03  0.17584055951E+03 -0.16543932408E+03  0.26283852082E+03  0.00000000000E+00 0.  1.
         13    1    1    2    0    0 -0.23924704610E+03  0.50850484615E+03  0.44831508913E+02  0.56376076751E+03  0.10566000000E+00 0. -1.
<mgrwt>
<rscale>  1 0.96548683E+03</rscale>
<asrwt>0</asrwt>
<pdfrwt beam="1">  1       21 0.17519062E+00 0.11563502E+04</pdfrwt>
<pdfrwt beam="2">  1        4 0.10154999E+00 0.11563502E+04</pdfrwt>
<totfact> 0.53169383E+00</totfact>
</mgrwt>
</event>
<event>
 6    1  0.2415530E-005  0.1077428E+04  0.7818608E-02  0.9521306E-01
          4   -1    0    0  502    0 -0.00000000000E+00  0.00000000000E+00  0.16149991740E+04  0.16149991740E+04  0.00000000000E+00 0.  1.
         21   -1    0    0  501  502  0.00000000000E+00 -0.00000000000E+00 -0.32785293621E+03  0.32785293621E+03  0.00000000000E+00 0. -1.
    9000010    2    1    2  501    0 -0.70854008786E+02 -0.36778627568E+03  0.89615478754E+03  0.14014083362E+04  0.10102301155E+04 0.  0.
        -13    1    3    3    0    0 -0.45374225777E+03 -0.30228857039E+03  0.85054397881E+03  0.10102898036E+04  0.10566000000E+00 0.  1.
          4    1    3    3  501    0  0.38288824899E+03 -0.65497705291E+02  0.45610808729E+02  0.39111853252E+03  0.00000000000E+00 0.  1.
         13    1    1    2    0    0  0.70854008786E+02  0.36778627568E+03  0.39099145028E+03  0.54144377408E+03  0.10566000000E+00 0. -1.
<mgrwt>
<rscale>  1 0.82731044E+03</rscale>
<asrwt>0</asrwt>
<pdfrwt beam="2">  1       21 0.50438914E-01 0.10774284E+04</pdfrwt>
<pdfrwt beam="1">  1        4 0.24846141E+00 0.10774284E+04</pdfrwt>
<totfact> 0.94532329E+00</totfact>
</mgrwt>
</event>
<event>
 6    1  0.2415530E-005  0.1071439E+04  0.7818608E-02  0.9506566E-01
          4   -1    0    0  502    0 -0.00000000000E+00  0.00000000000E+00  0.24607368646E+03  0.24607368646E+03  0.00000000000E+00 0.  1.
         21   -1    0    0  501  502  0.00000000000E+00 -0.00000000000E+00 -0.31983142631E+04  0.31983142631E+04  0.00000000000E+00 0.  1.
    9000010    2    1    2  501    0 -0.11995020777E+03  0.38259982674E+03 -0.28287107381E+04  0.30248282852E+04  0.99358494125E+03 0.  0.
        -13    1    3    3    0    0 -0.24635267243E+03  0.52454157601E+03 -0.27639245686E+04  0.28240241742E+04  0.10566000000E+00 0.  1.
          4    1    3    3  501    0  0.12640246466E+03 -0.14194174927E+03 -0.64786169482E+02  0.20080411104E+03  0.00000000000E+00 0.  1.
         13    1    1    2    0    0  0.11995020777E+03 -0.38259982674E+03 -0.12352983856E+03  0.41955966435E+03  0.10566000000E+00 0. -1.
<mgrwt>
<rscale>  1 0.83801439E+03</rscale>
<asrwt>0</asrwt>
<pdfrwt beam="2">  1       21 0.49204833E+00 0.10714391E+04</pdfrwt>
<pdfrwt beam="1">  1        4 0.37857492E-01 0.10714391E+04</pdfrwt>
<totfact> 0.38677680E-01</totfact>
</mgrwt>
</event>
<event>
 6    1  0.2415530E-005  0.1030660E+04  0.7818608E-02  0.9774229E-01
          4   -1    0    0  502    0 -0.00000000000E+00  0.00000000000E+00  0.20928165254E+03  0.20928165254E+03  0.00000000000E+00 0.  1.
         21   -1    0    0  501  502  0.00000000000E+00 -0.00000000000E+00 -0.17983667727E+04  0.17983667727E+04  0.00000000000E+00 0.  1.
    9000010    2    1    2  501    0 -0.95460387414E+02  0.15434297205E+03 -0.14501201898E+04  0.17790752387E+04  0.10145568991E+04 0.  0.
        -13    1    3    3    0    0 -0.23608717504E+03 -0.14725087253E+03  0.13041278236E+02  0.27854992332E+03  0.10566000000E+00 0.  1.
          4    1    3    3  501    0  0.14062678763E+03  0.30159384457E+03 -0.14631614681E+04  0.15005253154E+04  0.00000000000E+00 0.  1.
         13    1    1    2    0    0  0.95460387414E+02 -0.15434297205E+03 -0.13896493036E+03  0.22857318657E+03  0.10566000000E+00 0. -1.
<mgrwt>
<rscale>  1 0.66764082E+03</rscale>
<asrwt>0</asrwt>
<pdfrwt beam="2">  1       21 0.27667180E+00 0.10306601E+04</pdfrwt>
<pdfrwt beam="1">  1        4 0.32197179E-01 0.10306601E+04</pdfrwt>
<totfact> 0.13888071E+01</totfact>
</mgrwt>
</event>
<event>
 6    1  0.2415530E-005  0.9497124E+03  0.7818608E-02  0.9919162E-01
         21   -1    0    0  501  502  0.00000000000E+00  0.00000000000E+00  0.56377836305E+03  0.56377836305E+03  0.00000000000E+00 0.  1.
          4   -1    0    0  502    0 -0.00000000000E+00 -0.00000000000E+00 -0.53124930528E+03  0.53124930528E+03  0.00000000000E+00 0.  1.
    9000010    2    1    2  501    0  0.32165700960E+02 -0.14114455702E+03  0.32381124187E+02  0.95026423599E+03  0.93861449099E+03 0.  0.
        -13    1    3    3    0    0  0.11770235681E+03  0.39221973548E+03  0.17878143044E+02  0.40988999117E+03  0.10566000000E+00 0.  1.
          4    1    3    3  501    0 -0.85536655853E+02 -0.53336429250E+03  0.14502981143E+02  0.54037424482E+03  0.00000000000E+00 0.  1.
         13    1    1    2    0    0 -0.32165700960E+02  0.14114455702E+03  0.14793358254E+00  0.14476343234E+03  0.10566000000E+00 0. -1.
<mgrwt>
<rscale>  1 0.59341529E+03</rscale>
<asrwt>0</asrwt>
<pdfrwt beam="1">  1       21 0.86735133E-01 0.94971237E+03</pdfrwt>
<pdfrwt beam="2">  1        4 0.81730662E-01 0.94971237E+03</pdfrwt>
<totfact> 0.58064664E+01</totfact>
</mgrwt>
</event>
<event>
 6    1  0.2415530E-005  0.1060657E+04  0.7818608E-02  0.9507253E-01
         21   -1    0    0  501  502  0.00000000000E+00  0.00000000000E+00  0.10721094528E+04  0.10721094528E+04  0.00000000000E+00 0.  1.
          4   -1    0    0  502    0 -0.00000000000E+00 -0.00000000000E+00 -0.79120824255E+03  0.79120824255E+03  0.00000000000E+00 0.  1.
    9000010    2    1    2  501    0  0.39038613109E+03 -0.13270245805E+03  0.70360900490E+03  0.12728152275E+04  0.97723165006E+03 0.  0.
        -13    1    3    3    0    0  0.57159767616E+03  0.23896297658E+03  0.27680280359E+03  0.67856245903E+03  0.10566000000E+00 0.  1.
          4    1    3    3  501    0 -0.18121154507E+03 -0.37166543463E+03  0.42680620131E+03  0.59425276848E+03  0.00000000000E+00 0.  1.
         13    1    1    2    0    0 -0.39038613109E+03  0.13270245805E+03 -0.42270779465E+03  0.59050246785E+03  0.10566000000E+00 0. -1.
<mgrwt>
<rscale>  1 0.83751173E+03</rscale>
<asrwt>0</asrwt>
<pdfrwt beam="1">  1       21 0.16493992E+00 0.10606569E+04</pdfrwt>
<pdfrwt beam="2">  1        4 0.12172435E+00 0.10606569E+04</pdfrwt>
<totfact> 0.41026707E+00</totfact>
</mgrwt>
</event>
<event>
 6    1  0.2415530E-005  0.1080825E+04  0.7818608E-02  0.9482318E-01
         21   -1    0    0  501  502  0.00000000000E+00  0.00000000000E+00  0.49928815494E+03  0.49928815494E+03  0.00000000000E+00 0.  1.
          4   -1    0    0  502    0 -0.00000000000E+00 -0.00000000000E+00 -0.18908378580E+04  0.18908378580E+04  0.00000000000E+00 0.  1.
    9000010    2    1    2  501    0 -0.16059733428E+03  0.39374356618E+03 -0.16675622625E+03  0.10936135480E+04  0.99365862032E+03 0.  0.
        -13    1    3    3    0    0  0.13199085317E+03 -0.29555667141E+03  0.11377288811E+02  0.32389008198E+03  0.10566000000E+00 0.  1.
          4    1    3    3  501    0 -0.29258818745E+03  0.68930023760E+03 -0.17813351506E+03  0.76972346604E+03  0.00000000000E+00 0.  1.
         13    1    1    2    0    0  0.16059733428E+03 -0.39374356618E+03 -0.12247934768E+04  0.12965124649E+04  0.10566000000E+00 0. -1.
<mgrwt>
<rscale>  1 0.85600054E+03</rscale>
<asrwt>0</asrwt>
<pdfrwt beam="1">  1       21 0.76813564E-01 0.10808251E+04</pdfrwt>
<pdfrwt beam="2">  1        4 0.29089813E+00 0.10808251E+04</pdfrwt>
<totfact> 0.20072854E+00</totfact>
</mgrwt>
</event>
<event>
 6    1  0.2415530E-005  0.1063386E+04  0.7818608E-02  0.9635117E-01
         21   -1    0    0  501  502  0.00000000000E+00  0.00000000000E+00  0.94525910000E+03  0.94525910000E+03  0.00000000000E+00 0.  1.
          4   -1    0    0  502    0 -0.00000000000E+00 -0.00000000000E+00 -0.54305363609E+03  0.54305363609E+03  0.00000000000E+00 0.  1.
    9000010    2    1    2  501    0  0.18300399893E+02 -0.26270373860E+03  0.53831442559E+03  0.11918775500E+04  0.10302628376E+04 0.  0.
        -13    1    3    3    0    0 -0.18892097830E+03 -0.58032681120E+03  0.11059987436E+03  0.62024405456E+03  0.10566000000E+00 0.  1.
          4    1    3    3  501    0  0.20722137820E+03  0.31762307260E+03  0.42771455123E+03  0.57163349549E+03  0.00000000000E+00 0.  1.
         13    1    1    2    0    0 -0.18300399893E+02  0.26270373860E+03 -0.13610896168E+03  0.29643518605E+03  0.10566000000E+00 0. -1.
<mgrwt>
<rscale>  1 0.75014905E+03</rscale>
<asrwt>0</asrwt>
<pdfrwt beam="1">  1       21 0.14542448E+00 0.10633859E+04</pdfrwt>
<pdfrwt beam="2">  1        4 0.83546714E-01 0.10633859E+04</pdfrwt>
<totfact> 0.14549902E+01</totfact>
</mgrwt>
</event>
<event>
 6    1  0.2415530E-005  0.1084248E+04  0.7818608E-02  0.9847132E-01
          4   -1    0    0  502    0 -0.00000000000E+00  0.00000000000E+00  0.97081890810E+03  0.97081890810E+03  0.00000000000E+00 0.  1.
         21   -1    0    0  501  502  0.00000000000E+00 -0.00000000000E+00 -0.46395014512E+03  0.46395014512E+03  0.00000000000E+00 0.  1.
    9000010    2    1    2  501    0  0.24881374976E+02 -0.12020520224E+03  0.63566376939E+03  0.12568462095E+04  0.10772769343E+04 0.  0.
        -13    1    3    3    0    0  0.12280817093E+03  0.45697760190E+03  0.15062032398E+03  0.49658520784E+03  0.10566000000E+00 0.  1.
          4    1    3    3  501    0 -0.97926795959E+02 -0.57718280414E+03  0.48504344541E+03  0.76026100169E+03  0.00000000000E+00 0.  1.
         13    1    1    2    0    0 -0.24881374976E+02  0.12020520224E+03 -0.12879500641E+03  0.17792284369E+03  0.10566000000E+00 0. -1.
<mgrwt>
<rscale>  1 0.62893375E+03</rscale>
<asrwt>0</asrwt>
<pdfrwt beam="2">  1       21 0.71376946E-01 0.10842481E+04</pdfrwt>
<pdfrwt beam="1">  1        4 0.14935675E+00 0.10842481E+04</pdfrwt>
<totfact> 0.20385050E+01</totfact>
</mgrwt>
</event>
<event>
 6    1  0.2415530E-005  0.1112309E+04  0.7818608E-02  0.9459055E-01
         21   -1    0    0  501  502  0.00000000000E+00  0.00000000000E+00  0.62404945806E+03  0.62404945806E+03  0.00000000000E+00 0.  1.
          4   -1    0    0  502    0 -0.00000000000E+00 -0.00000000000E+00 -0.22859498654E+04  0.22859498654E+04  0.00000000000E+00 0.  1.
    9000010    2    1    2  501    0 -0.36615681318E+03  0.21267689694E+03  0.82095013173E+02  0.11153343652E+04  0.10285566979E+04 0.  0.
        -13    1    3    3    0    0  0.34937929869E+02  0.36413843400E+03 -0.35024956210E+03  0.50645061454E+03  0.10566000000E+00 0.  1.
          4    1    3    3  501    0 -0.40109474305E+03 -0.15146153706E+03  0.43234457527E+03  0.60888375071E+03  0.00000000000E+00 0.  1.
         13    1    1    2    0    0  0.36615681318E+03 -0.21267689694E+03 -0.17439954205E+04  0.17946649582E+04  0.10566000000E+00 0. -1.
<mgrwt>
<rscale>  1 0.87370998E+03</rscale>
<asrwt>0</asrwt>
<pdfrwt beam="1">  1       21 0.96007608E-01 0.11123089E+04</pdfrwt>
<pdfrwt beam="2">  1        4 0.35168460E+00 0.11123089E+04</pdfrwt>
<totfact> 0.48381598E-01</totfact>
</mgrwt>
</event>
<event>
 6    1  0.2415530E-005  0.9971144E+03  0.7818608E-02  0.9709164E-01
          4   -1    0    0  502    0 -0.00000000000E+00  0.00000000000E+00  0.79697407942E+03  0.79697407942E+03  0.00000000000E+00 0.  1.
         21   -1    0    0  501  502  0.00000000000E+00 -0.00000000000E+00 -0.54612994417E+03  0.54612994417E+03  0.00000000000E+00 0.  1.
    9000010    2    1    2  501    0  0.10350545853E+03  0.22626370618E+03  0.10507214474E+02  0.99716979381E+03  0.96557161902E+03 0.  0.
        -13    1    3    3    0    0  0.47844491429E+03  0.81917270543E+02  0.23243157094E+03  0.53818623315E+03  0.10566000000E+00 0.  1.
          4    1    3    3  501    0 -0.37493945576E+03  0.14434643563E+03 -0.22192435646E+03  0.45898356066E+03  0.00000000000E+00 0.  1.
         13    1    1    2    0    0 -0.10350545853E+03 -0.22626370618E+03  0.24033692078E+03  0.34593422978E+03  0.10566000000E+00 0. -1.
<mgrwt>
<rscale>  1 0.70473798E+03</rscale>
<asrwt>0</asrwt>
<pdfrwt beam="2">  1       21 0.84019991E-01 0.99711443E+03</pdfrwt>
<pdfrwt beam="1">  1        4 0.12261140E+00 0.99711443E+03</pdfrwt>
<totfact> 0.23460581E+01</totfact>
</mgrwt>
</event>
<event>
 6    1  0.2415530E-005  0.7657798E+03  0.7818608E-02  0.1016174E+00
          4   -1    0    0  502    0 -0.00000000000E+00  0.00000000000E+00  0.36111877593E+03  0.36111877593E+03  0.00000000000E+00 0.  1.
         21   -1    0    0  501  502  0.00000000000E+00 -0.00000000000E+00 -0.83341424522E+03  0.83341424522E+03  0.00000000000E+00 0.  1.
    9000010    2    1    2  501    0 -0.12584695602E+03 -0.29899442973E+02 -0.62924882141E+03  0.99114718355E+03  0.75477627625E+03 0.  0.
        -13    1    3    3    0    0 -0.33699455189E+03  0.24589298130E+03 -0.31482464169E+03  0.52263108637E+03  0.10566000000E+00 0.  1.
          4    1    3    3  501    0  0.21114759587E+03 -0.27579242427E+03 -0.31442417972E+03  0.46851609718E+03  0.00000000000E+00 0.  1.
         13    1    1    2    0    0  0.12584695602E+03  0.29899442973E+02  0.15695335212E+03  0.20338583760E+03  0.10566000000E+00 0. -1.
<mgrwt>
<rscale>  1 0.49093003E+03</rscale>
<asrwt>0</asrwt>
<pdfrwt beam="2">  1       21 0.12821758E+00 0.76577977E+03</pdfrwt>
<pdfrwt beam="1">  1        4 0.55556735E-01 0.76577977E+03</pdfrwt>
<totfact> 0.52350503E+01</totfact>
</mgrwt>
</event>
<event>
 6    1  0.2415530E-005  0.1055967E+04  0.7818608E-02  0.9638420E-01
          4   -1    0    0  502    0 -0.00000000000E+00  0.00000000000E+00  0.49337484036E+03  0.49337484036E+03  0.00000000000E+00 0.  1.
         21   -1    0    0  501  502  0.00000000000E+00 -0.00000000000E+00 -0.94910971481E+03  0.94910971481E+03  0.00000000000E+00 0.  1.
    9000010    2    1    2  501    0 -0.21022792892E+03 -0.16285444223E+03 -0.50746140939E+03  0.11715731360E+04  0.10219340387E+04 0.  0.
        -13    1    3    3    0    0 -0.50992746015E+03 -0.38134283388E+03 -0.14513811316E+03  0.65307997568E+03  0.10566000000E+00 0.  1.
          4    1    3    3  501    0  0.29969953124E+03  0.21848839165E+03 -0.36232329623E+03  0.51849316032E+03  0.00000000000E+00 0.  1.
         13    1    1    2    0    0  0.21022792892E+03  0.16285444223E+03  0.51726534946E+02  0.27091141917E+03  0.10566000000E+00 0. -1.
<mgrwt>
<rscale>  1 0.74804642E+03</rscale>
<asrwt>0</asrwt>
<pdfrwt beam="2">  1       21 0.14601688E+00 0.10559671E+04</pdfrwt>
<pdfrwt beam="1">  1        4 0.75903822E-01 0.10559671E+04</pdfrwt>
<totfact> 0.17949347E+01</totfact>
</mgrwt>
</event>
<event>
 6    1  0.2415530E-005  0.1004216E+04  0.7818608E-02  0.1003484E+00
          4   -1    0    0  502    0 -0.00000000000E+00  0.00000000000E+00  0.38566577188E+03  0.38566577188E+03  0.00000000000E+00 0.  1.
         21   -1    0    0  501  502  0.00000000000E+00 -0.00000000000E+00 -0.81069542326E+03  0.81069542326E+03  0.00000000000E+00 0.  1.
    9000010    2    1    2  501    0  0.78773848363E+02 -0.31642987031E+02 -0.30531753599E+03  0.10496042548E+04  0.10006216548E+04 0.  0.
        -13    1    3    3    0    0  0.39623587520E+03  0.18258133396E+03  0.14380020211E+03  0.45936621730E+03  0.10566000000E+00 0.  1.
          4    1    3    3  501    0 -0.31746202684E+03 -0.21422432099E+03 -0.44911773810E+03  0.59023803746E+03  0.00000000000E+00 0.  1.
         13    1    1    2    0    0 -0.78773848363E+02  0.31642987031E+02 -0.11971211539E+03  0.14675694038E+03  0.10566000000E+00 0. -1.
<mgrwt>
<rscale>  1 0.54148554E+03</rscale>
<asrwt>0</asrwt>
<pdfrwt beam="2">  1       21 0.12472237E+00 0.10042163E+04</pdfrwt>
<pdfrwt beam="1">  1        4 0.59333196E-01 0.10042163E+04</pdfrwt>
<totfact> 0.47689500E+01</totfact>
</mgrwt>
</event>
<event>
 6    1  0.2415530E-005  0.1075852E+04  0.7818608E-02  0.9509985E-01
         21   -1    0    0  501  502  0.00000000000E+00  0.00000000000E+00  0.91601785414E+03  0.91601785414E+03  0.00000000000E+00 0.  1.
          4   -1    0    0  502    0 -0.00000000000E+00 -0.00000000000E+00 -0.58927737018E+03  0.58927737018E+03  0.00000000000E+00 0.  1.
    9000010    2    1    2  501    0  0.32580714675E+03  0.21680092978E+03  0.20287488752E+03  0.10948130235E+04  0.10021498872E+04 0.  0.
        -13    1    3    3    0    0  0.38981126127E+03  0.15867540124E+03  0.57511584012E+03  0.71266327469E+03  0.10566000000E+00 0.  1.
          4    1    3    3  501    0 -0.64004114513E+02  0.58125528543E+02 -0.37224095260E+03  0.38214974884E+03  0.00000000000E+00 0.  1.
         13    1    1    2    0    0 -0.32580714675E+03 -0.21680092978E+03  0.12386559643E+03  0.41048220080E+03  0.10566000000E+00 0. -1.
<mgrwt>
<rscale>  1 0.83551663E+03</rscale>
<asrwt>0</asrwt>
<pdfrwt beam="1">  1       21 0.14092582E+00 0.10758519E+04</pdfrwt>
<pdfrwt beam="2">  1        4 0.90658057E-01 0.10758519E+04</pdfrwt>
<totfact> 0.13087625E+01</totfact>
</mgrwt>
</event>
<event>
 6    1  0.2415530E-005  0.1020703E+04  0.7818608E-02  0.1007721E+00
          4   -1    0    0  502    0 -0.00000000000E+00  0.00000000000E+00  0.30354447272E+03  0.30354447272E+03  0.00000000000E+00 0.  1.
         21   -1    0    0  501  502  0.00000000000E+00 -0.00000000000E+00 -0.10397970462E+04  0.10397970462E+04  0.00000000000E+00 0.  1.
    9000010    2    1    2  501    0  0.52726642383E+02 -0.47317831055E+02 -0.75554730505E+03  0.12699155441E+04  0.10182409749E+04 0.  0.
        -13    1    3    3    0    0 -0.25566095493E+03 -0.29071542933E+03  0.33383312684E+02  0.38857745876E+03  0.10566000000E+00 0.  1.
          4    1    3    3  501    0  0.30838759731E+03  0.24339759828E+03 -0.78893061773E+03  0.88133808531E+03  0.00000000000E+00 0.  1.
         13    1    1    2    0    0 -0.52726642383E+02  0.47317831055E+02  0.19294731558E+02  0.73425974850E+02  0.10566000000E+00 0. -1.
<mgrwt>
<rscale>  1 0.52390495E+03</rscale>
<asrwt>0</asrwt>
<pdfrwt beam="2">  1       21 0.15996878E+00 0.10207026E+04</pdfrwt>
<pdfrwt beam="1">  1        4 0.46699150E-01 0.10207026E+04</pdfrwt>
<totfact> 0.40150741E+01</totfact>
</mgrwt>
</event>
<event>
 6    1  0.2415530E-005  0.1037052E+04  0.7818608E-02  0.9870031E-01
          4   -1    0    0  502    0 -0.00000000000E+00  0.00000000000E+00  0.13567352891E+04  0.13567352891E+04  0.00000000000E+00 0.  1.
         21   -1    0    0  501  502  0.00000000000E+00 -0.00000000000E+00 -0.38731107583E+03  0.38731107583E+03  0.00000000000E+00 0.  1.
    9000010    2    1    2  501    0  0.10699267829E+03  0.74266324421E+02  0.32528319386E+03  0.10868701449E+04  0.10288414044E+04 0.  0.
        -13    1    3    3    0    0 -0.21305278121E+03  0.47262864388E+03  0.22956200070E+03  0.56698152168E+03  0.10566000000E+00 0.  1.
          4    1    3    3  501    0  0.32004545951E+03 -0.39836231946E+03  0.95721193159E+02  0.51988862320E+03  0.00000000000E+00 0.  1.
         13    1    1    2    0    0 -0.10699267829E+03 -0.74266324421E+02  0.64414101940E+03  0.65717622004E+03  0.10566000000E+00 0. -1.
<mgrwt>
<rscale>  1 0.61735948E+03</rscale>
<asrwt>0</asrwt>
<pdfrwt beam="2">  1       21 0.59586320E-01 0.10370523E+04</pdfrwt>
<pdfrwt beam="1">  1        4 0.20872850E+00 0.10370523E+04</pdfrwt>
<totfact> 0.11750162E+01</totfact>
</mgrwt>
</event>
<event>
 6    1  0.2415530E-005  0.9897313E+03  0.7818608E-02  0.1022687E+00
         21   -1    0    0  501  502  0.00000000000E+00  0.00000000000E+00  0.24126200764E+04  0.24126200764E+04  0.00000000000E+00 0.  1.
          4   -1    0    0  502    0 -0.00000000000E+00 -0.00000000000E+00 -0.13988198801E+03  0.13988198801E+03  0.00000000000E+00 0.  1.
    9000010    2    1    2  501    0 -0.27979035848E+02 -0.40448525086E+02  0.22943946118E+04  0.24987626394E+04  0.98850856549E+03 0.  0.
        -13    1    3    3    0    0 -0.45608976005E+03  0.17213823835E+03  0.88308079888E+03  0.10087027069E+04  0.10566000000E+00 0.  1.
          4    1    3    3  501    0  0.42811072420E+03 -0.21258676344E+03  0.14113138129E+04  0.14900599325E+04  0.00000000000E+00 0.  1.
         13    1    1    2    0    0  0.27979035848E+02  0.40448525086E+02 -0.21656523386E+02  0.53739424986E+02  0.10566000000E+00 0. -1.
<mgrwt>
<rscale>  1 0.46729452E+03</rscale>
<asrwt>0</asrwt>
<pdfrwt beam="1">  1       21 0.37117229E+00 0.98973132E+03</pdfrwt>
<pdfrwt beam="2">  1        4 0.21520308E-01 0.98973132E+03</pdfrwt>
<totfact> 0.77642637E+00</totfact>
</mgrwt>
</event>
<event>
 6    1  0.2415530E-005  0.1039653E+04  0.7818608E-02  0.9613575E-01
         21   -1    0    0  501  502  0.00000000000E+00  0.00000000000E+00  0.75631929339E+03  0.75631929339E+03  0.00000000000E+00 0.  1.
          4   -1    0    0  502    0 -0.00000000000E+00 -0.00000000000E+00 -0.73289286402E+03  0.73289286402E+03  0.00000000000E+00 0.  1.
    9000010    2    1    2  501    0  0.12359737749E+03  0.27692110231E+03  0.29652542618E+03  0.10811132946E+04  0.99444306961E+03 0.  0.
        -13    1    3    3    0    0  0.46625729930E+03  0.36212393872E+03 -0.42130979504E+02  0.59186539579E+03  0.10566000000E+00 0.  1.
          4    1    3    3  501    0 -0.34265992181E+03 -0.85202836410E+02  0.33865640569E+03  0.48924789878E+03  0.00000000000E+00 0.  1.
         13    1    1    2    0    0 -0.12359737749E+03 -0.27692110231E+03 -0.27309899682E+03  0.40809886284E+03  0.10566000000E+00 0. -1.
<mgrwt>
<rscale>  1 0.76404190E+03</rscale>
<asrwt>0</asrwt>
<pdfrwt beam="1">  1       21 0.11635681E+00 0.10396531E+04</pdfrwt>
<pdfrwt beam="2">  1        4 0.11275275E+00 0.10396531E+04</pdfrwt>
<totfact> 0.12880412E+01</totfact>
</mgrwt>
</event>
<event>
 6    1  0.2415530E-005  0.9953997E+03  0.7818608E-02  0.9818568E-01
         21   -1    0    0  501  502  0.00000000000E+00  0.00000000000E+00  0.57153236013E+03  0.57153236013E+03  0.00000000000E+00 0.  1.
          4   -1    0    0  502    0 -0.00000000000E+00 -0.00000000000E+00 -0.73540005773E+03  0.73540005773E+03  0.00000000000E+00 0.  1.
    9000010    2    1    2  501    0 -0.55307980867E+02  0.16512038832E+03  0.89585260467E+02  0.99942285946E+03  0.98004939556E+03 0.  0.
        -13    1    3    3    0    0  0.25555136167E+03  0.37172687095E+03  0.32691905801E+03  0.55710272544E+03  0.10566000000E+00 0.  1.
          4    1    3    3  501    0 -0.31085934254E+03 -0.20660648263E+03 -0.23733379754E+03  0.44232013402E+03  0.00000000000E+00 0.  1.
         13    1    1    2    0    0  0.55307980867E+02 -0.16512038832E+03 -0.25345295807E+03  0.30750955840E+03  0.10566000000E+00 0. -1.
<mgrwt>
<rscale>  1 0.64375549E+03</rscale>
<asrwt>0</asrwt>
<pdfrwt beam="1">  1       21 0.87928055E-01 0.99539969E+03</pdfrwt>
<pdfrwt beam="2">  1        4 0.11313847E+00 0.99539969E+03</pdfrwt>
<totfact> 0.25737009E+01</totfact>
</mgrwt>
</event>
<event>
 6    1  0.2415530E-005  0.1006934E+04  0.7818608E-02  0.1024631E+00
          4   -1    0    0  502    0 -0.00000000000E+00  0.00000000000E+00  0.69243314082E+03  0.69243314082E+03  0.00000000000E+00 0.  1.
         21   -1    0    0  501  502  0.00000000000E+00 -0.00000000000E+00 -0.40854395147E+03  0.40854395147E+03  0.00000000000E+00 0.  1.
    9000010    2    1    2  501    0 -0.42189375123E+02  0.12678807249E+02  0.23275803949E+03  0.10334856026E+04  0.10059699252E+04 0.  0.
        -13    1    3    3    0    0  0.46369957799E+03 -0.85532251792E+02  0.21399625964E+03  0.51781026933E+03  0.10566000000E+00 0.  1.
          4    1    3    3  501    0 -0.50588895311E+03  0.98211059042E+02  0.18761779849E+02  0.51567533330E+03  0.00000000000E+00 0.  1.
         13    1    1    2    0    0  0.42189375123E+02 -0.12678807249E+02  0.51131149860E+02  0.67491489660E+02  0.10566000000E+00 0. -1.
<mgrwt>
<rscale>  1 0.46051710E+03</rscale>
<asrwt>0</asrwt>
<pdfrwt beam="2">  1       21 0.62852916E-01 0.10069341E+04</pdfrwt>
<pdfrwt beam="1">  1        4 0.10652818E+00 0.10069341E+04</pdfrwt>
<totfact> 0.64977115E+01</totfact>
</mgrwt>
</event>
<event>
 6    1  0.2415530E-005  0.1128377E+04  0.7818608E-02  0.9377461E-01
          4   -1    0    0  502    0 -0.00000000000E+00  0.00000000000E+00  0.17181172723E+04  0.17181172723E+04  0.00000000000E+00 0.  1.
         21   -1    0    0  501  502  0.00000000000E+00 -0.00000000000E+00 -0.41581710816E+03  0.41581710816E+03  0.00000000000E+00 0. -1.
    9000010    2    1    2  501    0  0.53642144850E+03 -0.80129581504E+02  0.72181616901E+03  0.13394972212E+04  0.98947738912E+03 0.  0.
        -13    1    3    3    0    0  0.90379011709E+02 -0.49930299112E+03  0.24426279358E+03  0.56314844063E+03  0.10566000000E+00 0.  1.
          4    1    3    3  501    0  0.44604243679E+03  0.41917340961E+03  0.47755337543E+03  0.77634878059E+03  0.00000000000E+00 0.  1.
         13    1    1    2    0    0 -0.53642144850E+03  0.80129581504E+02  0.58048399517E+03  0.79443715929E+03  0.10566000000E+00 0. -1.
<mgrwt>
<rscale>  1 0.93953979E+03</rscale>
<asrwt>0</asrwt>
<pdfrwt beam="2">  1       21 0.63971864E-01 0.11283768E+04</pdfrwt>
<pdfrwt beam="1">  1        4 0.26432573E+00 0.11283768E+04</pdfrwt>
<totfact> 0.44297837E+00</totfact>
</mgrwt>
</event>
<event>
 6    1  0.2415530E-005  0.1032725E+04  0.7818608E-02  0.9706932E-01
          4   -1    0    0  502    0 -0.00000000000E+00  0.00000000000E+00  0.10115897077E+04  0.10115897077E+04  0.00000000000E+00 0.  1.
         21   -1    0    0  501  502  0.00000000000E+00 -0.00000000000E+00 -0.54052286421E+03  0.54052286421E+03  0.00000000000E+00 0. -1.
    9000010    2    1    2  501    0 -0.12402988267E+03 -0.18848472647E+03  0.68655396195E+03  0.12401115891E+04  0.10077750278E+04 0.  0.
        -13    1    3    3    0    0  0.17746105999E+03 -0.13806501557E+03  0.85982726815E+03  0.88873917353E+03  0.10566000000E+00 0.  1.
          4    1    3    3  501    0 -0.30149094267E+03 -0.50419710902E+02 -0.17327330620E+03  0.35137241554E+03  0.00000000000E+00 0.  1.
         13    1    1    2    0    0  0.12402988267E+03  0.18848472647E+03 -0.21548711846E+03  0.31200098285E+03  0.10566000000E+00 0. -1.
<mgrwt>
<rscale>  1 0.70605542E+03</rscale>
<asrwt>0</asrwt>
<pdfrwt beam="2">  1       21 0.83157364E-01 0.10327248E+04</pdfrwt>
<pdfrwt beam="1">  1        4 0.15562919E+00 0.10327248E+04</pdfrwt>
<totfact> 0.12827160E+01</totfact>
</mgrwt>
</event>
<event>
 6    1  0.2415530E-005  0.1033385E+04  0.7818608E-02  0.9658429E-01
         21   -1    0    0  501  502  0.00000000000E+00  0.00000000000E+00  0.63688749045E+03  0.63688749045E+03  0.00000000000E+00 0.  1.
          4   -1    0    0  502    0 -0.00000000000E+00 -0.00000000000E+00 -0.79103907154E+03  0.79103907154E+03  0.00000000000E+00 0.  1.
    9000010    2    1    2  501    0 -0.41997841999E+02  0.26178855564E+03  0.12737341049E+03  0.10412052170E+04  0.99879289730E+03 0.  0.
        -13    1    3    3    0    0 -0.57237196887E+02  0.61899136795E+03  0.24000664702E+03  0.66635546976E+03  0.10566000000E+00 0.  1.
          4    1    3    3  501    0  0.15239354888E+02 -0.35720281231E+03 -0.11263323653E+03  0.37484974727E+03  0.00000000000E+00 0.  1.
         13    1    1    2    0    0  0.41997841999E+02 -0.26178855564E+03 -0.28152499157E+03  0.38672134495E+03  0.10566000000E+00 0. -1.
<mgrwt>
<rscale>  1 0.73546793E+03</rscale>
<asrwt>0</asrwt>
<pdfrwt beam="1">  1       21 0.97982691E-01 0.10333849E+04</pdfrwt>
<pdfrwt beam="2">  1        4 0.12169832E+00 0.10333849E+04</pdfrwt>
<totfact> 0.16422847E+01</totfact>
</mgrwt>
</event>
<event>
 6    1  0.2415530E-005  0.1225264E+04  0.7818608E-02  0.9261741E-01
         21   -1    0    0  501  502  0.00000000000E+00  0.00000000000E+00  0.66025303062E+03  0.66025303062E+03  0.00000000000E+00 0.  1.
          4   -1    0    0  502    0 -0.00000000000E+00 -0.00000000000E+00 -0.13353254302E+04  0.13353254302E+04  0.00000000000E+00 0.  1.
    9000010    2    1    2  501    0 -0.85092135279E+02  0.63976035913E+03 -0.52477845292E+03  0.13329154468E+04  0.10415071651E+04 0.  0.
        -13    1    3    3    0    0 -0.41387572607E+03  0.55737104057E+03  0.16319699800E+02  0.69442201668E+03  0.10566000000E+00 0.  1.
          4    1    3    3  501    0  0.32878359079E+03  0.82389318561E+02 -0.54109815272E+03  0.63849343008E+03  0.00000000000E+00 0.  1.
         13    1    1    2    0    0  0.85092135279E+02 -0.63976035913E+03 -0.15029394663E+03  0.66266301402E+03  0.10566000000E+00 0. -1.
<mgrwt>
<rscale>  1 0.10438270E+04</rscale>
<asrwt>0</asrwt>
<pdfrwt beam="1">  1       21 0.10157739E+00 0.12252637E+04</pdfrwt>
<pdfrwt beam="2">  1        4 0.20543468E+00 0.12252637E+04</pdfrwt>
<totfact> 0.34499668E+00</totfact>
</mgrwt>
</event>
<event>
 6    1  0.2415530E-005  0.1103752E+04  0.7818608E-02  0.9515341E-01
         21   -1    0    0  501  502  0.00000000000E+00  0.00000000000E+00  0.88797014635E+03  0.88797014635E+03  0.00000000000E+00 0.  1.
          4   -1    0    0  502    0 -0.00000000000E+00 -0.00000000000E+00 -0.61531442348E+03  0.61531442348E+03  0.00000000000E+00 0.  1.
    9000010    2    1    2  501    0 -0.86951710796E+02  0.34491368429E+03  0.30774999867E+03  0.11458525218E+04  0.10448645321E+04 0.  0.
        -13    1    3    3    0    0  0.36765380457E+02 -0.27731873591E+03 -0.19111279570E+03  0.33879416514E+03  0.10566000000E+00 0.  1.
          4    1    3    3  501    0 -0.12371709125E+03  0.62223242020E+03  0.49886279436E+03  0.80705835664E+03  0.00000000000E+00 0.  1.
         13    1    1    2    0    0  0.86951710796E+02 -0.34491368429E+03 -0.35094275793E+02  0.35743204806E+03  0.10566000000E+00 0. -1.
<mgrwt>
<rscale>  1 0.83162216E+03</rscale>
<asrwt>0</asrwt>
<pdfrwt beam="1">  1       21 0.13661079E+00 0.11037518E+04</pdfrwt>
<pdfrwt beam="2">  1        4 0.94663758E-01 0.11037518E+04</pdfrwt>
<totfact> 0.12820786E+01</totfact>
</mgrwt>
</event>
<event>
 6    1  0.2415530E-005  0.1068332E+04  0.7818608E-02  0.9621552E-01
         21   -1    0    0  501  502  0.00000000000E+00  0.00000000000E+00  0.19108440456E+04  0.19108440456E+04  0.00000000000E+00 0.  1.
          4   -1    0    0  502    0 -0.00000000000E+00 -0.00000000000E+00 -0.23643470572E+03  0.23643470572E+03  0.00000000000E+00 0.  1.
    9000010    2    1    2  501    0  0.10413103818E+03 -0.25124962390E+03  0.13983625133E+04  0.17597590638E+04  0.10331333879E+04 0.  0.
        -13    1    3    3    0    0 -0.12182665339E+02 -0.35003731272E+03 -0.28502791951E+01  0.35026086405E+03  0.10566000000E+00 0.  1.
          4    1    3    3  501    0  0.11631370352E+03  0.98787688816E+02  0.14012127925E+04  0.14094981997E+04  0.00000000000E+00 0.  1.
         13    1    1    2    0    0 -0.10413103818E+03  0.25124962390E+03  0.27604682656E+03  0.38751968755E+03  0.10566000000E+00 0. -1.
<mgrwt>
<rscale>  1 0.75885975E+03</rscale>
<asrwt>0</asrwt>
<pdfrwt beam="1">  1       21 0.29397600E+00 0.10683325E+04</pdfrwt>
<pdfrwt beam="2">  1        4 0.36374571E-01 0.10683325E+04</pdfrwt>
<totfact> 0.84427808E+00</totfact>
</mgrwt>
</event>
<event>
 6    1  0.2415530E-005  0.9954764E+03  0.7818608E-02  0.1024346E+00
          4   -1    0    0  502    0 -0.00000000000E+00  0.00000000000E+00  0.21412864102E+03  0.21412864102E+03  0.00000000000E+00 0.  1.
         21   -1    0    0  501  502  0.00000000000E+00 -0.00000000000E+00 -0.12847565584E+04  0.12847565584E+04  0.00000000000E+00 0.  1.
    9000010    2    1    2  501    0  0.45509871041E+02  0.65884845535E+01 -0.10545040823E+04  0.14501558888E+04  0.99441373972E+03 0.  0.
        -13    1    3    3    0    0  0.38999062960E+03  0.26371582576E+02 -0.10329514385E+04  0.11044350760E+04  0.10566000000E+00 0.  1.
          4    1    3    3  501    0 -0.34448075856E+03 -0.19783098022E+02 -0.21552643814E+02  0.34572081285E+03  0.00000000000E+00 0.  1.
         13    1    1    2    0    0 -0.45509871041E+02 -0.65884845535E+01 -0.16123835060E+02  0.48729310604E+02  0.10566000000E+00 0. -1.
<mgrwt>
<rscale>  1 0.46150448E+03</rscale>
<asrwt>0</asrwt>
<pdfrwt beam="2">  1       21 0.19765485E+00 0.99547639E+03</pdfrwt>
<pdfrwt beam="1">  1        4 0.32942868E-01 0.99547639E+03</pdfrwt>
<totfact> 0.43446118E+01</totfact>
</mgrwt>
</event>
<event>
 6    1  0.2415530E-005  0.1048402E+04  0.7818608E-02  0.9584394E-01
         21   -1    0    0  501  502  0.00000000000E+00  0.00000000000E+00  0.96344113232E+03  0.96344113232E+03  0.00000000000E+00 0.  1.
          4   -1    0    0  502    0 -0.00000000000E+00 -0.00000000000E+00 -0.52085539854E+03  0.52085539854E+03  0.00000000000E+00 0.  1.
    9000010    2    1    2  501    0 -0.11376366071E+03 -0.30637496140E+03  0.48425319341E+03  0.11548364030E+04  0.99616172129E+03 0.  0.
        -13    1    3    3    0    0  0.40203623892E+03 -0.34519104918E+03  0.21688922666E+03  0.57256523266E+03  0.10566000000E+00 0.  1.
          4    1    3    3  501    0 -0.51579989963E+03  0.38816087779E+02  0.26736396675E+03  0.58227117037E+03  0.00000000000E+00 0.  1.
         13    1    1    2    0    0  0.11376366071E+03  0.30637496140E+03 -0.41667459622E+02  0.32946012783E+03  0.10566000000E+00 0. -1.
<mgrwt>
<rscale>  1 0.78337757E+03</rscale>
<asrwt>0</asrwt>
<pdfrwt beam="1">  1       21 0.14822171E+00 0.10484016E+04</pdfrwt>
<pdfrwt beam="2">  1        4 0.80131600E-01 0.10484016E+04</pdfrwt>
<totfact> 0.15222500E+01</totfact>
</mgrwt>
</event>
<event>
 6    1  0.2415530E-005  0.1081088E+04  0.7818608E-02  0.9488068E-01
          4   -1    0    0  502    0 -0.00000000000E+00  0.00000000000E+00  0.23859513192E+04  0.23859513192E+04  0.00000000000E+00 0.  1.
         21   -1    0    0  501  502  0.00000000000E+00 -0.00000000000E+00 -0.24012446394E+03  0.24012446394E+03  0.00000000000E+00 0.  1.
    9000010    2    1    2  501    0  0.23665710205E+03 -0.34265475057E+03  0.13661802398E+04  0.17421822838E+04  0.99766316974E+03 0.  0.
        -13    1    3    3    0    0  0.58958045388E+03 -0.78325649455E+02  0.10234243228E+04  0.11836964876E+04  0.10566000000E+00 0.  1.
          4    1    3    3  501    0 -0.35292335182E+03 -0.26432910112E+03  0.34275591700E+03  0.55848579623E+03  0.00000000000E+00 0.  1.
         13    1    1    2    0    0 -0.23665710205E+03  0.34265475057E+03  0.77964661547E+03  0.88389349936E+03  0.10566000000E+00 0. -1.
<mgrwt>
<rscale>  1 0.85169235E+03</rscale>
<asrwt>0</asrwt>
<pdfrwt beam="2">  1       21 0.36942227E-01 0.10810877E+04</pdfrwt>
<pdfrwt beam="1">  1        4 0.36706942E+00 0.10810877E+04</pdfrwt>
<totfact> 0.32769306E+00</totfact>
</mgrwt>
</event>
<event>
 6    1  0.2415530E-005  0.1144931E+04  0.7818608E-02  0.9387654E-01
         21   -1    0    0  501  502  0.00000000000E+00  0.00000000000E+00  0.78828179445E+03  0.78828179445E+03  0.00000000000E+00 0.  1.
          4   -1    0    0  502    0 -0.00000000000E+00 -0.00000000000E+00 -0.90275995568E+03  0.90275995568E+03  0.00000000000E+00 0.  1.
    9000010    2    1    2  501    0 -0.48064121694E+03  0.13972018357E+03  0.94085146626E+02  0.11487905411E+04  0.10297232558E+04 0.  0.
        -13    1    3    3    0    0 -0.47282026416E+03  0.51113474587E+03  0.25825009673E+03  0.74263776786E+03  0.10566000000E+00 0.  1.
          4    1    3    3  501    0 -0.78209527820E+01 -0.37141456229E+03 -0.16416495010E+03  0.40615277326E+03  0.00000000000E+00 0.  1.
         13    1    1    2    0    0  0.48064121694E+03 -0.13972018357E+03 -0.20856330786E+03  0.54225120900E+03  0.10566000000E+00 0. -1.
<mgrwt>
<rscale>  1 0.93098721E+03</rscale>
<asrwt>0</asrwt>
<pdfrwt beam="1">  1       21 0.12127412E+00 0.11449313E+04</pdfrwt>
<pdfrwt beam="2">  1        4 0.13888615E+00 0.11449313E+04</pdfrwt>
<totfact> 0.67265251E+00</totfact>
</mgrwt>
</event>
<event>
 6    1  0.2415530E-005  0.9687495E+03  0.7818608E-02  0.1016470E+00
         21   -1    0    0  501  502  0.00000000000E+00  0.00000000000E+00  0.19731500023E+03  0.19731500023E+03  0.00000000000E+00 0.  1.
          4   -1    0    0  502    0 -0.00000000000E+00 -0.00000000000E+00 -0.14254353306E+04  0.14254353306E+04  0.00000000000E+00 0.  1.
    9000010    2    1    2  501    0 -0.45123203596E+02  0.44418206416E+02 -0.10266048443E+04  0.14115215855E+04  0.96667812609E+03 0.  0.
        -13    1    3    3    0    0 -0.34047592453E+03 -0.14280576053E+03 -0.99394713798E+03  0.10603057411E+04  0.10566000000E+00 0.  1.
          4    1    3    3  501    0  0.29535272094E+03  0.18722396694E+03 -0.32657706332E+02  0.35121584438E+03  0.00000000000E+00 0.  1.
         13    1    1    2    0    0  0.45123203596E+02 -0.44418206416E+02 -0.20151548606E+03  0.21122874532E+03  0.10566000000E+00 0. -1.
<mgrwt>
<rscale>  1 0.48982324E+03</rscale>
<asrwt>0</asrwt>
<pdfrwt beam="1">  1       21 0.30356155E-01 0.96874954E+03</pdfrwt>
<pdfrwt beam="2">  1        4 0.21929774E+00 0.96874954E+03</pdfrwt>
<totfact> 0.42122082E+01</totfact>
</mgrwt>
</event>
<event>
 6    1  0.2415530E-005  0.1012984E+04  0.7818608E-02  0.9888396E-01
          4   -1    0    0  502    0 -0.00000000000E+00  0.00000000000E+00  0.33215594055E+03  0.33215594055E+03  0.00000000000E+00 0.  1.
         21   -1    0    0  501  502  0.00000000000E+00 -0.00000000000E+00 -0.12428038594E+04  0.12428038594E+04  0.00000000000E+00 0.  1.
    9000010    2    1    2  501    0 -0.86582322435E+02 -0.99235507485E+02 -0.99390793082E+03  0.14191508617E+04  0.10043863842E+04 0.  0.
        -13    1    3    3    0    0 -0.10559821488E+03  0.40421803729E+03 -0.16508881879E+03  0.44921880405E+03  0.10566000000E+00 0.  1.
          4    1    3    3  501    0  0.19015892442E+02 -0.50345354478E+03 -0.82881911202E+03  0.96993205761E+03  0.00000000000E+00 0.  1.
         13    1    1    2    0    0  0.86582322435E+02  0.99235507485E+02  0.83260011947E+02  0.15580893831E+03  0.10566000000E+00 0. -1.
<mgrwt>
<rscale>  1 0.60826965E+03</rscale>
<asrwt>0</asrwt>
<pdfrwt beam="2">  1       21 0.19120059E+00 0.10129838E+04</pdfrwt>
<pdfrwt beam="1">  1        4 0.51100915E-01 0.10129838E+04</pdfrwt>
<totfact> 0.19571845E+01</totfact>
</mgrwt>
</event>
<event>
 6    1  0.2415530E-005  0.1108175E+04  0.7818608E-02  0.9430340E-01
         21   -1    0    0  501  502  0.00000000000E+00  0.00000000000E+00  0.87862155999E+03  0.87862155999E+03  0.00000000000E+00 0. -1.
          4   -1    0    0  502    0 -0.00000000000E+00 -0.00000000000E+00 -0.73958639140E+03  0.73958639140E+03  0.00000000000E+00 0.  1.
    9000010    2    1    2  501    0  0.45551853117E+03  0.13115700495E+03 -0.46541600591E+02  0.11091519224E+04  0.10016748845E+04 0.  0.
        -13    1    3    3    0    0 -0.29242081909E+03 -0.11305254973E+03 -0.73032766006E+02  0.32190776709E+03  0.10566000000E+00 0.  1.
          4    1    3    3  501    0  0.74793935027E+03  0.24420955468E+03  0.26491165414E+02  0.78724415534E+03  0.00000000000E+00 0.  1.
         13    1    1    2    0    0 -0.45551853117E+03 -0.13115700495E+03  0.18557676918E+03  0.50905602895E+03  0.10566000000E+00 0. -1.
<mgrwt>
<rscale>  1 0.89620329E+03</rscale>
<asrwt>0</asrwt>
<pdfrwt beam="1">  1       21 0.13517255E+00 0.11081750E+04</pdfrwt>
<pdfrwt beam="2">  1        4 0.11378252E+00 0.11081750E+04</pdfrwt>
<totfact> 0.84233602E+00</totfact>
</mgrwt>
</event>
<event>
 6    1  0.2415530E-005  0.1014721E+04  0.7818608E-02  0.9723668E-01
         21   -1    0    0  501  502  0.00000000000E+00  0.00000000000E+00  0.42840240333E+03  0.42840240333E+03  0.00000000000E+00 0.  1.
          4   -1    0    0  502    0 -0.00000000000E+00 -0.00000000000E+00 -0.16074990122E+04  0.16074990122E+04  0.00000000000E+00 0.  1.
    9000010    2    1    2  501    0 -0.21731894759E+03  0.57957823824E+02 -0.20377206093E+03  0.10349795308E+04  0.98948114791E+03 0.  0.
        -13    1    3    3    0    0  0.23151397352E+03 -0.22211731514E+03  0.19234105190E+03  0.37407206930E+03  0.10566000000E+00 0.  1.
          4    1    3    3  501    0 -0.44883292110E+03  0.28007513897E+03 -0.39611311283E+03  0.66090746152E+03  0.00000000000E+00 0.  1.
         13    1    1    2    0    0  0.21731894759E+03 -0.57957823824E+02 -0.97532454797E+03  0.10009218847E+04  0.10566000000E+00 0. -1.
<mgrwt>
<rscale>  1 0.69624904E+03</rscale>
<asrwt>0</asrwt>
<pdfrwt beam="1">  1       21 0.65908061E-01 0.10147214E+04</pdfrwt>
<pdfrwt beam="2">  1        4 0.24730754E+00 0.10147214E+04</pdfrwt>
<totfact> 0.53537416E+00</totfact>
</mgrwt>
</event>
<event>
 6    1  0.2415530E-005  0.1018155E+04  0.7818608E-02  0.9887688E-01
          4   -1    0    0  502    0 -0.00000000000E+00  0.00000000000E+00  0.16744229553E+04  0.16744229553E+04  0.00000000000E+00 0.  1.
         21   -1    0    0  501  502  0.00000000000E+00 -0.00000000000E+00 -0.19760803938E+03  0.19760803938E+03  0.00000000000E+00 0.  1.
    9000010    2    1    2  501    0 -0.54735480055E+02  0.11791249466E+03  0.12698128221E+04  0.16275944852E+04  0.10098217050E+04 0.  0.
        -13    1    3    3    0    0 -0.20687773056E+03  0.24003524016E+03 -0.25279196638E+02  0.31789048565E+03  0.10566000000E+00 0.  1.
          4    1    3    3  501    0  0.15214225050E+03 -0.12212274551E+03  0.12950920187E+04  0.13097039995E+04  0.00000000000E+00 0.  1.
         13    1    1    2    0    0  0.54735480055E+02 -0.11791249466E+03  0.20700209381E+03  0.24443650950E+03  0.10566000000E+00 0. -1.
<mgrwt>
<rscale>  1 0.60861700E+03</rscale>
<asrwt>0</asrwt>
<pdfrwt beam="2">  1       21 0.30401238E-01 0.10181548E+04</pdfrwt>
<pdfrwt beam="1">  1        4 0.25760352E+00 0.10181548E+04</pdfrwt>
<totfact> 0.24075260E+01</totfact>
</mgrwt>
</event>
<event>
 6    1  0.2415530E-005  0.1037944E+04  0.7818608E-02  0.9705169E-01
         21   -1    0    0  501  502  0.00000000000E+00  0.00000000000E+00  0.53561980356E+03  0.53561980356E+03  0.00000000000E+00 0.  1.
          4   -1    0    0  502    0 -0.00000000000E+00 -0.00000000000E+00 -0.10197911362E+04  0.10197911362E+04  0.00000000000E+00 0.  1.
    9000010    2    1    2  501    0  0.21981664070E+03  0.40748902505E+02 -0.17656124990E+02  0.10380945195E+04  0.10135820953E+04 0.  0.
        -13    1    3    3    0    0  0.34175067599E+03  0.17623571323E+02 -0.46302483717E+03  0.57575700239E+03  0.10566000000E+00 0.  1.
          4    1    3    3  501    0 -0.12193403529E+03  0.23125331182E+02  0.44536871218E+03  0.46233751707E+03  0.00000000000E+00 0.  1.
         13    1    1    2    0    0 -0.21981664070E+03 -0.40748902505E+02 -0.46651520766E+03  0.51731642032E+03  0.10566000000E+00 0. -1.
<mgrwt>
<rscale>  1 0.70709849E+03</rscale>
<asrwt>0</asrwt>
<pdfrwt beam="1">  1       21 0.82403048E-01 0.10379444E+04</pdfrwt>
<pdfrwt beam="2">  1        4 0.15689094E+00 0.10379444E+04</pdfrwt>
<totfact> 0.12814097E+01</totfact>
</mgrwt>
</event>
<event>
 6    1  0.2415530E-005  0.1062058E+04  0.7818608E-02  0.9642419E-01
          4   -1    0    0  502    0 -0.00000000000E+00  0.00000000000E+00  0.50185468987E+03  0.50185468987E+03  0.00000000000E+00 0.  1.
         21   -1    0    0  501  502  0.00000000000E+00 -0.00000000000E+00 -0.91825778147E+03  0.91825778147E+03  0.00000000000E+00 0.  1.
    9000010    2    1    2  501    0 -0.25172478581E+03  0.55881694450E+02 -0.46211546060E+03  0.11582389076E+04  0.10302808047E+04 0.  0.
        -13    1    3    3    0    0  0.32279165420E+03  0.76896331935E+02  0.10763025862E+03  0.34884349158E+03  0.10566000000E+00 0.  1.
          4    1    3    3  501    0 -0.57451644001E+03 -0.21014637485E+02 -0.56974571922E+03  0.80939541597E+03  0.00000000000E+00 0.  1.
         13    1    1    2    0    0  0.25172478581E+03 -0.55881694450E+02  0.45712369002E+02  0.26187356378E+03  0.10566000000E+00 0. -1.
<mgrwt>
<rscale>  1 0.74551112E+03</rscale>
<asrwt>0</asrwt>
<pdfrwt beam="2">  1       21 0.14127043E+00 0.10620578E+04</pdfrwt>
<pdfrwt beam="1">  1        4 0.77208414E-01 0.10620578E+04</pdfrwt>
<totfact> 0.18898265E+01</totfact>
</mgrwt>
</event>
<event>
 6    1  0.2415530E-005  0.1070585E+04  0.7818608E-02  0.9470076E-01
         21   -1    0    0  501  502  0.00000000000E+00  0.00000000000E+00  0.30336974910E+03  0.30336974910E+03  0.00000000000E+00 0.  1.
          4   -1    0    0  502    0 -0.00000000000E+00 -0.00000000000E+00 -0.26788871013E+04  0.26788871013E+04  0.00000000000E+00 0.  1.
    9000010    2    1    2  501    0  0.21622642466E+02 -0.45629299209E+03 -0.78528350165E+03  0.13277132445E+04  0.96823625645E+03 0.  0.
        -13    1    3    3    0    0 -0.23475746269E+02 -0.10757223436E+03 -0.93794002542E+03  0.94438043114E+03  0.10566000000E+00 0.  1.
          4    1    3    3  501    0  0.45098388734E+02 -0.34872075772E+03  0.15265652377E+03  0.38333281334E+03  0.00000000000E+00 0.  1.
         13    1    1    2    0    0 -0.21622642466E+02  0.45629299209E+03 -0.15902338506E+04  0.16545436060E+04  0.10566000000E+00 0. -1.
<mgrwt>
<rscale>  1 0.86526392E+03</rscale>
<asrwt>0</asrwt>
<pdfrwt beam="1">  1       21 0.46672269E-01 0.10705850E+04</pdfrwt>
<pdfrwt beam="2">  1        4 0.41213648E+00 0.10705850E+04</pdfrwt>
<totfact> 0.98697674E-01</totfact>
</mgrwt>
</event>
<event>
 6    1  0.2415530E-005  0.1049597E+04  0.7818608E-02  0.9634081E-01
          4   -1    0    0  502    0 -0.00000000000E+00  0.00000000000E+00  0.25540194050E+04  0.25540194050E+04  0.00000000000E+00 0.  1.
         21   -1    0    0  501  502  0.00000000000E+00 -0.00000000000E+00 -0.18212444890E+03  0.18212444890E+03  0.00000000000E+00 0.  1.
    9000010    2    1    2  501    0  0.22460767231E+03 -0.15836179212E+03  0.21094006946E+04  0.23561039716E+04  0.10129795511E+04 0.  0.
        -13    1    3    3    0    0  0.33087805333E+03  0.36732038649E+03  0.12357361325E+04  0.13309576826E+04  0.10566000000E+00 0.  1.
          4    1    3    3  501    0 -0.10627038102E+03 -0.52568217861E+03  0.87366456214E+03  0.10251462890E+04  0.00000000000E+00 0.  1.
         13    1    1    2    0    0 -0.22460767231E+03  0.15836179212E+03  0.26249426148E+03  0.38003988230E+03  0.10566000000E+00 0. -1.
<mgrwt>
<rscale>  1 0.75080981E+03</rscale>
<asrwt>0</asrwt>
<pdfrwt beam="2">  1       21 0.28019148E-01 0.10495974E+04</pdfrwt>
<pdfrwt beam="1">  1        4 0.39292604E+00 0.10495974E+04</pdfrwt>
<totfact> 0.38720217E+00</totfact>
</mgrwt>
</event>
<event>
 6    1  0.2415530E-005  0.9956201E+03  0.7818608E-02  0.9979568E-01
         21   -1    0    0  501  502  0.00000000000E+00  0.00000000000E+00  0.61328644441E+03  0.61328644441E+03  0.00000000000E+00 0.  1.
          4   -1    0    0  502    0 -0.00000000000E+00 -0.00000000000E+00 -0.62903671457E+03  0.62903671457E+03  0.00000000000E+00 0.  1.
    9000010    2    1    2  501    0  0.35860266284E+02 -0.97259727189E+02 -0.21422708049E+03  0.10184069500E+04  0.99020909943E+03 0.  0.
        -13    1    3    3    0    0  0.29350353747E+03 -0.73885714986E+02 -0.52991596623E+03  0.61025762414E+03  0.10566000000E+00 0.  1.
          4    1    3    3  501    0 -0.25764327119E+03 -0.23374012203E+02  0.31568888574E+03  0.40814932588E+03  0.00000000000E+00 0.  1.
         13    1    1    2    0    0 -0.35860266284E+02  0.97259727189E+02  0.19847681034E+03  0.22391620897E+03  0.10566000000E+00 0. -1.
<mgrwt>
<rscale>  1 0.56555293E+03</rscale>
<asrwt>0</asrwt>
<pdfrwt beam="1">  1       21 0.94351761E-01 0.99562015E+03</pdfrwt>
<pdfrwt beam="2">  1        4 0.96774879E-01 0.99562015E+03</pdfrwt>
<totfact> 0.31748391E+01</totfact>
</mgrwt>
</event>
<event>
 6    1  0.2415530E-005  0.1040926E+04  0.7818608E-02  0.9584416E-01
          4   -1    0    0  502    0 -0.00000000000E+00  0.00000000000E+00  0.11912342270E+04  0.11912342270E+04  0.00000000000E+00 0.  1.
         21   -1    0    0  501  502  0.00000000000E+00 -0.00000000000E+00 -0.50474526764E+03  0.50474526764E+03  0.00000000000E+00 0. -1.
    9000010    2    1    2  501    0  0.21769849230E+03 -0.25314766160E+03  0.83121316349E+03  0.13320818737E+04  0.98592617516E+03 0.  0.
        -13    1    3    3    0    0  0.55123599979E+03 -0.36865832267E+03  0.39854119515E+03  0.77369579405E+03  0.10566000000E+00 0.  1.
          4    1    3    3  501    0 -0.33353750748E+03  0.11551066107E+03  0.43267196834E+03  0.55838607962E+03  0.00000000000E+00 0.  1.
         13    1    1    2    0    0 -0.21769849230E+03  0.25314766160E+03 -0.14472420413E+03  0.36389762097E+03  0.10566000000E+00 0. -1.
<mgrwt>
<rscale>  1 0.78336251E+03</rscale>
<asrwt>0</asrwt>
<pdfrwt beam="2">  1       21 0.77653119E-01 0.10409259E+04</pdfrwt>
<pdfrwt beam="1">  1        4 0.18326680E+00 0.10409259E+04</pdfrwt>
<totfact> 0.95022209E+00</totfact>
</mgrwt>
</event>
<event>
 6    1  0.2415530E-005  0.1159366E+04  0.7818608E-02  0.9342982E-01
         21   -1    0    0  501  502  0.00000000000E+00  0.00000000000E+00  0.19606825280E+04  0.19606825280E+04  0.00000000000E+00 0.  1.
          4   -1    0    0  502    0 -0.00000000000E+00 -0.00000000000E+00 -0.43096979493E+03  0.43096979493E+03  0.00000000000E+00 0.  1.
    9000010    2    1    2  501    0 -0.39226127154E+03 -0.40835722376E+03  0.13869514979E+04  0.18076957246E+04  0.10116841640E+04 0.  0.
        -13    1    3    3    0    0 -0.21598234846E+03 -0.66306724982E+03  0.47289078976E+03  0.84257478175E+03  0.10566000000E+00 0.  1.
          4    1    3    3  501    0 -0.17627892308E+03  0.25471002606E+03  0.91406070818E+03  0.96512094285E+03  0.00000000000E+00 0.  1.
         13    1    1    2    0    0  0.39226127154E+03  0.40835722376E+03  0.14276123516E+03  0.58395659836E+03  0.10566000000E+00 0. -1.
<mgrwt>
<rscale>  1 0.96920355E+03</rscale>
<asrwt>0</asrwt>
<pdfrwt beam="1">  1       21 0.30164346E+00 0.11593659E+04</pdfrwt>
<pdfrwt beam="2">  1        4 0.66303047E-01 0.11593659E+04</pdfrwt>
<totfact> 0.20982322E+00</totfact>
</mgrwt>
</event>
<event>
 6    1  0.2415530E-005  0.1096534E+04  0.7818608E-02  0.9452997E-01
         21   -1    0    0  501  502  0.00000000000E+00  0.00000000000E+00  0.93694845613E+03  0.93694845613E+03  0.00000000000E+00 0.  1.
          4   -1    0    0  502    0 -0.00000000000E+00 -0.00000000000E+00 -0.74527444263E+03  0.74527444263E+03  0.00000000000E+00 0.  1.
    9000010    2    1    2  501    0 -0.30279077418E+03  0.33497254675E+03  0.42248739201E+03  0.11751098080E+04  0.99924902019E+03 0.  0.
        -13    1    3    3    0    0  0.19665541367E+02 -0.34413553869E+03  0.12701667208E+03  0.36735439109E+03  0.10566000000E+00 0.  1.
          4    1    3    3  501    0 -0.32245631555E+03  0.67910808543E+03  0.29547071993E+03  0.80775541687E+03  0.00000000000E+00 0.  1.
         13    1    1    2    0    0  0.30279077418E+03 -0.33497254675E+03 -0.23081337851E+03  0.50711309081E+03  0.10566000000E+00 0. -1.
<mgrwt>
<rscale>  1 0.87839702E+03</rscale>
<asrwt>0</asrwt>
<pdfrwt beam="1">  1       21 0.14414592E+00 0.10965343E+04</pdfrwt>
<pdfrwt beam="2">  1        4 0.11465761E+00 0.10965343E+04</pdfrwt>
<totfact> 0.69438625E+00</totfact>
</mgrwt>
</event>
<event>
 6    1  0.2415530E-005  0.9819784E+03  0.7818608E-02  0.9833932E-01
          4   -1    0    0  502    0 -0.00000000000E+00  0.00000000000E+00  0.49577634884E+03  0.49577634884E+03  0.00000000000E+00 0.  1.
         21   -1    0    0  501  502  0.00000000000E+00 -0.00000000000E+00 -0.70218291086E+03  0.70218291086E+03  0.00000000000E+00 0.  1.
    9000010    2    1    2  501    0 -0.14824202676E+03 -0.88202791220E+02 -0.26269706564E+03  0.10165093690E+04  0.96670891072E+03 0.  0.
        -13    1    3    3    0    0  0.27566477214E+03 -0.26412845547E+03  0.13928962275E+03  0.40639453461E+03  0.10566000000E+00 0.  1.
          4    1    3    3  501    0 -0.42390679890E+03  0.17592566425E+03 -0.40198668838E+03  0.61011483438E+03  0.00000000000E+00 0.  1.
         13    1    1    2    0    0  0.14824202676E+03  0.88202791220E+02  0.56290503619E+02  0.18144989071E+03  0.10566000000E+00 0. -1.
<mgrwt>
<rscale>  1 0.63572933E+03</rscale>
<asrwt>0</asrwt>
<pdfrwt beam="2">  1       21 0.10802814E+00 0.98197839E+03</pdfrwt>
<pdfrwt beam="1">  1        4 0.76273285E-01 0.98197839E+03</pdfrwt>
<totfact> 0.39551335E+01</totfact>
</mgrwt>
</event>
<event>
 6    1  0.2415530E-005  0.9881040E+03  0.7818608E-02  0.1004472E+00
          4   -1    0    0  502    0 -0.00000000000E+00  0.00000000000E+00  0.20638122354E+03  0.20638122354E+03  0.00000000000E+00 0.  1.
         21   -1    0    0  501  502  0.00000000000E+00 -0.00000000000E+00 -0.14003886449E+04  0.14003886449E+04  0.00000000000E+00 0.  1.
    9000010    2    1    2  501    0 -0.64730182259E+02  0.57229961047E+02 -0.11130744155E+04  0.14883830975E+04  0.98431921931E+03 0.  0.
        -13    1    3    3    0    0  0.41209863045E+03 -0.17564032779E+03 -0.61290093039E+03  0.75915898704E+03  0.10566000000E+00 0.  1.
          4    1    3    3  501    0 -0.47682881271E+03  0.23287028884E+03 -0.50017348516E+03  0.72922411048E+03  0.00000000000E+00 0.  1.
         13    1    1    2    0    0  0.64730182259E+02 -0.57229961047E+02 -0.80933005853E+02  0.11838677095E+03  0.10566000000E+00 0. -1.
<mgrwt>
<rscale>  1 0.53731967E+03</rscale>
<asrwt>0</asrwt>
<pdfrwt beam="2">  1       21 0.21544441E+00 0.98810404E+03</pdfrwt>
<pdfrwt beam="1">  1        4 0.31750956E-01 0.98810404E+03</pdfrwt>
<totfact> 0.35429373E+01</totfact>
</mgrwt>
</event>
<event>
 6    1  0.2415530E-005  0.8876445E+03  0.7818608E-02  0.9599007E-01
         21   -1    0    0  501  502  0.00000000000E+00  0.00000000000E+00  0.33576893165E+03  0.33576893165E+03  0.00000000000E+00 0. -1.
          4   -1    0    0  502    0 -0.00000000000E+00 -0.00000000000E+00 -0.18936190837E+04  0.18936190837E+04  0.00000000000E+00 0.  1.
    9000010    2    1    2  501    0 -0.20927378188E+03 -0.46743575091E+03 -0.14589813375E+04  0.17077878326E+04  0.72499726963E+03 0.  0.
        -13    1    3    3    0    0  0.25297417463E+03 -0.64686832473E+02 -0.58050311598E+03  0.63652509625E+03  0.10566000000E+00 0.  1.
          4    1    3    3  501    0 -0.46224795651E+03 -0.40274891844E+03 -0.87847822152E+03  0.10712627363E+04  0.00000000000E+00 0.  1.
         13    1    1    2    0    0  0.20927378188E+03  0.46743575091E+03 -0.98868814575E+02  0.52160018278E+03  0.10566000000E+00 0. -1.
<mgrwt>
<rscale>  1 0.77361952E+03</rscale>
<asrwt>0</asrwt>
<pdfrwt beam="1">  1       21 0.51656759E-01 0.88764449E+03</pdfrwt>
<pdfrwt beam="2">  1        4 0.29132601E+00 0.88764449E+03</pdfrwt>
<totfact> 0.50148961E+00</totfact>
</mgrwt>
</event>
<event>
 6    1  0.2415530E-005  0.1014573E+04  0.7818608E-02  0.9719128E-01
          4   -1    0    0  502    0 -0.00000000000E+00  0.00000000000E+00  0.40408301818E+03  0.40408301818E+03  0.00000000000E+00 0.  1.
         21   -1    0    0  501  502  0.00000000000E+00 -0.00000000000E+00 -0.11609278637E+04  0.11609278637E+04  0.00000000000E+00 0.  1.
    9000010    2    1    2  501    0 -0.21476271864E+03 -0.77887182038E+02 -0.84476948801E+03  0.13202248685E+04  0.98851847587E+03 0.  0.
        -13    1    3    3    0    0 -0.59680467826E+03 -0.17184096470E+03 -0.52599413065E+03  0.81386422565E+03  0.10566000000E+00 0.  1.
          4    1    3    3  501    0  0.38204195962E+03  0.93953782658E+02 -0.31877535736E+03  0.50636064287E+03  0.00000000000E+00 0.  1.
         13    1    1    2    0    0  0.21476271864E+03  0.77887182038E+02  0.87924642449E+02  0.24478601340E+03  0.10566000000E+00 0. -1.
<mgrwt>
<rscale>  1 0.69889236E+03</rscale>
<asrwt>0</asrwt>
<pdfrwt beam="2">  1       21 0.17860428E+00 0.10145729E+04</pdfrwt>
<pdfrwt beam="1">  1        4 0.62166619E-01 0.10145729E+04</pdfrwt>
<totfact> 0.15783737E+01</totfact>
</mgrwt>
</event>
<event>
 6    1  0.2415530E-005  0.1017858E+04  0.7818608E-02  0.9769456E-01
         21   -1    0    0  501  502  0.00000000000E+00  0.00000000000E+00  0.38213967978E+03  0.38213967978E+03  0.00000000000E+00 0.  1.
          4   -1    0    0  502    0 -0.00000000000E+00 -0.00000000000E+00 -0.96091811067E+03  0.96091811067E+03  0.00000000000E+00 0.  1.
    9000010    2    1    2  501    0  0.16098435426E+03 -0.10354020573E+03 -0.45362294430E+03  0.11143648883E+04  0.99969935085E+03 0.  0.
        -13    1    3    3    0    0  0.49161675992E+03  0.23467496684E+03 -0.23409788794E+03  0.59292597430E+03  0.10566000000E+00 0.  1.
          4    1    3    3  501    0 -0.33063240566E+03 -0.33821517257E+03 -0.21952505636E+03  0.52143891397E+03  0.00000000000E+00 0.  1.
         13    1    1    2    0    0 -0.16098435426E+03  0.10354020573E+03 -0.12515548659E+03  0.22869290219E+03  0.10566000000E+00 0. -1.
<mgrwt>
<rscale>  1 0.67027771E+03</rscale>
<asrwt>0</asrwt>
<pdfrwt beam="1">  1       21 0.58790721E-01 0.10178582E+04</pdfrwt>
<pdfrwt beam="2">  1        4 0.14783355E+00 0.10178582E+04</pdfrwt>
<totfact> 0.32686826E+01</totfact>
</mgrwt>
</event>
<event>
 6    1  0.2415530E-005  0.1084444E+04  0.7818608E-02  0.9502472E-01
          4   -1    0    0  502    0 -0.00000000000E+00  0.00000000000E+00  0.70453532354E+03  0.70453532354E+03  0.00000000000E+00 0.  1.
         21   -1    0    0  501  502  0.00000000000E+00 -0.00000000000E+00 -0.78141642792E+03  0.78141642792E+03  0.00000000000E+00 0.  1.
    9000010    2    1    2  501    0 -0.36065911183E+03 -0.15430878861E+03  0.85324645314E+01  0.10844773611E+04  0.10110055127E+04 0.  0.
        -13    1    3    3    0    0  0.18530696284E+03 -0.20274911262E+03  0.34526312163E+03  0.44119441006E+03  0.10566000000E+00 0.  1.
          4    1    3    3  501    0 -0.54596607467E+03  0.48440324005E+02 -0.33673065710E+03  0.64328295105E+03  0.00000000000E+00 0.  1.
         13    1    1    2    0    0  0.36065911183E+03  0.15430878861E+03 -0.85413568921E+02  0.40147439035E+03  0.10566000000E+00 0. -1.
<mgrwt>
<rscale>  1 0.84101802E+03</rscale>
<asrwt>0</asrwt>
<pdfrwt beam="2">  1       21 0.12021791E+00 0.10844438E+04</pdfrwt>
<pdfrwt beam="1">  1        4 0.10839005E+00 0.10844438E+04</pdfrwt>
<totfact> 0.12987436E+01</totfact>
</mgrwt>
</event>
<event>
 6    1  0.2415530E-005  0.1097266E+04  0.7818608E-02  0.9449045E-01
          4   -1    0    0  502    0 -0.00000000000E+00  0.00000000000E+00  0.11868825873E+04  0.11868825873E+04  0.00000000000E+00 0.  1.
         21   -1    0    0  501  502  0.00000000000E+00 -0.00000000000E+00 -0.51362872549E+03  0.51362872549E+03  0.00000000000E+00 0. -1.
    9000010    2    1    2  501    0 -0.33539402675E+03  0.31038609367E+03  0.54898480876E+03  0.12269382044E+04  0.99757924839E+03 0.  0.
        -13    1    3    3    0    0 -0.15922862980E+01  0.56374151894E+03  0.36490043230E+02  0.56492350807E+03  0.10566000000E+00 0.  1.
          4    1    3    3  501    0 -0.33380174045E+03 -0.25335542527E+03  0.51249476553E+03  0.66201469631E+03  0.00000000000E+00 0.  1.
         13    1    1    2    0    0  0.33539402675E+03 -0.31038609367E+03  0.12426905310E+03  0.47357310845E+03  0.10566000000E+00 0. -1.
<mgrwt>
<rscale>  1 0.88147057E+03</rscale>
<asrwt>0</asrwt>
<pdfrwt beam="2">  1       21 0.79019804E-01 0.10972662E+04</pdfrwt>
<pdfrwt beam="1">  1        4 0.18259732E+00 0.10972662E+04</pdfrwt>
<totfact> 0.91631784E+00</totfact>
</mgrwt>
</event>
<event>
 6    1  0.2415530E-005  0.9658404E+03  0.7818608E-02  0.9583890E-01
          4   -1    0    0  502    0 -0.00000000000E+00  0.00000000000E+00  0.26080486914E+04  0.26080486914E+04  0.00000000000E+00 0.  1.
         21   -1    0    0  501  502  0.00000000000E+00 -0.00000000000E+00 -0.19727139909E+03  0.19727139909E+03  0.00000000000E+00 0.  1.
    9000010    2    1    2  501    0 -0.85309904976E+02  0.40993389367E+03  0.13097141210E+04  0.16273287088E+04  0.87035858733E+03 0.  0.
        -13    1    3    3    0    0 -0.66594619280E+02  0.15205400677E+03 -0.10020505474E+03  0.19389772678E+03  0.10566000000E+00 0.  1.
          4    1    3    3  501    0 -0.18715285696E+02  0.25787988690E+03  0.14099191757E+04  0.14334309820E+04  0.00000000000E+00 0.  1.
         13    1    1    2    0    0  0.85309904976E+02 -0.40993389367E+03  0.11010631713E+04  0.11779913817E+04  0.10566000000E+00 0. -1.
<mgrwt>
<rscale>  1 0.78371663E+03</rscale>
<asrwt>0</asrwt>
<pdfrwt beam="2">  1       21 0.30349448E-01 0.96584038E+03</pdfrwt>
<pdfrwt beam="1">  1        4 0.40123824E+00 0.96584038E+03</pdfrwt>
<totfact> 0.29282320E+00</totfact>
</mgrwt>
</event>
<event>
 6    1  0.2415530E-005  0.1018853E+04  0.7818608E-02  0.1007553E+00
         21   -1    0    0  501  502  0.00000000000E+00  0.00000000000E+00  0.11504730539E+04  0.11504730539E+04  0.00000000000E+00 0.  1.
          4   -1    0    0  502    0 -0.00000000000E+00 -0.00000000000E+00 -0.33731411681E+03  0.33731411681E+03  0.00000000000E+00 0.  1.
    9000010    2    1    2  501    0  0.43971485986E+02 -0.56511647741E+02  0.91086586679E+03  0.13666520676E+04  0.10163336995E+04 0.  0.
        -13    1    3    3    0    0 -0.33535519675E+03 -0.22243257266E+03  0.86002264122E+03  0.94951477711E+03  0.10566000000E+00 0.  1.
          4    1    3    3  501    0  0.37932668274E+03  0.16592092492E+03  0.50843225561E+02  0.41713729052E+03  0.00000000000E+00 0.  1.
         13    1    1    2    0    0 -0.43971485986E+02  0.56511647741E+02 -0.97706929726E+02  0.12113510305E+03  0.10566000000E+00 0. -1.
<mgrwt>
<rscale>  1 0.52458668E+03</rscale>
<asrwt>0</asrwt>
<pdfrwt beam="1">  1       21 0.17699585E+00 0.10188529E+04</pdfrwt>
<pdfrwt beam="2">  1        4 0.51894480E-01 0.10188529E+04</pdfrwt>
<totfact> 0.23933050E+01</totfact>
</mgrwt>
</event>
<event>
 6    1  0.2415530E-005  0.1008323E+04  0.7818608E-02  0.9701390E-01
         21   -1    0    0  501  502  0.00000000000E+00  0.00000000000E+00  0.30656507679E+03  0.30656507679E+03  0.00000000000E+00 0.  1.
          4   -1    0    0  502    0 -0.00000000000E+00 -0.00000000000E+00 -0.12975018953E+04  0.12975018953E+04  0.00000000000E+00 0.  1.
    9000010    2    1    2  501    0 -0.14236020636E+03 -0.20179467362E+03 -0.85589269934E+03  0.13225986010E+04  0.97761302560E+03 0.  0.
        -13    1    3    3    0    0 -0.23764795795E+03  0.32242265201E+03 -0.62405490737E+03  0.74153722565E+03  0.10566000000E+00 0.  1.
          4    1    3    3  501    0  0.95287751588E+02 -0.52421732563E+03 -0.23183779197E+03  0.58106137531E+03  0.00000000000E+00 0.  1.
         13    1    1    2    0    0  0.14236020636E+03  0.20179467362E+03 -0.13504411916E+03  0.28146837112E+03  0.10566000000E+00 0. -1.
<mgrwt>
<rscale>  1 0.70934066E+03</rscale>
<asrwt>0</asrwt>
<pdfrwt beam="1">  1       21 0.47163858E-01 0.10083227E+04</pdfrwt>
<pdfrwt beam="2">  1        4 0.19961568E+00 0.10083227E+04</pdfrwt>
<totfact> 0.22537529E+01</totfact>
</mgrwt>
</event>
<event>
 6    1  0.2415530E-005  0.1012757E+04  0.7818608E-02  0.1048827E+00
          4   -1    0    0  502    0 -0.00000000000E+00  0.00000000000E+00  0.28026731274E+03  0.28026731274E+03  0.00000000000E+00 0.  1.
         21   -1    0    0  501  502  0.00000000000E+00 -0.00000000000E+00 -0.95888045202E+03  0.95888045202E+03  0.00000000000E+00 0.  1.
    9000010    2    1    2  501    0 -0.12752581589E+02 -0.17081883346E+02 -0.67606600429E+03  0.12176787607E+04  0.10125324207E+04 0.  0.
        -13    1    3    3    0    0  0.46755154393E+03 -0.18473349211E+03 -0.36699280687E+03  0.62242641396E+03  0.10566000000E+00 0.  1.
          4    1    3    3  501    0 -0.48030412551E+03  0.16765160876E+03 -0.30907319742E+03  0.59525234672E+03  0.00000000000E+00 0.  1.
         13    1    1    2    0    0  0.12752581589E+02  0.17081883346E+02 -0.25471349881E+01  0.21469004087E+02  0.10566000000E+00 0. -1.
<mgrwt>
<rscale>  1 0.38575563E+03</rscale>
<asrwt>0</asrwt>
<pdfrwt beam="2">  1       21 0.14752007E+00 0.10127568E+04</pdfrwt>
<pdfrwt beam="1">  1        4 0.43118048E-01 0.10127568E+04</pdfrwt>
<totfact> 0.59559874E+01</totfact>
</mgrwt>
</event>
<event>
 6    1  0.2415530E-005  0.1008205E+04  0.7818608E-02  0.9727702E-01
         21   -1    0    0  501  502  0.00000000000E+00  0.00000000000E+00  0.12231632186E+04  0.12231632186E+04  0.00000000000E+00 0.  1.
          4   -1    0    0  502    0 -0.00000000000E+00 -0.00000000000E+00 -0.32456102067E+03  0.32456102067E+03  0.00000000000E+00 0.  1.
    9000010    2    1    2  501    0  0.36282966409E+02 -0.22331162622E+03  0.84435547480E+03  0.13150715922E+04  0.98249304769E+03 0.  0.
        -13    1    3    3    0    0 -0.21501465397E+03 -0.38831818957E+03  0.90536062323E+03  0.10083155196E+04  0.10566000000E+00 0.  1.
          4    1    3    3  501    0  0.25129762038E+03  0.16500656335E+03 -0.61005148431E+02  0.30675607263E+03  0.00000000000E+00 0.  1.
         13    1    1    2    0    0 -0.36282966409E+02  0.22331162622E+03  0.54246723153E+02  0.23265264708E+03  0.10566000000E+00 0. -1.
<mgrwt>
<rscale>  1 0.69391130E+03</rscale>
<asrwt>0</asrwt>
<pdfrwt beam="1">  1       21 0.18817895E+00 0.10082049E+04</pdfrwt>
<pdfrwt beam="2">  1        4 0.49932465E-01 0.10082049E+04</pdfrwt>
<totfact> 0.21598781E+01</totfact>
</mgrwt>
</event>
<event>
 6    1  0.2415530E-005  0.8509180E+03  0.7818608E-02  0.1051671E+00
          4   -1    0    0  502    0 -0.00000000000E+00  0.00000000000E+00  0.18939432741E+03  0.18939432741E+03  0.00000000000E+00 0.  1.
         21   -1    0    0  501  502  0.00000000000E+00 -0.00000000000E+00 -0.11290983147E+04  0.11290983147E+04  0.00000000000E+00 0.  1.
    9000010    2    1    2  501    0  0.33129972968E+02  0.81079086489E+00 -0.95742873205E+03  0.12809103294E+04  0.85027245192E+03 0.  0.
        -13    1    3    3    0    0  0.22732393679E+03  0.30462561855E+02 -0.10420664956E+04  0.10670083094E+04  0.10566000000E+00 0.  1.
          4    1    3    3  501    0 -0.19419396382E+03 -0.29651770990E+02  0.84637763598E+02  0.21390201994E+03  0.00000000000E+00 0.  1.
         13    1    1    2    0    0 -0.33129972968E+02 -0.81079086489E+00  0.17724744737E+02  0.37582312738E+02  0.10566000000E+00 0. -1.
<mgrwt>
<rscale>  1 0.37801072E+03</rscale>
<asrwt>0</asrwt>
<pdfrwt beam="2">  1       21 0.17370743E+00 0.85091803E+03</pdfrwt>
<pdfrwt beam="1">  1        4 0.29137589E-01 0.85091803E+03</pdfrwt>
<totfact> 0.83214639E+01</totfact>
</mgrwt>
</event>
<event>
 6    1  0.2415530E-005  0.9869688E+03  0.7818608E-02  0.9954711E-01
         21   -1    0    0  501  502  0.00000000000E+00  0.00000000000E+00  0.82476421624E+03  0.82476421624E+03  0.00000000000E+00 0.  1.
          4   -1    0    0  502    0 -0.00000000000E+00 -0.00000000000E+00 -0.43418170150E+03  0.43418170150E+03  0.00000000000E+00 0.  1.
    9000010    2    1    2  501    0  0.65231803990E+02 -0.94881697667E+02  0.49443277796E+03  0.11038891116E+04  0.98022939864E+03 0.  0.
        -13    1    3    3    0    0  0.35378744614E+03  0.31969566807E+03  0.29575497124E+03  0.56110773600E+03  0.10566000000E+00 0.  1.
          4    1    3    3  501    0 -0.28855564215E+03 -0.41457736573E+03  0.19867780672E+03  0.54278137558E+03  0.00000000000E+00 0.  1.
         13    1    1    2    0    0 -0.65231803990E+02  0.94881697667E+02 -0.10385026322E+03  0.15505680617E+03  0.10566000000E+00 0. -1.
<mgrwt>
<rscale>  1 0.57681459E+03</rscale>
<asrwt>0</asrwt>
<pdfrwt beam="1">  1       21 0.12688680E+00 0.98696879E+03</pdfrwt>
<pdfrwt beam="2">  1        4 0.66797185E-01 0.98696879E+03</pdfrwt>
<totfact> 0.35188934E+01</totfact>
</mgrwt>
</event>
<event>
 6    1  0.2415530E-005  0.1027517E+04  0.7818608E-02  0.9695700E-01
         21   -1    0    0  501  502  0.00000000000E+00  0.00000000000E+00  0.50962842194E+03  0.50962842194E+03  0.00000000000E+00 0.  1.
          4   -1    0    0  502    0 -0.00000000000E+00 -0.00000000000E+00 -0.78598459641E+03  0.78598459641E+03  0.00000000000E+00 0.  1.
    9000010    2    1    2  501    0 -0.23670801209E+02  0.23669092594E+03 -0.21150813466E+03  0.10490604262E+04  0.99960451459E+03 0.  0.
        -13    1    3    3    0    0  0.37348104128E+03 -0.16596574089E+03  0.74279059306E+02  0.41539150829E+03  0.10566000000E+00 0.  1.
          4    1    3    3  501    0 -0.39715184248E+03  0.40265666683E+03 -0.28578719397E+03  0.63366891794E+03  0.00000000000E+00 0.  1.
         13    1    1    2    0    0  0.23670801209E+02 -0.23669092594E+03 -0.64848039815E+02  0.24655259212E+03  0.10566000000E+00 0. -1.
<mgrwt>
<rscale>  1 0.71273414E+03</rscale>
<asrwt>0</asrwt>
<pdfrwt beam="1">  1       21 0.78404373E-01 0.10275174E+04</pdfrwt>
<pdfrwt beam="2">  1        4 0.12092071E+00 0.10275174E+04</pdfrwt>
<totfact> 0.28530279E+01</totfact>
</mgrwt>
</event>
<event>
 6    1  0.2415530E-005  0.8341702E+03  0.7818608E-02  0.9893617E-01
          4   -1    0    0  502    0 -0.00000000000E+00  0.00000000000E+00  0.11916908354E+03  0.11916908354E+03  0.00000000000E+00 0.  1.
         21   -1    0    0  501  502  0.00000000000E+00 -0.00000000000E+00 -0.26188434688E+04  0.26188434688E+04  0.00000000000E+00 0.  1.
    9000010    2    1    2  501    0 -0.23180220065E+03  0.69667135554E+01 -0.22377750796E+04  0.23881953818E+04  0.80128589123E+03 0.  0.
        -13    1    3    3    0    0 -0.13078869601E+03 -0.13814342013E+03 -0.21989659051E+04  0.22071792747E+04  0.10566000000E+00 0.  1.
          4    1    3    3  501    0 -0.10101350464E+03  0.14511013368E+03 -0.38809174480E+02  0.18101610713E+03  0.00000000000E+00 0.  1.
         13    1    1    2    0    0  0.23180220065E+03 -0.69667135554E+01 -0.26189930567E+03  0.34981717053E+03  0.10566000000E+00 0. -1.
<mgrwt>
<rscale>  1 0.60571650E+03</rscale>
<asrwt>0</asrwt>
<pdfrwt beam="2">  1       21 0.40289899E+00 0.83417017E+03</pdfrwt>
<pdfrwt beam="1">  1        4 0.18333706E-01 0.83417017E+03</pdfrwt>
<totfact> 0.67425629E+00</totfact>
</mgrwt>
</event>
<event>
 6    1  0.2415530E-005  0.1064947E+04  0.7818608E-02  0.9550503E-01
         21   -1    0    0  501  502  0.00000000000E+00  0.00000000000E+00  0.65867625055E+03  0.65867625055E+03  0.00000000000E+00 0.  1.
          4   -1    0    0  502    0 -0.00000000000E+00 -0.00000000000E+00 -0.88383258964E+03  0.88383258964E+03  0.00000000000E+00 0.  1.
    9000010    2    1    2  501    0  0.17254942544E+03  0.30506175171E+03  0.93210008276E+02  0.10690184824E+04  0.10056224110E+04 0.  0.
        -13    1    3    3    0    0 -0.17246672694E+03 -0.53258978995E+02 -0.35576591126E+03  0.39893694429E+03  0.10566000000E+00 0.  1.
          4    1    3    3  501    0  0.34501615238E+03  0.35832073070E+03  0.44897591953E+03  0.67008153815E+03  0.00000000000E+00 0.  1.
         13    1    1    2    0    0 -0.17254942544E+03 -0.30506175171E+03 -0.31836634737E+03  0.47349035774E+03  0.10566000000E+00 0. -1.
<mgrwt>
<rscale>  1 0.80660654E+03</rscale>
<asrwt>0</asrwt>
<pdfrwt beam="1">  1       21 0.10133481E+00 0.10649471E+04</pdfrwt>
<pdfrwt beam="2">  1        4 0.13597424E+00 0.10649471E+04</pdfrwt>
<totfact> 0.11331468E+01</totfact>
</mgrwt>
</event>
<event>
 6    1  0.2415530E-005  0.1036972E+04  0.7818608E-02  0.9643446E-01
         21   -1    0    0  501  502  0.00000000000E+00  0.00000000000E+00  0.88172888613E+03  0.88172888613E+03  0.00000000000E+00 0.  1.
          4   -1    0    0  502    0 -0.00000000000E+00 -0.00000000000E+00 -0.77648676925E+03  0.77648676925E+03  0.00000000000E+00 0.  1.
    9000010    2    1    2  501    0 -0.22008509261E+03  0.16664677610E+03  0.51995183115E+03  0.11600261791E+04  0.99955101600E+03 0.  0.
        -13    1    3    3    0    0 -0.10793954522E+03  0.58549986331E+03  0.37124126855E+03  0.70162748378E+03  0.10566000000E+00 0.  1.
          4    1    3    3  501    0 -0.11214554739E+03 -0.41885308721E+03  0.14871056260E+03  0.45839869535E+03  0.00000000000E+00 0.  1.
         13    1    1    2    0    0  0.22008509261E+03 -0.16664677610E+03 -0.41470971427E+03  0.49818947625E+03  0.10566000000E+00 0. -1.
<mgrwt>
<rscale>  1 0.74486190E+03</rscale>
<asrwt>0</asrwt>
<pdfrwt beam="1">  1       21 0.13565060E+00 0.10369720E+04</pdfrwt>
<pdfrwt beam="2">  1        4 0.11945950E+00 0.10369720E+04</pdfrwt>
<totfact> 0.74498672E+00</totfact>
</mgrwt>
</event>
<event>
 6    1  0.2415530E-005  0.1003262E+04  0.7818608E-02  0.9949240E-01
          4   -1    0    0  502    0 -0.00000000000E+00  0.00000000000E+00  0.39870305685E+03  0.39870305685E+03  0.00000000000E+00 0.  1.
         21   -1    0    0  501  502  0.00000000000E+00 -0.00000000000E+00 -0.11693537081E+04  0.11693537081E+04  0.00000000000E+00 0.  1.
    9000010    2    1    2  501    0  0.10959777227E+03  0.20769521388E+02 -0.93368613699E+03  0.13705127812E+04  0.99704184283E+03 0.  0.
        -13    1    3    3    0    0  0.13700428285E+03  0.44009362056E+03 -0.81086362165E+03  0.93271238464E+03  0.10566000000E+00 0.  1.
          4    1    3    3  501    0 -0.27406510571E+02 -0.41932409917E+03 -0.12282251534E+03  0.43780039657E+03  0.00000000000E+00 0.  1.
         13    1    1    2    0    0 -0.10959777227E+03 -0.20769521388E+02  0.16303548578E+03  0.19754398370E+03  0.10566000000E+00 0. -1.
<mgrwt>
<rscale>  1 0.57933103E+03</rscale>
<asrwt>0</asrwt>
<pdfrwt beam="2">  1       21 0.17990057E+00 0.10032624E+04</pdfrwt>
<pdfrwt beam="1">  1        4 0.61338933E-01 0.10032624E+04</pdfrwt>
<totfact> 0.15926301E+01</totfact>
</mgrwt>
</event>
<event>
 6    1  0.2415530E-005  0.1009116E+04  0.7818608E-02  0.9833709E-01
          4   -1    0    0  502    0 -0.00000000000E+00  0.00000000000E+00  0.37901741508E+03  0.37901741508E+03  0.00000000000E+00 0.  1.
         21   -1    0    0  501  502  0.00000000000E+00 -0.00000000000E+00 -0.91747066979E+03  0.91747066979E+03  0.00000000000E+00 0.  1.
    9000010    2    1    2  501    0 -0.11194571688E+02  0.15867294096E+03 -0.52321571437E+03  0.11366925454E+04  0.99650029524E+03 0.  0.
        -13    1    3    3    0    0 -0.36966895666E+03 -0.19211035051E+03 -0.47654642436E+03  0.63297553668E+03  0.10566000000E+00 0.  1.
          4    1    3    3  501    0  0.35847438498E+03  0.35078329147E+03 -0.46669290003E+02  0.50371700874E+03  0.00000000000E+00 0.  1.
         13    1    1    2    0    0  0.11194571688E+02 -0.15867294096E+03 -0.15237540343E+02  0.15979553945E+03  0.10566000000E+00 0. -1.
<mgrwt>
<rscale>  1 0.63584480E+03</rscale>
<asrwt>0</asrwt>
<pdfrwt beam="2">  1       21 0.14114933E+00 0.10091161E+04</pdfrwt>
<pdfrwt beam="1">  1        4 0.58310372E-01 0.10091161E+04</pdfrwt>
<totfact> 0.35553361E+01</totfact>
</mgrwt>
</event>
<event>
 6    1  0.2415530E-005  0.1000678E+04  0.7818608E-02  0.9863179E-01
          4   -1    0    0  502    0 -0.00000000000E+00  0.00000000000E+00  0.53899699731E+03  0.53899699731E+03  0.00000000000E+00 0.  1.
         21   -1    0    0  501  502  0.00000000000E+00 -0.00000000000E+00 -0.79676245176E+03  0.79676245176E+03  0.00000000000E+00 0.  1.
    9000010    2    1    2  501    0  0.77959017837E+02 -0.12606193842E+03 -0.44650580817E+03  0.10957757974E+04  0.98964030873E+03 0.  0.
        -13    1    3    3    0    0 -0.27095308028E+03  0.30573509722E+03 -0.45716523300E+02  0.41107120193E+03  0.10566000000E+00 0.  1.
          4    1    3    3  501    0  0.34891209812E+03 -0.43179703564E+03 -0.40078928487E+03  0.68470459548E+03  0.00000000000E+00 0.  1.
         13    1    1    2    0    0 -0.77959017837E+02  0.12606193842E+03  0.18874035371E+03  0.23998365166E+03  0.10566000000E+00 0. -1.
<mgrwt>
<rscale>  1 0.62079432E+03</rscale>
<asrwt>0</asrwt>
<pdfrwt beam="2">  1       21 0.12257884E+00 0.10006784E+04</pdfrwt>
<pdfrwt beam="1">  1        4 0.82922615E-01 0.10006784E+04</pdfrwt>
<totfact> 0.23575364E+01</totfact>
</mgrwt>
</event>
<event>
 6    1  0.2415530E-005  0.9977276E+03  0.7818608E-02  0.1015688E+00
         21   -1    0    0  501  502  0.00000000000E+00  0.00000000000E+00  0.75586903106E+03  0.75586903106E+03  0.00000000000E+00 0.  1.
          4   -1    0    0  502    0 -0.00000000000E+00 -0.00000000000E+00 -0.56906462268E+03  0.56906462268E+03  0.00000000000E+00 0.  1.
    9000010    2    1    2  501    0  0.37752488235E+02 -0.45806134374E+02  0.42130872035E+03  0.10830333937E+04  0.99596026109E+03 0.  0.
        -13    1    3    3    0    0 -0.12417017114E+03 -0.29514373589E+03 -0.21158299388E+03  0.38379086844E+03  0.10566000000E+00 0.  1.
          4    1    3    3  501    0  0.16192265937E+03  0.24933760152E+03  0.63289171424E+03  0.69924252524E+03  0.00000000000E+00 0.  1.
         13    1    1    2    0    0 -0.37752488235E+02  0.45806134374E+02 -0.23450431198E+03  0.24190026006E+03  0.10566000000E+00 0. -1.
<mgrwt>
<rscale>  1 0.49275405E+03</rscale>
<asrwt>0</asrwt>
<pdfrwt beam="1">  1       21 0.11628754E+00 0.99772757E+03</pdfrwt>
<pdfrwt beam="2">  1        4 0.87548403E-01 0.99772757E+03</pdfrwt>
<totfact> 0.23827054E+01</totfact>
</mgrwt>
</event>
<event>
 6    1  0.2415530E-005  0.1027896E+04  0.7818608E-02  0.9804030E-01
          4   -1    0    0  502    0 -0.00000000000E+00  0.00000000000E+00  0.32850767328E+03  0.32850767328E+03  0.00000000000E+00 0.  1.
         21   -1    0    0  501  502  0.00000000000E+00 -0.00000000000E+00 -0.13629150040E+04  0.13629150040E+04  0.00000000000E+00 0.  1.
    9000010    2    1    2  501    0  0.76727484632E+01  0.16567497564E+03 -0.11067737538E+04  0.15104697028E+04  0.10144276772E+04 0.  0.
        -13    1    3    3    0    0  0.42447696481E+03  0.27752987342E+03 -0.28367137015E+03  0.58109636181E+03  0.10566000000E+00 0.  1.
          4    1    3    3  501    0 -0.41680421635E+03 -0.11185489778E+03 -0.82310238369E+03  0.92937334100E+03  0.00000000000E+00 0.  1.
         13    1    1    2    0    0 -0.76727484632E+01 -0.16567497564E+03  0.72366423104E+02  0.18095297450E+03  0.10566000000E+00 0. -1.
<mgrwt>
<rscale>  1 0.65146712E+03</rscale>
<asrwt>0</asrwt>
<pdfrwt beam="2">  1       21 0.20967923E+00 0.10278962E+04</pdfrwt>
<pdfrwt beam="1">  1        4 0.50539642E-01 0.10278962E+04</pdfrwt>
<totfact> 0.14922563E+01</totfact>
</mgrwt>
</event>
<event>
 6    1  0.2415530E-005  0.1051528E+04  0.7818608E-02  0.9595259E-01
         21   -1    0    0  501  502  0.00000000000E+00  0.00000000000E+00  0.59818952097E+03  0.59818952097E+03  0.00000000000E+00 0.  1.
          4   -1    0    0  502    0 -0.00000000000E+00 -0.00000000000E+00 -0.10548912069E+04  0.10548912069E+04  0.00000000000E+00 0.  1.
    9000010    2    1    2  501    0  0.89588552538E+02  0.29891428597E+03  0.55849929352E+02  0.10530098749E+04  0.10041587140E+04 0.  0.
        -13    1    3    3    0    0  0.24104638320E+03  0.50961841479E+03 -0.27930065485E+03  0.62914478024E+03  0.10566000000E+00 0.  1.
          4    1    3    3  501    0 -0.15145783066E+03 -0.21070412882E+03  0.33515058420E+03  0.42386509465E+03  0.00000000000E+00 0.  1.
         13    1    1    2    0    0 -0.89588552538E+02 -0.29891428597E+03 -0.51255161527E+03  0.60007085297E+03  0.10566000000E+00 0. -1.
<mgrwt>
<rscale>  1 0.77610766E+03</rscale>
<asrwt>0</asrwt>
<pdfrwt beam="1">  1       21 0.92029158E-01 0.10515277E+04</pdfrwt>
<pdfrwt beam="2">  1        4 0.16229095E+00 0.10515277E+04</pdfrwt>
<totfact> 0.89421204E+00</totfact>
</mgrwt>
</event>
<event>
 6    1  0.2415530E-005  0.1057137E+04  0.7818608E-02  0.9628183E-01
         21   -1    0    0  501  502  0.00000000000E+00  0.00000000000E+00  0.74651686667E+03  0.74651686667E+03  0.00000000000E+00 0.  1.
          4   -1    0    0  502    0 -0.00000000000E+00 -0.00000000000E+00 -0.69646029641E+03  0.69646029641E+03  0.00000000000E+00 0.  1.
    9000010    2    1    2  501    0  0.11163670348E+03  0.25070381945E+03  0.27023866186E+03  0.10911315673E+04  0.10208937281E+04 0.  0.
        -13    1    3    3    0    0 -0.35951682009E+02  0.50924969564E+03  0.50037579012E+03  0.71484524090E+03  0.10566000000E+00 0.  1.
          4    1    3    3  501    0  0.14758838549E+03 -0.25854587619E+03 -0.23013712826E+03  0.37628632639E+03  0.00000000000E+00 0.  1.
         13    1    1    2    0    0 -0.11163670348E+03 -0.25070381945E+03 -0.22018209160E+03  0.35184559579E+03  0.10566000000E+00 0. -1.
<mgrwt>
<rscale>  1 0.75458617E+03</rscale>
<asrwt>0</asrwt>
<pdfrwt beam="1">  1       21 0.11484875E+00 0.10571372E+04</pdfrwt>
<pdfrwt beam="2">  1        4 0.10714774E+00 0.10571372E+04</pdfrwt>
<totfact> 0.15072466E+01</totfact>
</mgrwt>
</event>
<event>
 6    1  0.2415530E-005  0.8577230E+03  0.7818608E-02  0.1039463E+00
          4   -1    0    0  502    0 -0.00000000000E+00  0.00000000000E+00  0.60785807026E+03  0.60785807026E+03  0.00000000000E+00 0.  1.
         21   -1    0    0  501  502  0.00000000000E+00 -0.00000000000E+00 -0.36419574890E+03  0.36419574890E+03  0.00000000000E+00 0.  1.
    9000010    2    1    2  501    0  0.38017708185E+02  0.25861498195E+02  0.15420916986E+03  0.87147528914E+03  0.85648966619E+03 0.  0.
        -13    1    3    3    0    0 -0.11378636601E+03  0.13516397844E+03 -0.31787709852E+03  0.36367911554E+03  0.10566000000E+00 0.  1.
          4    1    3    3  501    0  0.15180407419E+03 -0.10930248024E+03  0.47208626838E+03  0.50779617360E+03  0.00000000000E+00 0.  1.
         13    1    1    2    0    0 -0.38017708185E+02 -0.25861498195E+02  0.89453151502E+02  0.10057853003E+03  0.10566000000E+00 0. -1.
<mgrwt>
<rscale>  1 0.41271750E+03</rscale>
<asrwt>0</asrwt>
<pdfrwt beam="2">  1       21 0.56030115E-01 0.85772298E+03</pdfrwt>
<pdfrwt beam="1">  1        4 0.93516626E-01 0.85772298E+03</pdfrwt>
<totfact> 0.11604265E+02</totfact>
</mgrwt>
</event>
<event>
 6    1  0.2415530E-005  0.1063468E+04  0.7818608E-02  0.9541619E-01
         21   -1    0    0  501  502  0.00000000000E+00  0.00000000000E+00  0.11266366955E+04  0.11266366955E+04  0.00000000000E+00 0.  1.
          4   -1    0    0  502    0 -0.00000000000E+00 -0.00000000000E+00 -0.55294041957E+03  0.55294041957E+03  0.00000000000E+00 0.  1.
    9000010    2    1    2  501    0 -0.26569460047E+03 -0.24725561260E+03  0.72423068235E+03  0.12866527236E+04  0.99961802266E+03 0.  0.
        -13    1    3    3    0    0  0.40282602658E+02  0.36832105948E+03  0.19225884449E+03  0.41742851529E+03  0.10566000000E+00 0.  1.
          4    1    3    3  501    0 -0.30597720313E+03 -0.61557667208E+03  0.53197183786E+03  0.86922420832E+03  0.00000000000E+00 0.  1.
         13    1    1    2    0    0  0.26569460047E+03  0.24725561260E+03 -0.15053440647E+03  0.39292439143E+03  0.10566000000E+00 0. -1.
<mgrwt>
<rscale>  1 0.81283729E+03</rscale>
<asrwt>0</asrwt>
<pdfrwt beam="1">  1       21 0.17332872E+00 0.10634685E+04</pdfrwt>
<pdfrwt beam="2">  1        4 0.85067757E-01 0.10634685E+04</pdfrwt>
<totfact> 0.84513801E+00</totfact>
</mgrwt>
</event>
<event>
 6    1  0.2415530E-005  0.1006383E+04  0.7818608E-02  0.1000670E+00
          4   -1    0    0  502    0 -0.00000000000E+00  0.00000000000E+00  0.73706794025E+03  0.73706794025E+03  0.00000000000E+00 0.  1.
         21   -1    0    0  501  502  0.00000000000E+00 -0.00000000000E+00 -0.41354150991E+03  0.41354150991E+03  0.00000000000E+00 0.  1.
    9000010    2    1    2  501    0 -0.75239532194E+02 -0.53174997765E+02  0.26235643483E+03  0.10400185504E+04  0.10021572325E+04 0.  0.
        -13    1    3    3    0    0  0.33263281495E+02 -0.36320545387E+03  0.51117147231E+03  0.62794978532E+03  0.10566000000E+00 0.  1.
          4    1    3    3  501    0 -0.10850281369E+03  0.31003045610E+03 -0.24881503748E+03  0.41206876509E+03  0.00000000000E+00 0.  1.
         13    1    1    2    0    0  0.75239532194E+02  0.53174997765E+02  0.61169995507E+02  0.11059089975E+03  0.10566000000E+00 0. -1.
<mgrwt>
<rscale>  1 0.55357567E+03</rscale>
<asrwt>0</asrwt>
<pdfrwt beam="2">  1       21 0.63621771E-01 0.10063835E+04</pdfrwt>
<pdfrwt beam="1">  1        4 0.11339507E+00 0.10063835E+04</pdfrwt>
<totfact> 0.54216806E+01</totfact>
</mgrwt>
</event>
<event>
 6    1  0.2415530E-005  0.1020892E+04  0.7818608E-02  0.9629851E-01
          4   -1    0    0  502    0 -0.00000000000E+00  0.00000000000E+00  0.11029354552E+04  0.11029354552E+04  0.00000000000E+00 0.  1.
         21   -1    0    0  501  502  0.00000000000E+00 -0.00000000000E+00 -0.51095212656E+03  0.51095212656E+03  0.00000000000E+00 0.  1.
    9000010    2    1    2  501    0 -0.10588073982E+03  0.28388859447E+03  0.86498063601E+02  0.10245499625E+04  0.97489345342E+03 0.  0.
        -13    1    3    3    0    0 -0.32682163449E+02 -0.24661433059E+03  0.34864681774E+03  0.42830055632E+03  0.10566000000E+00 0.  1.
          4    1    3    3  501    0 -0.73198576369E+02  0.53050292506E+03 -0.26214875414E+03  0.59624940618E+03  0.00000000000E+00 0.  1.
         13    1    1    2    0    0  0.10588073982E+03 -0.28388859447E+03  0.50548526502E+03  0.58933761924E+03  0.10566000000E+00 0. -1.
<mgrwt>
<rscale>  1 0.75351565E+03</rscale>
<asrwt>0</asrwt>
<pdfrwt beam="2">  1       21 0.78608019E-01 0.10208921E+04</pdfrwt>
<pdfrwt beam="1">  1        4 0.16968238E+00 0.10208921E+04</pdfrwt>
<totfact> 0.11541110E+01</totfact>
</mgrwt>
</event>
<event>
 6    1  0.2415530E-005  0.1038765E+04  0.7818608E-02  0.9693095E-01
          4   -1    0    0  502    0 -0.00000000000E+00  0.00000000000E+00  0.24240577743E+03  0.24240577743E+03  0.00000000000E+00 0.  1.
         21   -1    0    0  501  502  0.00000000000E+00 -0.00000000000E+00 -0.17342323927E+04  0.17342323927E+04  0.00000000000E+00 0.  1.
    9000010    2    1    2  501    0 -0.23181762360E+03 -0.14166766611E+02 -0.13540372528E+04  0.17065899754E+04  0.10124684461E+04 0.  0.
        -13    1    3    3    0    0  0.12129604228E+03 -0.31773070758E+03 -0.78958795587E+02  0.34914185509E+03  0.10566000000E+00 0.  1.
          4    1    3    3  501    0 -0.35311366587E+03  0.30356394097E+03 -0.12750784572E+04  0.13574481203E+04  0.00000000000E+00 0.  1.
         13    1    1    2    0    0  0.23181762360E+03  0.14166766611E+02 -0.13778936241E+03  0.27004819467E+03  0.10566000000E+00 0. -1.
<mgrwt>
<rscale>  1 0.71429388E+03</rscale>
<asrwt>0</asrwt>
<pdfrwt beam="2">  1       21 0.26680497E+00 0.10387649E+04</pdfrwt>
<pdfrwt beam="1">  1        4 0.37293198E-01 0.10387649E+04</pdfrwt>
<totfact> 0.11925787E+01</totfact>
</mgrwt>
</event>
<event>
 6    1  0.2415530E-005  0.1067198E+04  0.7818608E-02  0.1006145E+00
         21   -1    0    0  501  502  0.00000000000E+00  0.00000000000E+00  0.29301437264E+03  0.29301437264E+03  0.00000000000E+00 0.  1.
          4   -1    0    0  502    0 -0.00000000000E+00 -0.00000000000E+00 -0.12984530809E+04  0.12984530809E+04  0.00000000000E+00 0.  1.
    9000010    2    1    2  501    0 -0.50492361001E+02  0.41082561788E+02 -0.69332809517E+03  0.12726410096E+04  0.10652107943E+04 0.  0.
        -13    1    3    3    0    0 -0.75721667397E+02  0.30559954832E+03  0.17801535026E+03  0.36168263843E+03  0.10566000000E+00 0.  1.
          4    1    3    3  501    0  0.25229306396E+02 -0.26451698654E+03 -0.87134344543E+03  0.91095837115E+03  0.00000000000E+00 0.  1.
         13    1    1    2    0    0  0.50492361001E+02 -0.41082561788E+02 -0.31211061308E+03  0.31882644395E+03  0.10566000000E+00 0. -1.
<mgrwt>
<rscale>  1 0.53035838E+03</rscale>
<asrwt>0</asrwt>
<pdfrwt beam="1">  1       21 0.45079136E-01 0.10671979E+04</pdfrwt>
<pdfrwt beam="2">  1        4 0.19976201E+00 0.10671979E+04</pdfrwt>
<totfact> 0.24630202E+01</totfact>
</mgrwt>
</event>
<event>
 6    1  0.2415530E-005  0.1013036E+04  0.7818608E-02  0.9902615E-01
          4   -1    0    0  502    0 -0.00000000000E+00  0.00000000000E+00  0.12235829249E+04  0.12235829249E+04  0.00000000000E+00 0.  1.
         21   -1    0    0  501  502  0.00000000000E+00 -0.00000000000E+00 -0.31198123557E+03  0.31198123557E+03  0.00000000000E+00 0.  1.
    9000010    2    1    2  501    0 -0.11659983617E+03  0.47182241294E+02  0.55000209049E+03  0.11527117519E+04  0.10051966961E+04 0.  0.
        -13    1    3    3    0    0  0.17359413092E+03 -0.37283086343E+03  0.48840503053E+03  0.63849609242E+03  0.10566000000E+00 0.  1.
          4    1    3    3  501    0 -0.29019396708E+03  0.42001310472E+03  0.61597059954E+02  0.51421565949E+03  0.00000000000E+00 0.  1.
         13    1    1    2    0    0  0.11659983617E+03 -0.47182241294E+02  0.36159959880E+03  0.38285240851E+03  0.10566000000E+00 0. -1.
<mgrwt>
<rscale>  1 0.60134723E+03</rscale>
<asrwt>0</asrwt>
<pdfrwt beam="2">  1       21 0.47997114E-01 0.10130361E+04</pdfrwt>
<pdfrwt beam="1">  1        4 0.18824352E+00 0.10130361E+04</pdfrwt>
<totfact> 0.25869245E+01</totfact>
</mgrwt>
</event>
<event>
 6    1  0.2415530E-005  0.1171247E+04  0.7818608E-02  0.9314613E-01
          4   -1    0    0  502    0 -0.00000000000E+00  0.00000000000E+00  0.76115605832E+03  0.76115605832E+03  0.00000000000E+00 0.  1.
         21   -1    0    0  501  502  0.00000000000E+00 -0.00000000000E+00 -0.13349020705E+04  0.13349020705E+04  0.00000000000E+00 0. -1.
    9000010    2    1    2  501    0 -0.46800958596E+02 -0.60696284375E+03 -0.83003880072E+03  0.14355430056E+04  0.10006123559E+04 0.  0.
        -13    1    3    3    0    0 -0.14105206078E+03 -0.75493590900E+03 -0.95104437559E+03  0.12224194559E+04  0.10566000000E+00 0.  1.
          4    1    3    3  501    0  0.94251102186E+02  0.14797306524E+03  0.12100557487E+03  0.21312354973E+03  0.00000000000E+00 0.  1.
         13    1    1    2    0    0  0.46800958596E+02  0.60696284375E+03  0.25629278853E+03  0.66051512325E+03  0.10566000000E+00 0. -1.
<mgrwt>
<rscale>  1 0.99448600E+03</rscale>
<asrwt>0</asrwt>
<pdfrwt beam="2">  1       21 0.20536955E+00 0.11712469E+04</pdfrwt>
<pdfrwt beam="1">  1        4 0.11710093E+00 0.11712469E+04</pdfrwt>
<totfact> 0.22817231E+00</totfact>
</mgrwt>
</event>
<event>
 6    1  0.2415530E-005  0.1018292E+04  0.7818608E-02  0.9826274E-01
         21   -1    0    0  501  502  0.00000000000E+00  0.00000000000E+00  0.29090038180E+03  0.29090038180E+03  0.00000000000E+00 0.  1.
          4   -1    0    0  502    0 -0.00000000000E+00 -0.00000000000E+00 -0.11959779865E+04  0.11959779865E+04  0.00000000000E+00 0.  1.
    9000010    2    1    2  501    0 -0.38321549282E+02 -0.15390941293E+03 -0.74662478949E+03  0.12626821276E+04  0.10058632763E+04 0.  0.
        -13    1    3    3    0    0  0.13523193951E+03  0.40310325225E+03 -0.23003940364E+03  0.48342325951E+03  0.10566000000E+00 0.  1.
          4    1    3    3  501    0 -0.17355348880E+03 -0.55701266519E+03 -0.51658538585E+03  0.77925886811E+03  0.00000000000E+00 0.  1.
         13    1    1    2    0    0  0.38321549282E+02  0.15390941293E+03 -0.15845281525E+03  0.22419624072E+03  0.10566000000E+00 0. -1.
<mgrwt>
<rscale>  1 0.63971379E+03</rscale>
<asrwt>0</asrwt>
<pdfrwt beam="1">  1       21 0.44753905E-01 0.10182915E+04</pdfrwt>
<pdfrwt beam="2">  1        4 0.18399661E+00 0.10182915E+04</pdfrwt>
<totfact> 0.32111189E+01</totfact>
</mgrwt>
</event>
<event>
 6    1  0.2415530E-005  0.1167268E+04  0.7818608E-02  0.9402008E-01
         21   -1    0    0  501  502  0.00000000000E+00  0.00000000000E+00  0.81762194351E+03  0.81762194351E+03  0.00000000000E+00 0.  1.
          4   -1    0    0  502    0 -0.00000000000E+00 -0.00000000000E+00 -0.85645387337E+03  0.85645387337E+03  0.00000000000E+00 0.  1.
    9000010    2    1    2  501    0 -0.40719660838E+03  0.18846258756E+03  0.16925995789E+03  0.11794755038E+04  0.10775835494E+04 0.  0.
        -13    1    3    3    0    0 -0.31984494268E+03 -0.42395310142E+03 -0.23306241531E+02  0.53158274203E+03  0.10566000000E+00 0.  1.
          4    1    3    3  501    0 -0.87351665697E+02  0.61241568898E+03  0.19256619942E+03  0.64789276178E+03  0.00000000000E+00 0.  1.
         13    1    1    2    0    0  0.40719660838E+03 -0.18846258756E+03 -0.20809188775E+03  0.49460031307E+03  0.10566000000E+00 0. -1.
<mgrwt>
<rscale>  1 0.91910605E+03</rscale>
<asrwt>0</asrwt>
<pdfrwt beam="1">  1       21 0.12578799E+00 0.11672675E+04</pdfrwt>
<pdfrwt beam="2">  1        4 0.13176213E+00 0.11672675E+04</pdfrwt>
<totfact> 0.69908234E+00</totfact>
</mgrwt>
</event>
<event>
 6    1  0.2415530E-005  0.1006675E+04  0.7818608E-02  0.9908325E-01
         21   -1    0    0  501  502  0.00000000000E+00  0.00000000000E+00  0.97537918729E+03  0.97537918729E+03  0.00000000000E+00 0.  1.
          4   -1    0    0  502    0 -0.00000000000E+00 -0.00000000000E+00 -0.44358989505E+03  0.44358989505E+03  0.00000000000E+00 0.  1.
    9000010    2    1    2  501    0 -0.45664341229E+02  0.11727689843E+03  0.68729152945E+03  0.12189189389E+04  0.99877656665E+03 0.  0.
        -13    1    3    3    0    0  0.14473611444E+03  0.52243759425E+03  0.48602809616E+03  0.72808852767E+03  0.10566000000E+00 0.  1.
          4    1    3    3  501    0 -0.19040045567E+03 -0.40516069582E+03  0.20126343330E+03  0.49083041118E+03  0.00000000000E+00 0.  1.
         13    1    1    2    0    0  0.45664341229E+02 -0.11727689843E+03 -0.15550223721E+03  0.20005014348E+03  0.10566000000E+00 0. -1.
<mgrwt>
<rscale>  1 0.59859515E+03</rscale>
<asrwt>0</asrwt>
<pdfrwt beam="1">  1       21 0.15005834E+00 0.10066746E+04</pdfrwt>
<pdfrwt beam="2">  1        4 0.68244599E-01 0.10066746E+04</pdfrwt>
<totfact> 0.21255015E+01</totfact>
</mgrwt>
</event>
<event>
 6    1  0.2415530E-005  0.1016025E+04  0.7818608E-02  0.9645683E-01
         21   -1    0    0  501  502  0.00000000000E+00  0.00000000000E+00  0.11408930819E+04  0.11408930819E+04  0.00000000000E+00 0.  1.
          4   -1    0    0  502    0 -0.00000000000E+00 -0.00000000000E+00 -0.59467450780E+03  0.59467450780E+03  0.00000000000E+00 0.  1.
    9000010    2    1    2  501    0  0.21223486357E+03  0.19948253781E+03  0.84264864764E+03  0.13199864065E+04  0.97338093766E+03 0.  0.
        -13    1    3    3    0    0 -0.35805638761E+03  0.19176662741E+03  0.17603810694E+03  0.44268300437E+03  0.10566000000E+00 0.  1.
          4    1    3    3  501    0  0.57029125118E+03  0.77159104079E+01  0.66661054070E+03  0.87730340215E+03  0.00000000000E+00 0.  1.
         13    1    1    2    0    0 -0.21223486357E+03 -0.19948253781E+03 -0.29643007350E+03  0.41558118322E+03  0.10566000000E+00 0. -1.
<mgrwt>
<rscale>  1 0.74344955E+03</rscale>
<asrwt>0</asrwt>
<pdfrwt beam="1">  1       21 0.17552201E+00 0.10160253E+04</pdfrwt>
<pdfrwt beam="2">  1        4 0.91488386E-01 0.10160253E+04</pdfrwt>
<totfact> 0.69060736E+00</totfact>
</mgrwt>
</event>
<event>
 6    1  0.2415530E-005  0.1049323E+04  0.7818608E-02  0.9697689E-01
          4   -1    0    0  502    0 -0.00000000000E+00  0.00000000000E+00  0.65311418531E+03  0.65311418531E+03  0.00000000000E+00 0.  1.
         21   -1    0    0  501  502  0.00000000000E+00 -0.00000000000E+00 -0.69500684752E+03  0.69500684752E+03  0.00000000000E+00 0.  1.
    9000010    2    1    2  501    0  0.12437299865E+03  0.18372306994E+03 -0.20954159310E+03  0.10700401374E+04  0.10256000230E+04 0.  0.
        -13    1    3    3    0    0 -0.10514980120E+03  0.21601644877E+03  0.37266341898E+03  0.44339330379E+03  0.10566000000E+00 0.  1.
          4    1    3    3  501    0  0.22952279985E+03 -0.32293378824E+02 -0.58220501208E+03  0.62664683360E+03  0.00000000000E+00 0.  1.
         13    1    1    2    0    0 -0.12437299865E+03 -0.18372306994E+03  0.16764893089E+03  0.27808089545E+03  0.10566000000E+00 0. -1.
<mgrwt>
<rscale>  1 0.71154542E+03</rscale>
<asrwt>0</asrwt>
<pdfrwt beam="2">  1       21 0.10692413E+00 0.10493227E+04</pdfrwt>
<pdfrwt beam="1">  1        4 0.10047911E+00 0.10493227E+04</pdfrwt>
<totfact> 0.21156313E+01</totfact>
</mgrwt>
</event>
<event>
 6    1  0.2415530E-005  0.1172830E+04  0.7818608E-02  0.9300581E-01
         21   -1    0    0  501  502  0.00000000000E+00  0.00000000000E+00  0.79129995608E+03  0.79129995608E+03  0.00000000000E+00 0. -1.
          4   -1    0    0  502    0 -0.00000000000E+00 -0.00000000000E+00 -0.13784643983E+04  0.13784643983E+04  0.00000000000E+00 0.  1.
    9000010    2    1    2  501    0  0.24916358613E+03 -0.58749227266E+03  0.16387599747E+03  0.11842231750E+04  0.98402211486E+03 0.  0.
        -13    1    3    3    0    0  0.19776461414E+03 -0.53529094991E+03 -0.34716355922E+03  0.66795942367E+03  0.10566000000E+00 0.  1.
          4    1    3    3  501    0  0.51398971986E+02 -0.52201322748E+02  0.51103955668E+03  0.51626375130E+03  0.00000000000E+00 0.  1.
         13    1    1    2    0    0 -0.24916358613E+03  0.58749227266E+03 -0.75104043967E+03  0.98554117939E+03  0.10566000000E+00 0. -1.
<mgrwt>
<rscale>  1 0.10072937E+04</rscale>
<asrwt>0</asrwt>
<pdfrwt beam="1">  1       21 0.12173846E+00 0.11728296E+04</pdfrwt>
<pdfrwt beam="2">  1        4 0.21207145E+00 0.11728296E+04</pdfrwt>
<totfact> 0.19786994E+00</totfact>
</mgrwt>
</event>
<event>
 6    1  0.2415530E-005  0.1006046E+04  0.7818608E-02  0.9946537E-01
          4   -1    0    0  502    0 -0.00000000000E+00  0.00000000000E+00  0.39483174726E+03  0.39483174726E+03  0.00000000000E+00 0.  1.
         21   -1    0    0  501  502  0.00000000000E+00 -0.00000000000E+00 -0.98686914728E+03  0.98686914728E+03  0.00000000000E+00 0.  1.
    9000010    2    1    2  501    0  0.19459979864E+01  0.11156472508E+03 -0.70065067440E+03  0.12259853548E+04  0.99983911095E+03 0.  0.
        -13    1    3    3    0    0  0.14603137035E+03  0.52207462964E+03 -0.53150284962E+03  0.75919850524E+03  0.10566000000E+00 0.  1.
          4    1    3    3  501    0 -0.14408537236E+03 -0.41050990456E+03 -0.16914782478E+03  0.46678684953E+03  0.00000000000E+00 0.  1.
         13    1    1    2    0    0 -0.19459979864E+01 -0.11156472508E+03  0.10861327438E+03  0.15571553977E+03  0.10566000000E+00 0. -1.
<mgrwt>
<rscale>  1 0.58057950E+03</rscale>
<asrwt>0</asrwt>
<pdfrwt beam="2">  1       21 0.15182602E+00 0.10060461E+04</pdfrwt>
<pdfrwt beam="1">  1        4 0.60743346E-01 0.10060461E+04</pdfrwt>
<totfact> 0.26597358E+01</totfact>
</mgrwt>
</event>
<event>
 6    1  0.2415530E-005  0.1035500E+04  0.7818608E-02  0.9658470E-01
         21   -1    0    0  501  502  0.00000000000E+00  0.00000000000E+00  0.35231585857E+03  0.35231585857E+03  0.00000000000E+00 0. -1.
          4   -1    0    0  502    0 -0.00000000000E+00 -0.00000000000E+00 -0.13869959633E+04  0.13869959633E+04  0.00000000000E+00 0.  1.
    9000010    2    1    2  501    0  0.13847569358E+03  0.22415412211E+03 -0.10508839167E+04  0.14753361357E+04  0.10014185533E+04 0.  0.
        -13    1    3    3    0    0 -0.91109537486E+02 -0.36026558567E+03 -0.58671617168E+03  0.69449846458E+03  0.10566000000E+00 0.  1.
          4    1    3    3  501    0  0.22958523107E+03  0.58441970777E+03 -0.46416774501E+03  0.78083767113E+03  0.00000000000E+00 0.  1.
         13    1    1    2    0    0 -0.13847569358E+03 -0.22415412211E+03  0.16203812006E+02  0.26397568611E+03  0.10566000000E+00 0. -1.
<mgrwt>
<rscale>  1 0.73544228E+03</rscale>
<asrwt>0</asrwt>
<pdfrwt beam="1">  1       21 0.54202439E-01 0.10354997E+04</pdfrwt>
<pdfrwt beam="2">  1        4 0.21338400E+00 0.10354997E+04</pdfrwt>
<totfact> 0.13514493E+01</totfact>
</mgrwt>
</event>
<event>
 6    1  0.2415530E-005  0.1044311E+04  0.7818608E-02  0.9726791E-01
         21   -1    0    0  501  502  0.00000000000E+00  0.00000000000E+00  0.14358780976E+04  0.14358780976E+04  0.00000000000E+00 0.  1.
          4   -1    0    0  502    0 -0.00000000000E+00 -0.00000000000E+00 -0.27189215817E+03  0.27189215817E+03  0.00000000000E+00 0.  1.
    9000010    2    1    2  501    0  0.16424381311E+03 -0.12132371196E+03  0.99989725609E+03  0.14458149535E+04  0.10241537403E+04 0.  0.
        -13    1    3    3    0    0  0.37828356630E+03 -0.20816155890E+03  0.12707323641E+02  0.43196201034E+03  0.10566000000E+00 0.  1.
          4    1    3    3  501    0 -0.21403975319E+03  0.86837846933E+02  0.98718993245E+03  0.10138529432E+04  0.00000000000E+00 0.  1.
         13    1    1    2    0    0 -0.16424381311E+03  0.12132371196E+03  0.16408868332E+03  0.26195530227E+03  0.10566000000E+00 0. -1.
<mgrwt>
<rscale>  1 0.69443828E+03</rscale>
<asrwt>0</asrwt>
<pdfrwt beam="1">  1       21 0.22090432E+00 0.10443114E+04</pdfrwt>
<pdfrwt beam="2">  1        4 0.41829563E-01 0.10443114E+04</pdfrwt>
<totfact> 0.18586911E+01</totfact>
</mgrwt>
</event>
<event>
 6    1  0.2415530E-005  0.1009149E+04  0.7818608E-02  0.9705596E-01
         21   -1    0    0  501  502  0.00000000000E+00  0.00000000000E+00  0.10112087528E+04  0.10112087528E+04  0.00000000000E+00 0.  1.
          4   -1    0    0  502    0 -0.00000000000E+00 -0.00000000000E+00 -0.43327204471E+03  0.43327204471E+03  0.00000000000E+00 0.  1.
    9000010    2    1    2  501    0 -0.24132666144E+03  0.27631891426E+02  0.63845089552E+03  0.11941528986E+04  0.97947920870E+03 0.  0.
        -13    1    3    3    0    0  0.26758362197E+03 -0.30022965645E+03  0.22209467358E+03  0.45941799763E+03  0.10566000000E+00 0.  1.
          4    1    3    3  501    0 -0.50891028340E+03  0.32786154787E+03  0.41635622194E+03  0.73473490095E+03  0.00000000000E+00 0.  1.
         13    1    1    2    0    0  0.24132666144E+03 -0.27631891426E+02 -0.60514187411E+02  0.25032789894E+03  0.10566000000E+00 0. -1.
<mgrwt>
<rscale>  1 0.70684612E+03</rscale>
<asrwt>0</asrwt>
<pdfrwt beam="1">  1       21 0.15557058E+00 0.10091489E+04</pdfrwt>
<pdfrwt beam="2">  1        4 0.66657238E-01 0.10091489E+04</pdfrwt>
<totfact> 0.20237782E+01</totfact>
</mgrwt>
</event>
<event>
 6    1  0.2415530E-005  0.1014566E+04  0.7818608E-02  0.9695689E-01
          4   -1    0    0  502    0 -0.00000000000E+00  0.00000000000E+00  0.27175532069E+03  0.27175532069E+03  0.00000000000E+00 0.  1.
         21   -1    0    0  501  502  0.00000000000E+00 -0.00000000000E+00 -0.15601551013E+04  0.15601551013E+04  0.00000000000E+00 0.  1.
    9000010    2    1    2  501    0  0.14108649416E+03 -0.20286999153E+03 -0.11953461346E+04  0.15678637888E+04  0.98401364145E+03 0.  0.
        -13    1    3    3    0    0  0.30492396814E+03  0.33454869440E+03 -0.54238906980E+03  0.70646115921E+03  0.10566000000E+00 0.  1.
          4    1    3    3  501    0 -0.16383747398E+03 -0.53741868593E+03 -0.65295706476E+03  0.86140262960E+03  0.00000000000E+00 0.  1.
         13    1    1    2    0    0 -0.14108649416E+03  0.20286999153E+03 -0.93053646093E+02  0.26404663322E+03  0.10566000000E+00 0. -1.
<mgrwt>
<rscale>  1 0.71274034E+03</rscale>
<asrwt>0</asrwt>
<pdfrwt beam="2">  1       21 0.24002386E+00 0.10145662E+04</pdfrwt>
<pdfrwt beam="1">  1        4 0.41808511E-01 0.10145662E+04</pdfrwt>
<totfact> 0.14025943E+01</totfact>
</mgrwt>
</event>
<event>
 6    1  0.2415530E-005  0.9903495E+03  0.7818608E-02  0.9795377E-01
          4   -1    0    0  502    0 -0.00000000000E+00  0.00000000000E+00  0.17568494749E+04  0.17568494749E+04  0.00000000000E+00 0.  1.
         21   -1    0    0  501  502  0.00000000000E+00 -0.00000000000E+00 -0.29667938171E+03  0.29667938171E+03  0.00000000000E+00 0.  1.
    9000010    2    1    2  501    0  0.48699722539E+02  0.18446634683E+03  0.56901075248E+03  0.11421757539E+04  0.97179870360E+03 0.  0.
        -13    1    3    3    0    0 -0.18515603791E+02  0.47746236750E+03 -0.22832314950E+02  0.47836645549E+03  0.10566000000E+00 0.  1.
          4    1    3    3  501    0  0.67215326329E+02 -0.29299602067E+03  0.59184306743E+03  0.66380929843E+03  0.00000000000E+00 0.  1.
         13    1    1    2    0    0 -0.48699722539E+02 -0.18446634683E+03  0.89115934066E+03  0.91135310265E+03  0.10566000000E+00 0. -1.
<mgrwt>
<rscale>  1 0.65611251E+03</rscale>
<asrwt>0</asrwt>
<pdfrwt beam="2">  1       21 0.45642983E-01 0.99034954E+03</pdfrwt>
<pdfrwt beam="1">  1        4 0.27028453E+00 0.99034954E+03</pdfrwt>
<totfact> 0.86846003E+00</totfact>
</mgrwt>
</event>
<event>
 6    1  0.2415530E-005  0.1067250E+04  0.7818608E-02  0.9912388E-01
         21   -1    0    0  501  502  0.00000000000E+00  0.00000000000E+00  0.24868144808E+03  0.24868144808E+03  0.00000000000E+00 0.  1.
          4   -1    0    0  502    0 -0.00000000000E+00 -0.00000000000E+00 -0.14153954879E+04  0.14153954879E+04  0.00000000000E+00 0.  1.
    9000010    2    1    2  501    0  0.79256654560E+02  0.67721254957E+02 -0.97358066907E+03  0.14446041684E+04  0.10621459873E+04 0.  0.
        -13    1    3    3    0    0 -0.17613258314E+03 -0.22283184042E+03 -0.10164564538E+04  0.10553958734E+04  0.10566000000E+00 0.  1.
          4    1    3    3  501    0  0.25538923771E+03  0.29055309538E+03  0.42875784713E+02  0.38920829498E+03  0.00000000000E+00 0.  1.
         13    1    1    2    0    0 -0.79256654560E+02 -0.67721254957E+02 -0.19313337075E+03  0.21947276761E+03  0.10566000000E+00 0. -1.
<mgrwt>
<rscale>  1 0.59664666E+03</rscale>
<asrwt>0</asrwt>
<pdfrwt beam="1">  1       21 0.38258685E-01 0.10672497E+04</pdfrwt>
<pdfrwt beam="2">  1        4 0.21775315E+00 0.10672497E+04</pdfrwt>
<totfact> 0.26569229E+01</totfact>
</mgrwt>
</event>
<event>
 6    1  0.2415530E-005  0.1050735E+04  0.7818608E-02  0.9590955E-01
          4   -1    0    0  502    0 -0.00000000000E+00  0.00000000000E+00  0.20533633226E+04  0.20533633226E+04  0.00000000000E+00 0.  1.
         21   -1    0    0  501  502  0.00000000000E+00 -0.00000000000E+00 -0.24010270810E+03  0.24010270810E+03  0.00000000000E+00 0.  1.
    9000010    2    1    2  501    0 -0.29951326432E+03 -0.10507236167E+03  0.15883821773E+04  0.19044689622E+04  0.10016464894E+04 0.  0.
        -13    1    3    3    0    0 -0.59442457000E+03 -0.26024762691E+03  0.69442336388E+03  0.95041739052E+03  0.10566000000E+00 0.  1.
          4    1    3    3  501    0  0.29491130568E+03  0.15517526524E+03  0.89395881347E+03  0.95405157163E+03  0.00000000000E+00 0.  1.
         13    1    1    2    0    0  0.29951326432E+03  0.10507236167E+03  0.22487843720E+03  0.38899706859E+03  0.10566000000E+00 0. -1.
<mgrwt>
<rscale>  1 0.77897718E+03</rscale>
<asrwt>0</asrwt>
<pdfrwt beam="2">  1       21 0.36938879E-01 0.10507350E+04</pdfrwt>
<pdfrwt beam="1">  1        4 0.31590204E+00 0.10507350E+04</pdfrwt>
<totfact> 0.70183875E+00</totfact>
</mgrwt>
</event>
<event>
 6    1  0.2415530E-005  0.1113392E+04  0.7818608E-02  0.9418823E-01
         21   -1    0    0  501  502  0.00000000000E+00  0.00000000000E+00  0.80600994567E+03  0.80600994567E+03  0.00000000000E+00 0.  1.
          4   -1    0    0  502    0 -0.00000000000E+00 -0.00000000000E+00 -0.99594049022E+03  0.99594049022E+03  0.00000000000E+00 0.  1.
    9000010    2    1    2  501    0 -0.76201340681E+02 -0.48093228977E+03  0.25515034211E+03  0.11422539007E+04  0.10012690772E+04 0.  0.
        -13    1    3    3    0    0 -0.41271868689E+03 -0.10805307623E+03 -0.19379475700E+03  0.46858147722E+03  0.10566000000E+00 0.  1.
          4    1    3    3  501    0  0.33651734621E+03 -0.37287921354E+03  0.44894509910E+03  0.67367242351E+03  0.00000000000E+00 0.  1.
         13    1    1    2    0    0  0.76201340681E+02  0.48093228977E+03 -0.44508088666E+03  0.65969653516E+03  0.10566000000E+00 0. -1.
<mgrwt>
<rscale>  1 0.90542642E+03</rscale>
<asrwt>0</asrwt>
<pdfrwt beam="1">  1       21 0.12400153E+00 0.11133922E+04</pdfrwt>
<pdfrwt beam="2">  1        4 0.15322161E+00 0.11133922E+04</pdfrwt>
<totfact> 0.48982018E+00</totfact>
</mgrwt>
</event>
<event>
 6    1  0.2415530E-005  0.1704395E+04  0.7818608E-02  0.8807636E-01
         21   -1    0    0  501  502  0.00000000000E+00  0.00000000000E+00  0.16617307566E+04  0.16617307566E+04  0.00000000000E+00 0. -1.
          4   -1    0    0  502    0 -0.00000000000E+00 -0.00000000000E+00 -0.23829711914E+04  0.23829711914E+04  0.00000000000E+00 0.  1.
    9000010    2    1    2  501    0  0.13871367666E+04  0.14936226984E+03  0.88227316324E+03  0.19192106243E+04  0.97903319093E+03 0.  0.
        -13    1    3    3    0    0  0.98863783422E+03  0.27922491741E+03  0.10488952271E+04  0.14681800061E+04  0.10566000000E+00 0.  1.
          4    1    3    3  501    0  0.39849893241E+03 -0.12986264757E+03 -0.16662206389E+03  0.45103061819E+03  0.00000000000E+00 0.  1.
         13    1    1    2    0    0 -0.13871367666E+04 -0.14936226984E+03 -0.16035135981E+04  0.21254913237E+04  0.10566000000E+00 0. -1.
<mgrwt>
<rscale>  1 0.16211880E+04</rscale>
<asrwt>0</asrwt>
<pdfrwt beam="1">  1       21 0.25565088E+00 0.17043953E+04</pdfrwt>
<pdfrwt beam="2">  1        4 0.36661095E+00 0.17043953E+04</pdfrwt>
<totfact> 0.19547885E-02</totfact>
</mgrwt>
</event>
<event>
 6    1  0.2415530E-005  0.1038850E+04  0.7818608E-02  0.9661051E-01
          4   -1    0    0  502    0 -0.00000000000E+00  0.00000000000E+00  0.88863023488E+03  0.88863023488E+03  0.00000000000E+00 0.  1.
         21   -1    0    0  501  502  0.00000000000E+00 -0.00000000000E+00 -0.57468895105E+03  0.57468895105E+03  0.00000000000E+00 0.  1.
    9000010    2    1    2  501    0 -0.23130332760E+03 -0.11579501348E+03 -0.22304734001E+02  0.10390891656E+04  0.10061307462E+04 0.  0.
        -13    1    3    3    0    0 -0.38463509111E+03 -0.35263592781E+03 -0.33330049870E+03  0.61918130180E+03  0.10566000000E+00 0.  1.
          4    1    3    3  501    0  0.15333176351E+03  0.23684091433E+03  0.31099576470E+03  0.41990786378E+03  0.00000000000E+00 0.  1.
         13    1    1    2    0    0  0.23130332760E+03  0.11579501348E+03  0.33624601783E+03  0.42423002036E+03  0.10566000000E+00 0. -1.
<mgrwt>
<rscale>  1 0.73383887E+03</rscale>
<asrwt>0</asrwt>
<pdfrwt beam="2">  1       21 0.88413685E-01 0.10388497E+04</pdfrwt>
<pdfrwt beam="1">  1        4 0.13671234E+00 0.10388497E+04</pdfrwt>
<totfact> 0.15640949E+01</totfact>
</mgrwt>
</event>
<event>
 6    1  0.2415530E-005  0.1035511E+04  0.7818608E-02  0.9597223E-01
         21   -1    0    0  501  502  0.00000000000E+00  0.00000000000E+00  0.23751807543E+04  0.23751807543E+04  0.00000000000E+00 0.  1.
          4   -1    0    0  502    0 -0.00000000000E+00 -0.00000000000E+00 -0.24529711677E+03  0.24529711677E+03  0.00000000000E+00 0.  1.
    9000010    2    1    2  501    0 -0.31387787732E+03  0.82595681313E+02  0.20333869731E+04  0.22818734029E+04  0.98333223076E+03 0.  0.
        -13    1    3    3    0    0 -0.22580208285E+03 -0.29973799657E+03  0.17699345618E+04  0.18092810206E+04  0.10566000000E+00 0.  1.
          4    1    3    3  501    0 -0.88075794474E+02  0.38233367788E+03  0.26345241131E+03  0.47259238234E+03  0.00000000000E+00 0.  1.
         13    1    1    2    0    0  0.31387787732E+03 -0.82595681313E+02  0.96496664416E+02  0.33860446815E+03  0.10566000000E+00 0. -1.
<mgrwt>
<rscale>  1 0.77480249E+03</rscale>
<asrwt>0</asrwt>
<pdfrwt beam="1">  1       21 0.36541241E+00 0.10355113E+04</pdfrwt>
<pdfrwt beam="2">  1        4 0.37738019E-01 0.10355113E+04</pdfrwt>
<totfact> 0.28065563E+00</totfact>
</mgrwt>
</event>
<event>
 6    1  0.2415530E-005  0.1001374E+04  0.7818608E-02  0.9817517E-01
          4   -1    0    0  502    0 -0.00000000000E+00  0.00000000000E+00  0.79725519780E+03  0.79725519780E+03  0.00000000000E+00 0.  1.
         21   -1    0    0  501  502  0.00000000000E+00 -0.00000000000E+00 -0.43996990881E+03  0.43996990881E+03  0.00000000000E+00 0.  1.
    9000010    2    1    2  501    0  0.96972786402E+02 -0.14160617301E+03  0.36396548178E+03  0.10654675284E+04  0.98655671534E+03 0.  0.
        -13    1    3    3    0    0 -0.24677184109E+03  0.26317063782E+03 -0.84340779832E+02  0.37049764435E+03  0.10566000000E+00 0.  1.
          4    1    3    3  501    0  0.34374462749E+03 -0.40477681083E+03  0.44830626161E+03  0.69496988403E+03  0.00000000000E+00 0.  1.
         13    1    1    2    0    0 -0.96972786402E+02  0.14160617301E+03 -0.66801927850E+01  0.17175757823E+03  0.10566000000E+00 0. -1.
<mgrwt>
<rscale>  1 0.64430890E+03</rscale>
<asrwt>0</asrwt>
<pdfrwt beam="2">  1       21 0.67687678E-01 0.10013741E+04</pdfrwt>
<pdfrwt beam="1">  1        4 0.12265465E+00 0.10013741E+04</pdfrwt>
<totfact> 0.38732458E+01</totfact>
</mgrwt>
</event>
<event>
 6    1  0.2415530E-005  0.1044524E+04  0.7818608E-02  0.9656676E-01
          4   -1    0    0  502    0 -0.00000000000E+00  0.00000000000E+00  0.46355638314E+03  0.46355638314E+03  0.00000000000E+00 0.  1.
         21   -1    0    0  501  502  0.00000000000E+00 -0.00000000000E+00 -0.10802641711E+04  0.10802641711E+04  0.00000000000E+00 0. -1.
    9000010    2    1    2  501    0 -0.11795426630E+03 -0.22976174112E+03 -0.71681389498E+03  0.12668279363E+04  0.10120905065E+04 0.  0.
        -13    1    3    3    0    0 -0.94411447894E+01  0.60470620019E+02  0.24697996291E+03  0.25445027872E+03  0.10566000000E+00 0.  1.
          4    1    3    3  501    0 -0.10851312151E+03 -0.29023236114E+03 -0.96379385789E+03  0.10123776575E+04  0.00000000000E+00 0.  1.
         13    1    1    2    0    0  0.11795426630E+03  0.22976174112E+03  0.10010610698E+03  0.27699261802E+03  0.10566000000E+00 0. -1.
<mgrwt>
<rscale>  1 0.73655912E+03</rscale>
<asrwt>0</asrwt>
<pdfrwt beam="2">  1       21 0.16619449E+00 0.10445242E+04</pdfrwt>
<pdfrwt beam="1">  1        4 0.71316368E-01 0.10445242E+04</pdfrwt>
<totfact> 0.14340082E+01</totfact>
</mgrwt>
</event>
<event>
 6    1  0.2415530E-005  0.1054472E+04  0.7818608E-02  0.9566373E-01
          4   -1    0    0  502    0 -0.00000000000E+00  0.00000000000E+00  0.11544438181E+04  0.11544438181E+04  0.00000000000E+00 0.  1.
         21   -1    0    0  501  502  0.00000000000E+00 -0.00000000000E+00 -0.11653371190E+04  0.11653371190E+04  0.00000000000E+00 0.  1.
    9000010    2    1    2  501    0  0.33893281582E+03  0.43898045871E+02 -0.88791892181E+03  0.13785177204E+04  0.99755130279E+03 0.  0.
        -13    1    3    3    0    0  0.27938907914E+03 -0.43422493390E+03 -0.23560629295E+03  0.56755606525E+03  0.10566000000E+00 0.  1.
          4    1    3    3  501    0  0.59543736683E+02  0.47812297977E+03 -0.65231262886E+03  0.81096165516E+03  0.00000000000E+00 0.  1.
         13    1    1    2    0    0 -0.33893281582E+03 -0.43898045871E+02  0.87702562090E+03  0.94126321661E+03  0.10566000000E+00 0. -1.
<mgrwt>
<rscale>  1 0.79562385E+03</rscale>
<asrwt>0</asrwt>
<pdfrwt beam="2">  1       21 0.17928263E+00 0.10544720E+04</pdfrwt>
<pdfrwt beam="1">  1        4 0.17760674E+00 0.10544720E+04</pdfrwt>
<totfact> 0.11653779E+00</totfact>
</mgrwt>
</event>
<event>
 6    1  0.2415530E-005  0.1061622E+04  0.7818608E-02  0.9551390E-01
         21   -1    0    0  501  502  0.00000000000E+00  0.00000000000E+00  0.54034657686E+03  0.54034657686E+03  0.00000000000E+00 0.  1.
          4   -1    0    0  502    0 -0.00000000000E+00 -0.00000000000E+00 -0.99942042440E+03  0.99942042440E+03  0.00000000000E+00 0.  1.
    9000010    2    1    2  501    0 -0.30863442260E+03 -0.17071028127E+03 -0.15263314140E+03  0.10725378022E+04  0.10013207550E+04 0.  0.
        -13    1    3    3    0    0 -0.60805775103E+02 -0.53616821590E+03  0.12107812410E+03  0.55302226115E+03  0.10566000000E+00 0.  1.
          4    1    3    3  501    0 -0.24782864749E+03  0.36545793463E+03 -0.27371126550E+03  0.51951554103E+03  0.00000000000E+00 0.  1.
         13    1    1    2    0    0  0.30863442260E+03  0.17071028127E+03 -0.30644070613E+03  0.46722919909E+03  0.10566000000E+00 0. -1.
<mgrwt>
<rscale>  1 0.80598814E+03</rscale>
<asrwt>0</asrwt>
<pdfrwt beam="1">  1       21 0.83130243E-01 0.10616216E+04</pdfrwt>
<pdfrwt beam="2">  1        4 0.15375699E+00 0.10616216E+04</pdfrwt>
<totfact> 0.13226771E+01</totfact>
</mgrwt>
</event>
<event>
 6    1  0.2415530E-005  0.1040472E+04  0.7818608E-02  0.9800730E-01
         21   -1    0    0  501  502  0.00000000000E+00  0.00000000000E+00  0.14554243341E+04  0.14554243341E+04  0.00000000000E+00 0.  1.
          4   -1    0    0  502    0 -0.00000000000E+00 -0.00000000000E+00 -0.28835709078E+03  0.28835709078E+03  0.00000000000E+00 0.  1.
    9000010    2    1    2  501    0  0.13510537305E+03 -0.88758933296E+02  0.11897627970E+04  0.15805432266E+04  0.10278374229E+04 0.  0.
        -13    1    3    3    0    0 -0.40839497045E+03  0.26928265421E+02  0.22462498721E+03  0.46687040965E+03  0.10566000000E+00 0.  1.
          4    1    3    3  501    0  0.54350034350E+03 -0.11568719872E+03  0.96513780979E+03  0.11136728169E+04  0.00000000000E+00 0.  1.
         13    1    1    2    0    0 -0.13510537305E+03  0.88758933296E+02 -0.22695553645E+02  0.16323819831E+03  0.10566000000E+00 0. -1.
<mgrwt>
<rscale>  1 0.65323358E+03</rscale>
<asrwt>0</asrwt>
<pdfrwt beam="1">  1       21 0.22391143E+00 0.10404717E+04</pdfrwt>
<pdfrwt beam="2">  1        4 0.44362630E-01 0.10404717E+04</pdfrwt>
<totfact> 0.15737302E+01</totfact>
</mgrwt>
</event>
<event>
 6    1  0.2415530E-005  0.1113784E+04  0.7818608E-02  0.9430545E-01
          4   -1    0    0  502    0 -0.00000000000E+00  0.00000000000E+00  0.20433033828E+04  0.20433033828E+04  0.00000000000E+00 0.  1.
         21   -1    0    0  501  502  0.00000000000E+00 -0.00000000000E+00 -0.73748735417E+03  0.73748735417E+03  0.00000000000E+00 0.  1.
    9000010    2    1    2  501    0  0.19090673132E+03 -0.42571401702E+03 -0.26270865896E+03  0.11443471812E+04  0.10113539575E+04 0.  0.
        -13    1    3    3    0    0  0.57610860054E+03 -0.66711513758E+02 -0.72428281736E+02  0.58446335458E+03  0.10566000000E+00 0.  1.
          4    1    3    3  501    0 -0.38520186922E+03 -0.35900250326E+03 -0.19028037723E+03  0.55988382666E+03  0.00000000000E+00 0.  1.
         13    1    1    2    0    0 -0.19090673132E+03  0.42571401702E+03  0.15685246876E+04  0.16364435557E+04  0.10566000000E+00 0. -1.
<mgrwt>
<rscale>  1 0.89604017E+03</rscale>
<asrwt>0</asrwt>
<pdfrwt beam="2">  1       21 0.11345959E+00 0.11137839E+04</pdfrwt>
<pdfrwt beam="1">  1        4 0.31435436E+00 0.11137839E+04</pdfrwt>
<totfact> 0.55005497E-01</totfact>
</mgrwt>
</event>
<event>
 6    1  0.2415530E-005  0.1022255E+04  0.7818608E-02  0.9796075E-01
          4   -1    0    0  502    0 -0.00000000000E+00  0.00000000000E+00  0.13633787824E+04  0.13633787824E+04  0.00000000000E+00 0.  1.
         21   -1    0    0  501  502  0.00000000000E+00 -0.00000000000E+00 -0.29383955266E+03  0.29383955266E+03  0.00000000000E+00 0.  1.
    9000010    2    1    2  501    0 -0.14753485237E+03 -0.90492194556E+02  0.10757955748E+04  0.14840290659E+04  0.10074972853E+04 0.  0.
        -13    1    3    3    0    0  0.34333698146E+03 -0.28838487939E+03  0.71333274317E+03  0.84254954462E+03  0.10566000000E+00 0.  1.
          4    1    3    3  501    0 -0.49087183383E+03  0.19789268483E+03  0.36246283160E+03  0.64147952130E+03  0.00000000000E+00 0.  1.
         13    1    1    2    0    0  0.14753485237E+03  0.90492194556E+02 -0.62563449944E+01  0.17318926917E+03  0.10566000000E+00 0. -1.
<mgrwt>
<rscale>  1 0.65573593E+03</rscale>
<asrwt>0</asrwt>
<pdfrwt beam="2">  1       21 0.45206086E-01 0.10222554E+04</pdfrwt>
<pdfrwt beam="1">  1        4 0.20975058E+00 0.10222554E+04</pdfrwt>
<totfact> 0.21146320E+01</totfact>
</mgrwt>
</event>
<event>
 6    1  0.2415530E-005  0.1048519E+04  0.7818608E-02  0.9563819E-01
          4   -1    0    0  502    0 -0.00000000000E+00  0.00000000000E+00  0.10280698504E+04  0.10280698504E+04  0.00000000000E+00 0.  1.
         21   -1    0    0  501  502  0.00000000000E+00 -0.00000000000E+00 -0.67491168760E+03  0.67491168760E+03  0.00000000000E+00 0.  1.
    9000010    2    1    2  501    0 -0.19014857645E+03 -0.29467042782E+03 -0.18096174439E+03  0.10640204840E+04  0.98813222557E+03 0.  0.
        -13    1    3    3    0    0 -0.32342553342E+03 -0.35361330692E+03 -0.51263660983E+03  0.70174265326E+03  0.10566000000E+00 0.  1.
          4    1    3    3  501    0  0.13327695697E+03  0.58942879093E+02  0.33167486544E+03  0.36227783071E+03  0.00000000000E+00 0.  1.
         13    1    1    2    0    0  0.19014857645E+03  0.29467042782E+03  0.53411990718E+03  0.63896105403E+03  0.10566000000E+00 0. -1.
<mgrwt>
<rscale>  1 0.79737892E+03</rscale>
<asrwt>0</asrwt>
<pdfrwt beam="2">  1       21 0.10383257E+00 0.10485192E+04</pdfrwt>
<pdfrwt beam="1">  1        4 0.15816459E+00 0.10485192E+04</pdfrwt>
<totfact> 0.71308571E+00</totfact>
</mgrwt>
</event>
<event>
 6    1  0.2415530E-005  0.1008186E+04  0.7818608E-02  0.9785772E-01
         21   -1    0    0  501  502  0.00000000000E+00  0.00000000000E+00  0.12419160012E+04  0.12419160012E+04  0.00000000000E+00 0.  1.
          4   -1    0    0  502    0 -0.00000000000E+00 -0.00000000000E+00 -0.31440291686E+03  0.31440291686E+03  0.00000000000E+00 0.  1.
    9000010    2    1    2  501    0 -0.54071439138E+02  0.17864098667E+03  0.92712782509E+03  0.13696735800E+04  0.99075899644E+03 0.  0.
        -13    1    3    3    0    0  0.27283309562E+03 -0.16947247309E+03 -0.62291690852E+01  0.32124388073E+03  0.10566000000E+00 0.  1.
          4    1    3    3  501    0 -0.32690453476E+03  0.34811345975E+03  0.93335699418E+03  0.10484296993E+04  0.00000000000E+00 0.  1.
         13    1    1    2    0    0  0.54071439138E+02 -0.17864098667E+03  0.38525928927E+00  0.18664533811E+03  0.10566000000E+00 0. -1.
<mgrwt>
<rscale>  1 0.66131697E+03</rscale>
<asrwt>0</asrwt>
<pdfrwt beam="1">  1       21 0.19106400E+00 0.10081863E+04</pdfrwt>
<pdfrwt beam="2">  1        4 0.48369680E-01 0.10081863E+04</pdfrwt>
<totfact> 0.22037660E+01</totfact>
</mgrwt>
</event>
<event>
 6    1  0.2415530E-005  0.1052102E+04  0.7818608E-02  0.9592093E-01
         21   -1    0    0  501  502  0.00000000000E+00  0.00000000000E+00  0.11460741164E+04  0.11460741164E+04  0.00000000000E+00 0.  1.
          4   -1    0    0  502    0 -0.00000000000E+00 -0.00000000000E+00 -0.44674774591E+03  0.44674774591E+03  0.00000000000E+00 0.  1.
    9000010    2    1    2  501    0  0.29729943599E+03 -0.10392805855E+03  0.72364691830E+03  0.12769429358E+04  0.10038577603E+04 0.  0.
        -13    1    3    3    0    0 -0.68156543455E+02 -0.42856210951E+03  0.38993342073E+02  0.43569632546E+03  0.10566000000E+00 0.  1.
          4    1    3    3  501    0  0.36545597944E+03  0.32463405096E+03  0.68465357623E+03  0.84124661033E+03  0.00000000000E+00 0.  1.
         13    1    1    2    0    0 -0.29729943599E+03  0.10392805855E+03 -0.24320547832E+02  0.31587892650E+03  0.10566000000E+00 0. -1.
<mgrwt>
<rscale>  1 0.77821706E+03</rscale>
<asrwt>0</asrwt>
<pdfrwt beam="1">  1       21 0.17631909E+00 0.10521019E+04</pdfrwt>
<pdfrwt beam="2">  1        4 0.68730423E-01 0.10521019E+04</pdfrwt>
<totfact> 0.13078358E+01</totfact>
</mgrwt>
</event>
<event>
 6    1  0.2415530E-005  0.1014357E+04  0.7818608E-02  0.1023715E+00
         21   -1    0    0  501  502  0.00000000000E+00  0.00000000000E+00  0.37718199434E+03  0.37718199434E+03  0.00000000000E+00 0.  1.
          4   -1    0    0  502    0 -0.00000000000E+00 -0.00000000000E+00 -0.76314582225E+03  0.76314582225E+03  0.00000000000E+00 0.  1.
    9000010    2    1    2  501    0  0.28153852020E+02  0.34196446509E+02 -0.32535619659E+03  0.10652589650E+04  0.10133893485E+04 0.  0.
        -13    1    3    3    0    0  0.12026192892E+03  0.51118382111E+03 -0.21262100253E+03  0.56655055590E+03  0.10566000000E+00 0.  1.
          4    1    3    3  501    0 -0.92108076902E+02 -0.47698737460E+03 -0.11273519406E+03  0.49870840913E+03  0.00000000000E+00 0.  1.
         13    1    1    2    0    0 -0.28153852020E+02 -0.34196446509E+02 -0.60607631315E+02  0.75068851563E+02  0.10566000000E+00 0. -1.
<mgrwt>
<rscale>  1 0.46369434E+03</rscale>
<asrwt>0</asrwt>
<pdfrwt beam="1">  1       21 0.58028000E-01 0.10143569E+04</pdfrwt>
<pdfrwt beam="2">  1        4 0.11740705E+00 0.10143569E+04</pdfrwt>
<totfact> 0.61054804E+01</totfact>
</mgrwt>
</event>
<event>
 6    1  0.2415530E-005  0.8155275E+03  0.7818608E-02  0.9968785E-01
         21   -1    0    0  501  502  0.00000000000E+00  0.00000000000E+00  0.19195620251E+03  0.19195620251E+03  0.00000000000E+00 0.  1.
          4   -1    0    0  502    0 -0.00000000000E+00 -0.00000000000E+00 -0.14949901091E+04  0.14949901091E+04  0.00000000000E+00 0.  1.
    9000010    2    1    2  501    0 -0.12692840413E+03  0.14825905167E+03 -0.77920015584E+03  0.11279352422E+04  0.79182918707E+03 0.  0.
        -13    1    3    3    0    0 -0.29439131904E+03  0.35195855924E+03 -0.72611833065E+03  0.85894639962E+03  0.10566000000E+00 0.  1.
          4    1    3    3  501    0  0.16746291491E+03 -0.20369950757E+03 -0.53081825197E+02  0.26898884256E+03  0.00000000000E+00 0.  1.
         13    1    1    2    0    0  0.12692840413E+03 -0.14825905167E+03 -0.52383375078E+03  0.55901106947E+03  0.10566000000E+00 0. -1.
<mgrwt>
<rscale>  1 0.57040400E+03</rscale>
<asrwt>0</asrwt>
<pdfrwt beam="1">  1       21 0.29531724E-01 0.81552745E+03</pdfrwt>
<pdfrwt beam="2">  1        4 0.22999847E+00 0.81552745E+03</pdfrwt>
<totfact> 0.38717951E+01</totfact>
</mgrwt>
</event>
<event>
 6    1  0.2415530E-005  0.1615261E+04  0.7818608E-02  0.8867153E-01
         21   -1    0    0  501  502  0.00000000000E+00  0.00000000000E+00  0.88718354029E+03  0.88718354029E+03  0.00000000000E+00 0. -1.
          4   -1    0    0  502    0 -0.00000000000E+00 -0.00000000000E+00 -0.25685274487E+04  0.25685274487E+04  0.00000000000E+00 0.  1.
    9000010    2    1    2  501    0 -0.11665214556E+04  0.54542560620E+03 -0.14001419534E+04  0.21376305859E+04  0.97509262825E+03 0.  0.
        -13    1    3    3    0    0 -0.54040441424E+03 -0.28080703538E+02 -0.11194158096E+04  0.12433491958E+04  0.10566000000E+00 0.  1.
          4    1    3    3  501    0 -0.62611704138E+03  0.57350630974E+03 -0.28072614388E+03  0.89428139010E+03  0.00000000000E+00 0.  1.
         13    1    1    2    0    0  0.11665214556E+04 -0.54542560620E+03 -0.28120195495E+03  0.13180804031E+04  0.10566000000E+00 0. -1.
<mgrwt>
<rscale>  1 0.15262956E+04</rscale>
<asrwt>0</asrwt>
<pdfrwt beam="1">  1       21 0.13648978E+00 0.16152607E+04</pdfrwt>
<pdfrwt beam="2">  1        4 0.39515807E+00 0.16152607E+04</pdfrwt>
<totfact> 0.92016602E-02</totfact>
</mgrwt>
</event>
<event>
 6    1  0.2415530E-005  0.1035208E+04  0.7818608E-02  0.9719257E-01
          4   -1    0    0  502    0 -0.00000000000E+00  0.00000000000E+00  0.68281025443E+03  0.68281025443E+03  0.00000000000E+00 0.  1.
         21   -1    0    0  501  502  0.00000000000E+00 -0.00000000000E+00 -0.17843025075E+04  0.17843025075E+04  0.00000000000E+00 0.  1.
    9000010    2    1    2  501    0  0.20031146439E+02  0.21403164923E+03 -0.16105333161E+04  0.19145427585E+04  0.10126428877E+04 0.  0.
        -13    1    3    3    0    0 -0.38493288638E+03  0.14616034342E+03 -0.13874214385E+04  0.14472299168E+04  0.10566000000E+00 0.  1.
          4    1    3    3  501    0  0.40496403282E+03  0.67871305816E+02 -0.22311187768E+03  0.46731284168E+03  0.00000000000E+00 0.  1.
         13    1    1    2    0    0 -0.20031146439E+02 -0.21403164923E+03  0.50904106305E+03  0.55257000348E+03  0.10566000000E+00 0. -1.
<mgrwt>
<rscale>  1 0.69881751E+03</rscale>
<asrwt>0</asrwt>
<pdfrwt beam="2">  1       21 0.27450807E+00 0.10352084E+04</pdfrwt>
<pdfrwt beam="1">  1        4 0.10504773E+00 0.10352084E+04</pdfrwt>
<totfact> 0.10870889E+00</totfact>
</mgrwt>
</event>
<event>
 6    1  0.2415530E-005  0.1024748E+04  0.7818608E-02  0.9857605E-01
         21   -1    0    0  501  502  0.00000000000E+00  0.00000000000E+00  0.14739628034E+04  0.14739628034E+04  0.00000000000E+00 0.  1.
          4   -1    0    0  502    0 -0.00000000000E+00 -0.00000000000E+00 -0.26467775755E+03  0.26467775755E+03  0.00000000000E+00 0.  1.
    9000010    2    1    2  501    0 -0.13957677927E+03 -0.16401008349E+02  0.12251430063E+04  0.15972115807E+04  0.10150658980E+04 0.  0.
        -13    1    3    3    0    0  0.11415139349E+03 -0.47006414814E+03  0.42985498195E+03  0.64712144198E+03  0.10566000000E+00 0.  1.
          4    1    3    3  501    0 -0.25372817276E+03  0.45366313979E+03  0.79528802435E+03  0.95009013874E+03  0.00000000000E+00 0.  1.
         13    1    1    2    0    0  0.13957677927E+03  0.16401008349E+02 -0.15857960413E+02  0.14142898026E+03  0.10566000000E+00 0. -1.
<mgrwt>
<rscale>  1 0.62360663E+03</rscale>
<asrwt>0</asrwt>
<pdfrwt beam="1">  1       21 0.22676350E+00 0.10247485E+04</pdfrwt>
<pdfrwt beam="2">  1        4 0.40719656E-01 0.10247485E+04</pdfrwt>
<totfact> 0.18020198E+01</totfact>
</mgrwt>
</event>
<event>
 6    1  0.2415530E-005  0.9665833E+03  0.7818608E-02  0.9720901E-01
          4   -1    0    0  502    0 -0.00000000000E+00  0.00000000000E+00  0.14681969400E+03  0.14681969400E+03  0.00000000000E+00 0.  1.
         21   -1    0    0  501  502  0.00000000000E+00 -0.00000000000E+00 -0.25799522077E+04  0.25799522077E+04  0.00000000000E+00 0.  1.
    9000010    2    1    2  501    0 -0.11439025654E+03  0.23641419812E+03 -0.18526399944E+04  0.20896311167E+04  0.93021849632E+03 0.  0.
        -13    1    3    3    0    0 -0.25002544510E+03  0.40655927355E+03 -0.18047976704E+04  0.18668416667E+04  0.10566000000E+00 0.  1.
          4    1    3    3  501    0  0.13563518856E+03 -0.17014507543E+03 -0.47842324037E+02  0.22278945001E+03  0.00000000000E+00 0.  1.
         13    1    1    2    0    0  0.11439025654E+03 -0.23641419812E+03 -0.58049251929E+03  0.63714078505E+03  0.10566000000E+00 0. -1.
<mgrwt>
<rscale>  1 0.69785856E+03</rscale>
<asrwt>0</asrwt>
<pdfrwt beam="2">  1       21 0.39691567E+00 0.96658329E+03</pdfrwt>
<pdfrwt beam="1">  1        4 0.22587648E-01 0.96658329E+03</pdfrwt>
<totfact> 0.48532642E+00</totfact>
</mgrwt>
</event>
<event>
 6    1  0.2415530E-005  0.1008461E+04  0.7818608E-02  0.9837131E-01
          4   -1    0    0  502    0 -0.00000000000E+00  0.00000000000E+00  0.62034898807E+03  0.62034898807E+03  0.00000000000E+00 0.  1.
         21   -1    0    0  501  502  0.00000000000E+00 -0.00000000000E+00 -0.57376565732E+03  0.57376565732E+03  0.00000000000E+00 0.  1.
    9000010    2    1    2  501    0  0.24190477686E+02 -0.15574220009E+03  0.12828463269E+03  0.10165873911E+04  0.99606835345E+03 0.  0.
        -13    1    3    3    0    0  0.32869134584E+03 -0.45612154341E+03  0.16864287064E+03  0.58696276898E+03  0.10566000000E+00 0.  1.
          4    1    3    3  501    0 -0.30450086816E+03  0.30037934332E+03 -0.40358237947E+02  0.42962462216E+03  0.00000000000E+00 0.  1.
         13    1    1    2    0    0 -0.24190477686E+02  0.15574220009E+03 -0.81701301940E+02  0.17752725425E+03  0.10566000000E+00 0. -1.
<mgrwt>
<rscale>  1 0.63407413E+03</rscale>
<asrwt>0</asrwt>
<pdfrwt beam="2">  1       21 0.88271640E-01 0.10084607E+04</pdfrwt>
<pdfrwt beam="1">  1        4 0.95438306E-01 0.10084607E+04</pdfrwt>
<totfact> 0.38521866E+01</totfact>
</mgrwt>
</event>
<event>
 6    1  0.2415530E-005  0.1472056E+04  0.7818608E-02  0.8982235E-01
          4   -1    0    0  502    0 -0.00000000000E+00  0.00000000000E+00  0.88794227171E+03  0.88794227171E+03  0.00000000000E+00 0.  1.
         21   -1    0    0  501  502  0.00000000000E+00 -0.00000000000E+00 -0.18435166044E+04  0.18435166044E+04  0.00000000000E+00 0. -1.
    9000010    2    1    2  501    0  0.10684584761E+04 -0.13472456418E+03 -0.66974889193E+03  0.16172549373E+04  0.10035914162E+04 0.  0.
        -13    1    3    3    0    0  0.23506712536E+03 -0.28272146513E+03  0.18734536680E+03  0.41265757947E+03  0.10566000000E+00 0.  1.
          4    1    3    3  501    0  0.83339135076E+03  0.14799690095E+03 -0.85709425873E+03  0.12045973579E+04  0.00000000000E+00 0.  1.
         13    1    1    2    0    0 -0.10684584761E+04  0.13472456418E+03 -0.28582544072E+03  0.11142039387E+04  0.10566000000E+00 0. -1.
<mgrwt>
<rscale>  1 0.13614104E+04</rscale>
<asrwt>0</asrwt>
<pdfrwt beam="2">  1       21 0.28361794E+00 0.14720564E+04</pdfrwt>
<pdfrwt beam="1">  1        4 0.13660650E+00 0.14720564E+04</pdfrwt>
<totfact> 0.45718141E-01</totfact>
</mgrwt>
</event>
<event>
 6    1  0.2415530E-005  0.1017698E+04  0.7818608E-02  0.9792077E-01
          4   -1    0    0  502    0 -0.00000000000E+00  0.00000000000E+00  0.27999812202E+03  0.27999812202E+03  0.00000000000E+00 0.  1.
         21   -1    0    0  501  502  0.00000000000E+00 -0.00000000000E+00 -0.13025455080E+04  0.13025455080E+04  0.00000000000E+00 0.  1.
    9000010    2    1    2  501    0 -0.24264881398E+02 -0.17606892326E+03 -0.94443011982E+03  0.13884009798E+04  0.10020578722E+04 0.  0.
        -13    1    3    3    0    0  0.26676178128E+03 -0.50636932309E+03 -0.46413139570E+03  0.73687835018E+03  0.10566000000E+00 0.  1.
          4    1    3    3  501    0 -0.29102666268E+03  0.33030039982E+03 -0.48029872411E+03  0.65152262961E+03  0.00000000000E+00 0.  1.
         13    1    1    2    0    0  0.24264881398E+02  0.17606892326E+03 -0.78117266201E+02  0.19414265026E+03  0.10566000000E+00 0. -1.
<mgrwt>
<rscale>  1 0.65789449E+03</rscale>
<asrwt>0</asrwt>
<pdfrwt beam="2">  1       21 0.20039162E+00 0.10176979E+04</pdfrwt>
<pdfrwt beam="1">  1        4 0.43076634E-01 0.10176979E+04</pdfrwt>
<totfact> 0.24127869E+01</totfact>
</mgrwt>
</event>
<event>
 6    1  0.2415530E-005  0.1043259E+04  0.7818608E-02  0.9583172E-01
          4   -1    0    0  502    0 -0.00000000000E+00  0.00000000000E+00  0.25979948922E+03  0.25979948922E+03  0.00000000000E+00 0.  1.
         21   -1    0    0  501  502  0.00000000000E+00 -0.00000000000E+00 -0.18322220892E+04  0.18322220892E+04  0.00000000000E+00 0. -1.
    9000010    2    1    2  501    0 -0.30655569964E+03  0.13021968469E+03 -0.12540559215E+04  0.16312711944E+04  0.98866369006E+03 0.  0.
        -13    1    3    3    0    0 -0.56091266714E+03  0.19016253096E+03 -0.12344897347E+04  0.13692150031E+04  0.10566000000E+00 0.  1.
          4    1    3    3  501    0  0.25435696750E+03 -0.59942846272E+02 -0.19566186793E+02  0.26205619130E+03  0.00000000000E+00 0.  1.
         13    1    1    2    0    0  0.30655569964E+03 -0.13021968469E+03 -0.31836667841E+03  0.46075038399E+03  0.10566000000E+00 0. -1.
<mgrwt>
<rscale>  1 0.78420029E+03</rscale>
<asrwt>0</asrwt>
<pdfrwt beam="2">  1       21 0.28188032E+00 0.10432591E+04</pdfrwt>
<pdfrwt beam="1">  1        4 0.39969153E-01 0.10432591E+04</pdfrwt>
<totfact> 0.83316393E+00</totfact>
</mgrwt>
</event>
<event>
 6    1  0.2415530E-005  0.1058753E+04  0.7818608E-02  0.9554118E-01
          4   -1    0    0  502    0 -0.00000000000E+00  0.00000000000E+00  0.21265450757E+04  0.21265450757E+04  0.00000000000E+00 0.  1.
         21   -1    0    0  501  502  0.00000000000E+00 -0.00000000000E+00 -0.29201134541E+03  0.29201134541E+03  0.00000000000E+00 0.  1.
    9000010    2    1    2  501    0  0.99739872967E+02  0.33781698868E+03  0.80381711728E+03  0.13293158106E+04  0.99844389235E+03 0.  0.
        -13    1    3    3    0    0 -0.75821328822E+02 -0.38423009415E+02 -0.21389857413E+03  0.23016909596E+03  0.10566000000E+00 0.  1.
          4    1    3    3  501    0  0.17556120179E+03  0.37623999810E+03  0.10177156914E+04  0.10991467146E+04  0.00000000000E+00 0.  1.
         13    1    1    2    0    0 -0.99739872967E+02 -0.33781698868E+03  0.10307166130E+04  0.10892406105E+04  0.10566000000E+00 0. -1.
<mgrwt>
<rscale>  1 0.80408826E+03</rscale>
<asrwt>0</asrwt>
<pdfrwt beam="2">  1       21 0.44924824E-01 0.10587533E+04</pdfrwt>
<pdfrwt beam="1">  1        4 0.32716077E+00 0.10587533E+04</pdfrwt>
<totfact> 0.39472679E+00</totfact>
</mgrwt>
</event>
<event>
 6    1  0.2415530E-005  0.1198631E+04  0.7818608E-02  0.9290964E-01
          4   -1    0    0  502    0 -0.00000000000E+00  0.00000000000E+00  0.76458483454E+03  0.76458483454E+03  0.00000000000E+00 0.  1.
         21   -1    0    0  501  502  0.00000000000E+00 -0.00000000000E+00 -0.11263545900E+04  0.11263545900E+04  0.00000000000E+00 0.  1.
    9000010    2    1    2  501    0  0.25041340593E+02 -0.61871128666E+03 -0.41739957384E+03  0.12692277447E+04  0.10262971980E+04 0.  0.
        -13    1    3    3    0    0 -0.27796119221E+03 -0.64754765893E+02 -0.55401454214E+03  0.62320761239E+03  0.10566000000E+00 0.  1.
          4    1    3    3  501    0  0.30300253280E+03 -0.55395652077E+03  0.13661496830E+03  0.64602013231E+03  0.00000000000E+00 0.  1.
         13    1    1    2    0    0 -0.25041340593E+02  0.61871128666E+03  0.55629818388E+02  0.62171167983E+03  0.10566000000E+00 0. -1.
<mgrwt>
<rscale>  1 0.10161903E+04</rscale>
<asrwt>0</asrwt>
<pdfrwt beam="2">  1       21 0.17328532E+00 0.11986312E+04</pdfrwt>
<pdfrwt beam="1">  1        4 0.11762844E+00 0.11986312E+04</pdfrwt>
<totfact> 0.38040397E+00</totfact>
</mgrwt>
</event>
<event>
 6    1  0.2415530E-005  0.1035904E+04  0.7818608E-02  0.9653807E-01
         21   -1    0    0  501  502  0.00000000000E+00  0.00000000000E+00  0.13678564327E+04  0.13678564327E+04  0.00000000000E+00 0.  1.
          4   -1    0    0  502    0 -0.00000000000E+00 -0.00000000000E+00 -0.38075032640E+03  0.38075032640E+03  0.00000000000E+00 0.  1.
    9000010    2    1    2  501    0  0.24941161447E+03 -0.96297171733E+02  0.10488944650E+04  0.14742035682E+04  0.10008083049E+04 0.  0.
        -13    1    3    3    0    0  0.36661787872E+01  0.43905861423E+03  0.35994466762E+03  0.56775530161E+03  0.10566000000E+00 0.  1.
          4    1    3    3  501    0  0.24574543568E+03 -0.53535578597E+03  0.68894979742E+03  0.90644826664E+03  0.00000000000E+00 0.  1.
         13    1    1    2    0    0 -0.24941161447E+03  0.96297171733E+02 -0.61788358736E+02  0.27440319086E+03  0.10566000000E+00 0. -1.
<mgrwt>
<rscale>  1 0.73834969E+03</rscale>
<asrwt>0</asrwt>
<pdfrwt beam="1">  1       21 0.21043945E+00 0.10359037E+04</pdfrwt>
<pdfrwt beam="2">  1        4 0.58576974E-01 0.10359037E+04</pdfrwt>
<totfact> 0.10738918E+01</totfact>
</mgrwt>
</event>
<event>
 6    1  0.2415530E-005  0.1094509E+04  0.7818608E-02  0.9719479E-01
         21   -1    0    0  501  502  0.00000000000E+00  0.00000000000E+00  0.16406387368E+04  0.16406387368E+04  0.00000000000E+00 0.  1.
          4   -1    0    0  502    0 -0.00000000000E+00 -0.00000000000E+00 -0.26116441496E+03  0.26116441496E+03  0.00000000000E+00 0.  1.
    9000010    2    1    2  501    0 -0.36129795730E+02 -0.17812278415E+03  0.13104090101E+04  0.17073729154E+04  0.10793133975E+04 0.  0.
        -13    1    3    3    0    0 -0.38885638004E+03 -0.39522020076E+03  0.33530015816E+03  0.64794637017E+03  0.10566000000E+00 0.  1.
          4    1    3    3  501    0  0.35272658431E+03  0.21709741661E+03  0.97510885197E+03  0.10594265452E+04  0.00000000000E+00 0.  1.
         13    1    1    2    0    0  0.36129795730E+02  0.17812278415E+03  0.69065311752E+02  0.19443023640E+03  0.10566000000E+00 0. -1.
<mgrwt>
<rscale>  1 0.69868793E+03</rscale>
<asrwt>0</asrwt>
<pdfrwt beam="1">  1       21 0.25240595E+00 0.10945093E+04</pdfrwt>
<pdfrwt beam="2">  1        4 0.40179142E-01 0.10945093E+04</pdfrwt>
<totfact> 0.12542039E+01</totfact>
</mgrwt>
</event>
<event>
 6    1  0.2415530E-005  0.1043146E+04  0.7818608E-02  0.9601765E-01
          4   -1    0    0  502    0 -0.00000000000E+00  0.00000000000E+00  0.22482903541E+04  0.22482903541E+04  0.00000000000E+00 0.  1.
         21   -1    0    0  501  502  0.00000000000E+00 -0.00000000000E+00 -0.23206516514E+03  0.23206516514E+03  0.00000000000E+00 0.  1.
    9000010    2    1    2  501    0 -0.29665725154E+03  0.98516200542E+02  0.11169877516E+04  0.15283371651E+04  0.99520946859E+03 0.  0.
        -13    1    3    3    0    0 -0.20016675071E+03  0.23578468119E+03 -0.80142268321E+02  0.31950577195E+03  0.10566000000E+00 0.  1.
          4    1    3    3  501    0 -0.96490500831E+02 -0.13726848065E+03  0.11971300199E+04  0.12088313931E+04  0.00000000000E+00 0.  1.
         13    1    1    2    0    0  0.29665725154E+03 -0.98516200542E+02  0.89923743745E+03  0.95201835420E+03  0.10566000000E+00 0. -1.
<mgrwt>
<rscale>  1 0.77179442E+03</rscale>
<asrwt>0</asrwt>
<pdfrwt beam="2">  1       21 0.35702335E-01 0.10431457E+04</pdfrwt>
<pdfrwt beam="1">  1        4 0.34589081E+00 0.10431457E+04</pdfrwt>
<totfact> 0.48621932E+00</totfact>
</mgrwt>
</event>
<event>
 6    1  0.2415530E-005  0.1018558E+04  0.7818608E-02  0.9816049E-01
          4   -1    0    0  502    0 -0.00000000000E+00  0.00000000000E+00  0.47363204543E+03  0.47363204543E+03  0.00000000000E+00 0.  1.
         21   -1    0    0  501  502  0.00000000000E+00 -0.00000000000E+00 -0.94402830116E+03  0.94402830116E+03  0.00000000000E+00 0.  1.
    9000010    2    1    2  501    0  0.16313745427E+03 -0.15503335395E+02 -0.62279699182E+03  0.11938743374E+04  0.10052888431E+04 0.  0.
        -13    1    3    3    0    0 -0.29123591472E+03  0.25649387686E+03 -0.52897215282E+03  0.65606327173E+03  0.10566000000E+00 0.  1.
          4    1    3    3  501    0  0.45437336899E+03 -0.27199721226E+03 -0.93824838996E+02  0.53781106565E+03  0.00000000000E+00 0.  1.
         13    1    1    2    0    0 -0.16313745427E+03  0.15503335395E+02  0.15240073608E+03  0.22378600920E+03  0.10566000000E+00 0. -1.
<mgrwt>
<rscale>  1 0.64508323E+03</rscale>
<asrwt>0</asrwt>
<pdfrwt beam="2">  1       21 0.14523512E+00 0.10185577E+04</pdfrwt>
<pdfrwt beam="1">  1        4 0.72866469E-01 0.10185577E+04</pdfrwt>
<totfact> 0.20063477E+01</totfact>
</mgrwt>
</event>
<event>
 6    1  0.2415530E-005  0.9811389E+03  0.7818608E-02  0.1010414E+00
         21   -1    0    0  501  502  0.00000000000E+00  0.00000000000E+00  0.28316858821E+03  0.28316858821E+03  0.00000000000E+00 0.  1.
          4   -1    0    0  502    0 -0.00000000000E+00 -0.00000000000E+00 -0.99031570235E+03  0.99031570235E+03  0.00000000000E+00 0.  1.
    9000010    2    1    2  501    0  0.16353426276E+02 -0.71542806459E+02 -0.62483900911E+03  0.11632098918E+04  0.97839033997E+03 0.  0.
        -13    1    3    3    0    0  0.31171110934E+03 -0.30991795754E+03 -0.88176170346E+01  0.43964840228E+03  0.10566000000E+00 0.  1.
          4    1    3    3  501    0 -0.29535768307E+03  0.23837515108E+03 -0.61602139208E+03  0.72356148951E+03  0.00000000000E+00 0.  1.
         13    1    1    2    0    0 -0.16353426276E+02  0.71542806459E+02 -0.82308105031E+02  0.11027439877E+03  0.10566000000E+00 0. -1.
<mgrwt>
<rscale>  1 0.51310273E+03</rscale>
<asrwt>0</asrwt>
<pdfrwt beam="1">  1       21 0.43564399E-01 0.98113886E+03</pdfrwt>
<pdfrwt beam="2">  1        4 0.15235626E+00 0.98113886E+03</pdfrwt>
<totfact> 0.57905131E+01</totfact>
</mgrwt>
</event>
<event>
 6    1  0.2415530E-005  0.1117601E+04  0.7818608E-02  0.9408218E-01
          4   -1    0    0  502    0 -0.00000000000E+00  0.00000000000E+00  0.12447654018E+04  0.12447654018E+04  0.00000000000E+00 0.  1.
         21   -1    0    0  501  502  0.00000000000E+00 -0.00000000000E+00 -0.57779809129E+03  0.57779809129E+03  0.00000000000E+00 0. -1.
    9000010    2    1    2  501    0  0.10981812873E+03 -0.48779251430E+03  0.19401672174E+03  0.11343165687E+04  0.99951489796E+03 0.  0.
        -13    1    3    3    0    0  0.52735296468E+03 -0.41683070314E+03  0.92895477408E+01  0.67226132664E+03  0.10566000000E+00 0.  1.
          4    1    3    3  501    0 -0.41753483595E+03 -0.70961811162E+02  0.18472717400E+03  0.46205524203E+03  0.00000000000E+00 0.  1.
         13    1    1    2    0    0 -0.10981812873E+03  0.48779251430E+03  0.47295058881E+03  0.68824692446E+03  0.10566000000E+00 0. -1.
<mgrwt>
<rscale>  1 0.91402458E+03</rscale>
<asrwt>0</asrwt>
<pdfrwt beam="2">  1       21 0.88892014E-01 0.11176008E+04</pdfrwt>
<pdfrwt beam="1">  1        4 0.19150237E+00 0.11176008E+04</pdfrwt>
<totfact> 0.60023183E+00</totfact>
</mgrwt>
</event>
<event>
 6    1  0.2415530E-005  0.1069360E+04  0.7818608E-02  0.9544283E-01
          4   -1    0    0  502    0 -0.00000000000E+00  0.00000000000E+00  0.26008781452E+03  0.26008781452E+03  0.00000000000E+00 0.  1.
         21   -1    0    0  501  502  0.00000000000E+00 -0.00000000000E+00 -0.19501723268E+04  0.19501723268E+04  0.00000000000E+00 0.  1.
    9000010    2    1    2  501    0 -0.18951727900E+03 -0.29863835547E+03 -0.12280264956E+04  0.16283672918E+04  0.10091725802E+04 0.  0.
        -13    1    3    3    0    0 -0.22242891761E+03 -0.66099004977E+03 -0.89915537111E+03  0.11379204110E+04  0.10566000000E+00 0.  1.
          4    1    3    3  501    0  0.32911638612E+02  0.36235169430E+03 -0.32887112452E+03  0.49044688077E+03  0.00000000000E+00 0.  1.
         13    1    1    2    0    0  0.18951727900E+03  0.29863835547E+03 -0.46205801661E+03  0.58189284948E+03  0.10566000000E+00 0. -1.
<mgrwt>
<rscale>  1 0.81096277E+03</rscale>
<asrwt>0</asrwt>
<pdfrwt beam="2">  1       21 0.30002653E+00 0.10693601E+04</pdfrwt>
<pdfrwt beam="1">  1        4 0.40013507E-01 0.10693601E+04</pdfrwt>
<totfact> 0.63799879E+00</totfact>
</mgrwt>
</event>
<event>
 6    1  0.2415530E-005  0.1025855E+04  0.7818608E-02  0.9779182E-01
          4   -1    0    0  502    0 -0.00000000000E+00  0.00000000000E+00  0.17461610151E+03  0.17461610151E+03  0.00000000000E+00 0.  1.
         21   -1    0    0  501  502  0.00000000000E+00 -0.00000000000E+00 -0.22646852082E+04  0.22646852082E+04  0.00000000000E+00 0.  1.
    9000010    2    1    2  501    0 -0.16489335098E+03 -0.74777635027E+02 -0.19728069630E+04  0.22235886921E+04  0.10097513785E+04 0.  0.
        -13    1    3    3    0    0 -0.58659014952E+03 -0.76680177649E+02 -0.13188881586E+04  0.14454874054E+04  0.10566000000E+00 0.  1.
          4    1    3    3  501    0  0.42169679855E+03  0.19025426223E+01 -0.65391880439E+03  0.77810128666E+03  0.00000000000E+00 0.  1.
         13    1    1    2    0    0  0.16489335098E+03  0.74777635027E+02 -0.11726214371E+03  0.21571261764E+03  0.10566000000E+00 0. -1.
<mgrwt>
<rscale>  1 0.66491826E+03</rscale>
<asrwt>0</asrwt>
<pdfrwt beam="2">  1       21 0.34841309E+00 0.10258554E+04</pdfrwt>
<pdfrwt beam="1">  1        4 0.26864017E-01 0.10258554E+04</pdfrwt>
<totfact> 0.70542501E+00</totfact>
</mgrwt>
</event>
<event>
 6    1  0.2415530E-005  0.1222185E+04  0.7818608E-02  0.9193794E-01
          4   -1    0    0  502    0 -0.00000000000E+00  0.00000000000E+00  0.16036245357E+04  0.16036245357E+04  0.00000000000E+00 0.  1.
         21   -1    0    0  501  502  0.00000000000E+00 -0.00000000000E+00 -0.66985260631E+03  0.66985260631E+03  0.00000000000E+00 0. -1.
    9000010    2    1    2  501    0 -0.27671583802E+03  0.78978214248E+03  0.68187462304E+03  0.13995322057E+04  0.89073559806E+03 0.  0.
        -13    1    3    3    0    0  0.22497675557E+03 -0.51901498614E+02  0.20943980678E+03  0.31172640237E+03  0.10566000000E+00 0.  1.
          4    1    3    3  501    0 -0.50169259359E+03  0.84168364109E+03  0.47243481626E+03  0.10878058033E+04  0.00000000000E+00 0.  1.
         13    1    1    2    0    0  0.27671583802E+03 -0.78978214248E+03  0.25189730633E+03  0.87394493630E+03  0.10566000000E+00 0. -1.
<mgrwt>
<rscale>  1 0.11117715E+04</rscale>
<asrwt>0</asrwt>
<pdfrwt beam="2">  1       21 0.10305425E+00 0.12221855E+04</pdfrwt>
<pdfrwt beam="1">  1        4 0.24671147E+00 0.12221855E+04</pdfrwt>
<totfact> 0.18156483E+00</totfact>
</mgrwt>
</event>
<event>
 6    1  0.2415530E-005  0.1036477E+04  0.7818608E-02  0.9676895E-01
         21   -1    0    0  501  502  0.00000000000E+00  0.00000000000E+00  0.21998446999E+04  0.21998446999E+04  0.00000000000E+00 0.  1.
          4   -1    0    0  502    0 -0.00000000000E+00 -0.00000000000E+00 -0.36848691365E+03  0.36848691365E+03  0.00000000000E+00 0.  1.
    9000010    2    1    2  501    0 -0.78489410611E+02  0.23407766599E+03  0.20114165657E+04  0.22627598274E+04  0.10066441748E+04 0.  0.
        -13    1    3    3    0    0  0.41113491503E+03  0.31676260448E+03  0.12531182939E+04  0.13563465396E+04  0.10566000000E+00 0.  1.
          4    1    3    3  501    0 -0.48962432564E+03 -0.82684938489E+02  0.75829827180E+03  0.90641328782E+03  0.00000000000E+00 0.  1.
         13    1    1    2    0    0  0.78489410611E+02 -0.23407766599E+03 -0.18005877938E+03  0.30557178615E+03  0.10566000000E+00 0. -1.
<mgrwt>
<rscale>  1 0.72409280E+03</rscale>
<asrwt>0</asrwt>
<pdfrwt beam="1">  1       21 0.33843764E+00 0.10364774E+04</pdfrwt>
<pdfrwt beam="2">  1        4 0.56690296E-01 0.10364774E+04</pdfrwt>
<totfact> 0.17785943E+00</totfact>
</mgrwt>
</event>
<event>
 6    1  0.2415530E-005  0.1078977E+04  0.7818608E-02  0.9546239E-01
         21   -1    0    0  501  502  0.00000000000E+00  0.00000000000E+00  0.37280325289E+03  0.37280325289E+03  0.00000000000E+00 0. -1.
          4   -1    0    0  502    0 -0.00000000000E+00 -0.00000000000E+00 -0.13599650876E+04  0.13599650876E+04  0.00000000000E+00 0.  1.
    9000010    2    1    2  501    0  0.31249401287E+03  0.13896302233E+03 -0.69955183453E+03  0.12859095787E+04  0.10233413144E+04 0.  0.
        -13    1    3    3    0    0  0.22048699014E+03 -0.13965416828E+03 -0.89571243321E+03  0.93296225739E+03  0.10566000000E+00 0.  1.
          4    1    3    3  501    0  0.92007022728E+02  0.27861719060E+03  0.19616059868E+03  0.35294732129E+03  0.00000000000E+00 0.  1.
         13    1    1    2    0    0 -0.31249401287E+03 -0.13896302233E+03 -0.28761000021E+03  0.44685876185E+03  0.10566000000E+00 0. -1.
<mgrwt>
<rscale>  1 0.80959015E+03</rscale>
<asrwt>0</asrwt>
<pdfrwt beam="1">  1       21 0.57354346E-01 0.10789767E+04</pdfrwt>
<pdfrwt beam="2">  1        4 0.20922540E+00 0.10789767E+04</pdfrwt>
<totfact> 0.12639019E+01</totfact>
</mgrwt>
</event>
<event>
 6    1  0.2415530E-005  0.1022633E+04  0.7818608E-02  0.9764592E-01
         21   -1    0    0  501  502  0.00000000000E+00  0.00000000000E+00  0.59784335974E+03  0.59784335974E+03  0.00000000000E+00 0.  1.
          4   -1    0    0  502    0 -0.00000000000E+00 -0.00000000000E+00 -0.65863377763E+03  0.65863377763E+03  0.00000000000E+00 0.  1.
    9000010    2    1    2  501    0 -0.19003610316E+03  0.25939890411E+02  0.68892571711E+02  0.10249511402E+04  0.10044859655E+04 0.  0.
        -13    1    3    3    0    0  0.25152285124E+03 -0.26538658909E+03  0.27468876345E+03  0.45732670411E+03  0.10566000000E+00 0.  1.
          4    1    3    3  501    0 -0.44155895441E+03  0.29132647950E+03 -0.20579619174E+03  0.56762443606E+03  0.00000000000E+00 0.  1.
         13    1    1    2    0    0  0.19003610316E+03 -0.25939890411E+02 -0.12968298960E+03  0.23152599719E+03  0.10566000000E+00 0. -1.
<mgrwt>
<rscale>  1 0.67297842E+03</rscale>
<asrwt>0</asrwt>
<pdfrwt beam="1">  1       21 0.91975901E-01 0.10226332E+04</pdfrwt>
<pdfrwt beam="2">  1        4 0.10132827E+00 0.10226332E+04</pdfrwt>
<totfact> 0.30170661E+01</totfact>
</mgrwt>
</event>
<event>
 6    1  0.2415530E-005  0.9918895E+03  0.7818608E-02  0.1008935E+00
         21   -1    0    0  501  502  0.00000000000E+00  0.00000000000E+00  0.76047324282E+03  0.76047324282E+03  0.00000000000E+00 0.  1.
          4   -1    0    0  502    0 -0.00000000000E+00 -0.00000000000E+00 -0.37460381280E+03  0.37460381280E+03  0.00000000000E+00 0.  1.
    9000010    2    1    2  501    0 -0.25491448076E+02  0.69844336288E+02  0.34462716063E+03  0.10500536401E+04  0.98909894452E+03 0.  0.
        -13    1    3    3    0    0 -0.44595108691E+03 -0.20366534630E+03  0.17512616908E+03  0.52059689921E+03  0.10566000000E+00 0.  1.
          4    1    3    3  501    0  0.42045963883E+03  0.27350968259E+03  0.16950099155E+03  0.52945674091E+03  0.00000000000E+00 0.  1.
         13    1    1    2    0    0  0.25491448076E+02 -0.69844336288E+02  0.41242269388E+02  0.85023415509E+02  0.10566000000E+00 0. -1.
<mgrwt>
<rscale>  1 0.51900206E+03</rscale>
<asrwt>0</asrwt>
<pdfrwt beam="1">  1       21 0.11699588E+00 0.99188949E+03</pdfrwt>
<pdfrwt beam="2">  1        4 0.57631356E-01 0.99188949E+03</pdfrwt>
<totfact> 0.60063076E+01</totfact>
</mgrwt>
</event>
<event>
 6    1  0.2415530E-005  0.1026379E+04  0.7818608E-02  0.9748565E-01
          4   -1    0    0  502    0 -0.00000000000E+00  0.00000000000E+00  0.61675173452E+03  0.61675173452E+03  0.00000000000E+00 0.  1.
         21   -1    0    0  501  502  0.00000000000E+00 -0.00000000000E+00 -0.83133036404E+03  0.83133036404E+03  0.00000000000E+00 0.  1.
    9000010    2    1    2  501    0  0.10946879944E+03 -0.16744671410E+03 -0.46563842138E+03  0.11270636406E+04  0.10066933447E+04 0.  0.
        -13    1    3    3    0    0  0.79066730596E+02  0.39611732281E+03 -0.13925367854E+02  0.40417126116E+03  0.10566000000E+00 0.  1.
          4    1    3    3  501    0  0.30402068845E+02 -0.56356403691E+03 -0.45171305352E+03  0.72289237941E+03  0.00000000000E+00 0.  1.
         13    1    1    2    0    0 -0.10946879944E+03  0.16744671410E+03  0.25105979186E+03  0.32101845798E+03  0.10566000000E+00 0. -1.
<mgrwt>
<rscale>  1 0.68197406E+03</rscale>
<asrwt>0</asrwt>
<pdfrwt beam="2">  1       21 0.12789698E+00 0.10263787E+04</pdfrwt>
<pdfrwt beam="1">  1        4 0.94884882E-01 0.10263787E+04</pdfrwt>
<totfact> 0.15326158E+01</totfact>
</mgrwt>
</event>
<event>
 6    1  0.2415530E-005  0.1108316E+04  0.7818608E-02  0.9455614E-01
          4   -1    0    0  502    0 -0.00000000000E+00  0.00000000000E+00  0.19907464422E+04  0.19907464422E+04  0.00000000000E+00 0.  1.
         21   -1    0    0  501  502  0.00000000000E+00 -0.00000000000E+00 -0.56172078064E+03  0.56172078064E+03  0.00000000000E+00 0. -1.
    9000010    2    1    2  501    0 -0.43259800765E+03  0.24066629099E+02  0.17087770253E+04  0.20367336913E+04  0.10201200753E+04 0.  0.
        -13    1    3    3    0    0 -0.61218514574E+03 -0.12797335339E+03  0.48743577789E+03  0.79293220428E+03  0.10566000000E+00 0.  1.
          4    1    3    3  501    0  0.17958713809E+03  0.15203998249E+03  0.12213412474E+04  0.12438014870E+04  0.00000000000E+00 0.  1.
         13    1    1    2    0    0  0.43259800765E+03 -0.24066629099E+02 -0.27975136377E+03  0.51573353154E+03  0.10566000000E+00 0. -1.
<mgrwt>
<rscale>  1 0.87636850E+03</rscale>
<asrwt>0</asrwt>
<pdfrwt beam="2">  1       21 0.86418583E-01 0.11083164E+04</pdfrwt>
<pdfrwt beam="1">  1        4 0.30626868E+00 0.11083164E+04</pdfrwt>
<totfact> 0.12143537E+00</totfact>
</mgrwt>
</event>
<event>
 6    1  0.2415530E-005  0.1054830E+04  0.7818608E-02  0.9567412E-01
          4   -1    0    0  502    0 -0.00000000000E+00  0.00000000000E+00  0.10362969833E+04  0.10362969833E+04  0.00000000000E+00 0.  1.
         21   -1    0    0  501  502  0.00000000000E+00 -0.00000000000E+00 -0.54985842047E+03  0.54985842047E+03  0.00000000000E+00 0.  1.
    9000010    2    1    2  501    0 -0.31153775660E+03 -0.13666083354E+03  0.82506499198E+02  0.10580521180E+04  0.99846632633E+03 0.  0.
        -13    1    3    3    0    0 -0.46630023220E+03  0.59985223610E+02  0.42507650772E+03  0.63381715201E+03  0.10566000000E+00 0.  1.
          4    1    3    3  501    0  0.15476247559E+03 -0.19664605715E+03 -0.34257000852E+03  0.42423496601E+03  0.00000000000E+00 0.  1.
         13    1    1    2    0    0  0.31153775660E+03  0.13666083354E+03  0.40393206359E+03  0.52810328570E+03  0.10566000000E+00 0. -1.
<mgrwt>
<rscale>  1 0.79491120E+03</rscale>
<asrwt>0</asrwt>
<pdfrwt beam="2">  1       21 0.84593603E-01 0.10548303E+04</pdfrwt>
<pdfrwt beam="1">  1        4 0.15943031E+00 0.10548303E+04</pdfrwt>
<totfact> 0.11499638E+01</totfact>
</mgrwt>
</event>
<event>
 6    1  0.2415530E-005  0.1005492E+04  0.7818608E-02  0.1018598E+00
         21   -1    0    0  501  502  0.00000000000E+00  0.00000000000E+00  0.73910388942E+03  0.73910388942E+03  0.00000000000E+00 0.  1.
          4   -1    0    0  502    0 -0.00000000000E+00 -0.00000000000E+00 -0.37903347248E+03  0.37903347248E+03  0.00000000000E+00 0.  1.
    9000010    2    1    2  501    0 -0.44134882885E+02  0.29483858364E+02  0.34122504342E+03  0.10618137873E+04  0.10040900372E+04 0.  0.
        -13    1    3    3    0    0 -0.47073074899E+03 -0.20794618958E+03  0.13651404556E+03  0.53241445473E+03  0.10566000000E+00 0.  1.
          4    1    3    3  501    0  0.42659586611E+03  0.23743004795E+03  0.20471099786E+03  0.52939933254E+03  0.00000000000E+00 0.  1.
         13    1    1    2    0    0  0.44134882885E+02 -0.29483858364E+02  0.18845373517E+02  0.56323574623E+02  0.10566000000E+00 0. -1.
<mgrwt>
<rscale>  1 0.48196016E+03</rscale>
<asrwt>0</asrwt>
<pdfrwt beam="1">  1       21 0.11370829E+00 0.10054919E+04</pdfrwt>
<pdfrwt beam="2">  1        4 0.58312842E-01 0.10054919E+04</pdfrwt>
<totfact> 0.62906216E+01</totfact>
</mgrwt>
</event>
<event>
 6    1  0.2415530E-005  0.1070701E+04  0.7818608E-02  0.9494040E-01
          4   -1    0    0  502    0 -0.00000000000E+00  0.00000000000E+00  0.93941807420E+03  0.93941807420E+03  0.00000000000E+00 0.  1.
         21   -1    0    0  501  502  0.00000000000E+00 -0.00000000000E+00 -0.72714373542E+03  0.72714373542E+03  0.00000000000E+00 0.  1.
    9000010    2    1    2  501    0 -0.38762587744E+03  0.16115773259E+03 -0.18735328255E+03  0.10869689503E+04  0.98497442143E+03 0.  0.
        -13    1    3    3    0    0 -0.60829608284E+03  0.34465688733E+03 -0.32225886120E+03  0.76984626983E+03  0.10566000000E+00 0.  1.
          4    1    3    3  501    0  0.22067020540E+03 -0.18349915474E+03  0.13490557865E+03  0.31712268051E+03  0.00000000000E+00 0.  1.
         13    1    1    2    0    0  0.38762587744E+03 -0.16115773259E+03  0.39962762133E+03  0.57959285928E+03  0.10566000000E+00 0. -1.
<mgrwt>
<rscale>  1 0.84724642E+03</rscale>
<asrwt>0</asrwt>
<pdfrwt beam="2">  1       21 0.11186827E+00 0.10707008E+04</pdfrwt>
<pdfrwt beam="1">  1        4 0.14452586E+00 0.10707008E+04</pdfrwt>
<totfact> 0.75139465E+00</totfact>
</mgrwt>
</event>
<event>
 6    1  0.2415530E-005  0.9876965E+03  0.7818608E-02  0.9725756E-01
         21   -1    0    0  501  502  0.00000000000E+00  0.00000000000E+00  0.10077821638E+04  0.10077821638E+04  0.00000000000E+00 0.  1.
          4   -1    0    0  502    0 -0.00000000000E+00 -0.00000000000E+00 -0.40680630914E+03  0.40680630914E+03  0.00000000000E+00 0.  1.
    9000010    2    1    2  501    0 -0.54140653979E+02  0.23606527785E+03  0.62869615531E+03  0.11708130598E+04  0.95754182129E+03 0.  0.
        -13    1    3    3    0    0 -0.29012226151E+03  0.12890625239E+03 -0.14926976851E+03  0.35081223394E+03  0.10566000000E+00 0.  1.
          4    1    3    3  501    0  0.23598160753E+03  0.10715902547E+03  0.77796592382E+03  0.82000082588E+03  0.00000000000E+00 0.  1.
         13    1    1    2    0    0  0.54140653979E+02 -0.23606527785E+03 -0.27720300630E+02  0.24377541314E+03  0.10566000000E+00 0. -1.
<mgrwt>
<rscale>  1 0.69503804E+03</rscale>
<asrwt>0</asrwt>
<pdfrwt beam="1">  1       21 0.15504341E+00 0.98769649E+03</pdfrwt>
<pdfrwt beam="2">  1        4 0.62585586E-01 0.98769649E+03</pdfrwt>
<totfact> 0.23537515E+01</totfact>
</mgrwt>
</event>
<event>
 6    1  0.2415530E-005  0.1059683E+04  0.7818608E-02  0.9556358E-01
         21   -1    0    0  501  502  0.00000000000E+00  0.00000000000E+00  0.15800768029E+04  0.15800768029E+04  0.00000000000E+00 0. -1.
          4   -1    0    0  502    0 -0.00000000000E+00 -0.00000000000E+00 -0.31402587571E+03  0.31402587571E+03  0.00000000000E+00 0.  1.
    9000010    2    1    2  501    0  0.16619120917E+03  0.30643096439E+03  0.97481361638E+03  0.14398575506E+04  0.10007041148E+04 0.  0.
        -13    1    3    3    0    0  0.70661362200E+01  0.65812124292E+03  0.49214268723E+03  0.82181380886E+03  0.10566000000E+00 0.  1.
          4    1    3    3  501    0  0.15912507295E+03 -0.35169027854E+03  0.48267092915E+03  0.61804374174E+03  0.00000000000E+00 0.  1.
         13    1    1    2    0    0 -0.16619120917E+03 -0.30643096439E+03  0.29123731076E+03  0.45424512797E+03  0.10566000000E+00 0. -1.
<mgrwt>
<rscale>  1 0.80253268E+03</rscale>
<asrwt>0</asrwt>
<pdfrwt beam="1">  1       21 0.24308873E+00 0.10596831E+04</pdfrwt>
<pdfrwt beam="2">  1        4 0.48311674E-01 0.10596831E+04</pdfrwt>
<totfact> 0.98648643E+00</totfact>
</mgrwt>
</event>
<event>
 6    1  0.2415530E-005  0.8531602E+03  0.7818608E-02  0.9796279E-01
         21   -1    0    0  501  502  0.00000000000E+00  0.00000000000E+00  0.95450074240E+03  0.95450074240E+03  0.00000000000E+00 0.  1.
          4   -1    0    0  502    0 -0.00000000000E+00 -0.00000000000E+00 -0.38156156770E+03  0.38156156770E+03  0.00000000000E+00 0.  1.
    9000010    2    1    2  501    0  0.10664075044E+03 -0.27776424769E+03  0.59118712410E+03  0.10379713411E+04  0.79959806302E+03 0.  0.
        -13    1    3    3    0    0 -0.10816353898E+03 -0.19355469627E+00 -0.16901238094E+03  0.20066037153E+03  0.10566000000E+00 0.  1.
          4    1    3    3  501    0  0.21480428942E+03 -0.27757069300E+03  0.76019950504E+03  0.83731096961E+03  0.00000000000E+00 0.  1.
         13    1    1    2    0    0 -0.10664075044E+03  0.27776424769E+03 -0.18247949395E+02  0.29809096895E+03  0.10566000000E+00 0. -1.
<mgrwt>
<rscale>  1 0.65562623E+03</rscale>
<asrwt>0</asrwt>
<pdfrwt beam="1">  1       21 0.14684627E+00 0.85316018E+03</pdfrwt>
<pdfrwt beam="2">  1        4 0.58701780E-01 0.85316018E+03</pdfrwt>
<totfact> 0.31964219E+01</totfact>
</mgrwt>
</event>
<event>
 6    1  0.2415530E-005  0.9271185E+03  0.7818608E-02  0.9931627E-01
         21   -1    0    0  501  502  0.00000000000E+00  0.00000000000E+00  0.21522157819E+03  0.21522157819E+03  0.00000000000E+00 0.  1.
          4   -1    0    0  502    0 -0.00000000000E+00 -0.00000000000E+00 -0.13501728930E+04  0.13501728930E+04  0.00000000000E+00 0.  1.
    9000010    2    1    2  501    0  0.13624958761E+03 -0.61585963191E+02 -0.10046119581E+04  0.13670383771E+04  0.91498194359E+03 0.  0.
        -13    1    3    3    0    0  0.41262628034E+03  0.24920387036E+03 -0.70670318151E+03  0.85544866248E+03  0.10566000000E+00 0.  1.
          4    1    3    3  501    0 -0.27637669273E+03 -0.31078983355E+03 -0.29790877660E+03  0.51158971461E+03  0.00000000000E+00 0.  1.
         13    1    1    2    0    0 -0.13624958761E+03  0.61585963191E+02 -0.13033935666E+03  0.19835609405E+03  0.10566000000E+00 0. -1.
<mgrwt>
<rscale>  1 0.58752680E+03</rscale>
<asrwt>0</asrwt>
<pdfrwt beam="1">  1       21 0.33111012E-01 0.92711851E+03</pdfrwt>
<pdfrwt beam="2">  1        4 0.20771890E+00 0.92711851E+03</pdfrwt>
<totfact> 0.42093611E+01</totfact>
</mgrwt>
</event>
<event>
 6    1  0.2415530E-005  0.9892674E+03  0.7818608E-02  0.9918970E-01
         21   -1    0    0  501  502  0.00000000000E+00  0.00000000000E+00  0.18822261489E+04  0.18822261489E+04  0.00000000000E+00 0.  1.
          4   -1    0    0  502    0 -0.00000000000E+00 -0.00000000000E+00 -0.35430299341E+03  0.35430299341E+03  0.00000000000E+00 0.  1.
    9000010    2    1    2  501    0  0.29660726638E+02  0.12468310583E+03  0.17325447328E+04  0.19950842487E+04  0.98093030976E+03 0.  0.
        -13    1    3    3    0    0 -0.11155450775E+03  0.52085363332E+03  0.12258392110E+04  0.13365682541E+04  0.10566000000E+00 0.  1.
          4    1    3    3  501    0  0.14121523438E+03 -0.39617052749E+03  0.50670552184E+03  0.65851599459E+03  0.00000000000E+00 0.  1.
         13    1    1    2    0    0 -0.29660726638E+02 -0.12468310583E+03 -0.20462157733E+03  0.24144489362E+03  0.10566000000E+00 0. -1.
<mgrwt>
<rscale>  1 0.59350662E+03</rscale>
<asrwt>0</asrwt>
<pdfrwt beam="1">  1       21 0.28957325E+00 0.98926736E+03</pdfrwt>
<pdfrwt beam="2">  1        4 0.54508154E-01 0.98926736E+03</pdfrwt>
<totfact> 0.39387020E+00</totfact>
</mgrwt>
</event>
<event>
 6    1  0.2415530E-005  0.1096472E+04  0.7818608E-02  0.9459663E-01
         21   -1    0    0  501  502  0.00000000000E+00  0.00000000000E+00  0.35402204478E+03  0.35402204478E+03  0.00000000000E+00 0. -1.
          4   -1    0    0  502    0 -0.00000000000E+00 -0.00000000000E+00 -0.19816693436E+04  0.19816693436E+04  0.00000000000E+00 0.  1.
    9000010    2    1    2  501    0 -0.19342316487E+03 -0.39643980280E+03 -0.67948116597E+03  0.12899399530E+04  0.10038293627E+04 0.  0.
        -13    1    3    3    0    0 -0.49739037466E+03 -0.48985138333E+03 -0.67623235669E+03  0.97192683570E+03  0.10566000000E+00 0.  1.
          4    1    3    3  501    0  0.30396720979E+03  0.93411580527E+02 -0.32488092743E+01  0.31801311729E+03  0.00000000000E+00 0.  1.
         13    1    1    2    0    0  0.19342316487E+03  0.39643980280E+03 -0.94816613283E+03  0.10457514354E+04  0.10566000000E+00 0. -1.
<mgrwt>
<rscale>  1 0.87324188E+03</rscale>
<asrwt>0</asrwt>
<pdfrwt beam="1">  1       21 0.54464930E-01 0.10964718E+04</pdfrwt>
<pdfrwt beam="2">  1        4 0.30487221E+00 0.10964718E+04</pdfrwt>
<totfact> 0.35727876E+00</totfact>
</mgrwt>
</event>
<event>
 6    1  0.2415530E-005  0.1047659E+04  0.7818608E-02  0.9678326E-01
         21   -1    0    0  501  502  0.00000000000E+00  0.00000000000E+00  0.11158725177E+04  0.11158725177E+04  0.00000000000E+00 0.  1.
          4   -1    0    0  502    0 -0.00000000000E+00 -0.00000000000E+00 -0.64655521802E+03  0.64655521802E+03  0.00000000000E+00 0.  1.
    9000010    2    1    2  501    0 -0.53440941544E+02 -0.23183635453E+03  0.82569801727E+03  0.13339288950E+04  0.10202867497E+04 0.  0.
        -13    1    3    3    0    0 -0.45143792463E+03 -0.41076211097E+03  0.50929658718E+03  0.79492435896E+03  0.10566000000E+00 0.  1.
          4    1    3    3  501    0  0.39799698308E+03  0.17892575644E+03  0.31640143010E+03  0.53900453600E+03  0.00000000000E+00 0.  1.
         13    1    1    2    0    0  0.53440941544E+02  0.23183635453E+03 -0.35638071758E+03  0.42849884077E+03  0.10566000000E+00 0. -1.
<mgrwt>
<rscale>  1 0.72322070E+03</rscale>
<asrwt>0</asrwt>
<pdfrwt beam="1">  1       21 0.17167269E+00 0.10476589E+04</pdfrwt>
<pdfrwt beam="2">  1        4 0.99470034E-01 0.10476589E+04</pdfrwt>
<totfact> 0.60164377E+00</totfact>
</mgrwt>
</event>
<event>
 6    1  0.2415530E-005  0.1017459E+04  0.7818608E-02  0.9856346E-01
          4   -1    0    0  502    0 -0.00000000000E+00  0.00000000000E+00  0.83740802663E+03  0.83740802663E+03  0.00000000000E+00 0.  1.
         21   -1    0    0  501  502  0.00000000000E+00 -0.00000000000E+00 -0.44249091761E+03  0.44249091761E+03  0.00000000000E+00 0.  1.
    9000010    2    1    2  501    0 -0.66592184417E+02 -0.12786591886E+03  0.19913348684E+03  0.10367622541E+04  0.10071929376E+04 0.  0.
        -13    1    3    3    0    0 -0.18453752212E+03  0.18694899292E+03 -0.32264604202E+03  0.41605829233E+03  0.10566000000E+00 0.  1.
          4    1    3    3  501    0  0.11794533771E+03 -0.31481491178E+03  0.52177952886E+03  0.62070396172E+03  0.00000000000E+00 0.  1.
         13    1    1    2    0    0  0.66592184417E+02  0.12786591886E+03  0.19578362218E+03  0.24313669017E+03  0.10566000000E+00 0. -1.
<mgrwt>
<rscale>  1 0.62424383E+03</rscale>
<asrwt>0</asrwt>
<pdfrwt beam="2">  1       21 0.68075526E-01 0.10174585E+04</pdfrwt>
<pdfrwt beam="1">  1        4 0.12883200E+00 0.10174585E+04</pdfrwt>
<totfact> 0.33683266E+01</totfact>
</mgrwt>
</event>
<event>
 6    1  0.2415530E-005  0.1053400E+04  0.7818608E-02  0.9570610E-01
         21   -1    0    0  501  502  0.00000000000E+00  0.00000000000E+00  0.39178360312E+04  0.39178360312E+04  0.00000000000E+00 0.  1.
          4   -1    0    0  502    0 -0.00000000000E+00 -0.00000000000E+00 -0.19471288331E+03  0.19471288331E+03  0.00000000000E+00 0.  1.
    9000010    2    1    2  501    0  0.96561220317E+02  0.32374271659E+03  0.36032550332E+04  0.37540774486E+04  0.99775610236E+03 0.  0.
        -13    1    3    3    0    0  0.18504653597E+03  0.40998372464E+03  0.60813919818E+03  0.75641402054E+03  0.10566000000E+00 0.  1.
          4    1    3    3  501    0 -0.88485315650E+02 -0.86241008059E+02  0.29951158351E+04  0.29976634281E+04  0.00000000000E+00 0.  1.
         13    1    1    2    0    0 -0.96561220317E+02 -0.32374271659E+03  0.11986811470E+03  0.35847146595E+03  0.10566000000E+00 0. -1.
<mgrwt>
<rscale>  1 0.79272300E+03</rscale>
<asrwt>0</asrwt>
<pdfrwt beam="1">  1       21 0.60274395E+00 0.10533996E+04</pdfrwt>
<pdfrwt beam="2">  1        4 0.29955831E-01 0.10533996E+04</pdfrwt>
<totfact> 0.91257792E-02</totfact>
</mgrwt>
</event>
<event>
 6    1  0.2415530E-005  0.1004120E+04  0.7818608E-02  0.9787417E-01
          4   -1    0    0  502    0 -0.00000000000E+00  0.00000000000E+00  0.18627726694E+04  0.18627726694E+04  0.00000000000E+00 0.  1.
         21   -1    0    0  501  502  0.00000000000E+00 -0.00000000000E+00 -0.31078431256E+03  0.31078431256E+03  0.00000000000E+00 0. -1.
    9000010    2    1    2  501    0  0.13195468237E+03 -0.13377158693E+03  0.53188347667E+03  0.11362909344E+04  0.98638236969E+03 0.  0.
        -13    1    3    3    0    0  0.18087895067E+03 -0.50575764125E+03  0.53912966780E+03  0.76103140300E+03  0.10566000000E+00 0.  1.
          4    1    3    3  501    0 -0.48924268306E+02  0.37198605432E+03 -0.72461911314E+01  0.37525953143E+03  0.00000000000E+00 0.  1.
         13    1    1    2    0    0 -0.13195468237E+03  0.13377158693E+03  0.10201048801E+04  0.10372660475E+04  0.10566000000E+00 0. -1.
<mgrwt>
<rscale>  1 0.66042219E+03</rscale>
<asrwt>0</asrwt>
<pdfrwt beam="2">  1       21 0.47812972E-01 0.10041200E+04</pdfrwt>
<pdfrwt beam="1">  1        4 0.28658040E+00 0.10041200E+04</pdfrwt>
<totfact> 0.62304156E+00</totfact>
</mgrwt>
</event>
<event>
 6    1  0.2415530E-005  0.7707000E+03  0.7818608E-02  0.1015362E+00
         21   -1    0    0  501  502  0.00000000000E+00  0.00000000000E+00  0.61373414824E+03  0.61373414824E+03  0.00000000000E+00 0.  1.
          4   -1    0    0  502    0 -0.00000000000E+00 -0.00000000000E+00 -0.39406603263E+03  0.39406603263E+03  0.00000000000E+00 0.  1.
    9000010    2    1    2  501    0 -0.11792162132E+03 -0.54892229886E+02  0.32890033144E+03  0.83794626182E+03  0.75964455109E+03 0.  0.
        -13    1    3    3    0    0  0.27041753834E+03 -0.21984141578E+03  0.13763227637E+03  0.37469794208E+03  0.10566000000E+00 0.  1.
          4    1    3    3  501    0 -0.38833915966E+03  0.16494918589E+03  0.19126805507E+03  0.46324831974E+03  0.00000000000E+00 0.  1.
         13    1    1    2    0    0  0.11792162132E+03  0.54892229886E+02 -0.10923221583E+03  0.16985391905E+03  0.10566000000E+00 0. -1.
<mgrwt>
<rscale>  1 0.49398052E+03</rscale>
<asrwt>0</asrwt>
<pdfrwt beam="1">  1       21 0.94420638E-01 0.77070001E+03</pdfrwt>
<pdfrwt beam="2">  1        4 0.60625543E-01 0.77070001E+03</pdfrwt>
<totfact> 0.93780584E+01</totfact>
</mgrwt>
</event>
<event>
 6    1  0.2415530E-005  0.1095454E+04  0.7818608E-02  0.9458725E-01
         21   -1    0    0  501  502  0.00000000000E+00  0.00000000000E+00  0.69152099575E+03  0.69152099575E+03  0.00000000000E+00 0.  1.
          4   -1    0    0  502    0 -0.00000000000E+00 -0.00000000000E+00 -0.12784481058E+04  0.12784481058E+04  0.00000000000E+00 0.  1.
    9000010    2    1    2  501    0  0.44201865187E+03 -0.39793176258E+02  0.15406674942E+03  0.11062354062E+04  0.10015269468E+04 0.  0.
        -13    1    3    3    0    0 -0.17880829232E+03  0.30873552362E+03 -0.62171772941E+02  0.36215379255E+03  0.10566000000E+00 0.  1.
          4    1    3    3  501    0  0.62082694419E+03 -0.34852869988E+03  0.21623852236E+03  0.74408161368E+03  0.00000000000E+00 0.  1.
         13    1    1    2    0    0 -0.44201865187E+03  0.39793176258E+02 -0.74099385945E+03  0.86373369529E+03  0.10566000000E+00 0. -1.
<mgrwt>
<rscale>  1 0.87396505E+03</rscale>
<asrwt>0</asrwt>
<pdfrwt beam="1">  1       21 0.10638785E+00 0.10954543E+04</pdfrwt>
<pdfrwt beam="2">  1        4 0.19668432E+00 0.10954543E+04</pdfrwt>
<totfact> 0.35646462E+00</totfact>
</mgrwt>
</event>
<event>
 6    1  0.2415530E-005  0.1130579E+04  0.7818608E-02  0.9412075E-01
          4   -1    0    0  502    0 -0.00000000000E+00  0.00000000000E+00  0.12129112909E+04  0.12129112909E+04  0.00000000000E+00 0.  1.
         21   -1    0    0  501  502  0.00000000000E+00 -0.00000000000E+00 -0.56232610963E+03  0.56232610963E+03  0.00000000000E+00 0.  1.
    9000010    2    1    2  501    0  0.12639922005E+02 -0.47621215587E+03  0.26216704630E+03  0.11605777843E+04  0.10253152921E+04 0.  0.
        -13    1    3    3    0    0 -0.12366347327E+03 -0.54335831272E+03 -0.26132175103E+03  0.61548353297E+03  0.10566000000E+00 0.  1.
          4    1    3    3  501    0  0.13630339528E+03  0.67146156851E+02  0.52348879733E+03  0.54509425137E+03  0.00000000000E+00 0.  1.
         13    1    1    2    0    0 -0.12639922005E+02  0.47621215587E+03  0.38841813495E+03  0.61465961617E+03  0.10566000000E+00 0. -1.
<mgrwt>
<rscale>  1 0.91088612E+03</rscale>
<asrwt>0</asrwt>
<pdfrwt beam="2">  1       21 0.86511710E-01 0.11305792E+04</pdfrwt>
<pdfrwt beam="1">  1        4 0.18660174E+00 0.11305792E+04</pdfrwt>
<totfact> 0.69094995E+00</totfact>
</mgrwt>
</event>
<event>
 6    1  0.2415530E-005  0.1133032E+04  0.7818608E-02  0.9387304E-01
         21   -1    0    0  501  502  0.00000000000E+00  0.00000000000E+00  0.71220468817E+03  0.71220468817E+03  0.00000000000E+00 0.  1.
          4   -1    0    0  502    0 -0.00000000000E+00 -0.00000000000E+00 -0.11168866602E+04  0.11168866602E+04  0.00000000000E+00 0.  1.
    9000010    2    1    2  501    0  0.49445575057E+03  0.15141868268E+03 -0.59289559196E+03  0.12787837211E+04  0.10081411189E+04 0.  0.
        -13    1    3    3    0    0  0.60507779152E+03  0.65225734194E+02  0.59500863421E+02  0.61148499091E+03  0.10566000000E+00 0.  1.
          4    1    3    3  501    0 -0.11062204095E+03  0.86192948489E+02 -0.65239645538E+03  0.66729873018E+03  0.00000000000E+00 0.  1.
         13    1    1    2    0    0 -0.49445575057E+03 -0.15141868268E+03  0.18821361993E+03  0.55030762727E+03  0.10566000000E+00 0. -1.
<mgrwt>
<rscale>  1 0.93127913E+03</rscale>
<asrwt>0</asrwt>
<pdfrwt beam="1">  1       21 0.10956995E+00 0.11330325E+04</pdfrwt>
<pdfrwt beam="2">  1        4 0.17182872E+00 0.11330325E+04</pdfrwt>
<totfact> 0.48928548E+00</totfact>
</mgrwt>
</event>
<event>
 6    1  0.2415530E-005  0.1014556E+04  0.7818608E-02  0.9707549E-01
          4   -1    0    0  502    0 -0.00000000000E+00  0.00000000000E+00  0.29588878672E+04  0.29588878672E+04  0.00000000000E+00 0.  1.
         21   -1    0    0  501  502  0.00000000000E+00 -0.00000000000E+00 -0.15414150751E+03  0.15414150751E+03  0.00000000000E+00 0.  1.
    9000010    2    1    2  501    0 -0.23650866635E+03 -0.21480895383E+02  0.16726506461E+04  0.19562932363E+04  0.98636974009E+03 0.  0.
        -13    1    3    3    0    0 -0.45078563594E+03 -0.33346506373E+03  0.13393011933E+04  0.14519415746E+04  0.10566000000E+00 0.  1.
          4    1    3    3  501    0  0.21427696959E+03  0.31198416835E+03  0.33334945280E+03  0.50435166172E+03  0.00000000000E+00 0.  1.
         13    1    1    2    0    0  0.23650866635E+03  0.21480895383E+02  0.11320957136E+04  0.11567361384E+04  0.10566000000E+00 0. -1.
<mgrwt>
<rscale>  1 0.70569111E+03</rscale>
<asrwt>0</asrwt>
<pdfrwt beam="2">  1       21 0.23714080E-01 0.10145556E+04</pdfrwt>
<pdfrwt beam="1">  1        4 0.45521348E+00 0.10145556E+04</pdfrwt>
<totfact> 0.19361975E+00</totfact>
</mgrwt>
</event>
<event>
 6    1  0.2415530E-005  0.1153175E+04  0.7818608E-02  0.9352149E-01
          4   -1    0    0  502    0 -0.00000000000E+00  0.00000000000E+00  0.56636557554E+03  0.56636557554E+03  0.00000000000E+00 0.  1.
         21   -1    0    0  501  502  0.00000000000E+00 -0.00000000000E+00 -0.19340203546E+04  0.19340203546E+04  0.00000000000E+00 0.  1.
    9000010    2    1    2  501    0 -0.54087184382E+03 -0.13157571044E+03 -0.15342861425E+04  0.19193346919E+04  0.10099292912E+04 0.  0.
        -13    1    3    3    0    0 -0.71132508298E+03 -0.10919390890E+02 -0.51341995608E+03  0.87732700246E+03  0.10566000000E+00 0.  1.
          4    1    3    3  501    0  0.17045323916E+03 -0.12065631955E+03 -0.10208661864E+04  0.10420076894E+04  0.00000000000E+00 0.  1.
         13    1    1    2    0    0  0.54087184382E+03  0.13157571044E+03  0.16663136348E+03  0.58105123825E+03  0.10566000000E+00 0. -1.
<mgrwt>
<rscale>  1 0.96120503E+03</rscale>
<asrwt>0</asrwt>
<pdfrwt beam="2">  1       21 0.29754160E+00 0.11531746E+04</pdfrwt>
<pdfrwt beam="1">  1        4 0.87133163E-01 0.11531746E+04</pdfrwt>
<totfact> 0.11948486E+00</totfact>
</mgrwt>
</event>
<event>
 6    1  0.2415530E-005  0.1105759E+04  0.7818608E-02  0.9433126E-01
         21   -1    0    0  501  502  0.00000000000E+00  0.00000000000E+00  0.16229316055E+04  0.16229316055E+04  0.00000000000E+00 0. -1.
          4   -1    0    0  502    0 -0.00000000000E+00 -0.00000000000E+00 -0.39900639626E+03  0.39900639626E+03  0.00000000000E+00 0.  1.
    9000010    2    1    2  501    0 -0.26823522225E+03  0.38891033922E+03  0.10302789471E+04  0.15113498386E+04  0.99975108867E+03 0.  0.
        -13    1    3    3    0    0  0.58607215482E+02  0.19570126547E+03  0.11055634308E+04  0.11242794589E+04  0.10566000000E+00 0.  1.
          4    1    3    3  501    0 -0.32684243773E+03  0.19320907375E+03 -0.75284483761E+02  0.38707037962E+03  0.00000000000E+00 0.  1.
         13    1    1    2    0    0  0.26823522225E+03 -0.38891033922E+03  0.19364626220E+03  0.51058816324E+03  0.10566000000E+00 0. -1.
<mgrwt>
<rscale>  1 0.89398980E+03</rscale>
<asrwt>0</asrwt>
<pdfrwt beam="1">  1       21 0.24968178E+00 0.11057593E+04</pdfrwt>
<pdfrwt beam="2">  1        4 0.61385600E-01 0.11057593E+04</pdfrwt>
<totfact> 0.53217910E+00</totfact>
</mgrwt>
</event>
<event>
 6    1  0.2415530E-005  0.1002561E+04  0.7818608E-02  0.9915173E-01
         21   -1    0    0  501  502  0.00000000000E+00  0.00000000000E+00  0.11004514689E+04  0.11004514689E+04  0.00000000000E+00 0.  1.
          4   -1    0    0  502    0 -0.00000000000E+00 -0.00000000000E+00 -0.29293251105E+03  0.29293251105E+03  0.00000000000E+00 0.  1.
    9000010    2    1    2  501    0 -0.67988490601E+02  0.10446330768E+03  0.76705703878E+03  0.12623412558E+04  0.99478335722E+03 0.  0.
        -13    1    3    3    0    0  0.37598511684E+03  0.33237923372E+03  0.42096670027E+03  0.65502193626E+03  0.10566000000E+00 0.  1.
          4    1    3    3  501    0 -0.44397360744E+03 -0.22791592604E+03  0.34609033851E+03  0.60731931951E+03  0.00000000000E+00 0.  1.
         13    1    1    2    0    0  0.67988490601E+02 -0.10446330768E+03  0.40461919115E+02  0.13104272421E+03  0.10566000000E+00 0. -1.
<mgrwt>
<rscale>  1 0.59531548E+03</rscale>
<asrwt>0</asrwt>
<pdfrwt beam="1">  1       21 0.16930022E+00 0.10025612E+04</pdfrwt>
<pdfrwt beam="2">  1        4 0.45066541E-01 0.10025612E+04</pdfrwt>
<totfact> 0.36768255E+01</totfact>
</mgrwt>
</event>
<event>
 6    1  0.2415530E-005  0.1029724E+04  0.7818608E-02  0.9671095E-01
          4   -1    0    0  502    0 -0.00000000000E+00  0.00000000000E+00  0.12380797656E+04  0.12380797656E+04  0.00000000000E+00 0.  1.
         21   -1    0    0  501  502  0.00000000000E+00 -0.00000000000E+00 -0.49518527235E+03  0.49518527235E+03  0.00000000000E+00 0.  1.
    9000010    2    1    2  501    0 -0.19993869917E+03  0.16107167909E+03  0.92312400277E+02  0.10338533994E+04  0.99720193694E+03 0.  0.
        -13    1    3    3    0    0 -0.33618762604E+03  0.23695323775E+02  0.48819024901E+03  0.59322282379E+03  0.10566000000E+00 0.  1.
          4    1    3    3  501    0  0.13624892687E+03  0.13737635532E+03 -0.39587784873E+03  0.44063057564E+03  0.00000000000E+00 0.  1.
         13    1    1    2    0    0  0.19993869917E+03 -0.16107167909E+03  0.65058209300E+03  0.69941163854E+03  0.10566000000E+00 0. -1.
<mgrwt>
<rscale>  1 0.72764139E+03</rscale>
<asrwt>0</asrwt>
<pdfrwt beam="2">  1       21 0.76182350E-01 0.10297239E+04</pdfrwt>
<pdfrwt beam="1">  1        4 0.19047381E+00 0.10297239E+04</pdfrwt>
<totfact> 0.88812411E+00</totfact>
</mgrwt>
</event>
<event>
 6    1  0.2415530E-005  0.1018543E+04  0.7818608E-02  0.9935830E-01
         21   -1    0    0  501  502  0.00000000000E+00  0.00000000000E+00  0.45573375319E+03  0.45573375319E+03  0.00000000000E+00 0.  1.
          4   -1    0    0  502    0 -0.00000000000E+00 -0.00000000000E+00 -0.79380729197E+03  0.79380729197E+03  0.00000000000E+00 0.  1.
    9000010    2    1    2  501    0  0.22833081458E+02  0.10889264331E+03 -0.14791772100E+03  0.10292271700E+04  0.10124475087E+04 0.  0.
        -13    1    3    3    0    0  0.41896435315E+03  0.77476284828E+01  0.22520543889E+03  0.47571909341E+03  0.10566000000E+00 0.  1.
          4    1    3    3  501    0 -0.39613127170E+03  0.10114501483E+03 -0.37312315989E+03  0.55350807663E+03  0.00000000000E+00 0.  1.
         13    1    1    2    0    0 -0.22833081458E+02 -0.10889264331E+03 -0.19015581778E+03  0.22031387513E+03  0.10566000000E+00 0. -1.
<mgrwt>
<rscale>  1 0.58555803E+03</rscale>
<asrwt>0</asrwt>
<pdfrwt beam="1">  1       21 0.70112885E-01 0.10185425E+04</pdfrwt>
<pdfrwt beam="2">  1        4 0.12212420E+00 0.10185425E+04</pdfrwt>
<totfact> 0.36081158E+01</totfact>
</mgrwt>
</event>
<event>
 6    1  0.2415530E-005  0.1028277E+04  0.7818608E-02  0.9781533E-01
         21   -1    0    0  501  502  0.00000000000E+00  0.00000000000E+00  0.40556223141E+03  0.40556223141E+03  0.00000000000E+00 0.  1.
          4   -1    0    0  502    0 -0.00000000000E+00 -0.00000000000E+00 -0.11858622927E+04  0.11858622927E+04  0.00000000000E+00 0.  1.
    9000010    2    1    2  501    0  0.39434399412E-01 -0.17839201406E+03 -0.28807151057E+03  0.10678668200E+04  0.10126848660E+04 0.  0.
        -13    1    3    3    0    0 -0.80344135347E+02 -0.54409684808E+03 -0.39653505028E+03  0.67803880231E+03  0.10566000000E+00 0.  1.
          4    1    3    3  501    0  0.80383569747E+02  0.36570483402E+03  0.10846353972E+03  0.38982801767E+03  0.00000000000E+00 0.  1.
         13    1    1    2    0    0 -0.39434399412E-01  0.17839201406E+03 -0.49222855071E+03  0.52355770411E+03  0.10566000000E+00 0. -1.
<mgrwt>
<rscale>  1 0.66363087E+03</rscale>
<asrwt>0</asrwt>
<pdfrwt beam="1">  1       21 0.62394190E-01 0.10282774E+04</pdfrwt>
<pdfrwt beam="2">  1        4 0.18244035E+00 0.10282774E+04</pdfrwt>
<totfact> 0.15916751E+01</totfact>
</mgrwt>
</event>
<event>
 6    1  0.2415530E-005  0.1022090E+04  0.7818608E-02  0.9538789E-01
         21   -1    0    0  501  502  0.00000000000E+00  0.00000000000E+00  0.14098826133E+04  0.14098826133E+04  0.00000000000E+00 0.  1.
          4   -1    0    0  502    0 -0.00000000000E+00 -0.00000000000E+00 -0.36513234549E+03  0.36513234549E+03  0.00000000000E+00 0.  1.
    9000010    2    1    2  501    0  0.11745260785E+03  0.39580973869E+03  0.74880187286E+03  0.12670327465E+04  0.93499051954E+03 0.  0.
        -13    1    3    3    0    0  0.48626930334E+03  0.76798758899E+01  0.34001744577E+03  0.59340432292E+03  0.10566000000E+00 0.  1.
          4    1    3    3  501    0 -0.36881669548E+03  0.38812986280E+03  0.40878442709E+03  0.67362842361E+03  0.00000000000E+00 0.  1.
         13    1    1    2    0    0 -0.11745260785E+03 -0.39580973869E+03  0.29594839493E+03  0.50798221225E+03  0.10566000000E+00 0. -1.
<mgrwt>
<rscale>  1 0.81483520E+03</rscale>
<asrwt>0</asrwt>
<pdfrwt beam="1">  1       21 0.21690502E+00 0.10220899E+04</pdfrwt>
<pdfrwt beam="2">  1        4 0.56174208E-01 0.10220899E+04</pdfrwt>
<totfact> 0.10661133E+01</totfact>
</mgrwt>
</event>
<event>
 6    1  0.2415530E-005  0.1077783E+04  0.7818608E-02  0.9501655E-01
         21   -1    0    0  501  502  0.00000000000E+00  0.00000000000E+00  0.61826149530E+03  0.61826149530E+03  0.00000000000E+00 0.  1.
          4   -1    0    0  502    0 -0.00000000000E+00 -0.00000000000E+00 -0.90033810743E+03  0.90033810743E+03  0.00000000000E+00 0.  1.
    9000010    2    1    2  501    0 -0.18887832024E+03 -0.35344361116E+03 -0.11315374156E+03  0.10837061060E+04  0.10005087450E+04 0.  0.
        -13    1    3    3    0    0  0.10854587422E+03 -0.63760334782E+03  0.31816805591E+02  0.64755892106E+03  0.10566000000E+00 0.  1.
          4    1    3    3  501    0 -0.29742419446E+03  0.28415973667E+03 -0.14497054715E+03  0.43614718494E+03  0.00000000000E+00 0.  1.
         13    1    1    2    0    0  0.18887832024E+03  0.35344361116E+03 -0.16892287058E+03  0.43489349673E+03  0.10566000000E+00 0. -1.
<mgrwt>
<rscale>  1 0.84161927E+03</rscale>
<asrwt>0</asrwt>
<pdfrwt beam="1">  1       21 0.95117154E-01 0.10777825E+04</pdfrwt>
<pdfrwt beam="2">  1        4 0.13851355E+00 0.10777825E+04</pdfrwt>
<totfact> 0.12606982E+01</totfact>
</mgrwt>
</event>
<event>
 6    1  0.2415530E-005  0.1013551E+04  0.7818608E-02  0.9745299E-01
          4   -1    0    0  502    0 -0.00000000000E+00  0.00000000000E+00  0.19572080344E+03  0.19572080344E+03  0.00000000000E+00 0.  1.
         21   -1    0    0  501  502  0.00000000000E+00 -0.00000000000E+00 -0.22222338400E+04  0.22222338400E+04  0.00000000000E+00 0.  1.
    9000010    2    1    2  501    0  0.15293892514E+03 -0.14392686427E+03 -0.19439207288E+04  0.21922850674E+04  0.99155471850E+03 0.  0.
        -13    1    3    3    0    0  0.52479347786E+03 -0.24968835516E+03 -0.14697819750E+04  0.15805098970E+04  0.10566000000E+00 0.  1.
          4    1    3    3  501    0 -0.37185455272E+03  0.10576149089E+03 -0.47413875377E+03  0.61177517043E+03  0.00000000000E+00 0.  1.
         13    1    1    2    0    0 -0.15293892514E+03  0.14392686427E+03 -0.82592307747E+02  0.22566957603E+03  0.10566000000E+00 0. -1.
<mgrwt>
<rscale>  1 0.68382595E+03</rscale>
<asrwt>0</asrwt>
<pdfrwt beam="2">  1       21 0.34188210E+00 0.10135512E+04</pdfrwt>
<pdfrwt beam="1">  1        4 0.30110895E-01 0.10135512E+04</pdfrwt>
<totfact> 0.62269824E+00</totfact>
</mgrwt>
</event>
<event>
 6    1  0.2415530E-005  0.1112082E+04  0.7818608E-02  0.9448372E-01
         21   -1    0    0  501  502  0.00000000000E+00  0.00000000000E+00  0.63329728821E+03  0.63329728821E+03  0.00000000000E+00 0. -1.
          4   -1    0    0  502    0 -0.00000000000E+00 -0.00000000000E+00 -0.95630369530E+03  0.95630369530E+03  0.00000000000E+00 0.  1.
    9000010    2    1    2  501    0  0.43911333133E+03  0.27959112639E+02 -0.17746510204E+03  0.11261524833E+04  0.10213340900E+04 0.  0.
        -13    1    3    3    0    0  0.95885183962E+02 -0.47518795206E+02 -0.58115485500E+03  0.59092552920E+03  0.10566000000E+00 0.  1.
          4    1    3    3  501    0  0.34322814737E+03  0.75477907845E+02  0.40368975296E+03  0.53522695407E+03  0.00000000000E+00 0.  1.
         13    1    1    2    0    0 -0.43911333133E+03 -0.27959112639E+02 -0.14554130505E+03  0.46344850024E+03  0.10566000000E+00 0. -1.
<mgrwt>
<rscale>  1 0.88199535E+03</rscale>
<asrwt>0</asrwt>
<pdfrwt beam="1">  1       21 0.97430353E-01 0.11120816E+04</pdfrwt>
<pdfrwt beam="2">  1        4 0.14712364E+00 0.11120816E+04</pdfrwt>
<totfact> 0.10092756E+01</totfact>
</mgrwt>
</event>
<event>
 6    1  0.2415530E-005  0.9833146E+03  0.7818608E-02  0.9992556E-01
          4   -1    0    0  502    0 -0.00000000000E+00  0.00000000000E+00  0.46984751562E+03  0.46984751562E+03  0.00000000000E+00 0.  1.
         21   -1    0    0  501  502  0.00000000000E+00 -0.00000000000E+00 -0.71184149003E+03  0.71184149003E+03  0.00000000000E+00 0.  1.
    9000010    2    1    2  501    0  0.72168615114E+02  0.73871710625E+02 -0.33889211470E+03  0.10400747430E+04  0.97787640678E+03 0.  0.
        -13    1    3    3    0    0 -0.33689672943E+03  0.34467074400E+03 -0.24471395567E+03  0.54053886015E+03  0.10566000000E+00 0.  1.
          4    1    3    3  501    0  0.40906534455E+03 -0.27079903338E+03 -0.94178159034E+02  0.49953588282E+03  0.00000000000E+00 0.  1.
         13    1    1    2    0    0 -0.72168615114E+02 -0.73871710625E+02  0.96898140293E+02  0.14161426268E+03  0.10566000000E+00 0. -1.
<mgrwt>
<rscale>  1 0.55977855E+03</rscale>
<asrwt>0</asrwt>
<pdfrwt beam="2">  1       21 0.10951407E+00 0.98331460E+03</pdfrwt>
<pdfrwt beam="1">  1        4 0.72284234E-01 0.98331460E+03</pdfrwt>
<totfact> 0.43144787E+01</totfact>
</mgrwt>
</event>
<event>
 6    1  0.2415530E-005  0.1013281E+04  0.7818608E-02  0.9831474E-01
          4   -1    0    0  502    0 -0.00000000000E+00  0.00000000000E+00  0.56703912420E+03  0.56703912420E+03  0.00000000000E+00 0.  1.
         21   -1    0    0  501  502  0.00000000000E+00 -0.00000000000E+00 -0.11320374747E+04  0.11320374747E+04  0.00000000000E+00 0.  1.
    9000010    2    1    2  501    0 -0.15803543376E+03 -0.84915558814E+01 -0.88289371713E+03  0.13439642502E+04  0.10008452854E+04 0.  0.
        -13    1    3    3    0    0 -0.31359197056E+03 -0.17696105530E+03 -0.10166284582E+04  0.10785122031E+04  0.10566000000E+00 0.  1.
          4    1    3    3  501    0  0.15555653681E+03  0.16846949942E+03  0.13373474102E+03  0.26545204715E+03  0.00000000000E+00 0.  1.
         13    1    1    2    0    0  0.15803543376E+03  0.84915558814E+01  0.31789536667E+03  0.35511234864E+03  0.10566000000E+00 0. -1.
<mgrwt>
<rscale>  1 0.63700466E+03</rscale>
<asrwt>0</asrwt>
<pdfrwt beam="2">  1       21 0.17415961E+00 0.10132811E+04</pdfrwt>
<pdfrwt beam="1">  1        4 0.87236789E-01 0.10132811E+04</pdfrwt>
<totfact> 0.79068505E+00</totfact>
</mgrwt>
</event>
<event>
 6    1  0.2415530E-005  0.1069286E+04  0.7818608E-02  0.9556322E-01
         21   -1    0    0  501  502  0.00000000000E+00  0.00000000000E+00  0.11261737466E+04  0.11261737466E+04  0.00000000000E+00 0.  1.
          4   -1    0    0  502    0 -0.00000000000E+00 -0.00000000000E+00 -0.51390675864E+03  0.51390675864E+03  0.00000000000E+00 0.  1.
    9000010    2    1    2  501    0 -0.28894322856E+03 -0.17792507330E+03  0.71408500949E+03  0.12858031538E+04  0.10140152013E+04 0.  0.
        -13    1    3    3    0    0 -0.35612211163E+03 -0.65902368365E+02  0.94969418425E+03  0.10164079571E+04  0.10566000000E+00 0.  1.
          4    1    3    3  501    0  0.67178883079E+02 -0.11202270494E+03 -0.23560917476E+03  0.26939519666E+03  0.00000000000E+00 0.  1.
         13    1    1    2    0    0  0.28894322856E+03  0.17792507330E+03 -0.10181802158E+03  0.35427735141E+03  0.10566000000E+00 0. -1.
<mgrwt>
<rscale>  1 0.80255770E+03</rscale>
<asrwt>0</asrwt>
<pdfrwt beam="1">  1       21 0.17325750E+00 0.10692859E+04</pdfrwt>
<pdfrwt beam="2">  1        4 0.79062578E-01 0.10692859E+04</pdfrwt>
<totfact> 0.10014678E+01</totfact>
</mgrwt>
</event>
<event>
 6    1  0.2415530E-005  0.1072855E+04  0.7818608E-02  0.9471799E-01
         21   -1    0    0  501  502  0.00000000000E+00  0.00000000000E+00  0.47990404036E+03  0.47990404036E+03  0.00000000000E+00 0.  1.
          4   -1    0    0  502    0 -0.00000000000E+00 -0.00000000000E+00 -0.12175386203E+04  0.12175386203E+04  0.00000000000E+00 0.  1.
    9000010    2    1    2  501    0 -0.60701938553E+02  0.44706491608E+03 -0.45712224273E+03  0.11661810047E+04  0.97337846004E+03 0.  0.
        -13    1    3    3    0    0  0.12263476403E+03  0.19145905236E+03 -0.72074796776E+03  0.75576021216E+03  0.10566000000E+00 0.  1.
          4    1    3    3  501    0 -0.18333670258E+03  0.25560586372E+03  0.26362572503E+03  0.41042079258E+03  0.00000000000E+00 0.  1.
         13    1    1    2    0    0  0.60701938553E+02 -0.44706491608E+03 -0.28051233717E+03  0.53126165588E+03  0.10566000000E+00 0. -1.
<mgrwt>
<rscale>  1 0.86395290E+03</rscale>
<asrwt>0</asrwt>
<pdfrwt beam="1">  1       21 0.73831392E-01 0.10728548E+04</pdfrwt>
<pdfrwt beam="2">  1        4 0.18731363E+00 0.10728548E+04</pdfrwt>
<totfact> 0.99895115E+00</totfact>
</mgrwt>
</event>
<event>
 6    1  0.2415530E-005  0.9852035E+03  0.7818608E-02  0.9599571E-01
          4   -1    0    0  502    0 -0.00000000000E+00  0.00000000000E+00  0.74639397221E+03  0.74639397221E+03  0.00000000000E+00 0.  1.
         21   -1    0    0  501  502  0.00000000000E+00 -0.00000000000E+00 -0.65224438135E+03  0.65224438135E+03  0.00000000000E+00 0.  1.
    9000010    2    1    2  501    0 -0.37103316921E+03  0.45766523230E+02 -0.75517264957E+02  0.98809354428E+03  0.91151840774E+03 0.  0.
        -13    1    3    3    0    0  0.27969117787E+03 -0.13335129620E+03 -0.10328350983E+02  0.31002646528E+03  0.10566000000E+00 0.  1.
          4    1    3    3  501    0 -0.65072434708E+03  0.17911781943E+03 -0.65188913974E+02  0.67806707900E+03  0.00000000000E+00 0.  1.
         13    1    1    2    0    0  0.37103316921E+03 -0.45766523230E+02  0.16966685582E+03  0.41054480928E+03  0.10566000000E+00 0. -1.
<mgrwt>
<rscale>  1 0.77324551E+03</rscale>
<asrwt>0</asrwt>
<pdfrwt beam="2">  1       21 0.10034529E+00 0.98520353E+03</pdfrwt>
<pdfrwt beam="1">  1        4 0.11482984E+00 0.98520353E+03</pdfrwt>
<totfact> 0.17996238E+01</totfact>
</mgrwt>
</event>
<event>
 6    1  0.2415530E-005  0.1508275E+04  0.7818608E-02  0.8951577E-01
         21   -1    0    0  501  502  0.00000000000E+00  0.00000000000E+00  0.97004849447E+03  0.97004849447E+03  0.00000000000E+00 0.  1.
          4   -1    0    0  502    0 -0.00000000000E+00 -0.00000000000E+00 -0.19916385303E+04  0.19916385303E+04  0.00000000000E+00 0.  1.
    9000010    2    1    2  501    0 -0.27769042368E+03 -0.10949058064E+04 -0.11383096179E+03  0.15125641025E+04  0.99948085522E+03 0.  0.
        -13    1    3    3    0    0  0.94186420229E+02 -0.91405887201E+02 -0.38650691010E+03  0.40818344000E+03  0.10566000000E+00 0.  1.
          4    1    3    3  501    0 -0.37187684391E+03 -0.10034999192E+04  0.27267594831E+03  0.11043806625E+04  0.00000000000E+00 0.  1.
         13    1    1    2    0    0  0.27769042368E+03  0.10949058064E+04 -0.90775907407E+03  0.14491229223E+04  0.10566000000E+00 0. -1.
<mgrwt>
<rscale>  1 0.14031003E+04</rscale>
<asrwt>0</asrwt>
<pdfrwt beam="1">  1       21 0.14923823E+00 0.15082747E+04</pdfrwt>
<pdfrwt beam="2">  1        4 0.30640593E+00 0.15082747E+04</pdfrwt>
<totfact> 0.27891690E-01</totfact>
</mgrwt>
</event>
<event>
 6    1  0.2415530E-005  0.1378474E+04  0.7818608E-02  0.9063434E-01
         21   -1    0    0  501  502  0.00000000000E+00  0.00000000000E+00  0.11007975430E+04  0.11007975430E+04  0.00000000000E+00 0. -1.
          4   -1    0    0  502    0 -0.00000000000E+00 -0.00000000000E+00 -0.13114800693E+04  0.13114800693E+04  0.00000000000E+00 0.  1.
    9000010    2    1    2  501    0 -0.73848112573E+03  0.60802734782E+03  0.15716581380E+03  0.13874049171E+04  0.99254203049E+03 0.  0.
        -13    1    3    3    0    0 -0.65518488874E+03 -0.90695933109E+02 -0.20142649441E+02  0.66173916932E+03  0.10566000000E+00 0.  1.
          4    1    3    3  501    0 -0.83296236987E+02  0.69872328093E+03  0.17730846324E+03  0.72566574781E+03  0.00000000000E+00 0.  1.
         13    1    1    2    0    0  0.73848112573E+03 -0.60802734782E+03 -0.36784834006E+03  0.10248726951E+04  0.10566000000E+00 0. -1.
<mgrwt>
<rscale>  1 0.12581421E+04</rscale>
<asrwt>0</asrwt>
<pdfrwt beam="1">  1       21 0.16935347E+00 0.13784743E+04</pdfrwt>
<pdfrwt beam="2">  1        4 0.20176617E+00 0.13784743E+04</pdfrwt>
<totfact> 0.90220000E-01</totfact>
</mgrwt>
</event>
<event>
 6    1  0.2415530E-005  0.1029060E+04  0.7818608E-02  0.9735611E-01
         21   -1    0    0  501  502  0.00000000000E+00  0.00000000000E+00  0.19645976703E+04  0.19645976703E+04  0.00000000000E+00 0.  1.
          4   -1    0    0  502    0 -0.00000000000E+00 -0.00000000000E+00 -0.20165485999E+03  0.20165485999E+03  0.00000000000E+00 0.  1.
    9000010    2    1    2  501    0  0.50108346570E+02  0.20107919096E+03  0.16012361828E+04  0.19033975665E+04  0.10079788171E+04 0.  0.
        -13    1    3    3    0    0  0.43013066106E+03  0.40930105531E+03  0.86687841978E+03  0.10507225825E+04  0.10566000000E+00 0.  1.
          4    1    3    3  501    0 -0.38002231449E+03 -0.20822186435E+03  0.73435776306E+03  0.85267498407E+03  0.00000000000E+00 0.  1.
         13    1    1    2    0    0 -0.50108346570E+02 -0.20107919096E+03  0.16170662746E+03  0.26285496374E+03  0.10566000000E+00 0. -1.
<mgrwt>
<rscale>  1 0.68935516E+03</rscale>
<asrwt>0</asrwt>
<pdfrwt beam="1">  1       21 0.30224578E+00 0.10290602E+04</pdfrwt>
<pdfrwt beam="2">  1        4 0.31023826E-01 0.10290602E+04</pdfrwt>
<totfact> 0.10356245E+01</totfact>
</mgrwt>
</event>
<event>
 6    1  0.2415530E-005  0.1083526E+04  0.7818608E-02  0.9496240E-01
         21   -1    0    0  501  502  0.00000000000E+00  0.00000000000E+00  0.73784449172E+03  0.73784449172E+03  0.00000000000E+00 0.  1.
          4   -1    0    0  502    0 -0.00000000000E+00 -0.00000000000E+00 -0.81011343850E+03  0.81011343850E+03  0.00000000000E+00 0.  1.
    9000010    2    1    2  501    0  0.21418357925E+02 -0.40138140601E+03  0.14145081570E+03  0.10927196111E+04  0.10062117253E+04 0.  0.
        -13    1    3    3    0    0 -0.42188127998E+03  0.69593915025E+02  0.12595221175E+03  0.44574779665E+03  0.10566000000E+00 0.  1.
          4    1    3    3  501    0  0.44329963791E+03 -0.47097532103E+03  0.15498603944E+02  0.64697181447E+03  0.00000000000E+00 0.  1.
         13    1    1    2    0    0 -0.21418357925E+02  0.40138140601E+03 -0.21371976248E+03  0.45523831910E+03  0.10566000000E+00 0. -1.
<mgrwt>
<rscale>  1 0.84561577E+03</rscale>
<asrwt>0</asrwt>
<pdfrwt beam="1">  1       21 0.11351454E+00 0.10835256E+04</pdfrwt>
<pdfrwt beam="2">  1        4 0.12463284E+00 0.10835256E+04</pdfrwt>
<totfact> 0.10622613E+01</totfact>
</mgrwt>
</event>
<event>
 6    1  0.2415530E-005  0.1076370E+04  0.7818608E-02  0.9517568E-01
          4   -1    0    0  502    0 -0.00000000000E+00  0.00000000000E+00  0.21995873040E+03  0.21995873040E+03  0.00000000000E+00 0.  1.
         21   -1    0    0  501  502  0.00000000000E+00 -0.00000000000E+00 -0.26261283013E+04  0.26261283013E+04  0.00000000000E+00 0.  1.
    9000010    2    1    2  501    0 -0.18312688904E+03 -0.33362550719E+03 -0.20916815285E+04  0.23523824880E+04  0.10068417534E+04 0.  0.
        -13    1    3    3    0    0 -0.29520868522E+03 -0.19256215775E+03 -0.21375920122E+04  0.21664551632E+04  0.10566000000E+00 0.  1.
          4    1    3    3  501    0  0.11208179618E+03 -0.14106334944E+03  0.45910483662E+02  0.18592732478E+03  0.00000000000E+00 0.  1.
         13    1    1    2    0    0  0.18312688904E+03  0.33362550719E+03 -0.31448804240E+03  0.49370454374E+03  0.10566000000E+00 0. -1.
<mgrwt>
<rscale>  1 0.83000882E+03</rscale>
<asrwt>0</asrwt>
<pdfrwt beam="2">  1       21 0.40401974E+00 0.10763697E+04</pdfrwt>
<pdfrwt beam="1">  1        4 0.33839805E-01 0.10763697E+04</pdfrwt>
<totfact> 0.19463628E+00</totfact>
</mgrwt>
</event>
<event>
 6    1  0.2415530E-005  0.9526221E+03  0.7818608E-02  0.1000024E+00
         21   -1    0    0  501  502  0.00000000000E+00  0.00000000000E+00  0.20997982903E+04  0.20997982903E+04  0.00000000000E+00 0.  1.
          4   -1    0    0  502    0 -0.00000000000E+00 -0.00000000000E+00 -0.14193881876E+03  0.14193881876E+03  0.00000000000E+00 0.  1.
    9000010    2    1    2  501    0 -0.12062781787E+02  0.11020382171E+03  0.15522930353E+04  0.18212914665E+04  0.94614932505E+03 0.  0.
        -13    1    3    3    0    0  0.29245558265E+03 -0.30578710472E+03  0.85653732267E+03  0.95534926468E+03  0.10566000000E+00 0.  1.
          4    1    3    3  501    0 -0.30451836443E+03  0.41599092643E+03  0.69575571267E+03  0.86594220180E+03  0.00000000000E+00 0.  1.
         13    1    1    2    0    0  0.12062781787E+02 -0.11020382171E+03  0.40556643619E+03  0.42044564256E+03  0.10566000000E+00 0. -1.
<mgrwt>
<rscale>  1 0.55639898E+03</rscale>
<asrwt>0</asrwt>
<pdfrwt beam="1">  1       21 0.32304587E+00 0.95262214E+03</pdfrwt>
<pdfrwt beam="2">  1        4 0.21836743E-01 0.95262214E+03</pdfrwt>
<totfact> 0.15299727E+01</totfact>
</mgrwt>
</event>
<event>
 6    1  0.2415530E-005  0.1026286E+04  0.7818608E-02  0.9682295E-01
          4   -1    0    0  502    0 -0.00000000000E+00  0.00000000000E+00  0.50069163674E+03  0.50069163674E+03  0.00000000000E+00 0.  1.
         21   -1    0    0  501  502  0.00000000000E+00 -0.00000000000E+00 -0.84537478952E+03  0.84537478952E+03  0.00000000000E+00 0.  1.
    9000010    2    1    2  501    0  0.17744321106E+03 -0.17572582811E+03 -0.16750118801E+03  0.10398653165E+04  0.99543838015E+03 0.  0.
        -13    1    3    3    0    0 -0.36146069510E+03 -0.92470304597E+00  0.14893111063E+03  0.39094139722E+03  0.10566000000E+00 0.  1.
          4    1    3    3  501    0  0.53890390616E+03 -0.17480112507E+03 -0.31643229864E+03  0.64892391929E+03  0.00000000000E+00 0.  1.
         13    1    1    2    0    0 -0.17744321106E+03  0.17572582811E+03 -0.17718196477E+03  0.30620110976E+03  0.10566000000E+00 0. -1.
<mgrwt>
<rscale>  1 0.72080800E+03</rscale>
<asrwt>0</asrwt>
<pdfrwt beam="2">  1       21 0.13005766E+00 0.10262861E+04</pdfrwt>
<pdfrwt beam="1">  1        4 0.77029483E-01 0.10262861E+04</pdfrwt>
<totfact> 0.23826725E+01</totfact>
</mgrwt>
</event>
<event>
 6    1  0.2415530E-005  0.1136564E+04  0.7818608E-02  0.9932059E-01
          4   -1    0    0  502    0 -0.00000000000E+00  0.00000000000E+00  0.77420069694E+03  0.77420069694E+03  0.00000000000E+00 0.  1.
         21   -1    0    0  501  502  0.00000000000E+00 -0.00000000000E+00 -0.58005668039E+03  0.58005668039E+03  0.00000000000E+00 0.  1.
    9000010    2    1    2  501    0 -0.18905919067E+02 -0.78809642226E+02 -0.78709302157E+01  0.11365914788E+04  0.11336709596E+04 0.  0.
        -13    1    3    3    0    0 -0.11203607778E+03  0.51906494845E+03 -0.19835315100E+02  0.53138870361E+03  0.10566000000E+00 0.  1.
          4    1    3    3  501    0  0.93130158712E+02 -0.59787459068E+03  0.11964384884E+02  0.60520277523E+03  0.00000000000E+00 0.  1.
         13    1    1    2    0    0  0.18905919067E+02  0.78809642226E+02  0.20201494677E+03  0.21766589849E+03  0.10566000000E+00 0. -1.
<mgrwt>
<rscale>  1 0.58732431E+03</rscale>
<asrwt>0</asrwt>
<pdfrwt beam="2">  1       21 0.89239490E-01 0.11365642E+04</pdfrwt>
<pdfrwt beam="1">  1        4 0.11910780E+00 0.11365642E+04</pdfrwt>
<totfact> 0.21577369E+01</totfact>
</mgrwt>
</event>
<event>
 6    1  0.2415530E-005  0.1002529E+04  0.7818608E-02  0.9582056E-01
         21   -1    0    0  501  502  0.00000000000E+00  0.00000000000E+00  0.64841007295E+03  0.64841007295E+03  0.00000000000E+00 0. -1.
          4   -1    0    0  502    0 -0.00000000000E+00 -0.00000000000E+00 -0.73683380968E+03  0.73683380968E+03  0.00000000000E+00 0.  1.
    9000010    2    1    2  501    0  0.37551498298E+03  0.30805401207E+02 -0.10560366112E+03  0.10080759676E+04  0.92903420172E+03 0.  0.
        -13    1    3    3    0    0  0.16049695936E+03  0.36407172268E+03 -0.36026368646E+03  0.53674708026E+03  0.10566000000E+00 0.  1.
          4    1    3    3  501    0  0.21501802362E+03 -0.33326632147E+03  0.25466002534E+03  0.47132888731E+03  0.00000000000E+00 0.  1.
         13    1    1    2    0    0 -0.37551498298E+03 -0.30805401207E+02  0.17179924398E+02  0.37716791506E+03  0.10566000000E+00 0. -1.
<mgrwt>
<rscale>  1 0.78495326E+03</rscale>
<asrwt>0</asrwt>
<pdfrwt beam="1">  1       21 0.99755395E-01 0.10025293E+04</pdfrwt>
<pdfrwt beam="2">  1        4 0.11335905E+00 0.10025293E+04</pdfrwt>
<totfact> 0.18820296E+01</totfact>
</mgrwt>
</event>
<event>
 6    1  0.2415530E-005  0.1031385E+04  0.7818608E-02  0.9617062E-01
         21   -1    0    0  501  502  0.00000000000E+00  0.00000000000E+00  0.36610346058E+03  0.36610346058E+03  0.00000000000E+00 0.  1.
          4   -1    0    0  502    0 -0.00000000000E+00 -0.00000000000E+00 -0.12231912359E+04  0.12231912359E+04  0.00000000000E+00 0.  1.
    9000010    2    1    2  501    0 -0.14024781871E+03  0.27301077925E+03 -0.66719204430E+03  0.12283726328E+04  0.98465718135E+03 0.  0.
        -13    1    3    3    0    0  0.27752798724E+02  0.41299012946E+02 -0.87390597411E+03  0.87532136331E+03  0.10566000000E+00 0.  1.
          4    1    3    3  501    0 -0.16800061744E+03  0.23171176631E+03  0.20671392982E+03  0.35305126948E+03  0.00000000000E+00 0.  1.
         13    1    1    2    0    0  0.14024781871E+03 -0.27301077925E+03 -0.18989573107E+03  0.36092206372E+03  0.10566000000E+00 0. -1.
<mgrwt>
<rscale>  1 0.76177092E+03</rscale>
<asrwt>0</asrwt>
<pdfrwt beam="1">  1       21 0.56323610E-01 0.10313846E+04</pdfrwt>
<pdfrwt beam="2">  1        4 0.18818327E+00 0.10313846E+04</pdfrwt>
<totfact> 0.18247445E+01</totfact>
</mgrwt>
</event>
<event>
 6    1  0.2415530E-005  0.1004895E+04  0.7818608E-02  0.9814715E-01
          4   -1    0    0  502    0 -0.00000000000E+00  0.00000000000E+00  0.47011290354E+03  0.47011290354E+03  0.00000000000E+00 0.  1.
         21   -1    0    0  501  502  0.00000000000E+00 -0.00000000000E+00 -0.74080376617E+03  0.74080376617E+03  0.00000000000E+00 0.  1.
    9000010    2    1    2  501    0  0.16557915577E+03 -0.44268697007E+02 -0.19541241604E+03  0.10237188331E+04  0.99017072390E+03 0.  0.
        -13    1    3    3    0    0  0.20237375471E+02  0.37077545488E+03 -0.39382089848E+03  0.54127525396E+03  0.10566000000E+00 0.  1.
          4    1    3    3  501    0  0.14534178030E+03 -0.41504415188E+03  0.19840848244E+03  0.48244357910E+03  0.00000000000E+00 0.  1.
         13    1    1    2    0    0 -0.16557915577E+03  0.44268697007E+02 -0.75278446594E+02  0.18719783665E+03  0.10566000000E+00 0. -1.
<mgrwt>
<rscale>  1 0.64578810E+03</rscale>
<asrwt>0</asrwt>
<pdfrwt beam="2">  1       21 0.11396981E+00 0.10048951E+04</pdfrwt>
<pdfrwt beam="1">  1        4 0.72325063E-01 0.10048951E+04</pdfrwt>
<totfact> 0.38863134E+01</totfact>
</mgrwt>
</event>
<event>
 6    1  0.2415530E-005  0.1355937E+04  0.7818608E-02  0.9084882E-01
          4   -1    0    0  502    0 -0.00000000000E+00  0.00000000000E+00  0.10322895852E+04  0.10322895852E+04  0.00000000000E+00 0.  1.
         21   -1    0    0  501  502  0.00000000000E+00 -0.00000000000E+00 -0.13352756520E+04  0.13352756520E+04  0.00000000000E+00 0. -1.
    9000010    2    1    2  501    0  0.15245729796E+03 -0.91294520500E+03 -0.45361475787E+03  0.14298013070E+04  0.99088508606E+03 0.  0.
        -13    1    3    3    0    0  0.15860076823E+03 -0.21504432851E+03  0.30061215797E+03  0.40220137692E+03  0.10566000000E+00 0.  1.
          4    1    3    3  501    0 -0.61434702740E+01 -0.69790087649E+03 -0.75422691584E+03  0.10275999300E+04  0.00000000000E+00 0.  1.
         13    1    1    2    0    0 -0.15245729796E+03  0.91294520500E+03  0.15062869108E+03  0.93776393019E+03  0.10566000000E+00 0. -1.
<mgrwt>
<rscale>  1 0.12324918E+04</rscale>
<asrwt>0</asrwt>
<pdfrwt beam="2">  1       21 0.20542702E+00 0.13559371E+04</pdfrwt>
<pdfrwt beam="1">  1        4 0.15881378E+00 0.13559371E+04</pdfrwt>
<totfact> 0.99981807E-01</totfact>
</mgrwt>
</event>
<event>
 6    1  0.2415530E-005  0.1058587E+04  0.7818608E-02  0.9560515E-01
         21   -1    0    0  501  502  0.00000000000E+00  0.00000000000E+00  0.56222895348E+03  0.56222895348E+03  0.00000000000E+00 0.  1.
          4   -1    0    0  502    0 -0.00000000000E+00 -0.00000000000E+00 -0.12195160533E+04  0.12195160533E+04  0.00000000000E+00 0.  1.
    9000010    2    1    2  501    0 -0.13473601808E+03  0.31726918668E+03 -0.21819845789E+02  0.10588119715E+04  0.10008961754E+04 0.  0.
        -13    1    3    3    0    0  0.25814123294E+03 -0.11790987381E+03 -0.29731903727E+03  0.41102099165E+03  0.10566000000E+00 0.  1.
          4    1    3    3  501    0 -0.39287725102E+03  0.43517906049E+03  0.27549919149E+03  0.64779097985E+03  0.00000000000E+00 0.  1.
         13    1    1    2    0    0  0.13473601808E+03 -0.31726918668E+03 -0.63546725403E+03  0.72293303528E+03  0.10566000000E+00 0. -1.
<mgrwt>
<rscale>  1 0.79965599E+03</rscale>
<asrwt>0</asrwt>
<pdfrwt beam="1">  1       21 0.86496763E-01 0.10585871E+04</pdfrwt>
<pdfrwt beam="2">  1        4 0.18761785E+00 0.10585871E+04</pdfrwt>
<totfact> 0.68574250E+00</totfact>
</mgrwt>
</event>
<event>
 6    1  0.2415530E-005  0.1018427E+04  0.7818608E-02  0.9811473E-01
          4   -1    0    0  502    0 -0.00000000000E+00  0.00000000000E+00  0.67995875217E+03  0.67995875217E+03  0.00000000000E+00 0.  1.
         21   -1    0    0  501  502  0.00000000000E+00 -0.00000000000E+00 -0.63432852394E+03  0.63432852394E+03  0.00000000000E+00 0.  1.
    9000010    2    1    2  501    0  0.16606177133E+03 -0.10772961145E+02  0.25203980588E+03  0.10491505312E+04  0.10047388739E+04 0.  0.
        -13    1    3    3    0    0  0.33510462493E+03  0.22947833393E+03  0.51431446033E+03  0.65534326171E+03  0.10566000000E+00 0.  1.
          4    1    3    3  501    0 -0.16904285360E+03 -0.24025129507E+03 -0.26227465446E+03  0.39380726949E+03  0.00000000000E+00 0.  1.
         13    1    1    2    0    0 -0.16606177133E+03  0.10772961145E+02 -0.20640957765E+03  0.26513674491E+03  0.10566000000E+00 0. -1.
<mgrwt>
<rscale>  1 0.64750449E+03</rscale>
<asrwt>0</asrwt>
<pdfrwt beam="2">  1       21 0.97589004E-01 0.10184266E+04</pdfrwt>
<pdfrwt beam="1">  1        4 0.10460904E+00 0.10184266E+04</pdfrwt>
<totfact> 0.24165820E+01</totfact>
</mgrwt>
</event>
<event>
 6    1  0.2415530E-005  0.1004623E+04  0.7818608E-02  0.9727149E-01
         21   -1    0    0  501  502  0.00000000000E+00  0.00000000000E+00  0.64622356986E+03  0.64622356986E+03  0.00000000000E+00 0.  1.
          4   -1    0    0  502    0 -0.00000000000E+00 -0.00000000000E+00 -0.58885672200E+03  0.58885672200E+03  0.00000000000E+00 0.  1.
    9000010    2    1    2  501    0  0.21005629398E+03  0.91425825224E+02  0.43132556302E+02  0.10055482584E+04  0.97815364561E+03 0.  0.
        -13    1    3    3    0    0  0.58973468456E+03 -0.14186657985E+02 -0.73724616942E+02  0.59449439841E+03  0.10566000000E+00 0.  1.
          4    1    3    3  501    0 -0.37967839058E+03  0.10561248321E+03  0.11685717324E+03  0.41105386000E+03  0.00000000000E+00 0.  1.
         13    1    1    2    0    0 -0.21005629398E+03 -0.91425825224E+02  0.14234291558E+02  0.22953203345E+03  0.10566000000E+00 0. -1.
<mgrwt>
<rscale>  1 0.69423093E+03</rscale>
<asrwt>0</asrwt>
<pdfrwt beam="1">  1       21 0.99419011E-01 0.10046228E+04</pdfrwt>
<pdfrwt beam="2">  1        4 0.90593341E-01 0.10046228E+04</pdfrwt>
<totfact> 0.32628541E+01</totfact>
</mgrwt>
</event>
