<event>
 5    1  0.1008363E-004  0.4872184E+03  0.7818608E-02  0.9634560E-01
         -4   -1    0    0    0  501 -0.00000000000E+00  0.00000000000E+00  0.44222016916E+03  0.44222016916E+03  0.00000000000E+00 0. -1.
         21   -1    0    0  501  502  0.00000000000E+00 -0.00000000000E+00 -0.20556568616E+04  0.20556568616E+04  0.00000000000E+00 0. -1.
        -13    1    1    2    0    0  0.21806198721E+03  0.21749909596E+03  0.22747468608E+03  0.38288592423E+03  0.10566000000E+00 0.  1.
         13    1    1    2    0    0 -0.55012745623E+03 -0.23868939885E+03 -0.15867460203E+04  0.16962829337E+04  0.10566000000E+00 0. -1.
         -4    1    1    2    0  502  0.33206546902E+03  0.21190302892E+02 -0.25416535828E+03  0.41870817284E+03  0.00000000000E+00 0. -1.
</event>
<event>
 5    1  0.1008363E-004  0.1501171E+03  0.7818608E-02  0.1100996E+00
         21   -1    0    0  501  502  0.00000000000E+00  0.00000000000E+00  0.24614478618E+03  0.24614478618E+03  0.00000000000E+00 0. -1.
          4   -1    0    0  502    0 -0.00000000000E+00 -0.00000000000E+00 -0.78803752708E+03  0.78803752708E+03  0.00000000000E+00 0.  1.
        -13    1    1    2    0    0  0.13200132487E+03  0.78925541132E+02 -0.73373922302E+03  0.74968449989E+03  0.10566000000E+00 0.  1.
         13    1    1    2    0    0 -0.10740510459E+03 -0.43245493758E+02  0.33799269162E+02  0.12061687685E+03  0.10566000000E+00 0. -1.
          4    1    1    2  501    0 -0.24596220289E+02 -0.35680047374E+02  0.15804721295E+03  0.16388093652E+03  0.00000000000E+00 0.  1.
</event>
<event>
 5    1  0.1008363E-004  0.3558660E+03  0.7818608E-02  0.9865957E-01
          4   -1    0    0  502    0 -0.00000000000E+00  0.00000000000E+00  0.15748764297E+03  0.15748764297E+03  0.00000000000E+00 0.  1.
         21   -1    0    0  501  502  0.00000000000E+00 -0.00000000000E+00 -0.11728667486E+04  0.11728667486E+04  0.00000000000E+00 0. -1.
        -13    1    1    2    0    0 -0.33411525390E+03  0.12497145979E+03 -0.14307990562E+03  0.38434715975E+03  0.10566000000E+00 0.  1.
         13    1    1    2    0    0  0.32628274313E+03 -0.13516681140E+03 -0.84477539643E+03  0.91562873314E+03  0.10566000000E+00 0. -1.
          4    1    1    2  501    0  0.78325107648E+01  0.10195351604E+02 -0.27523803584E+02  0.30378498695E+02  0.00000000000E+00 0.  1.
</event>
<event>
 5    1  0.1008363E-004  0.2880971E+03  0.7818608E-02  0.1035051E+00
          4   -1    0    0  502    0 -0.00000000000E+00  0.00000000000E+00  0.12741700103E+04  0.12741700103E+04  0.00000000000E+00 0.  1.
         21   -1    0    0  501  502  0.00000000000E+00 -0.00000000000E+00 -0.29267487442E+03  0.29267487442E+03  0.00000000000E+00 0.  1.
        -13    1    1    2    0    0  0.36635971493E+03  0.19487646564E+03  0.76682435703E+03  0.87190359747E+03  0.10566000000E+00 0.  1.
         13    1    1    2    0    0 -0.11520460841E+03 -0.82276188553E+02  0.35774317682E+03  0.38473583759E+03  0.10566000000E+00 0. -1.
          4    1    1    2  501    0 -0.25115510652E+03 -0.11260027708E+03 -0.14307239797E+03  0.31020544965E+03  0.00000000000E+00 0.  1.
</event>
<event>
 5    1  0.1008363E-004  0.9239799E+02  0.7818608E-02  0.1177785E+00
         21   -1    0    0  501  502  0.00000000000E+00  0.00000000000E+00  0.87690270914E+02  0.87690270914E+02  0.00000000000E+00 0. -1.
          4   -1    0    0  502    0 -0.00000000000E+00 -0.00000000000E+00 -0.39216047398E+03  0.39216047398E+03  0.00000000000E+00 0.  1.
        -13    1    1    2    0    0  0.75879927426E+02 -0.51566459281E+02 -0.33640961826E+03  0.34869514698E+03  0.10566000000E+00 0.  1.
         13    1    1    2    0    0 -0.94232640551E+02  0.39176516245E+02  0.36801201393E+02  0.10848469735E+03  0.10566000000E+00 0. -1.
          4    1    1    2  501    0  0.18352713124E+02  0.12389943036E+02 -0.48617862031E+01  0.22670900568E+02  0.00000000000E+00 0.  1.
</event>
<event>
 5    1  0.1008363E-004  0.4067531E+03  0.7818608E-02  0.1007907E+00
         21   -1    0    0  501  502  0.00000000000E+00  0.00000000000E+00  0.88515656214E+03  0.88515656214E+03  0.00000000000E+00 0. -1.
         -4   -1    0    0    0  501 -0.00000000000E+00 -0.00000000000E+00 -0.37618840392E+03  0.37618840392E+03  0.00000000000E+00 0. -1.
        -13    1    1    2    0    0  0.93895882754E+02 -0.71550097702E+02  0.14163252298E+03  0.18437905523E+03  0.10566000000E+00 0.  1.
         13    1    1    2    0    0 -0.47923232608E+03  0.15912936709E+02 -0.77605979109E+02  0.48573608376E+03  0.10566000000E+00 0. -1.
         -4    1    1    2    0  502  0.38533644332E+03  0.55637160992E+02  0.44494161435E+03  0.59122982707E+03  0.00000000000E+00 0. -1.
</event>
<event>
 5    1  0.1008363E-004  0.3699341E+03  0.7818608E-02  0.9820134E-01
         21   -1    0    0  501  502  0.00000000000E+00  0.00000000000E+00  0.26720703488E+03  0.26720703488E+03  0.00000000000E+00 0. -1.
          4   -1    0    0  502    0 -0.00000000000E+00 -0.00000000000E+00 -0.15722083798E+04  0.15722083798E+04  0.00000000000E+00 0.  1.
        -13    1    1    2    0    0  0.43174522466E+03 -0.16543365075E+03 -0.11663262946E+04  0.12546271432E+04  0.10566000000E+00 0.  1.
         13    1    1    2    0    0 -0.22460034164E+03  0.12194973589E+03 -0.23957879949E+03  0.35030709938E+03  0.10566000000E+00 0. -1.
          4    1    1    2  501    0 -0.20714488302E+03  0.43483914853E+02  0.10090374926E+03  0.23448117201E+03  0.00000000000E+00 0.  1.
</event>
<event>
 5    1  0.1008363E-004  0.6180938E+03  0.7818608E-02  0.9251099E-01
          4   -1    0    0  502    0 -0.00000000000E+00  0.00000000000E+00  0.23663352068E+04  0.23663352068E+04  0.00000000000E+00 0.  1.
         21   -1    0    0  501  502  0.00000000000E+00 -0.00000000000E+00 -0.42377499105E+03  0.42377499105E+03  0.00000000000E+00 0. -1.
        -13    1    1    2    0    0 -0.55723190394E+03  0.35842600003E+03  0.18142831288E+04  0.19314760871E+04  0.10566000000E+00 0.  1.
         13    1    1    2    0    0  0.31206932175E+03 -0.41597350682E+03  0.25222097694E+03  0.57795904035E+03  0.10566000000E+00 0. -1.
          4    1    1    2  501    0  0.24516258219E+03  0.57547506788E+02 -0.12394389005E+03  0.28067507037E+03  0.00000000000E+00 0.  1.
</event>
<event>
 5    1  0.1008363E-004  0.4214142E+03  0.7818608E-02  0.9669161E-01
         -4   -1    0    0    0  501 -0.00000000000E+00  0.00000000000E+00  0.25345019443E+04  0.25345019443E+04  0.00000000000E+00 0. -1.
         21   -1    0    0  501  502  0.00000000000E+00 -0.00000000000E+00 -0.18413609132E+03  0.18413609132E+03  0.00000000000E+00 0. -1.
        -13    1    1    2    0    0  0.38803930029E+03  0.13486729541E+03  0.12852431739E+04  0.13493011944E+04  0.10566000000E+00 0.  1.
         13    1    1    2    0    0 -0.33593119630E+03 -0.39441346024E+03  0.40336429157E+03  0.65659310775E+03  0.10566000000E+00 0. -1.
         -4    1    1    2    0  502 -0.52108103981E+02  0.25954616482E+03  0.66175838750E+03  0.71274373347E+03  0.00000000000E+00 0. -1.
</event>
<event>
 5    1  0.1008363E-004  0.2910514E+03  0.7818608E-02  0.1039428E+00
         21   -1    0    0  501  502  0.00000000000E+00  0.00000000000E+00  0.16594215995E+03  0.16594215995E+03  0.00000000000E+00 0. -1.
         -4   -1    0    0    0  501 -0.00000000000E+00 -0.00000000000E+00 -0.19441809941E+04  0.19441809941E+04  0.00000000000E+00 0. -1.
        -13    1    1    2    0    0  0.30470833873E+02  0.11623681539E+03 -0.19350028626E+03  0.22777585674E+03  0.10566000000E+00 0.  1.
         13    1    1    2    0    0 -0.58024751365E+02 -0.29641752713E+03 -0.15375601305E+02  0.30243452587E+03  0.10566000000E+00 0. -1.
         -4    1    1    2    0  502  0.27553917492E+02  0.18018071174E+03 -0.15693629465E+04  0.15799127714E+04  0.00000000000E+00 0. -1.
</event>
<event>
 5    1  0.1008363E-004  0.4913152E+03  0.7818608E-02  0.9942778E-01
         -4   -1    0    0    0  501 -0.00000000000E+00  0.00000000000E+00  0.15348460606E+04  0.15348460606E+04  0.00000000000E+00 0. -1.
         21   -1    0    0  501  502  0.00000000000E+00 -0.00000000000E+00 -0.19795417676E+03  0.19795417676E+03  0.00000000000E+00 0. -1.
        -13    1    1    2    0    0 -0.89153949119E+02  0.54714368444E+02  0.91316396625E+02  0.13885526355E+03  0.10566000000E+00 0.  1.
         13    1    1    2    0    0 -0.44970659535E+03  0.21247003923E+02  0.54844231363E+03  0.70956073709E+03  0.10566000000E+00 0. -1.
         -4    1    1    2    0  502  0.53886054447E+03 -0.75961372366E+02  0.69713317362E+03  0.88438423677E+03  0.00000000000E+00 0. -1.
</event>
<event>
 5    1  0.1008363E-004  0.2972756E+03  0.7818608E-02  0.1022896E+00
         21   -1    0    0  501  502  0.00000000000E+00  0.00000000000E+00  0.26010342992E+03  0.26010342992E+03  0.00000000000E+00 0. -1.
         -4   -1    0    0    0  501 -0.00000000000E+00 -0.00000000000E+00 -0.75318381132E+03  0.75318381132E+03  0.00000000000E+00 0. -1.
        -13    1    1    2    0    0 -0.18717797795E+03 -0.14547363833E+02 -0.26735665713E+03  0.32669070159E+03  0.10566000000E+00 0.  1.
         13    1    1    2    0    0  0.57781156913E+02 -0.29195439194E+03 -0.26459702215E+02  0.29879115796E+03  0.10566000000E+00 0. -1.
         -4    1    1    2    0  502  0.12939682104E+03  0.30650175577E+03 -0.19926402205E+03  0.38780538169E+03  0.00000000000E+00 0. -1.
</event>
<event>
 5    1  0.1008363E-004  0.4840284E+03  0.7818608E-02  0.9595856E-01
          4   -1    0    0  502    0 -0.00000000000E+00  0.00000000000E+00  0.11006137456E+04  0.11006137456E+04  0.00000000000E+00 0.  1.
         21   -1    0    0  501  502  0.00000000000E+00 -0.00000000000E+00 -0.88073048267E+03  0.88073048267E+03  0.00000000000E+00 0.  1.
        -13    1    1    2    0    0  0.11459560921E+03 -0.34979260413E+03 -0.13386493364E+03  0.39167186671E+03  0.10566000000E+00 0.  1.
         13    1    1    2    0    0 -0.13025489404E+03 -0.33595727657E+03  0.72508442167E+03  0.80967960257E+03  0.10566000000E+00 0. -1.
          4    1    1    2  501    0  0.15659284832E+02  0.68574988070E+03 -0.37133622507E+03  0.77999275903E+03  0.00000000000E+00 0.  1.
</event>
<event>
 5    1  0.1008363E-004  0.4318013E+03  0.7818608E-02  0.9751635E-01
         -4   -1    0    0    0  501 -0.00000000000E+00  0.00000000000E+00  0.20600448279E+04  0.20600448279E+04  0.00000000000E+00 0. -1.
         21   -1    0    0  501  502  0.00000000000E+00 -0.00000000000E+00 -0.26896996686E+03  0.26896996686E+03  0.00000000000E+00 0. -1.
        -13    1    1    2    0    0 -0.58101353696E+02 -0.28830345378E+03  0.94703875723E+03  0.99165370347E+03  0.10566000000E+00 0.  1.
         13    1    1    2    0    0 -0.22025323559E+03 -0.28972949459E+03  0.15408706321E+03  0.39521829669E+03  0.10566000000E+00 0. -1.
         -4    1    1    2    0  502  0.27835458928E+03  0.57803294837E+03  0.68994904057E+03  0.94214279457E+03  0.00000000000E+00 0. -1.
</event>
<event>
 5    1  0.1008363E-004  0.2198907E+03  0.7818608E-02  0.1047294E+00
         21   -1    0    0  501  502  0.00000000000E+00  0.00000000000E+00  0.62602069882E+02  0.62602069882E+02  0.00000000000E+00 0. -1.
          4   -1    0    0  502    0 -0.00000000000E+00 -0.00000000000E+00 -0.11913334360E+04  0.11913334360E+04  0.00000000000E+00 0.  1.
        -13    1    1    2    0    0 -0.19731264850E+03 -0.16822810985E+03 -0.59554905180E+03  0.64954727500E+03  0.10566000000E+00 0.  1.
         13    1    1    2    0    0  0.10863427121E+03  0.15816046527E+03 -0.40551697673E+03  0.44862029294E+03  0.10566000000E+00 0. -1.
          4    1    1    2  501    0  0.88678377293E+02  0.10067644576E+02 -0.12766533755E+03  0.15576793790E+03  0.00000000000E+00 0.  1.
</event>
<event>
 5    1  0.1008363E-004  0.1048336E+03  0.7818608E-02  0.1156797E+00
         21   -1    0    0  501  502  0.00000000000E+00  0.00000000000E+00  0.52260039241E+03  0.52260039241E+03  0.00000000000E+00 0.  1.
         -4   -1    0    0    0  501 -0.00000000000E+00 -0.00000000000E+00 -0.43164538036E+02  0.43164538036E+02  0.00000000000E+00 0. -1.
        -13    1    1    2    0    0  0.83135166240E+02 -0.37378675529E+02  0.30258855492E+03  0.31601972404E+03  0.10566000000E+00 0.  1.
         13    1    1    2    0    0 -0.10413595603E+03  0.31114503343E+02  0.47597261857E+02  0.11865041153E+03  0.10566000000E+00 0. -1.
         -4    1    1    2    0  502  0.21000789785E+02  0.62641721867E+01  0.12925003760E+03  0.13109479488E+03  0.00000000000E+00 0. -1.
</event>
<event>
 5    1  0.1008363E-004  0.4582457E+03  0.7818608E-02  0.9821733E-01
          4   -1    0    0  502    0 -0.00000000000E+00  0.00000000000E+00  0.15648628169E+04  0.15648628169E+04  0.00000000000E+00 0.  1.
         21   -1    0    0  501  502  0.00000000000E+00 -0.00000000000E+00 -0.48012541172E+03  0.48012541172E+03  0.00000000000E+00 0.  1.
        -13    1    1    2    0    0  0.37062627790E+03 -0.25570806459E+03 -0.15026493158E+03  0.47468938580E+03  0.10566000000E+00 0.  1.
         13    1    1    2    0    0 -0.96374561475E+02 -0.16787468348E+03  0.99110776679E+03  0.10098339378E+04  0.10566000000E+00 0. -1.
          4    1    1    2  501    0 -0.27425171643E+03  0.42358274807E+03  0.24389456992E+03  0.56046490494E+03  0.00000000000E+00 0.  1.
</event>
<event>
 5    1  0.1008363E-004  0.4885455E+02  0.7818608E-02  0.1330902E+00
          4   -1    0    0  502    0 -0.00000000000E+00  0.00000000000E+00  0.14505070552E+02  0.14505070552E+02  0.00000000000E+00 0.  1.
         21   -1    0    0  501  502  0.00000000000E+00 -0.00000000000E+00 -0.39094946763E+03  0.39094946763E+03  0.00000000000E+00 0.  1.
        -13    1    1    2    0    0 -0.38001556008E+02 -0.46750429513E+02 -0.12145052073E+03  0.13557271506E+03  0.10566000000E+00 0.  1.
         13    1    1    2    0    0  0.25323591205E+02  0.22749272462E+01 -0.26385182251E+02  0.36642169313E+02  0.10566000000E+00 0. -1.
          4    1    1    2  501    0  0.12677964803E+02  0.44475502267E+02 -0.22860869410E+03  0.23323965381E+03  0.00000000000E+00 0.  1.
</event>
<event>
 5    1  0.1008363E-004  0.5711827E+03  0.7818608E-02  0.9334269E-01
         -4   -1    0    0    0  501 -0.00000000000E+00  0.00000000000E+00  0.88706171609E+03  0.88706171609E+03  0.00000000000E+00 0. -1.
         21   -1    0    0  501  502  0.00000000000E+00 -0.00000000000E+00 -0.92317643102E+03  0.92317643102E+03  0.00000000000E+00 0.  1.
        -13    1    1    2    0    0 -0.36097189573E+03  0.41784421458E+03  0.32224295158E+03  0.63932388362E+03  0.10566000000E+00 0.  1.
         13    1    1    2    0    0  0.65514814400E+03 -0.19897083798E+03 -0.40902878839E+02  0.68591657045E+03  0.10566000000E+00 0. -1.
         -4    1    1    2    0  502 -0.29417624828E+03 -0.21887337659E+03 -0.31745478768E+03  0.48499769304E+03  0.00000000000E+00 0. -1.
</event>
<event>
 5    1  0.1008363E-004  0.4016195E+03  0.7818608E-02  0.9853529E-01
         -4   -1    0    0    0  501 -0.00000000000E+00  0.00000000000E+00  0.10328540833E+04  0.10328540833E+04  0.00000000000E+00 0. -1.
         21   -1    0    0  501  502  0.00000000000E+00 -0.00000000000E+00 -0.48228265230E+03  0.48228265230E+03  0.00000000000E+00 0. -1.
        -13    1    1    2    0    0 -0.25761897827E+03 -0.16865324381E+02  0.57174539871E+03  0.62733148274E+03  0.10566000000E+00 0.  1.
         13    1    1    2    0    0  0.18207252051E+03 -0.39028708233E+03  0.12536003688E+03  0.44854159157E+03  0.10566000000E+00 0. -1.
         -4    1    1    2    0  502  0.75546457758E+02  0.40715240671E+03 -0.14653400464E+03  0.43926366124E+03  0.00000000000E+00 0. -1.
</event>
<event>
 5    1  0.1008363E-004  0.2571177E+03  0.7818608E-02  0.1049264E+00
         21   -1    0    0  501  502  0.00000000000E+00  0.00000000000E+00  0.11114220629E+04  0.11114220629E+04  0.00000000000E+00 0.  1.
          4   -1    0    0  502    0 -0.00000000000E+00 -0.00000000000E+00 -0.40354066000E+03  0.40354066000E+03  0.00000000000E+00 0.  1.
        -13    1    1    2    0    0 -0.11199452179E+02  0.25637500961E+03 -0.32320432813E+03  0.41269192161E+03  0.10566000000E+00 0.  1.
         13    1    1    2    0    0 -0.12464004828E+03 -0.35826116669E+02  0.30794636956E+03  0.33414013521E+03  0.10566000000E+00 0. -1.
          4    1    1    2  501    0  0.13583950046E+03 -0.22054889294E+03  0.72313936146E+03  0.76813066606E+03  0.00000000000E+00 0.  1.
</event>
<event>
 5    1  0.1008363E-004  0.1824822E+03  0.7818608E-02  0.1072857E+00
         21   -1    0    0  501  502  0.00000000000E+00  0.00000000000E+00  0.96653141378E+02  0.96653141378E+02  0.00000000000E+00 0.  1.
          4   -1    0    0  502    0 -0.00000000000E+00 -0.00000000000E+00 -0.69254578231E+03  0.69254578231E+03  0.00000000000E+00 0.  1.
        -13    1    1    2    0    0  0.13398511682E+03  0.11202395777E+03 -0.39801169238E+03  0.43464318363E+03  0.10566000000E+00 0.  1.
         13    1    1    2    0    0 -0.14490887867E+03 -0.13502652071E+03 -0.23638252094E+03  0.30839496070E+03  0.10566000000E+00 0. -1.
          4    1    1    2  501    0  0.10923761856E+02  0.23002562945E+02  0.38501572384E+02  0.46160779361E+02  0.00000000000E+00 0.  1.
</event>
<event>
 5    1  0.1008363E-004  0.4811827E+03  0.7818608E-02  0.9810434E-01
         21   -1    0    0  501  502  0.00000000000E+00  0.00000000000E+00  0.51671978505E+03  0.51671978505E+03  0.00000000000E+00 0.  1.
          4   -1    0    0  502    0 -0.00000000000E+00 -0.00000000000E+00 -0.68045633170E+03  0.68045633170E+03  0.00000000000E+00 0.  1.
        -13    1    1    2    0    0 -0.17221807296E+03 -0.51689433042E+03  0.13689921034E+03  0.56176526987E+03  0.10566000000E+00 0.  1.
         13    1    1    2    0    0  0.33448496594E+02  0.17049232210E+03 -0.34677102368E+02  0.17716925922E+03  0.10566000000E+00 0. -1.
          4    1    1    2  501    0  0.13876957636E+03  0.34640200832E+03 -0.26595865463E+03  0.45824158766E+03  0.00000000000E+00 0.  1.
</event>
<event>
 5    1  0.1008363E-004  0.3681352E+03  0.7818608E-02  0.9914726E-01
         21   -1    0    0  501  502  0.00000000000E+00  0.00000000000E+00  0.10595906392E+04  0.10595906392E+04  0.00000000000E+00 0. -1.
         -4   -1    0    0    0  501 -0.00000000000E+00 -0.00000000000E+00 -0.40359892169E+03  0.40359892169E+03  0.00000000000E+00 0. -1.
        -13    1    1    2    0    0 -0.20424625277E+03  0.18110921901E+03  0.11216705997E+03  0.29512462026E+03  0.10566000000E+00 0.  1.
         13    1    1    2    0    0 -0.19466074827E+03 -0.10888472947E+03 -0.21369461981E+03  0.30889171716E+03  0.10566000000E+00 0. -1.
         -4    1    1    2    0  502  0.39890700104E+03 -0.72224489538E+02  0.75751927732E+03  0.85917322344E+03  0.00000000000E+00 0. -1.
</event>
<event>
 5    1  0.1183807E-004  0.4928757E+03  0.7818608E-02  0.9888360E-01
         21   -1    0    0  501  502  0.00000000000E+00  0.00000000000E+00  0.13235321070E+03  0.13235321070E+03  0.00000000000E+00 0.  1.
          4   -1    0    0  502    0 -0.00000000000E+00 -0.00000000000E+00 -0.25002718697E+04  0.25002718697E+04  0.00000000000E+00 0.  1.
        -13    1    1    2    0    0 -0.41639913706E+03 -0.10224661511E+03 -0.11047899548E+04  0.11850753001E+04  0.10566000000E+00 0.  1.
         13    1    1    2    0    0 -0.12129650913E+03  0.26844461519E+02 -0.47165107561E+03  0.48773785636E+03  0.10566000000E+00 0. -1.
          4    1    1    2  501    0  0.53769564619E+03  0.75402153586E+02 -0.79147762864E+03  0.95981192394E+03  0.00000000000E+00 0.  1.
</event>
<event>
 5    1  0.1008363E-004  0.3756717E+03  0.7818608E-02  0.9802061E-01
          4   -1    0    0  502    0 -0.00000000000E+00  0.00000000000E+00  0.38927654348E+04  0.38927654348E+04  0.00000000000E+00 0.  1.
         21   -1    0    0  501  502  0.00000000000E+00 -0.00000000000E+00 -0.18690277568E+03  0.18690277568E+03  0.00000000000E+00 0.  1.
        -13    1    1    2    0    0  0.32805653553E+02  0.49434594979E+03  0.23744941154E+03  0.54939636255E+03  0.10566000000E+00 0.  1.
         13    1    1    2    0    0 -0.22791835818E+03 -0.29313328145E+03  0.22147141079E+04  0.22456251890E+04  0.10566000000E+00 0. -1.
          4    1    1    2  501    0  0.19511270463E+03 -0.20121266834E+03  0.12536991397E+04  0.12846466589E+04  0.00000000000E+00 0.  1.
</event>
<event>
 5    1  0.1008363E-004  0.4753149E+03  0.7818608E-02  0.9703212E-01
         21   -1    0    0  501  502  0.00000000000E+00  0.00000000000E+00  0.96294032777E+03  0.96294032777E+03  0.00000000000E+00 0.  1.
          4   -1    0    0  502    0 -0.00000000000E+00 -0.00000000000E+00 -0.44223950172E+03  0.44223950172E+03  0.00000000000E+00 0.  1.
        -13    1    1    2    0    0 -0.52607991110E+03 -0.10067190004E+03  0.46686391612E+03  0.71053278014E+03  0.10566000000E+00 0.  1.
         13    1    1    2    0    0  0.22158239443E+03 -0.13746968970E+03  0.14375918693E+03  0.29776398052E+03  0.10566000000E+00 0. -1.
          4    1    1    2  501    0  0.30449751667E+03  0.23814158973E+03 -0.89922276994E+02  0.39688306883E+03  0.00000000000E+00 0.  1.
</event>
<event>
 5    1  0.1008363E-004  0.5816153E+03  0.7818608E-02  0.9315061E-01
          4   -1    0    0  502    0 -0.00000000000E+00  0.00000000000E+00  0.25682796309E+04  0.25682796309E+04  0.00000000000E+00 0.  1.
         21   -1    0    0  501  502  0.00000000000E+00 -0.00000000000E+00 -0.49751252720E+03  0.49751252720E+03  0.00000000000E+00 0.  1.
        -13    1    1    2    0    0  0.29311511990E+03 -0.37522059212E+03  0.86110947343E+03  0.98397993001E+03  0.10566000000E+00 0.  1.
         13    1    1    2    0    0 -0.66735126147E+03  0.39523036713E+03  0.14444889879E+04  0.16395466436E+04  0.10566000000E+00 0. -1.
          4    1    1    2  501    0  0.37423614156E+03 -0.20009775013E+02 -0.23483135758E+03  0.44226558452E+03  0.00000000000E+00 0.  1.
</event>
<event>
 5    1  0.1008363E-004  0.3137888E+03  0.7818608E-02  0.1001770E+00
         -4   -1    0    0    0  501 -0.00000000000E+00  0.00000000000E+00  0.22363845272E+03  0.22363845272E+03  0.00000000000E+00 0. -1.
         21   -1    0    0  501  502  0.00000000000E+00 -0.00000000000E+00 -0.63864325549E+03  0.63864325549E+03  0.00000000000E+00 0.  1.
        -13    1    1    2    0    0 -0.26959300887E+03 -0.76309716661E+01 -0.22284750370E+03  0.34985660381E+03  0.10566000000E+00 0.  1.
         13    1    1    2    0    0  0.34125538842E+03  0.62222567356E+02 -0.59313952685E+02  0.35191624595E+03  0.10566000000E+00 0. -1.
         -4    1    1    2    0  502 -0.71662379556E+02 -0.54591595690E+02 -0.13284334639E+03  0.16050885845E+03  0.00000000000E+00 0. -1.
</event>
<event>
 5    1  0.1008363E-004  0.1299804E+03  0.7818608E-02  0.1122724E+00
          4   -1    0    0  502    0 -0.00000000000E+00  0.00000000000E+00  0.42912139085E+03  0.42912139085E+03  0.00000000000E+00 0.  1.
         21   -1    0    0  501  502  0.00000000000E+00 -0.00000000000E+00 -0.16734881959E+03  0.16734881959E+03  0.00000000000E+00 0.  1.
        -13    1    1    2    0    0 -0.61116234466E+02  0.10980445942E+03  0.29094634841E+03  0.31692586237E+03  0.10566000000E+00 0.  1.
         13    1    1    2    0    0  0.44722891307E+02 -0.13970823996E+03  0.78656910986E+02  0.16644954229E+03  0.10566000000E+00 0. -1.
          4    1    1    2  501    0  0.16393343159E+02  0.29903780532E+02 -0.10783068814E+03  0.11309480578E+03  0.00000000000E+00 0.  1.
</event>
<event>
 5    1  0.1008363E-004  0.4724417E+03  0.7818608E-02  0.9639159E-01
          4   -1    0    0  502    0 -0.00000000000E+00  0.00000000000E+00  0.11074314626E+04  0.11074314626E+04  0.00000000000E+00 0.  1.
         21   -1    0    0  501  502  0.00000000000E+00 -0.00000000000E+00 -0.43808288586E+03  0.43808288586E+03  0.00000000000E+00 0.  1.
        -13    1    1    2    0    0 -0.32458896426E+02 -0.42509325888E+03  0.26104870613E+03  0.49990428767E+03  0.10566000000E+00 0.  1.
         13    1    1    2    0    0 -0.33218246069E+03  0.10900845688E+02  0.36261844242E+03  0.49189039589E+03  0.10566000000E+00 0. -1.
          4    1    1    2  501    0  0.36464135711E+03  0.41419241319E+03  0.45681428243E+02  0.55371966494E+03  0.00000000000E+00 0.  1.
</event>
<event>
 5    1  0.1008363E-004  0.1471615E+03  0.7818608E-02  0.1103945E+00
         -4   -1    0    0    0  501 -0.00000000000E+00  0.00000000000E+00  0.62237891441E+02  0.62237891441E+02  0.00000000000E+00 0. -1.
         21   -1    0    0  501  502  0.00000000000E+00 -0.00000000000E+00 -0.94704472717E+03  0.94704472717E+03  0.00000000000E+00 0. -1.
        -13    1    1    2    0    0 -0.43278214922E+02 -0.12448159306E+03 -0.17329606719E+03  0.21771589048E+03  0.10566000000E+00 0.  1.
         13    1    1    2    0    0 -0.45658337264E+02  0.17383318374E+03 -0.19523218203E+03  0.26536442036E+03  0.10566000000E+00 0. -1.
         -4    1    1    2    0  502  0.88936552186E+02 -0.49351590682E+02 -0.51627858651E+03  0.52620230777E+03  0.00000000000E+00 0. -1.
</event>
<event>
 5    1  0.1008363E-004  0.6631058E+02  0.7818608E-02  0.1236754E+00
          4   -1    0    0  502    0 -0.00000000000E+00  0.00000000000E+00  0.61438920714E+03  0.61438920714E+03  0.00000000000E+00 0.  1.
         21   -1    0    0  501  502  0.00000000000E+00 -0.00000000000E+00 -0.12800061502E+02  0.12800061502E+02  0.00000000000E+00 0.  1.
        -13    1    1    2    0    0 -0.55405899440E+02 -0.63266413373E+02  0.21655595911E+03  0.23231217648E+03  0.10566000000E+00 0.  1.
         13    1    1    2    0    0  0.33102076569E+02  0.49865752048E+02  0.30156584497E+03  0.30744806182E+03  0.10566000000E+00 0. -1.
          4    1    1    2  501    0  0.22303822871E+02  0.13400661326E+02  0.83467341562E+02  0.87429030340E+02  0.00000000000E+00 0.  1.
</event>
<event>
 5    1  0.1008363E-004  0.3743175E+03  0.7818608E-02  0.1004097E+00
         21   -1    0    0  501  502  0.00000000000E+00  0.00000000000E+00  0.56634626967E+03  0.56634626967E+03  0.00000000000E+00 0.  1.
          4   -1    0    0  502    0 -0.00000000000E+00 -0.00000000000E+00 -0.14661678956E+04  0.14661678956E+04  0.00000000000E+00 0.  1.
        -13    1    1    2    0    0 -0.37699782712E+03  0.64053707493E+02 -0.26992033043E+03  0.46806755393E+03  0.10566000000E+00 0.  1.
         13    1    1    2    0    0  0.12934130015E+02 -0.17087592524E+03 -0.10117450087E+04  0.10261548846E+04  0.10566000000E+00 0. -1.
          4    1    1    2  501    0  0.36406369711E+03  0.10682221775E+03  0.38184371316E+03  0.53829172670E+03  0.00000000000E+00 0.  1.
</event>
<event>
 5    1  0.1008363E-004  0.2087711E+03  0.7818608E-02  0.1054284E+00
         21   -1    0    0  501  502  0.00000000000E+00  0.00000000000E+00  0.71185774483E+03  0.71185774483E+03  0.00000000000E+00 0.  1.
          4   -1    0    0  502    0 -0.00000000000E+00 -0.00000000000E+00 -0.49013142139E+03  0.49013142139E+03  0.00000000000E+00 0.  1.
        -13    1    1    2    0    0  0.93589447219E+02 -0.20364123367E+03 -0.35590484179E+03  0.42059125556E+03  0.10566000000E+00 0.  1.
         13    1    1    2    0    0 -0.75375166876E+02  0.15617271983E+03 -0.26244532873E+02  0.17538563473E+03  0.10566000000E+00 0. -1.
          4    1    1    2  501    0 -0.18214280342E+02  0.47468513842E+02  0.60387569811E+03  0.60601227593E+03  0.00000000000E+00 0.  1.
</event>
<event>
 5    1  0.1008363E-004  0.1727316E+02  0.7818608E-02  0.1551759E+00
         21   -1    0    0  501  502  0.00000000000E+00  0.00000000000E+00  0.20981428438E+03  0.20981428438E+03  0.00000000000E+00 0. -1.
          4   -1    0    0  502    0 -0.00000000000E+00 -0.00000000000E+00 -0.66556416445E+01  0.66556416445E+01  0.00000000000E+00 0.  1.
        -13    1    1    2    0    0 -0.94255128362E+01 -0.13162349195E+02  0.15518205084E+02  0.22425734807E+02  0.10566000000E+00 0.  1.
         13    1    1    2    0    0 -0.29227154668E+01  0.25113615947E+02  0.58019692150E+02  0.63289270915E+02  0.10566000000E+00 0. -1.
          4    1    1    2  501    0  0.12348228303E+02 -0.11951266752E+02  0.12962074550E+03  0.13075492030E+03  0.00000000000E+00 0.  1.
</event>
<event>
 5    1  0.1008363E-004  0.3309326E+03  0.7818608E-02  0.9954885E-01
          4   -1    0    0  502    0 -0.00000000000E+00  0.00000000000E+00  0.89159843224E+03  0.89159843224E+03  0.00000000000E+00 0.  1.
         21   -1    0    0  501  502  0.00000000000E+00 -0.00000000000E+00 -0.39217324684E+03  0.39217324684E+03  0.00000000000E+00 0. -1.
        -13    1    1    2    0    0  0.24081874992E+03 -0.16917723099E+03  0.34058561392E+03  0.45012573507E+03  0.10566000000E+00 0.  1.
         13    1    1    2    0    0 -0.25550885559E+03 -0.21195592620E+03  0.27910735818E+03  0.43371767140E+03  0.10566000000E+00 0. -1.
          4    1    1    2  501    0  0.14690105672E+02  0.38113315719E+03 -0.12026778670E+03  0.39992827261E+03  0.00000000000E+00 0.  1.
</event>
<event>
 5    1  0.1008363E-004  0.2169178E+03  0.7818608E-02  0.1049118E+00
         -4   -1    0    0    0  501 -0.00000000000E+00  0.00000000000E+00  0.78263950936E+03  0.78263950936E+03  0.00000000000E+00 0. -1.
         21   -1    0    0  501  502  0.00000000000E+00 -0.00000000000E+00 -0.81381457394E+02  0.81381457394E+02  0.00000000000E+00 0.  1.
        -13    1    1    2    0    0  0.21480649934E+03  0.32431908441E+02  0.51486155769E+03  0.55881669230E+03  0.10566000000E+00 0.  1.
         13    1    1    2    0    0 -0.20983121683E+03 -0.55371863239E+02  0.15842655527E+03  0.26868972324E+03  0.10566000000E+00 0. -1.
         -4    1    1    2    0  502 -0.49752825105E+01  0.22939954798E+02  0.27969939011E+02  0.36514551216E+02  0.00000000000E+00 0. -1.
</event>
<event>
 5    1  0.1008363E-004  0.4958249E+03  0.7818608E-02  0.9611161E-01
          4   -1    0    0  502    0 -0.00000000000E+00  0.00000000000E+00  0.14718708195E+04  0.14718708195E+04  0.00000000000E+00 0.  1.
         21   -1    0    0  501  502  0.00000000000E+00 -0.00000000000E+00 -0.32888991772E+03  0.32888991772E+03  0.00000000000E+00 0.  1.
        -13    1    1    2    0    0  0.48921327743E+03 -0.45209711811E+03  0.56422895064E+03  0.87296950401E+03  0.10566000000E+00 0.  1.
         13    1    1    2    0    0 -0.30488758094E+03  0.88468987874E+02  0.25115903508E+03  0.40480127333E+03  0.10566000000E+00 0. -1.
          4    1    1    2  501    0 -0.18432569649E+03  0.36362813023E+03  0.32759291607E+03  0.52298995989E+03  0.00000000000E+00 0.  1.
</event>
<event>
 5    1  0.1008363E-004  0.3665558E+03  0.7818608E-02  0.1048374E+00
          4   -1    0    0  502    0 -0.00000000000E+00  0.00000000000E+00  0.77934341958E+03  0.77934341958E+03  0.00000000000E+00 0.  1.
         21   -1    0    0  501  502  0.00000000000E+00 -0.00000000000E+00 -0.40343696725E+03  0.40343696725E+03  0.00000000000E+00 0.  1.
        -13    1    1    2    0    0 -0.14090553183E+03 -0.34602491479E+03 -0.24631222480E+03  0.44750121095E+03  0.10566000000E+00 0.  1.
         13    1    1    2    0    0  0.31001073370E+02  0.33933494570E+02  0.16245448625E+03  0.16883133557E+03  0.10566000000E+00 0. -1.
          4    1    1    2  501    0  0.10990445846E+03  0.31209142022E+03  0.45976419089E+03  0.56644784030E+03  0.00000000000E+00 0.  1.
</event>
<event>
 5    1  0.1008363E-004  0.3882741E+03  0.7818608E-02  0.9860527E-01
         21   -1    0    0  501  502  0.00000000000E+00  0.00000000000E+00  0.81436729032E+03  0.81436729032E+03  0.00000000000E+00 0. -1.
         -4   -1    0    0    0  501 -0.00000000000E+00 -0.00000000000E+00 -0.53525578809E+03  0.53525578809E+03  0.00000000000E+00 0. -1.
        -13    1    1    2    0    0 -0.25299635355E+03  0.11773180817E+03  0.31186096794E+02  0.28078553624E+03  0.10566000000E+00 0.  1.
         13    1    1    2    0    0  0.18032309324E+03  0.34283352221E+03  0.42043988857E+03  0.57168256311E+03  0.10566000000E+00 0. -1.
         -4    1    1    2    0  502  0.72673260317E+02 -0.46056533038E+03 -0.17251448312E+03  0.49715497905E+03  0.00000000000E+00 0. -1.
</event>
<event>
 5    1  0.1008363E-004  0.1578198E+03  0.7818608E-02  0.1097874E+00
         -4   -1    0    0    0  501 -0.00000000000E+00  0.00000000000E+00  0.13018573190E+03  0.13018573190E+03  0.00000000000E+00 0. -1.
         21   -1    0    0  501  502  0.00000000000E+00 -0.00000000000E+00 -0.74925209131E+03  0.74925209131E+03  0.00000000000E+00 0. -1.
        -13    1    1    2    0    0  0.15403292260E+03  0.65034760636E+02 -0.41606913918E+03  0.44840740525E+03  0.10566000000E+00 0.  1.
         13    1    1    2    0    0  0.26895750688E+02 -0.94812976421E+02  0.56261198324E+02  0.11348222550E+03  0.10566000000E+00 0. -1.
         -4    1    1    2    0  502 -0.18092867329E+03  0.29778215784E+02 -0.25925841855E+03  0.31754819247E+03  0.00000000000E+00 0. -1.
</event>
<event>
 5    1  0.1008363E-004  0.1808230E+03  0.7818608E-02  0.1074142E+00
         21   -1    0    0  501  502  0.00000000000E+00  0.00000000000E+00  0.51228353265E+02  0.51228353265E+02  0.00000000000E+00 0.  1.
         -4   -1    0    0    0  501 -0.00000000000E+00 -0.00000000000E+00 -0.79902130013E+03  0.79902130013E+03  0.00000000000E+00 0. -1.
        -13    1    1    2    0    0 -0.90368382618E+02 -0.16069060408E+03 -0.43555499491E+03  0.47296519912E+03  0.10566000000E+00 0.  1.
         13    1    1    2    0    0  0.80237926116E+02  0.15731281398E+03 -0.31901883347E+03  0.36463471242E+03  0.10566000000E+00 0. -1.
         -4    1    1    2    0  502  0.10130456502E+02  0.33777901014E+01  0.67808815195E+01  0.12649741858E+02  0.00000000000E+00 0. -1.
</event>
<event>
 5    1  0.1008363E-004  0.1966375E+03  0.7818608E-02  0.1062466E+00
         21   -1    0    0  501  502  0.00000000000E+00  0.00000000000E+00  0.85223291135E+03  0.85223291135E+03  0.00000000000E+00 0. -1.
         -4   -1    0    0    0  501 -0.00000000000E+00 -0.00000000000E+00 -0.21042711992E+03  0.21042711992E+03  0.00000000000E+00 0. -1.
        -13    1    1    2    0    0 -0.15534144157E+03 -0.10603262284E+03  0.16535264687E+03  0.25043040863E+03  0.10566000000E+00 0.  1.
         13    1    1    2    0    0  0.16135761602E+03  0.11660952795E+03 -0.10878421757E+03  0.22686577400E+03  0.10566000000E+00 0. -1.
         -4    1    1    2    0  502 -0.60161744579E+01 -0.10576905109E+02  0.58523736212E+03  0.58536384864E+03  0.00000000000E+00 0. -1.
</event>
<event>
 5    1  0.1008363E-004  0.2135223E+02  0.7818608E-02  0.1491871E+00
         -4   -1    0    0    0  501 -0.00000000000E+00  0.00000000000E+00  0.10117998050E+03  0.10117998050E+03  0.00000000000E+00 0. -1.
         21   -1    0    0  501  502  0.00000000000E+00 -0.00000000000E+00 -0.91360037797E+01  0.91360037797E+01  0.00000000000E+00 0. -1.
        -13    1    1    2    0    0  0.14734920091E+02  0.24866138172E+01  0.81030253117E+01  0.16999155908E+02  0.10566000000E+00 0.  1.
         13    1    1    2    0    0 -0.24137145653E+02  0.61972882706E+01  0.70417724595E+02  0.74697224067E+02  0.10566000000E+00 0. -1.
         -4    1    1    2    0  502  0.94022255621E+01 -0.86839020878E+01  0.13523226813E+02  0.18619604304E+02  0.00000000000E+00 0. -1.
</event>
<event>
 5    1  0.1008363E-004  0.5417014E+03  0.7818608E-02  0.9390973E-01
         -4   -1    0    0    0  501 -0.00000000000E+00  0.00000000000E+00  0.32504094598E+03  0.32504094598E+03  0.00000000000E+00 0. -1.
         21   -1    0    0  501  502  0.00000000000E+00 -0.00000000000E+00 -0.11829159716E+04  0.11829159716E+04  0.00000000000E+00 0.  1.
        -13    1    1    2    0    0  0.17399385377E+03 -0.51080643688E+03 -0.82732508282E+02  0.54593200693E+03  0.10566000000E+00 0.  1.
         13    1    1    2    0    0 -0.16730260493E+03  0.52087027714E+03 -0.71291344759E+03  0.89863318554E+03  0.10566000000E+00 0. -1.
         -4    1    1    2    0  502 -0.66912488372E+01 -0.10063840266E+02 -0.62229069720E+02  0.63391725092E+02  0.00000000000E+00 0. -1.
</event>
<event>
 5    1  0.1008363E-004  0.4991795E+03  0.7818608E-02  0.9479772E-01
         21   -1    0    0  501  502  0.00000000000E+00  0.00000000000E+00  0.45614745210E+03  0.45614745210E+03  0.00000000000E+00 0. -1.
         -4   -1    0    0    0  501 -0.00000000000E+00 -0.00000000000E+00 -0.15773028382E+04  0.15773028382E+04  0.00000000000E+00 0. -1.
        -13    1    1    2    0    0 -0.20439698504E+02  0.44188444882E+03 -0.77792535450E+03  0.89490084128E+03  0.10566000000E+00 0.  1.
         13    1    1    2    0    0  0.92835665353E+02 -0.64093494284E+03 -0.54469377003E+03  0.84623127807E+03  0.10566000000E+00 0. -1.
         -4    1    1    2    0  502 -0.72395966848E+02  0.19905049402E+03  0.20146373840E+03  0.29231817096E+03  0.00000000000E+00 0. -1.
</event>
<event>
 5    1  0.1008363E-004  0.7162280E+02  0.7818608E-02  0.1222533E+00
         -4   -1    0    0    0  501 -0.00000000000E+00  0.00000000000E+00  0.14375215653E+03  0.14375215653E+03  0.00000000000E+00 0. -1.
         21   -1    0    0  501  502  0.00000000000E+00 -0.00000000000E+00 -0.13347365014E+03  0.13347365014E+03  0.00000000000E+00 0. -1.
        -13    1    1    2    0    0 -0.55095934813E+02  0.47514279136E+02  0.12881421365E+02  0.73885796573E+02  0.10566000000E+00 0.  1.
         13    1    1    2    0    0  0.65471832402E+02 -0.29965279085E+02  0.86148780083E+02  0.11227689995E+03  0.10566000000E+00 0. -1.
         -4    1    1    2    0  502 -0.10375897589E+02 -0.17549000052E+02 -0.88751695058E+02  0.91063110145E+02  0.00000000000E+00 0. -1.
</event>
<event>
 5    1  0.1008363E-004  0.2319335E+02  0.7818608E-02  0.1521297E+00
         21   -1    0    0  501  502  0.00000000000E+00  0.00000000000E+00  0.13026867937E+03  0.13026867937E+03  0.00000000000E+00 0. -1.
         -4   -1    0    0    0  501 -0.00000000000E+00 -0.00000000000E+00 -0.18990558614E+02  0.18990558614E+02  0.00000000000E+00 0. -1.
        -13    1    1    2    0    0 -0.66563371507E+01 -0.86205534072E+01  0.37068061781E+00  0.10898134403E+02  0.10566000000E+00 0.  1.
         13    1    1    2    0    0  0.23088762825E+02  0.63629349684E+01  0.11793847578E+03  0.12034564031E+03  0.10566000000E+00 0. -1.
         -4    1    1    2    0  502 -0.16432425674E+02  0.22576184388E+01 -0.70310356385E+01  0.18015463266E+02  0.00000000000E+00 0. -1.
</event>
<event>
 5    1  0.1008363E-004  0.4775491E+03  0.7818608E-02  0.9657024E-01
         21   -1    0    0  501  502  0.00000000000E+00  0.00000000000E+00  0.10268985846E+04  0.10268985846E+04  0.00000000000E+00 0.  1.
          4   -1    0    0  502    0 -0.00000000000E+00 -0.00000000000E+00 -0.48609398869E+03  0.48609398869E+03  0.00000000000E+00 0.  1.
        -13    1    1    2    0    0 -0.35181586976E+03  0.39672323069E+03  0.56185999028E+03  0.77256092823E+03  0.10566000000E+00 0.  1.
         13    1    1    2    0    0  0.30043952423E+03  0.32490431513E+02 -0.53690997773E+02  0.30692388350E+03  0.10566000000E+00 0. -1.
          4    1    1    2  501    0  0.51376345528E+02 -0.42921366220E+03  0.32635603370E+02  0.43350776153E+03  0.00000000000E+00 0.  1.
</event>
<event>
 5    1  0.1008363E-004  0.1020666E+03  0.7818608E-02  0.1161181E+00
          4   -1    0    0  502    0 -0.00000000000E+00  0.00000000000E+00  0.12042062342E+03  0.12042062342E+03  0.00000000000E+00 0.  1.
         21   -1    0    0  501  502  0.00000000000E+00 -0.00000000000E+00 -0.17092143379E+03  0.17092143379E+03  0.00000000000E+00 0. -1.
        -13    1    1    2    0    0  0.10069506493E+03 -0.38920056638E+02  0.47654344994E+02  0.11800514680E+03  0.10566000000E+00 0.  1.
         13    1    1    2    0    0 -0.86652696466E+02  0.31995496955E+02 -0.21156987750E+02  0.94763025094E+02  0.10566000000E+00 0. -1.
          4    1    1    2  501    0 -0.14042368466E+02  0.69245596831E+01 -0.76998167606E+02  0.78573885316E+02  0.00000000000E+00 0.  1.
</event>
<event>
 5    1  0.1008363E-004  0.3061229E+03  0.7818608E-02  0.1010216E+00
         -4   -1    0    0    0  501 -0.00000000000E+00  0.00000000000E+00  0.18837492048E+04  0.18837492048E+04  0.00000000000E+00 0. -1.
         21   -1    0    0  501  502  0.00000000000E+00 -0.00000000000E+00 -0.27437087969E+03  0.27437087969E+03  0.00000000000E+00 0. -1.
        -13    1    1    2    0    0 -0.18388952684E+02 -0.25643192235E+03  0.80686704256E+03  0.84683523776E+03  0.10566000000E+00 0.  1.
         13    1    1    2    0    0  0.28732477161E+03  0.13722223583E+03 -0.12208921649E+03  0.34101503534E+03  0.10566000000E+00 0. -1.
         -4    1    1    2    0  502 -0.26893581892E+03  0.11920968653E+03  0.92460049903E+03  0.97026981137E+03  0.00000000000E+00 0. -1.
</event>
<event>
 5    1  0.1008363E-004  0.9639420E+02  0.7818608E-02  0.1170663E+00
         21   -1    0    0  501  502  0.00000000000E+00  0.00000000000E+00  0.79622663668E+03  0.79622663668E+03  0.00000000000E+00 0. -1.
          4   -1    0    0  502    0 -0.00000000000E+00 -0.00000000000E+00 -0.47053859036E+03  0.47053859036E+03  0.00000000000E+00 0.  1.
        -13    1    1    2    0    0  0.77160802918E+02  0.56790262681E+02 -0.44929117121E+03  0.45939252403E+03  0.10566000000E+00 0.  1.
         13    1    1    2    0    0 -0.10586487547E+03 -0.11662726022E+03  0.48668815510E+03  0.51154145596E+03  0.10566000000E+00 0. -1.
          4    1    1    2  501    0  0.28704072557E+02  0.59836997540E+02  0.28829106243E+03  0.29583124705E+03  0.00000000000E+00 0.  1.
</event>
<event>
 5    1  0.1008363E-004  0.8995068E+03  0.7818608E-02  0.8875215E-01
         21   -1    0    0  501  502  0.00000000000E+00  0.00000000000E+00  0.60458370144E+03  0.60458370144E+03  0.00000000000E+00 0. -1.
          4   -1    0    0  502    0 -0.00000000000E+00 -0.00000000000E+00 -0.15068600972E+04  0.15068600972E+04  0.00000000000E+00 0.  1.
        -13    1    1    2    0    0  0.24588355647E+03 -0.85890160335E+03 -0.62659223741E+03  0.10912325741E+04  0.10566000000E+00 0.  1.
         13    1    1    2    0    0 -0.25026005677E+03  0.87269869502E+03 -0.32847784676E+03  0.96546922026E+03  0.10566000000E+00 0. -1.
          4    1    1    2  501    0  0.43765003016E+01 -0.13797091672E+02  0.52793688436E+02  0.54742004276E+02  0.00000000000E+00 0.  1.
</event>
<event>
 5    1  0.1839458E-004  0.3377188E+03  0.7818608E-02  0.9971865E-01
          4   -1    0    0  502    0 -0.00000000000E+00  0.00000000000E+00  0.14630706842E+04  0.14630706842E+04  0.00000000000E+00 0.  1.
         21   -1    0    0  501  502  0.00000000000E+00 -0.00000000000E+00 -0.35507885583E+03  0.35507885583E+03  0.00000000000E+00 0.  1.
        -13    1    1    2    0    0  0.18621095381E+02 -0.19451462372E+03  0.72043899298E+03  0.74646837696E+03  0.10566000000E+00 0.  1.
         13    1    1    2    0    0  0.29249586996E+03 -0.55918183924E+01  0.58375227422E+03  0.65295622457E+03  0.10566000000E+00 0. -1.
          4    1    1    2  501    0 -0.31111696535E+03  0.20010644211E+03 -0.19619943885E+03  0.41872493848E+03  0.00000000000E+00 0.  1.
</event>
<event>
 5    1  0.1008363E-004  0.1152636E+03  0.7818608E-02  0.1141511E+00
         -4   -1    0    0    0  501 -0.00000000000E+00  0.00000000000E+00  0.48338648862E+03  0.48338648862E+03  0.00000000000E+00 0. -1.
         21   -1    0    0  501  502  0.00000000000E+00 -0.00000000000E+00 -0.38086544213E+02  0.38086544213E+02  0.00000000000E+00 0.  1.
        -13    1    1    2    0    0  0.12198888076E+03 -0.25479037737E+02  0.19995582953E+03  0.23561157297E+03  0.10566000000E+00 0.  1.
         13    1    1    2    0    0 -0.10568304527E+03  0.27677773105E+02  0.24623703222E+03  0.26938383838E+03  0.10566000000E+00 0. -1.
         -4    1    1    2    0  502 -0.16305835492E+02 -0.21987353673E+01 -0.89291733569E+00  0.16477621481E+02  0.00000000000E+00 0. -1.
</event>
<event>
 5    1  0.1008363E-004  0.4534912E+03  0.7818608E-02  0.9738527E-01
         -4   -1    0    0    0  501 -0.00000000000E+00  0.00000000000E+00  0.58518692600E+03  0.58518692600E+03  0.00000000000E+00 0. -1.
         21   -1    0    0  501  502  0.00000000000E+00 -0.00000000000E+00 -0.10947834050E+04  0.10947834050E+04  0.00000000000E+00 0. -1.
        -13    1    1    2    0    0  0.26191870904E+03 -0.44290180982E+02 -0.10687751576E+03  0.28633170417E+03  0.10566000000E+00 0.  1.
         13    1    1    2    0    0  0.19459666681E+03 -0.13323170118E+03  0.39353533981E+03  0.45879039199E+03  0.10566000000E+00 0. -1.
         -4    1    1    2    0  502 -0.45651537585E+03  0.17752188217E+03 -0.79625430304E+03  0.93484823482E+03  0.00000000000E+00 0. -1.
</event>
<event>
 5    1  0.1008363E-004  0.5291216E+03  0.7818608E-02  0.9416330E-01
         21   -1    0    0  501  502  0.00000000000E+00  0.00000000000E+00  0.24345946443E+03  0.24345946443E+03  0.00000000000E+00 0.  1.
          4   -1    0    0  502    0 -0.00000000000E+00 -0.00000000000E+00 -0.25701985845E+04  0.25701985845E+04  0.00000000000E+00 0.  1.
        -13    1    1    2    0    0 -0.67223262411E+03 -0.34373936931E+03 -0.10032185232E+04  0.12555878589E+04  0.10566000000E+00 0.  1.
         13    1    1    2    0    0  0.43548064893E+03  0.99600041295E+02 -0.96786719385E+03  0.10659880299E+04  0.10566000000E+00 0. -1.
          4    1    1    2  501    0  0.23675197518E+03  0.24413932802E+03 -0.35565340296E+03  0.49208216009E+03  0.00000000000E+00 0.  1.
</event>
<event>
 5    1  0.1008363E-004  0.4001440E+02  0.7818608E-02  0.1338801E+00
         -4   -1    0    0    0  501 -0.00000000000E+00  0.00000000000E+00  0.14465820345E+02  0.14465820345E+02  0.00000000000E+00 0. -1.
         21   -1    0    0  501  502  0.00000000000E+00 -0.00000000000E+00 -0.33964876389E+03  0.33964876389E+03  0.00000000000E+00 0.  1.
        -13    1    1    2    0    0 -0.40221946906E+01  0.36523465146E+02 -0.20582754471E+03  0.20908163689E+03  0.10566000000E+00 0.  1.
         13    1    1    2    0    0 -0.28015077848E+02 -0.32669553250E+02 -0.37630402362E+02  0.57168196074E+02  0.10566000000E+00 0. -1.
         -4    1    1    2    0  502  0.32037272539E+02 -0.38539118958E+01 -0.81724996465E+02  0.87864751271E+02  0.00000000000E+00 0. -1.
</event>
<event>
 5    1  0.1008363E-004  0.9764154E+02  0.7818608E-02  0.1168518E+00
         21   -1    0    0  501  502  0.00000000000E+00  0.00000000000E+00  0.17264178428E+02  0.17264178428E+02  0.00000000000E+00 0.  1.
         -4   -1    0    0    0  501 -0.00000000000E+00 -0.00000000000E+00 -0.10096484187E+04  0.10096484187E+04  0.00000000000E+00 0. -1.
        -13    1    1    2    0    0  0.78378694307E+02 -0.64438522635E+02 -0.59738175417E+03  0.60593771487E+03  0.10566000000E+00 0.  1.
         13    1    1    2    0    0 -0.54444187204E+02  0.77169809474E+02 -0.37647142575E+03  0.38813669575E+03  0.10566000000E+00 0. -1.
         -4    1    1    2    0  502 -0.23934507103E+02 -0.12731286838E+02 -0.18531060321E+02  0.32838186482E+02  0.00000000000E+00 0. -1.
</event>
<event>
 5    1  0.1008363E-004  0.2244559E+03  0.7818608E-02  0.1044551E+00
         21   -1    0    0  501  502  0.00000000000E+00  0.00000000000E+00  0.12582118229E+04  0.12582118229E+04  0.00000000000E+00 0.  1.
          4   -1    0    0  502    0 -0.00000000000E+00 -0.00000000000E+00 -0.69279570461E+03  0.69279570461E+03  0.00000000000E+00 0.  1.
        -13    1    1    2    0    0  0.34357252686E+03 -0.10611273788E+03  0.11475158516E+04  0.12025367500E+04  0.10566000000E+00 0.  1.
         13    1    1    2    0    0 -0.21781008397E+03 -0.45559957859E+02 -0.47423602182E+03  0.52384802948E+03  0.10566000000E+00 0. -1.
          4    1    1    2  501    0 -0.12576244289E+03  0.15167269574E+03 -0.10786371147E+03  0.22462274801E+03  0.00000000000E+00 0.  1.
</event>
<event>
 5    1  0.1008363E-004  0.4392142E+03  0.7818608E-02  0.9622187E-01
          4   -1    0    0  502    0 -0.00000000000E+00  0.00000000000E+00  0.10730781175E+04  0.10730781175E+04  0.00000000000E+00 0.  1.
         21   -1    0    0  501  502  0.00000000000E+00 -0.00000000000E+00 -0.52838630066E+03  0.52838630066E+03  0.00000000000E+00 0.  1.
        -13    1    1    2    0    0  0.51116554804E+03  0.19232110810E+02 -0.17347511927E+03  0.54014231435E+03  0.10566000000E+00 0.  1.
         13    1    1    2    0    0 -0.37612773145E+03 -0.19094395480E+03  0.14191234323E+03  0.44505144486E+03  0.10566000000E+00 0. -1.
          4    1    1    2  501    0 -0.13503781658E+03  0.17171184399E+03  0.57625459283E+03  0.61627065891E+03  0.00000000000E+00 0.  1.
</event>
<event>
 5    1  0.1008363E-004  0.9181673E+02  0.7818608E-02  0.1191655E+00
         21   -1    0    0  501  502  0.00000000000E+00  0.00000000000E+00  0.45473743444E+03  0.45473743444E+03  0.00000000000E+00 0. -1.
         -4   -1    0    0    0  501 -0.00000000000E+00 -0.00000000000E+00 -0.40304739564E+02  0.40304739564E+02  0.00000000000E+00 0. -1.
        -13    1    1    2    0    0  0.58226304602E+02 -0.35338425394E+02  0.82779125195E+02  0.10719842158E+03  0.10566000000E+00 0.  1.
         13    1    1    2    0    0 -0.12433969171E+03 -0.35029353023E+01  0.20456991924E+03  0.23941907299E+03  0.10566000000E+00 0. -1.
         -4    1    1    2    0  502  0.66113387108E+02  0.38841360696E+02  0.12708365044E+03  0.14842467943E+03  0.00000000000E+00 0. -1.
</event>
<event>
 5    1  0.1008363E-004  0.1926718E+03  0.7818608E-02  0.1065279E+00
         21   -1    0    0  501  502  0.00000000000E+00  0.00000000000E+00  0.79374521160E+03  0.79374521160E+03  0.00000000000E+00 0.  1.
          4   -1    0    0  502    0 -0.00000000000E+00 -0.00000000000E+00 -0.16031072016E+03  0.16031072016E+03  0.00000000000E+00 0.  1.
        -13    1    1    2    0    0 -0.17498661832E+03  0.67492580251E+02 -0.54267020059E+02  0.19524468139E+03  0.10566000000E+00 0.  1.
         13    1    1    2    0    0  0.21574948301E+03 -0.46713931990E+02  0.32285981025E+03  0.39111187543E+03  0.10566000000E+00 0. -1.
          4    1    1    2  501    0 -0.40762864690E+02 -0.20778648261E+02  0.36484170125E+03  0.36769937494E+03  0.00000000000E+00 0.  1.
</event>
<event>
 5    1  0.1008363E-004  0.2409504E+03  0.7818608E-02  0.1035192E+00
         21   -1    0    0  501  502  0.00000000000E+00  0.00000000000E+00  0.12420770197E+04  0.12420770197E+04  0.00000000000E+00 0.  1.
         -4   -1    0    0    0  501 -0.00000000000E+00 -0.00000000000E+00 -0.63175355604E+02  0.63175355604E+02  0.00000000000E+00 0. -1.
        -13    1    1    2    0    0  0.22742431366E+03  0.17785431013E+02  0.52439684569E+03  0.57186554620E+03  0.10566000000E+00 0.  1.
         13    1    1    2    0    0 -0.25312562576E+03  0.50315994270E+02  0.50823740375E+03  0.57000837839E+03  0.10566000000E+00 0. -1.
         -4    1    1    2    0  502  0.25701312098E+02 -0.68101425284E+02  0.14626741468E+03  0.16337845074E+03  0.00000000000E+00 0. -1.
</event>
<event>
 5    1  0.1008363E-004  0.4931002E+03  0.7818608E-02  0.1003293E+00
         21   -1    0    0  501  502  0.00000000000E+00  0.00000000000E+00  0.97326546439E+03  0.97326546439E+03  0.00000000000E+00 0. -1.
         -4   -1    0    0    0  501 -0.00000000000E+00 -0.00000000000E+00 -0.37315546586E+03  0.37315546586E+03  0.00000000000E+00 0. -1.
        -13    1    1    2    0    0 -0.68675848471E+01  0.76639410569E+02 -0.10421803759E+03  0.12954602848E+03  0.10566000000E+00 0.  1.
         13    1    1    2    0    0  0.49528327938E+03 -0.26309900998E+01  0.30501501009E+03  0.58167569701E+03  0.10566000000E+00 0. -1.
         -4    1    1    2    0  502 -0.48841569454E+03 -0.74008420469E+02  0.39931302602E+03  0.63519920476E+03  0.00000000000E+00 0. -1.
</event>
<event>
 5    1  0.1008363E-004  0.3914710E+03  0.7818608E-02  0.9754006E-01
         21   -1    0    0  501  502  0.00000000000E+00  0.00000000000E+00  0.10592872809E+04  0.10592872809E+04  0.00000000000E+00 0.  1.
          4   -1    0    0  502    0 -0.00000000000E+00 -0.00000000000E+00 -0.66754649539E+03  0.66754649539E+03  0.00000000000E+00 0.  1.
        -13    1    1    2    0    0 -0.39366532023E+03  0.93461819301E+01 -0.36068062140E+03  0.53399462290E+03  0.10566000000E+00 0.  1.
         13    1    1    2    0    0  0.33997313209E+03 -0.38973779669E+03  0.29463685570E+03  0.59522110901E+03  0.10566000000E+00 0. -1.
          4    1    1    2  501    0  0.53692188136E+02  0.38039161476E+03  0.45778455122E+03  0.59761804439E+03  0.00000000000E+00 0.  1.
</event>
<event>
 5    1  0.1008363E-004  0.5000557E+02  0.7818608E-02  0.1291766E+00
         -4   -1    0    0    0  501 -0.00000000000E+00  0.00000000000E+00  0.29030511276E+02  0.29030511276E+02  0.00000000000E+00 0. -1.
         21   -1    0    0  501  502  0.00000000000E+00 -0.00000000000E+00 -0.20331931649E+03  0.20331931649E+03  0.00000000000E+00 0. -1.
        -13    1    1    2    0    0  0.13316943804E+02 -0.41633948836E+02 -0.57062303786E+02  0.71880764919E+02  0.10566000000E+00 0.  1.
         13    1    1    2    0    0 -0.22214442386E+02  0.48539070019E+02 -0.12092546948E+02  0.54733569448E+02  0.10566000000E+00 0. -1.
         -4    1    1    2    0  502  0.88974985815E+01 -0.69051211828E+01 -0.10513395448E+03  0.10573549340E+03  0.00000000000E+00 0. -1.
</event>
<event>
 5    1  0.1008363E-004  0.1269834E+03  0.7818608E-02  0.1126322E+00
          4   -1    0    0  502    0 -0.00000000000E+00  0.00000000000E+00  0.20490505168E+03  0.20490505168E+03  0.00000000000E+00 0.  1.
         21   -1    0    0  501  502  0.00000000000E+00 -0.00000000000E+00 -0.12062210603E+03  0.12062210603E+03  0.00000000000E+00 0. -1.
        -13    1    1    2    0    0  0.10266665558E+03 -0.10006227626E+03  0.93025669793E+02  0.17089964219E+03  0.10566000000E+00 0.  1.
         13    1    1    2    0    0 -0.80117138934E+02  0.59315377920E+02 -0.29036347432E+02  0.10382769691E+03  0.10566000000E+00 0. -1.
          4    1    1    2  501    0 -0.22549516642E+02  0.40746898340E+02  0.20293623289E+02  0.50799818615E+02  0.00000000000E+00 0.  1.
</event>
<event>
 5    1  0.1008363E-004  0.5171147E+03  0.7818608E-02  0.9441229E-01
         -4   -1    0    0    0  501 -0.00000000000E+00  0.00000000000E+00  0.56980278170E+03  0.56980278170E+03  0.00000000000E+00 0. -1.
         21   -1    0    0  501  502  0.00000000000E+00 -0.00000000000E+00 -0.77599614365E+03  0.77599614365E+03  0.00000000000E+00 0. -1.
        -13    1    1    2    0    0 -0.36689055269E+03 -0.21081632583E+03 -0.11837959089E+03  0.43939269406E+03  0.10566000000E+00 0.  1.
         13    1    1    2    0    0  0.60101202439E+03  0.15647425522E+03  0.60493352200E+02  0.62398646046E+03  0.10566000000E+00 0. -1.
         -4    1    1    2    0  502 -0.23412147170E+03  0.54342070604E+02 -0.14830712326E+03  0.28241977083E+03  0.00000000000E+00 0. -1.
</event>
<event>
 5    1  0.1008363E-004  0.1739960E+03  0.7818608E-02  0.1086735E+00
         -4   -1    0    0    0  501 -0.00000000000E+00  0.00000000000E+00  0.16942940036E+03  0.16942940036E+03  0.00000000000E+00 0. -1.
         21   -1    0    0  501  502  0.00000000000E+00 -0.00000000000E+00 -0.19517054240E+04  0.19517054240E+04  0.00000000000E+00 0. -1.
        -13    1    1    2    0    0 -0.93340862765E+02 -0.10767997835E+03 -0.31863418456E+03  0.34904906408E+03  0.10566000000E+00 0.  1.
         13    1    1    2    0    0 -0.82987274270E+01  0.24756037786E+03  0.46543324583E+02  0.25203432662E+03  0.10566000000E+00 0. -1.
         -4    1    1    2    0  502  0.10163959019E+03 -0.13988039951E+03 -0.15101851637E+04  0.15200514337E+04  0.00000000000E+00 0. -1.
</event>
<event>
 5    1  0.1008363E-004  0.1425749E+03  0.7818608E-02  0.1153926E+00
         21   -1    0    0  501  502  0.00000000000E+00  0.00000000000E+00  0.13894805791E+03  0.13894805791E+03  0.00000000000E+00 0.  1.
          4   -1    0    0  502    0 -0.00000000000E+00 -0.00000000000E+00 -0.20459972736E+03  0.20459972736E+03  0.00000000000E+00 0.  1.
        -13    1    1    2    0    0  0.42713630027E+02  0.15141729540E+03 -0.27396807618E+02  0.15969423211E+03  0.10566000000E+00 0.  1.
         13    1    1    2    0    0 -0.40715359997E+02 -0.18493054946E+02 -0.22269262275E+02  0.49956629462E+02  0.10566000000E+00 0. -1.
          4    1    1    2  501    0 -0.19982700301E+01 -0.13292424045E+03 -0.15985599556E+02  0.13389692370E+03  0.00000000000E+00 0.  1.
</event>
<event>
 5    1  0.1008363E-004  0.3842336E+03  0.7818608E-02  0.1030046E+00
          4   -1    0    0  502    0 -0.00000000000E+00  0.00000000000E+00  0.10331416054E+04  0.10331416054E+04  0.00000000000E+00 0.  1.
         21   -1    0    0  501  502  0.00000000000E+00 -0.00000000000E+00 -0.28713489698E+03  0.28713489698E+03  0.00000000000E+00 0.  1.
        -13    1    1    2    0    0 -0.33277951178E+03  0.12050447208E+03  0.60766640595E+03  0.70322258449E+03  0.10566000000E+00 0.  1.
         13    1    1    2    0    0 -0.52718250898E+02 -0.45443859915E+02  0.20697496983E+03  0.21836439198E+03  0.10566000000E+00 0. -1.
          4    1    1    2  501    0  0.38549776268E+03 -0.75060612163E+02 -0.68634667337E+02  0.39868952594E+03  0.00000000000E+00 0.  1.
</event>
<event>
 5    1  0.1008363E-004  0.4914343E+03  0.7818608E-02  0.9557861E-01
          4   -1    0    0  502    0 -0.00000000000E+00  0.00000000000E+00  0.25654967078E+04  0.25654967078E+04  0.00000000000E+00 0.  1.
         21   -1    0    0  501  502  0.00000000000E+00 -0.00000000000E+00 -0.23300197023E+03  0.23300197023E+03  0.00000000000E+00 0.  1.
        -13    1    1    2    0    0 -0.18993275128E+02  0.28765945939E+03  0.77394236741E+03  0.82589073630E+03  0.10566000000E+00 0.  1.
         13    1    1    2    0    0 -0.22277976404E+03  0.32541352859E+03  0.11032069415E+04  0.11715760132E+04  0.10566000000E+00 0. -1.
          4    1    1    2  501    0  0.24177303917E+03 -0.61307298798E+03  0.45534542868E+03  0.80103192850E+03  0.00000000000E+00 0.  1.
</event>
<event>
 5    1  0.1008363E-004  0.1303739E+03  0.7818608E-02  0.1122259E+00
         21   -1    0    0  501  502  0.00000000000E+00  0.00000000000E+00  0.65676158009E+02  0.65676158009E+02  0.00000000000E+00 0.  1.
         -4   -1    0    0    0  501 -0.00000000000E+00 -0.00000000000E+00 -0.35628020482E+03  0.35628020482E+03  0.00000000000E+00 0. -1.
        -13    1    1    2    0    0 -0.12383894180E+03  0.56413517701E+02 -0.13153548126E+03  0.18926215279E+03  0.10566000000E+00 0.  1.
         13    1    1    2    0    0  0.10626149120E+03 -0.69146354016E+02 -0.16692553614E+03  0.20961123196E+03  0.10566000000E+00 0. -1.
         -4    1    1    2    0  502  0.17577450601E+02  0.12732836315E+02  0.78569705843E+01  0.23082978079E+02  0.00000000000E+00 0. -1.
</event>
<event>
 5    1  0.1008363E-004  0.6232089E+03  0.7818608E-02  0.9339150E-01
         21   -1    0    0  501  502  0.00000000000E+00  0.00000000000E+00  0.30809228267E+03  0.30809228267E+03  0.00000000000E+00 0. -1.
          4   -1    0    0  502    0 -0.00000000000E+00 -0.00000000000E+00 -0.34503679100E+04  0.34503679100E+04  0.00000000000E+00 0.  1.
        -13    1    1    2    0    0  0.29760204561E+03 -0.26983533081E+03 -0.98676676035E+03  0.10654044930E+04  0.10566000000E+00 0.  1.
         13    1    1    2    0    0 -0.62068158651E+03 -0.26308961589E+03 -0.19060853882E+04  0.20217871540E+04  0.10566000000E+00 0. -1.
          4    1    1    2  501    0  0.32307954091E+03  0.53292494670E+03 -0.24942347878E+03  0.67126854561E+03  0.00000000000E+00 0.  1.
</event>
<event>
 5    1  0.1008363E-004  0.6008585E+02  0.7818608E-02  0.1255426E+00
         -4   -1    0    0    0  501 -0.00000000000E+00  0.00000000000E+00  0.27909454791E+03  0.27909454791E+03  0.00000000000E+00 0. -1.
         21   -1    0    0  501  502  0.00000000000E+00 -0.00000000000E+00 -0.21299678173E+02  0.21299678173E+02  0.00000000000E+00 0.  1.
        -13    1    1    2    0    0  0.44047450732E+02  0.37456170206E+02  0.14657439420E+03  0.15756651548E+03  0.10566000000E+00 0.  1.
         13    1    1    2    0    0 -0.58103309598E+02 -0.28966221972E+02  0.10812253044E+03  0.12611712554E+03  0.10566000000E+00 0. -1.
         -4    1    1    2    0  502  0.14055858865E+02 -0.84899482338E+01  0.30979451061E+01  0.16710585069E+02  0.00000000000E+00 0. -1.
</event>
<event>
 5    1  0.1355644E-004  0.4196766E+03  0.7818608E-02  0.1006597E+00
          4   -1    0    0  502    0 -0.00000000000E+00  0.00000000000E+00  0.25861669961E+04  0.25861669961E+04  0.00000000000E+00 0.  1.
         21   -1    0    0  501  502  0.00000000000E+00 -0.00000000000E+00 -0.13076556727E+03  0.13076556727E+03  0.00000000000E+00 0.  1.
        -13    1    1    2    0    0  0.31478103458E+03  0.14425170628E+03  0.15306285201E+04  0.15693053661E+04  0.10566000000E+00 0.  1.
         13    1    1    2    0    0  0.11014884546E+03 -0.20931133037E+02  0.56880011478E+03  0.57974517008E+03  0.10566000000E+00 0. -1.
          4    1    1    2  501    0 -0.42492988004E+03 -0.12332057325E+03  0.35597279396E+03  0.56788202716E+03  0.00000000000E+00 0.  1.
</event>
<event>
 5    1  0.1008363E-004  0.2973216E+03  0.7818608E-02  0.1032055E+00
         21   -1    0    0  501  502  0.00000000000E+00  0.00000000000E+00  0.31625234381E+03  0.31625234381E+03  0.00000000000E+00 0. -1.
         -4   -1    0    0    0  501 -0.00000000000E+00 -0.00000000000E+00 -0.13206714364E+04  0.13206714364E+04  0.00000000000E+00 0. -1.
        -13    1    1    2    0    0  0.10924998553E+03 -0.89448775454E+02 -0.38430687439E+03  0.40942450786E+03  0.10566000000E+00 0.  1.
         13    1    1    2    0    0 -0.31107606829E+03 -0.12745339084E+03 -0.80904441408E+03  0.87610819093E+03  0.10566000000E+00 0. -1.
         -4    1    1    2    0  502  0.20182608276E+03  0.21690216629E+03  0.18893219591E+03  0.35139108138E+03  0.00000000000E+00 0. -1.
</event>
<event>
 5    1  0.1008363E-004  0.1723630E+03  0.7818608E-02  0.1080933E+00
         21   -1    0    0  501  502  0.00000000000E+00  0.00000000000E+00  0.87657354623E+03  0.87657354623E+03  0.00000000000E+00 0. -1.
          4   -1    0    0  502    0 -0.00000000000E+00 -0.00000000000E+00 -0.11775081843E+03  0.11775081843E+03  0.00000000000E+00 0.  1.
        -13    1    1    2    0    0 -0.23310969868E+02  0.17214279491E+03  0.22304140791E+01  0.17372831970E+03  0.10566000000E+00 0.  1.
         13    1    1    2    0    0  0.32804891283E+02 -0.16593717537E+03  0.19196647989E+03  0.25585630269E+03  0.10566000000E+00 0. -1.
          4    1    1    2  501    0 -0.94939214151E+01 -0.62056195440E+01  0.56462583384E+03  0.56473974226E+03  0.00000000000E+00 0.  1.
</event>
<event>
 5    1  0.1008363E-004  0.4774569E+03  0.7818608E-02  0.1000391E+00
          4   -1    0    0  502    0 -0.00000000000E+00  0.00000000000E+00  0.12385695466E+04  0.12385695466E+04  0.00000000000E+00 0.  1.
         21   -1    0    0  501  502  0.00000000000E+00 -0.00000000000E+00 -0.23435537515E+03  0.23435537515E+03  0.00000000000E+00 0.  1.
        -13    1    1    2    0    0 -0.11228553111E+03 -0.51830925576E+03  0.52352538559E+03  0.74520558615E+03  0.10566000000E+00 0.  1.
         13    1    1    2    0    0 -0.45196398183E+01  0.93074479300E+02  0.14971846341E+03  0.17634884545E+03  0.10566000000E+00 0. -1.
          4    1    1    2  501    0  0.11680517093E+03  0.42523477646E+03  0.33097032245E+03  0.55137049015E+03  0.00000000000E+00 0.  1.
</event>
<event>
 5    1  0.1008363E-004  0.3864110E+03  0.7818608E-02  0.9769132E-01
         21   -1    0    0  501  502  0.00000000000E+00  0.00000000000E+00  0.34366498966E+03  0.34366498966E+03  0.00000000000E+00 0.  1.
          4   -1    0    0  502    0 -0.00000000000E+00 -0.00000000000E+00 -0.23640342289E+04  0.23640342289E+04  0.00000000000E+00 0.  1.
        -13    1    1    2    0    0  0.33425144984E+03 -0.19233480523E+03 -0.21197662754E+04  0.21545593012E+04  0.10566000000E+00 0.  1.
         13    1    1    2    0    0 -0.34433883590E+03  0.19159950565E+03 -0.55472281085E+02  0.39794068604E+03  0.10566000000E+00 0. -1.
          4    1    1    2  501    0  0.10087386055E+02  0.73529957571E+00  0.15486931715E+03  0.15519923137E+03  0.00000000000E+00 0.  1.
</event>
<event>
 5    1  0.1008363E-004  0.3178582E+02  0.7818608E-02  0.1391118E+00
         21   -1    0    0  501  502  0.00000000000E+00  0.00000000000E+00  0.13742096681E+02  0.13742096681E+02  0.00000000000E+00 0. -1.
         -4   -1    0    0    0  501 -0.00000000000E+00 -0.00000000000E+00 -0.18305622256E+03  0.18305622256E+03  0.00000000000E+00 0. -1.
        -13    1    1    2    0    0  0.25415680468E+02  0.84284445552E+01 -0.26470521491E+02  0.37652292936E+02  0.10566000000E+00 0.  1.
         13    1    1    2    0    0 -0.28220390260E+02 -0.18564288982E+02 -0.14459169932E+03  0.14848499563E+03  0.10566000000E+00 0. -1.
         -4    1    1    2    0  502  0.28047097919E+01  0.10135844427E+02  0.17480949258E+01  0.10661030679E+02  0.00000000000E+00 0. -1.
</event>
<event>
 5    1  0.1652813E-004  0.3232529E+03  0.7818608E-02  0.1078694E+00
          4   -1    0    0  502    0 -0.00000000000E+00  0.00000000000E+00  0.16967689173E+04  0.16967689173E+04  0.00000000000E+00 0.  1.
         21   -1    0    0  501  502  0.00000000000E+00 -0.00000000000E+00 -0.15628006580E+03  0.15628006580E+03  0.00000000000E+00 0.  1.
        -13    1    1    2    0    0 -0.64406254905E+02  0.30737664320E+03  0.13898885099E+04  0.14249275938E+04  0.10566000000E+00 0.  1.
         13    1    1    2    0    0 -0.27543993774E+02  0.39648470088E+01  0.94704905835E+02  0.98708773460E+02  0.10566000000E+00 0. -1.
          4    1    1    2  501    0  0.91950248679E+02 -0.31134149021E+03  0.55895435810E+02  0.32941261588E+03  0.00000000000E+00 0.  1.
</event>
<event>
 5    1  0.1008363E-004  0.1277976E+03  0.7818608E-02  0.1125334E+00
         21   -1    0    0  501  502  0.00000000000E+00  0.00000000000E+00  0.46024379389E+02  0.46024379389E+02  0.00000000000E+00 0. -1.
          4   -1    0    0  502    0 -0.00000000000E+00 -0.00000000000E+00 -0.71993297522E+03  0.71993297522E+03  0.00000000000E+00 0.  1.
        -13    1    1    2    0    0  0.12261251903E+03  0.96376850570E+02 -0.37949014054E+03  0.41028661333E+03  0.10566000000E+00 0.  1.
         13    1    1    2    0    0 -0.31753949748E+02 -0.10336046203E+03 -0.15012908241E+03  0.18501473181E+03  0.10566000000E+00 0. -1.
          4    1    1    2  501    0 -0.90858569287E+02  0.69836114612E+01 -0.14428937288E+03  0.17065600947E+03  0.00000000000E+00 0.  1.
</event>
<event>
 5    1  0.1008363E-004  0.5830879E+03  0.7818608E-02  0.9313992E-01
          4   -1    0    0  502    0 -0.00000000000E+00  0.00000000000E+00  0.15699717618E+04  0.15699717618E+04  0.00000000000E+00 0.  1.
         21   -1    0    0  501  502  0.00000000000E+00 -0.00000000000E+00 -0.66993416798E+03  0.66993416798E+03  0.00000000000E+00 0. -1.
        -13    1    1    2    0    0  0.61948623236E+03 -0.53332293490E+02  0.10037762649E+03  0.62982791672E+03  0.10566000000E+00 0.  1.
         13    1    1    2    0    0 -0.32575012105E+03  0.55702927350E+03  0.79894488965E+03  0.10269896303E+04  0.10566000000E+00 0. -1.
          4    1    1    2  501    0 -0.29373611131E+03 -0.50369698001E+03  0.71507766686E+00  0.58308838275E+03  0.00000000000E+00 0.  1.
</event>
<event>
 5    1  0.1008363E-004  0.3034328E+03  0.7818608E-02  0.1016002E+00
         21   -1    0    0  501  502  0.00000000000E+00  0.00000000000E+00  0.19336586443E+04  0.19336586443E+04  0.00000000000E+00 0.  1.
          4   -1    0    0  502    0 -0.00000000000E+00 -0.00000000000E+00 -0.37902838924E+03  0.37902838924E+03  0.00000000000E+00 0.  1.
        -13    1    1    2    0    0 -0.33727996607E+03 -0.32392704397E+03  0.45522084155E+03  0.65261974462E+03  0.10566000000E+00 0.  1.
         13    1    1    2    0    0  0.82846264632E+02  0.20320295904E+03 -0.22012114430E+03  0.31081871800E+03  0.10566000000E+00 0. -1.
          4    1    1    2  501    0  0.25443370143E+03  0.12072408493E+03  0.13195305578E+04  0.13492485709E+04  0.00000000000E+00 0.  1.
</event>
<event>
 5    1  0.1008363E-004  0.6495462E+03  0.7818608E-02  0.9199569E-01
         -4   -1    0    0    0  501 -0.00000000000E+00  0.00000000000E+00  0.23934699466E+04  0.23934699466E+04  0.00000000000E+00 0. -1.
         21   -1    0    0  501  502  0.00000000000E+00 -0.00000000000E+00 -0.35445480191E+03  0.35445480191E+03  0.00000000000E+00 0.  1.
        -13    1    1    2    0    0 -0.31244667291E+02  0.58828475468E+03  0.11698859914E+04  0.13098429012E+04  0.10566000000E+00 0.  1.
         13    1    1    2    0    0  0.83796612518E+02 -0.85126190705E+03  0.53208494224E+03  0.10073644343E+04  0.10566000000E+00 0. -1.
         -4    1    1    2    0  502 -0.52551945226E+02  0.26297715237E+03  0.33704421109E+03  0.43071741298E+03  0.00000000000E+00 0. -1.
</event>
<event>
 5    1  0.1008363E-004  0.2829561E+03  0.7818608E-02  0.1064333E+00
         21   -1    0    0  501  502  0.00000000000E+00  0.00000000000E+00  0.15975702337E+03  0.15975702337E+03  0.00000000000E+00 0.  1.
          4   -1    0    0  502    0 -0.00000000000E+00 -0.00000000000E+00 -0.18301130609E+04  0.18301130609E+04  0.00000000000E+00 0.  1.
        -13    1    1    2    0    0  0.95738124866E+02 -0.27190153259E+03  0.17487388191E+01  0.28826949411E+03  0.10566000000E+00 0.  1.
         13    1    1    2    0    0 -0.26840094162E+02  0.56462212648E+02 -0.14595652944E+03  0.15878189998E+03  0.10566000000E+00 0. -1.
          4    1    1    2  501    0 -0.68898030704E+02  0.21543931995E+03 -0.15261482469E+04  0.15428186901E+04  0.00000000000E+00 0.  1.
</event>
<event>
 5    1  0.1008363E-004  0.3510970E+03  0.7818608E-02  0.9882003E-01
         21   -1    0    0  501  502  0.00000000000E+00  0.00000000000E+00  0.43542439138E+03  0.43542439138E+03  0.00000000000E+00 0.  1.
          4   -1    0    0  502    0 -0.00000000000E+00 -0.00000000000E+00 -0.72375681049E+03  0.72375681049E+03  0.00000000000E+00 0.  1.
        -13    1    1    2    0    0 -0.25534194513E+03 -0.28755815244E+03 -0.40302854262E+03  0.55706482326E+03  0.10566000000E+00 0.  1.
         13    1    1    2    0    0  0.16925367898E+03  0.25866496954E+03 -0.13433441632E+03  0.33704617027E+03  0.10566000000E+00 0. -1.
          4    1    1    2  501    0  0.86088266142E+02  0.28893182899E+02  0.24903053983E+03  0.26507020835E+03  0.00000000000E+00 0.  1.
</event>
<event>
 5    1  0.1008363E-004  0.1573515E+03  0.7818608E-02  0.1094080E+00
          4   -1    0    0  502    0 -0.00000000000E+00  0.00000000000E+00  0.18332730906E+03  0.18332730906E+03  0.00000000000E+00 0.  1.
         21   -1    0    0  501  502  0.00000000000E+00 -0.00000000000E+00 -0.17418253967E+03  0.17418253967E+03  0.00000000000E+00 0. -1.
        -13    1    1    2    0    0  0.11418045065E+03  0.11328836183E+03  0.75890285643E+02  0.17785042832E+03  0.10566000000E+00 0.  1.
         13    1    1    2    0    0 -0.10093253552E+03 -0.11141303682E+03 -0.50446800716E+02  0.15857216769E+03  0.10566000000E+00 0. -1.
          4    1    1    2  501    0 -0.13247915131E+02 -0.18753250042E+01 -0.16298715533E+02  0.21087252718E+02  0.00000000000E+00 0.  1.
</event>
<event>
 5    1  0.1008363E-004  0.4705403E+03  0.7818608E-02  0.9826308E-01
         21   -1    0    0  501  502  0.00000000000E+00  0.00000000000E+00  0.34313975047E+03  0.34313975047E+03  0.00000000000E+00 0. -1.
         -4   -1    0    0    0  501 -0.00000000000E+00 -0.00000000000E+00 -0.10140648875E+04  0.10140648875E+04  0.00000000000E+00 0. -1.
        -13    1    1    2    0    0  0.11276774047E+03  0.13517122990E+03 -0.69495089888E+02  0.18925486352E+03  0.10566000000E+00 0.  1.
         13    1    1    2    0    0 -0.73449986697E+02  0.42182003841E+03 -0.16349105751E+03  0.45831908360E+03  0.10566000000E+00 0. -1.
         -4    1    1    2    0  502 -0.39317753773E+02 -0.55699126831E+03 -0.43793898963E+03  0.70963069083E+03  0.00000000000E+00 0. -1.
</event>
<event>
 5    1  0.1008363E-004  0.5059310E+03  0.7818608E-02  0.9562748E-01
         -4   -1    0    0    0  501 -0.00000000000E+00  0.00000000000E+00  0.33463621279E+03  0.33463621279E+03  0.00000000000E+00 0. -1.
         21   -1    0    0  501  502  0.00000000000E+00 -0.00000000000E+00 -0.16439390217E+04  0.16439390217E+04  0.00000000000E+00 0. -1.
        -13    1    1    2    0    0  0.11035372919E+03 -0.33756653238E+03 -0.53974436929E+03  0.64610610945E+03  0.10566000000E+00 0.  1.
         13    1    1    2    0    0 -0.94439352284E+02  0.70379326508E+03 -0.59513614366E+03  0.92651540294E+03  0.10566000000E+00 0. -1.
         -4    1    1    2    0  502 -0.15914376902E+02 -0.36622673269E+03 -0.17442229592E+03  0.40595372205E+03  0.00000000000E+00 0. -1.
</event>
<event>
 5    1  0.1008363E-004  0.1776401E+03  0.7818608E-02  0.1084216E+00
         -4   -1    0    0    0  501 -0.00000000000E+00  0.00000000000E+00  0.14929020662E+04  0.14929020662E+04  0.00000000000E+00 0. -1.
         21   -1    0    0  501  502  0.00000000000E+00 -0.00000000000E+00 -0.21797972037E+03  0.21797972037E+03  0.00000000000E+00 0. -1.
        -13    1    1    2    0    0  0.80104243109E+02  0.11922672247E+03  0.20789528369E+02  0.14513413372E+03  0.10566000000E+00 0.  1.
         13    1    1    2    0    0 -0.24657514529E+03 -0.16771746678E+03  0.13396333758E+04  0.13724234199E+04  0.10566000000E+00 0. -1.
         -4    1    1    2    0  502  0.16647090218E+03  0.48490744310E+02 -0.85500558316E+02  0.19332423291E+03  0.00000000000E+00 0. -1.
</event>
<event>
 5    1  0.1008363E-004  0.1924508E+03  0.7818608E-02  0.1065438E+00
         21   -1    0    0  501  502  0.00000000000E+00  0.00000000000E+00  0.55732032946E+03  0.55732032946E+03  0.00000000000E+00 0. -1.
         -4   -1    0    0    0  501 -0.00000000000E+00 -0.00000000000E+00 -0.57313468626E+03  0.57313468626E+03  0.00000000000E+00 0. -1.
        -13    1    1    2    0    0  0.11989877733E+03  0.76547026220E+02 -0.12633624138E+03  0.19025251924E+03  0.10566000000E+00 0.  1.
         13    1    1    2    0    0 -0.20966515500E+03 -0.14540103547E+03 -0.36838380049E+03  0.44811558104E+03  0.10566000000E+00 0. -1.
         -4    1    1    2    0  502  0.89766377667E+02  0.68854009254E+02  0.47890568507E+03  0.49208691543E+03  0.00000000000E+00 0. -1.
</event>
<event>
 5    1  0.1008363E-004  0.1133051E+03  0.7818608E-02  0.1144242E+00
         21   -1    0    0  501  502  0.00000000000E+00  0.00000000000E+00  0.29749138749E+03  0.29749138749E+03  0.00000000000E+00 0. -1.
          4   -1    0    0  502    0 -0.00000000000E+00 -0.00000000000E+00 -0.12312980667E+03  0.12312980667E+03  0.00000000000E+00 0.  1.
        -13    1    1    2    0    0 -0.11128780105E+03  0.18632243416E+02 -0.75597729228E+02  0.13582033348E+03  0.10566000000E+00 0.  1.
         13    1    1    2    0    0  0.11792792291E+03 -0.47963545428E+01  0.23680655783E+03  0.26458903419E+03  0.10566000000E+00 0. -1.
          4    1    1    2  501    0 -0.66401218619E+01 -0.13835888873E+02  0.13152752229E+02  0.20211826500E+02  0.00000000000E+00 0.  1.
</event>
<event>
 5    1  0.1008363E-004  0.7240918E+02  0.7818608E-02  0.1277171E+00
         21   -1    0    0  501  502  0.00000000000E+00  0.00000000000E+00  0.26536851844E+03  0.26536851844E+03  0.00000000000E+00 0. -1.
         -4   -1    0    0    0  501 -0.00000000000E+00 -0.00000000000E+00 -0.74200950464E+02  0.74200950464E+02  0.00000000000E+00 0. -1.
        -13    1    1    2    0    0  0.11202005308E+02  0.18947525029E+02 -0.42962427469E+02  0.48272921662E+02  0.10566000000E+00 0.  1.
         13    1    1    2    0    0  0.42674211239E+02  0.52154013604E+02  0.16565807696E+03  0.17883998173E+03  0.10566000000E+00 0. -1.
         -4    1    1    2    0  502 -0.53876216547E+02 -0.71101538633E+02  0.68471918489E+02  0.11245656551E+03  0.00000000000E+00 0. -1.
</event>
<event>
 5    1  0.1008363E-004  0.4704456E+03  0.7818608E-02  0.9939568E-01
          4   -1    0    0  502    0 -0.00000000000E+00  0.00000000000E+00  0.21271054166E+04  0.21271054166E+04  0.00000000000E+00 0.  1.
         21   -1    0    0  501  502  0.00000000000E+00 -0.00000000000E+00 -0.14533305795E+03  0.14533305795E+03  0.00000000000E+00 0.  1.
        -13    1    1    2    0    0 -0.24878722882E+03  0.39742657108E+03  0.57865624010E+03  0.74477246189E+03  0.10566000000E+00 0.  1.
         13    1    1    2    0    0 -0.10150593684E+03 -0.64803500654E+02  0.25174259968E+03  0.27906504003E+03  0.10566000000E+00 0. -1.
          4    1    1    2  501    0  0.35029316566E+03 -0.33262307042E+03  0.11513735189E+04  0.12486009726E+04  0.00000000000E+00 0.  1.
</event>
<event>
 5    1  0.1008363E-004  0.5055328E+02  0.7818608E-02  0.1300927E+00
         -4   -1    0    0    0  501 -0.00000000000E+00  0.00000000000E+00  0.32329323088E+02  0.32329323088E+02  0.00000000000E+00 0. -1.
         21   -1    0    0  501  502  0.00000000000E+00 -0.00000000000E+00 -0.23077384097E+03  0.23077384097E+03  0.00000000000E+00 0. -1.
        -13    1    1    2    0    0  0.19138193517E+02  0.35666136557E+02 -0.67326675417E+02  0.78557215676E+02  0.10566000000E+00 0.  1.
         13    1    1    2    0    0 -0.22592106408E+02 -0.78044678391E+02 -0.57519479695E+02  0.99548364153E+02  0.10566000000E+00 0. -1.
         -4    1    1    2    0  502  0.34539128910E+01  0.42378541834E+02 -0.73598362767E+02  0.84997584226E+02  0.00000000000E+00 0. -1.
</event>
<event>
 5    1  0.1008363E-004  0.2002991E+03  0.7818608E-02  0.1095087E+00
         -4   -1    0    0    0  501 -0.00000000000E+00  0.00000000000E+00  0.23160031700E+03  0.23160031700E+03  0.00000000000E+00 0. -1.
         21   -1    0    0  501  502  0.00000000000E+00 -0.00000000000E+00 -0.11715188150E+04  0.11715188150E+04  0.00000000000E+00 0. -1.
        -13    1    1    2    0    0  0.66243053819E+02 -0.33454803961E+02 -0.14670511843E+02  0.75647876170E+02  0.10566000000E+00 0.  1.
         13    1    1    2    0    0 -0.13175877475E+03  0.22007264084E+03  0.10591797889E+03  0.27750850688E+03  0.10566000000E+00 0. -1.
         -4    1    1    2    0  502  0.65515720932E+02 -0.18661783688E+03 -0.10311659650E+04  0.10499627489E+04  0.00000000000E+00 0. -1.
</event>
<event>
 5    1  0.1008363E-004  0.2684762E+03  0.7818608E-02  0.1021239E+00
          4   -1    0    0  502    0 -0.00000000000E+00  0.00000000000E+00  0.22189360631E+04  0.22189360631E+04  0.00000000000E+00 0.  1.
         21   -1    0    0  501  502  0.00000000000E+00 -0.00000000000E+00 -0.23554951667E+03  0.23554951667E+03  0.00000000000E+00 0.  1.
        -13    1    1    2    0    0  0.16037915263E+03 -0.38317348645E+03  0.10958560251E+04  0.11719401999E+04  0.10566000000E+00 0.  1.
         13    1    1    2    0    0 -0.11964723154E+03  0.18829219055E+03  0.10195410408E+04  0.10436634295E+04  0.10566000000E+00 0. -1.
          4    1    1    2  501    0 -0.40731921092E+02  0.19488129590E+03 -0.13201051955E+03  0.23888195026E+03  0.00000000000E+00 0.  1.
</event>
<event>
 5    1  0.1008363E-004  0.2351084E+03  0.7818608E-02  0.1038412E+00
         21   -1    0    0  501  502  0.00000000000E+00  0.00000000000E+00  0.35916384060E+02  0.35916384060E+02  0.00000000000E+00 0.  1.
         -4   -1    0    0    0  501 -0.00000000000E+00 -0.00000000000E+00 -0.18345663547E+04  0.18345663547E+04  0.00000000000E+00 0. -1.
        -13    1    1    2    0    0 -0.15446402741E+03 -0.18238628284E+03 -0.68183422919E+03  0.72251077445E+03  0.10566000000E+00 0.  1.
         13    1    1    2    0    0  0.16200471686E+03  0.16741182706E+03 -0.10993450459E+04  0.11237578873E+04  0.10566000000E+00 0. -1.
         -4    1    1    2    0  502 -0.75406894495E+01  0.14974455779E+02 -0.17470695547E+02  0.24214077025E+02  0.00000000000E+00 0. -1.
</event>
<event>
 5    1  0.1008363E-004  0.4946640E+03  0.7818608E-02  0.9648112E-01
          4   -1    0    0  502    0 -0.00000000000E+00  0.00000000000E+00  0.66405892916E+03  0.66405892916E+03  0.00000000000E+00 0.  1.
         21   -1    0    0  501  502  0.00000000000E+00 -0.00000000000E+00 -0.69971660360E+03  0.69971660360E+03  0.00000000000E+00 0.  1.
        -13    1    1    2    0    0 -0.12024346334E+03  0.58131177144E+03 -0.28208226947E+03  0.65723076922E+03  0.10566000000E+00 0.  1.
         13    1    1    2    0    0  0.18821906961E+03 -0.20805174476E+03  0.13348023879E+03  0.31069105551E+03  0.10566000000E+00 0. -1.
          4    1    1    2  501    0 -0.67975606269E+02 -0.37326002668E+03  0.11294435624E+03  0.39585370804E+03  0.00000000000E+00 0.  1.
</event>
<event>
 5    1  0.1008363E-004  0.1751174E+03  0.7818608E-02  0.1109582E+00
          4   -1    0    0  502    0 -0.00000000000E+00  0.00000000000E+00  0.17595186859E+04  0.17595186859E+04  0.00000000000E+00 0.  1.
         21   -1    0    0  501  502  0.00000000000E+00 -0.00000000000E+00 -0.16468748006E+03  0.16468748006E+03  0.00000000000E+00 0.  1.
        -13    1    1    2    0    0 -0.16940147049E+03 -0.47117858542E+02 -0.10019072758E+03  0.20237377264E+03  0.10566000000E+00 0.  1.
         13    1    1    2    0    0  0.28352133364E+01  0.75054305704E+02  0.15148140825E+03  0.16907931703E+03  0.10566000000E+00 0. -1.
          4    1    1    2  501    0  0.16656625715E+03 -0.27936447163E+02  0.15435405251E+04  0.15527530762E+04  0.00000000000E+00 0.  1.
</event>
<event>
 5    1  0.1008363E-004  0.4667046E+03  0.7818608E-02  0.9756146E-01
          4   -1    0    0  502    0 -0.00000000000E+00  0.00000000000E+00  0.13668484367E+04  0.13668484367E+04  0.00000000000E+00 0.  1.
         21   -1    0    0  501  502  0.00000000000E+00 -0.00000000000E+00 -0.29126925012E+03  0.29126925012E+03  0.00000000000E+00 0.  1.
        -13    1    1    2    0    0  0.44133605931E+03  0.18755734563E+03  0.25022847403E+03  0.54089701009E+03  0.10566000000E+00 0.  1.
         13    1    1    2    0    0 -0.13876701512E+03  0.18258685181E+03  0.10396258604E+03  0.25179847776E+03  0.10566000000E+00 0. -1.
          4    1    1    2  501    0 -0.30256904420E+03 -0.37014419744E+03  0.72138812653E+03  0.86542219899E+03  0.00000000000E+00 0.  1.
</event>
<event>
 5    1  0.1008363E-004  0.4836127E+03  0.7818608E-02  0.9620130E-01
         -4   -1    0    0    0  501 -0.00000000000E+00  0.00000000000E+00  0.30481209394E+04  0.30481209394E+04  0.00000000000E+00 0. -1.
         21   -1    0    0  501  502  0.00000000000E+00 -0.00000000000E+00 -0.20494940849E+03  0.20494940849E+03  0.00000000000E+00 0. -1.
        -13    1    1    2    0    0  0.76885147505E+02 -0.32237568667E+03  0.15118632578E+04  0.15477622332E+04  0.10566000000E+00 0.  1.
         13    1    1    2    0    0  0.37702957366E+03 -0.18258602387E+02  0.94824113749E+03  0.10206105731E+04  0.10566000000E+00 0. -1.
         -4    1    1    2    0  502 -0.45391472117E+03  0.34063428906E+03  0.38306713565E+03  0.68469754153E+03  0.00000000000E+00 0. -1.
</event>
<event>
 5    1  0.1008363E-004  0.4785535E+03  0.7818608E-02  0.9928027E-01
          4   -1    0    0  502    0 -0.00000000000E+00  0.00000000000E+00  0.40896915591E+03  0.40896915591E+03  0.00000000000E+00 0.  1.
         21   -1    0    0  501  502  0.00000000000E+00 -0.00000000000E+00 -0.16273500047E+04  0.16273500047E+04  0.00000000000E+00 0.  1.
        -13    1    1    2    0    0  0.10241802177E+03 -0.44835766120E+03 -0.89025492724E+03  0.10020318808E+04  0.10566000000E+00 0.  1.
         13    1    1    2    0    0  0.11672674521E+03 -0.22534850646E+02  0.23797688487E+03  0.26601872385E+03  0.10566000000E+00 0. -1.
          4    1    1    2  501    0 -0.21914476698E+03  0.47089251185E+03 -0.56610280644E+03  0.76826855596E+03  0.00000000000E+00 0.  1.
</event>
<event>
 5    1  0.1008363E-004  0.1569119E+03  0.7818608E-02  0.1094488E+00
         21   -1    0    0  501  502  0.00000000000E+00  0.00000000000E+00  0.72875341480E+02  0.72875341480E+02  0.00000000000E+00 0. -1.
          4   -1    0    0  502    0 -0.00000000000E+00 -0.00000000000E+00 -0.58011630371E+03  0.58011630371E+03  0.00000000000E+00 0.  1.
        -13    1    1    2    0    0 -0.16643603395E+03  0.34755919458E+02 -0.28896371626E+03  0.33527446639E+03  0.10566000000E+00 0.  1.
         13    1    1    2    0    0  0.14701252011E+03  0.11213473711E+02 -0.22327466331E+03  0.26756309443E+03  0.10566000000E+00 0. -1.
          4    1    1    2  501    0  0.19423513836E+02 -0.45969393169E+02  0.49974173432E+01  0.50154084362E+02  0.00000000000E+00 0.  1.
</event>
<event>
 5    1  0.1008363E-004  0.3147056E+03  0.7818608E-02  0.1001413E+00
         -4   -1    0    0    0  501 -0.00000000000E+00  0.00000000000E+00  0.18132646297E+04  0.18132646297E+04  0.00000000000E+00 0. -1.
         21   -1    0    0  501  502  0.00000000000E+00 -0.00000000000E+00 -0.17335863294E+03  0.17335863294E+03  0.00000000000E+00 0.  1.
        -13    1    1    2    0    0  0.11641236040E+02 -0.30002477024E+03  0.89187648556E+02  0.31321690400E+03  0.10566000000E+00 0.  1.
         13    1    1    2    0    0  0.65306918722E+01  0.31671570619E+03  0.15931407074E+04  0.16243302660E+04  0.10566000000E+00 0. -1.
         -4    1    1    2    0  502 -0.18171927912E+02 -0.16690935950E+02 -0.42422359176E+02  0.49076092601E+02  0.00000000000E+00 0. -1.
</event>
<event>
 5    1  0.1008363E-004  0.4877416E+03  0.7818608E-02  0.9982854E-01
         -4   -1    0    0    0  501 -0.00000000000E+00  0.00000000000E+00  0.13134600326E+04  0.13134600326E+04  0.00000000000E+00 0. -1.
         21   -1    0    0  501  502  0.00000000000E+00 -0.00000000000E+00 -0.29115092829E+03  0.29115092829E+03  0.00000000000E+00 0. -1.
        -13    1    1    2    0    0 -0.63817446642E+01  0.93448178107E+02  0.46972301549E+03  0.47897078314E+03  0.10566000000E+00 0.  1.
         13    1    1    2    0    0  0.48964011663E+03 -0.78726653009E+02  0.25128658621E+03  0.55595889171E+03  0.10566000000E+00 0. -1.
         -4    1    1    2    0  502 -0.48325837196E+03 -0.14721525098E+02  0.30129950259E+03  0.56968128601E+03  0.00000000000E+00 0. -1.
</event>
<event>
 5    1  0.1008363E-004  0.2507238E+03  0.7818608E-02  0.1030018E+00
         21   -1    0    0  501  502  0.00000000000E+00  0.00000000000E+00  0.93080668698E+03  0.93080668698E+03  0.00000000000E+00 0.  1.
         -4   -1    0    0    0  501 -0.00000000000E+00 -0.00000000000E+00 -0.89031458004E+02  0.89031458004E+02  0.00000000000E+00 0. -1.
        -13    1    1    2    0    0  0.23770141148E+03 -0.50164888193E+02  0.55743626322E+03  0.60807374203E+03  0.10566000000E+00 0.  1.
         13    1    1    2    0    0 -0.25032453071E+03  0.44113285805E+02  0.19245900213E+03  0.31882413856E+03  0.10566000000E+00 0. -1.
         -4    1    1    2    0  502  0.12623119235E+02  0.60516023882E+01  0.91879963626E+02  0.92940264400E+02  0.00000000000E+00 0. -1.
</event>
<event>
 5    1  0.1008363E-004  0.4020799E+03  0.7818608E-02  0.9905190E-01
         -4   -1    0    0    0  501 -0.00000000000E+00  0.00000000000E+00  0.39866346267E+03  0.39866346267E+03  0.00000000000E+00 0. -1.
         21   -1    0    0  501  502  0.00000000000E+00 -0.00000000000E+00 -0.74015114758E+03  0.74015114758E+03  0.00000000000E+00 0. -1.
        -13    1    1    2    0    0 -0.12914457888E+03 -0.17350407246E+03  0.43026166445E+02  0.22052947099E+03  0.10566000000E+00 0.  1.
         13    1    1    2    0    0  0.18357033641E+03  0.47664289928E+03 -0.32266144716E+03  0.60414976826E+03  0.10566000000E+00 0. -1.
         -4    1    1    2    0  502 -0.54425757529E+02 -0.30313882682E+03 -0.61852404196E+02  0.31413537100E+03  0.00000000000E+00 0. -1.
</event>
<event>
 5    1  0.1008363E-004  0.4731073E+03  0.7818608E-02  0.9715681E-01
         21   -1    0    0  501  502  0.00000000000E+00  0.00000000000E+00  0.33415010300E+03  0.33415010300E+03  0.00000000000E+00 0. -1.
         -4   -1    0    0    0  501 -0.00000000000E+00 -0.00000000000E+00 -0.17874462091E+04  0.17874462091E+04  0.00000000000E+00 0. -1.
        -13    1    1    2    0    0 -0.25300543979E+03  0.10253229340E+02 -0.96369559338E+03  0.99640658826E+03  0.10566000000E+00 0.  1.
         13    1    1    2    0    0 -0.15852231369E+03 -0.35642595409E+03 -0.43557641464E+03  0.58471840132E+03  0.10566000000E+00 0. -1.
         -4    1    1    2    0  502  0.41152775348E+03  0.34617272475E+03 -0.54024098039E+02  0.54047132247E+03  0.00000000000E+00 0. -1.
</event>
<event>
 5    1  0.1008363E-004  0.4822663E+02  0.7818608E-02  0.1299182E+00
         21   -1    0    0  501  502  0.00000000000E+00  0.00000000000E+00  0.40090900229E+02  0.40090900229E+02  0.00000000000E+00 0.  1.
          4   -1    0    0  502    0 -0.00000000000E+00 -0.00000000000E+00 -0.14776354575E+03  0.14776354575E+03  0.00000000000E+00 0.  1.
        -13    1    1    2    0    0 -0.13774891970E+01 -0.60415876055E+02 -0.84288499311E+02  0.10371373022E+03  0.10566000000E+00 0.  1.
         13    1    1    2    0    0 -0.16374168786E+02  0.35714029901E+02 -0.33964290947E+02  0.51934473703E+02  0.10566000000E+00 0. -1.
          4    1    1    2  501    0  0.17751657983E+02  0.24701846155E+02  0.10580144738E+02  0.32206242055E+02  0.00000000000E+00 0.  1.
</event>
<event>
 5    1  0.1008363E-004  0.5152294E+03  0.7818608E-02  0.9851226E-01
          4   -1    0    0  502    0 -0.00000000000E+00  0.00000000000E+00  0.10626684202E+04  0.10626684202E+04  0.00000000000E+00 0.  1.
         21   -1    0    0  501  502  0.00000000000E+00 -0.00000000000E+00 -0.72143509860E+03  0.72143509860E+03  0.00000000000E+00 0.  1.
        -13    1    1    2    0    0 -0.54883346589E+03  0.22990015096E+01 -0.40904750743E+03  0.68450225214E+03  0.10566000000E+00 0.  1.
         13    1    1    2    0    0  0.10707989440E+03  0.60994345982E+02  0.62366299606E+03  0.63572160404E+03  0.10566000000E+00 0. -1.
          4    1    1    2  501    0  0.44175357149E+03 -0.63293347492E+02  0.12661783298E+03  0.46387966262E+03  0.00000000000E+00 0.  1.
</event>
<event>
 5    1  0.1008363E-004  0.4340550E+03  0.7818608E-02  0.9822078E-01
         -4   -1    0    0    0  501 -0.00000000000E+00  0.00000000000E+00  0.34610676326E+04  0.34610676326E+04  0.00000000000E+00 0. -1.
         21   -1    0    0  501  502  0.00000000000E+00 -0.00000000000E+00 -0.44367567569E+03  0.44367567569E+03  0.00000000000E+00 0. -1.
        -13    1    1    2    0    0  0.14873559602E+03  0.17215397071E+03  0.10021259700E+03  0.24859976452E+03  0.10566000000E+00 0.  1.
         13    1    1    2    0    0 -0.55891840680E+03 -0.42115748018E+02  0.31274036762E+04  0.31772342196E+04  0.10566000000E+00 0. -1.
         -4    1    1    2    0  502  0.41018281078E+03 -0.13003822269E+03 -0.21022431622E+03  0.47890932414E+03  0.00000000000E+00 0. -1.
</event>
<event>
 5    1  0.1008363E-004  0.4725909E+03  0.7818608E-02  0.1000442E+00
          4   -1    0    0  502    0 -0.00000000000E+00  0.00000000000E+00  0.17698784008E+04  0.17698784008E+04  0.00000000000E+00 0.  1.
         21   -1    0    0  501  502  0.00000000000E+00 -0.00000000000E+00 -0.19369094422E+03  0.19369094422E+03  0.00000000000E+00 0.  1.
        -13    1    1    2    0    0  0.15438131783E+03 -0.47803418344E+03  0.30705836398E+03  0.58875726908E+03  0.10566000000E+00 0.  1.
         13    1    1    2    0    0 -0.58998793019E+02  0.75642534575E+02  0.41356681821E+03  0.42454702319E+03  0.10566000000E+00 0. -1.
          4    1    1    2  501    0 -0.95382524815E+02  0.40239164887E+03  0.85556227440E+03  0.95026505276E+03  0.00000000000E+00 0.  1.
</event>
<event>
 5    1  0.1008363E-004  0.6303729E+03  0.7818608E-02  0.9230606E-01
          4   -1    0    0  502    0 -0.00000000000E+00  0.00000000000E+00  0.15171803237E+04  0.15171803237E+04  0.00000000000E+00 0.  1.
         21   -1    0    0  501  502  0.00000000000E+00 -0.00000000000E+00 -0.72991828292E+03  0.72991828292E+03  0.00000000000E+00 0.  1.
        -13    1    1    2    0    0  0.65093364081E+03 -0.21947691334E+03  0.21700290032E+03  0.72039918805E+03  0.10566000000E+00 0.  1.
         13    1    1    2    0    0 -0.62088361612E+03 -0.13242134723E+03  0.86065246223E+03  0.10694646090E+04  0.10566000000E+00 0. -1.
          4    1    1    2  501    0 -0.30050024694E+02  0.35189826057E+03 -0.29039332176E+03  0.45723480959E+03  0.00000000000E+00 0.  1.
</event>
<event>
 5    1  0.1008363E-004  0.4983287E+03  0.7818608E-02  0.9828036E-01
         21   -1    0    0  501  502  0.00000000000E+00  0.00000000000E+00  0.16036782394E+04  0.16036782394E+04  0.00000000000E+00 0.  1.
          4   -1    0    0  502    0 -0.00000000000E+00 -0.00000000000E+00 -0.23075875820E+03  0.23075875820E+03  0.00000000000E+00 0.  1.
        -13    1    1    2    0    0  0.42814989772E+03 -0.65445254998E+00  0.35740586550E+03  0.55772011537E+03  0.10566000000E+00 0.  1.
         13    1    1    2    0    0  0.11611001999E+03  0.90689462593E+02  0.34627483975E+02  0.15134460406E+03  0.10566000000E+00 0. -1.
          4    1    1    2  501    0 -0.54425991771E+03 -0.90035010043E+02  0.98088613167E+03  0.11253722781E+04  0.00000000000E+00 0.  1.
</event>
<event>
 5    1  0.1008363E-004  0.4354063E+03  0.7818608E-02  0.9898452E-01
          4   -1    0    0  502    0 -0.00000000000E+00  0.00000000000E+00  0.96331045871E+03  0.96331045871E+03  0.00000000000E+00 0.  1.
         21   -1    0    0  501  502  0.00000000000E+00 -0.00000000000E+00 -0.36784533265E+03  0.36784533265E+03  0.00000000000E+00 0.  1.
        -13    1    1    2    0    0 -0.33453667543E+03 -0.19799403815E+03  0.13215499540E+02  0.38896154944E+03  0.10566000000E+00 0.  1.
         13    1    1    2    0    0 -0.16285140544E+03 -0.61880232727E+02  0.18835606838E+03  0.25656921701E+03  0.10566000000E+00 0. -1.
          4    1    1    2  501    0  0.49738808087E+03  0.25987427088E+03  0.39389355813E+03  0.68562502492E+03  0.00000000000E+00 0.  1.
</event>
<event>
 5    1  0.1008363E-004  0.5064007E+03  0.7818608E-02  0.9612490E-01
          4   -1    0    0  502    0 -0.00000000000E+00  0.00000000000E+00  0.28274802890E+04  0.28274802890E+04  0.00000000000E+00 0.  1.
         21   -1    0    0  501  502  0.00000000000E+00 -0.00000000000E+00 -0.22978092080E+03  0.22978092080E+03  0.00000000000E+00 0. -1.
        -13    1    1    2    0    0 -0.37021545562E+03 -0.31235198954E+03  0.14771815398E+04  0.15545702176E+04  0.10566000000E+00 0.  1.
         13    1    1    2    0    0  0.20073594423E+03 -0.21832899909E+03  0.56872599336E+02  0.30198836876E+03  0.10566000000E+00 0. -1.
          4    1    1    2  501    0  0.16947951139E+03  0.53068098863E+03  0.10636452291E+04  0.12007026234E+04  0.00000000000E+00 0.  1.
</event>
<event>
 5    1  0.1008363E-004  0.8704383E+03  0.7818608E-02  0.8906893E-01
         21   -1    0    0  501  502  0.00000000000E+00  0.00000000000E+00  0.51781749640E+03  0.51781749640E+03  0.00000000000E+00 0. -1.
          4   -1    0    0  502    0 -0.00000000000E+00 -0.00000000000E+00 -0.19213274385E+04  0.19213274385E+04  0.00000000000E+00 0.  1.
        -13    1    1    2    0    0 -0.59853462228E+03 -0.69338157538E+03 -0.96889773202E+03  0.13333358652E+04  0.10566000000E+00 0.  1.
         13    1    1    2    0    0  0.40051214160E+03  0.71029431572E+03 -0.38045519828E+03  0.89981895934E+03  0.10566000000E+00 0. -1.
          4    1    1    2  501    0  0.19802248068E+03 -0.16912740342E+02 -0.54157011804E+02  0.20599011037E+03  0.00000000000E+00 0.  1.
</event>
<event>
 5    1  0.1008363E-004  0.6951985E+02  0.7818608E-02  0.1293080E+00
         21   -1    0    0  501  502  0.00000000000E+00  0.00000000000E+00  0.89087019576E+02  0.89087019576E+02  0.00000000000E+00 0. -1.
         -4   -1    0    0    0  501 -0.00000000000E+00 -0.00000000000E+00 -0.20834449333E+03  0.20834449333E+03  0.00000000000E+00 0. -1.
        -13    1    1    2    0    0  0.17765767378E+02  0.36445503841E+01  0.37700199817E+02  0.41835648296E+02  0.10566000000E+00 0.  1.
         13    1    1    2    0    0  0.54223742406E+02 -0.27576616621E+01 -0.17343892008E+03  0.18173851848E+03  0.10566000000E+00 0. -1.
         -4    1    1    2    0  502 -0.71989509784E+02 -0.88688872202E+00  0.16481246506E+02  0.73857346127E+02  0.00000000000E+00 0. -1.
</event>
<event>
 5    1  0.1008363E-004  0.4601845E+03  0.7818608E-02  0.9571166E-01
         21   -1    0    0  501  502  0.00000000000E+00  0.00000000000E+00  0.42862845064E+03  0.42862845064E+03  0.00000000000E+00 0.  1.
          4   -1    0    0  502    0 -0.00000000000E+00 -0.00000000000E+00 -0.27005879717E+04  0.27005879717E+04  0.00000000000E+00 0.  1.
        -13    1    1    2    0    0  0.21060316756E+03 -0.14002735222E+03 -0.49206315046E+03  0.55325175893E+03  0.10566000000E+00 0.  1.
         13    1    1    2    0    0  0.34995398255E+03  0.30058181600E+03 -0.19213492604E+04  0.19759555182E+04  0.10566000000E+00 0. -1.
          4    1    1    2  501    0 -0.56055715010E+03 -0.16055446378E+03  0.14145288982E+03  0.60000914527E+03  0.00000000000E+00 0.  1.
</event>
<event>
 5    1  0.1008363E-004  0.3900639E+03  0.7818608E-02  0.9782241E-01
          4   -1    0    0  502    0 -0.00000000000E+00  0.00000000000E+00  0.23835018939E+04  0.23835018939E+04  0.00000000000E+00 0.  1.
         21   -1    0    0  501  502  0.00000000000E+00 -0.00000000000E+00 -0.26726289332E+03  0.26726289332E+03  0.00000000000E+00 0.  1.
        -13    1    1    2    0    0 -0.32613749736E+03  0.20489014629E+03  0.12446510713E+04  0.13028821664E+04  0.10566000000E+00 0.  1.
         13    1    1    2    0    0  0.45105921284E+03  0.18195194871E+03  0.79833055116E+03  0.93482223187E+03  0.10566000000E+00 0. -1.
          4    1    1    2  501    0 -0.12492171548E+03 -0.38684209500E+03  0.73257378175E+02  0.41306038895E+03  0.00000000000E+00 0.  1.
</event>
<event>
 5    1  0.1008363E-004  0.1248436E+03  0.7818608E-02  0.1128959E+00
         21   -1    0    0  501  502  0.00000000000E+00  0.00000000000E+00  0.13245918315E+03  0.13245918315E+03  0.00000000000E+00 0.  1.
         -4   -1    0    0    0  501 -0.00000000000E+00 -0.00000000000E+00 -0.35599576319E+03  0.35599576319E+03  0.00000000000E+00 0. -1.
        -13    1    1    2    0    0 -0.84506342529E+02 -0.68509402559E+02 -0.88978917777E+02  0.14054223258E+03  0.10566000000E+00 0.  1.
         13    1    1    2    0    0  0.11874405607E+03  0.70034702684E+02 -0.21787245365E+03  0.25782441245E+03  0.10566000000E+00 0. -1.
         -4    1    1    2    0  502 -0.34237713537E+02 -0.15253001254E+01  0.83314791391E+02  0.90088301312E+02  0.00000000000E+00 0. -1.
</event>
<event>
 5    1  0.1008363E-004  0.7640377E+02  0.7818608E-02  0.1210862E+00
          4   -1    0    0  502    0 -0.00000000000E+00  0.00000000000E+00  0.59254482902E+02  0.59254482902E+02  0.00000000000E+00 0.  1.
         21   -1    0    0  501  502  0.00000000000E+00 -0.00000000000E+00 -0.25648939673E+03  0.25648939673E+03  0.00000000000E+00 0. -1.
        -13    1    1    2    0    0  0.82374772188E+01  0.78437694884E+02  0.21179190272E+02  0.81663316576E+02  0.10566000000E+00 0.  1.
         13    1    1    2    0    0 -0.12649793698E+02 -0.59419156591E+02 -0.19097220279E+03  0.20040221270E+03  0.10566000000E+00 0. -1.
          4    1    1    2  501    0  0.44123164793E+01 -0.19018538293E+02 -0.27441901308E+02  0.33678350360E+02  0.00000000000E+00 0.  1.
</event>
<event>
 5    1  0.1008363E-004  0.2220103E+02  0.7818608E-02  0.1481359E+00
         21   -1    0    0  501  502  0.00000000000E+00  0.00000000000E+00  0.10803255755E+02  0.10803255755E+02  0.00000000000E+00 0.  1.
          4   -1    0    0  502    0 -0.00000000000E+00 -0.00000000000E+00 -0.18555909390E+03  0.18555909390E+03  0.00000000000E+00 0.  1.
        -13    1    1    2    0    0  0.14642934745E+02 -0.23539061282E+02 -0.14699891010E+03  0.14959008549E+03  0.10566000000E+00 0.  1.
         13    1    1    2    0    0 -0.58050588237E+01  0.13695714626E+02 -0.29876349158E+02  0.33374821500E+02  0.10566000000E+00 0. -1.
          4    1    1    2  501    0 -0.88378759215E+01  0.98433466553E+01  0.21194211058E+01  0.13397442667E+02  0.00000000000E+00 0.  1.
</event>
<event>
 5    1  0.1008363E-004  0.5138188E+03  0.7818608E-02  0.9448188E-01
         21   -1    0    0  501  502  0.00000000000E+00  0.00000000000E+00  0.19270104343E+04  0.19270104343E+04  0.00000000000E+00 0.  1.
         -4   -1    0    0    0  501 -0.00000000000E+00 -0.00000000000E+00 -0.18491467284E+03  0.18491467284E+03  0.00000000000E+00 0. -1.
        -13    1    1    2    0    0 -0.34293974249E+03  0.34377001853E+03  0.63260422908E+03  0.79747953857E+03  0.10566000000E+00 0.  1.
         13    1    1    2    0    0  0.37611809766E+03 -0.39127877606E+03  0.63033128055E+03  0.83179410817E+03  0.10566000000E+00 0. -1.
         -4    1    1    2    0  502 -0.33178355166E+02  0.47508757529E+02  0.47916025188E+03  0.48265146045E+03  0.00000000000E+00 0. -1.
</event>
<event>
 5    1  0.1008363E-004  0.6018701E+03  0.7818608E-02  0.9399089E-01
         -4   -1    0    0    0  501 -0.00000000000E+00  0.00000000000E+00  0.30272039284E+04  0.30272039284E+04  0.00000000000E+00 0. -1.
         21   -1    0    0  501  502  0.00000000000E+00 -0.00000000000E+00 -0.44627837573E+03  0.44627837573E+03  0.00000000000E+00 0.  1.
        -13    1    1    2    0    0  0.69060464094E+03  0.30331765025E+03  0.18917249970E+04  0.20365558776E+04  0.10566000000E+00 0.  1.
         13    1    1    2    0    0  0.12476025542E+03 -0.41912401500E+03  0.23624922787E+03  0.49703497876E+03  0.10566000000E+00 0. -1.
         -4    1    1    2    0  502 -0.81536489635E+03  0.11580636475E+03  0.45295132785E+03  0.93989144784E+03  0.00000000000E+00 0. -1.
</event>
<event>
 5    1  0.1008363E-004  0.3556172E+03  0.7818608E-02  0.9889097E-01
         21   -1    0    0  501  502  0.00000000000E+00  0.00000000000E+00  0.28741596807E+03  0.28741596807E+03  0.00000000000E+00 0. -1.
         -4   -1    0    0    0  501 -0.00000000000E+00 -0.00000000000E+00 -0.18194561240E+04  0.18194561240E+04  0.00000000000E+00 0. -1.
        -13    1    1    2    0    0 -0.26416260285E+03  0.19766714606E+03 -0.59283264612E+03  0.67845761758E+03  0.10566000000E+00 0.  1.
         13    1    1    2    0    0  0.26256698790E+03  0.18388460149E+03 -0.99265937759E+03  0.10431335585E+04  0.10566000000E+00 0. -1.
         -4    1    1    2    0  502  0.15956149567E+01 -0.38155174754E+03  0.53451867800E+02  0.38528091597E+03  0.00000000000E+00 0. -1.
</event>
<event>
 5    1  0.1008363E-004  0.4761109E+03  0.7818608E-02  0.9678544E-01
         -4   -1    0    0    0  501 -0.00000000000E+00  0.00000000000E+00  0.33065746358E+03  0.33065746358E+03  0.00000000000E+00 0. -1.
         21   -1    0    0  501  502  0.00000000000E+00 -0.00000000000E+00 -0.13220798187E+04  0.13220798187E+04  0.00000000000E+00 0. -1.
        -13    1    1    2    0    0  0.26350287020E+03  0.10260883553E+03 -0.71554915226E+02  0.29168896584E+03  0.10566000000E+00 0.  1.
         13    1    1    2    0    0  0.21079957622E+03 -0.39327572980E+03 -0.43388492466E+03  0.62238123365E+03  0.10566000000E+00 0. -1.
         -4    1    1    2    0  502 -0.47430244643E+03  0.29066689427E+03 -0.48598251525E+03  0.73866708282E+03  0.00000000000E+00 0. -1.
</event>
<event>
 5    1  0.1008363E-004  0.2792342E+03  0.7818608E-02  0.1016265E+00
         21   -1    0    0  501  502  0.00000000000E+00  0.00000000000E+00  0.42033605806E+03  0.42033605806E+03  0.00000000000E+00 0. -1.
         -4   -1    0    0    0  501 -0.00000000000E+00 -0.00000000000E+00 -0.80349260343E+03  0.80349260343E+03  0.00000000000E+00 0. -1.
        -13    1    1    2    0    0  0.25587000567E+02 -0.20777072500E+03  0.16452612696E+02  0.20998587665E+03  0.10566000000E+00 0.  1.
         13    1    1    2    0    0  0.49778591151E+02  0.29739779099E+03 -0.66148873004E+03  0.72697366208E+03  0.10566000000E+00 0. -1.
         -4    1    1    2    0  502 -0.75365591718E+02 -0.89627065997E+02  0.26187957197E+03  0.28686912275E+03  0.00000000000E+00 0. -1.
</event>
<event>
 5    1  0.1008363E-004  0.2139626E+03  0.7818608E-02  0.1050964E+00
          4   -1    0    0  502    0 -0.00000000000E+00  0.00000000000E+00  0.16451433715E+04  0.16451433715E+04  0.00000000000E+00 0.  1.
         21   -1    0    0  501  502  0.00000000000E+00 -0.00000000000E+00 -0.36075681204E+02  0.36075681204E+02  0.00000000000E+00 0. -1.
        -13    1    1    2    0    0 -0.18983820531E+03  0.97453375671E+02  0.93279477094E+03  0.95689173917E+03  0.10566000000E+00 0.  1.
         13    1    1    2    0    0  0.18199648006E+03 -0.11494831648E+03  0.67064840128E+03  0.70434730320E+03  0.10566000000E+00 0. -1.
          4    1    1    2  501    0  0.78417252571E+01  0.17494940810E+02  0.56245180471E+01  0.19980010316E+02  0.00000000000E+00 0.  1.
</event>
<event>
 5    1  0.1008363E-004  0.1499226E+03  0.7818608E-02  0.1101188E+00
         21   -1    0    0  501  502  0.00000000000E+00  0.00000000000E+00  0.63546446813E+03  0.63546446813E+03  0.00000000000E+00 0. -1.
         -4   -1    0    0    0  501 -0.00000000000E+00 -0.00000000000E+00 -0.13789719085E+03  0.13789719085E+03  0.00000000000E+00 0. -1.
        -13    1    1    2    0    0 -0.79777322101E+02  0.86943460654E+02  0.57556542559E+02  0.13128729271E+03  0.10566000000E+00 0.  1.
         13    1    1    2    0    0  0.12620586097E+03 -0.12353581334E+03 -0.20495373112E+02  0.17778944852E+03  0.10566000000E+00 0. -1.
         -4    1    1    2    0  502 -0.46428538866E+02  0.36592352691E+02  0.46050610784E+03  0.46428491775E+03  0.00000000000E+00 0. -1.
</event>
<event>
 5    1  0.1008363E-004  0.7109616E+03  0.7818608E-02  0.9107227E-01
          4   -1    0    0  502    0 -0.00000000000E+00  0.00000000000E+00  0.21883480764E+04  0.21883480764E+04  0.00000000000E+00 0.  1.
         21   -1    0    0  501  502  0.00000000000E+00 -0.00000000000E+00 -0.51020924143E+03  0.51020924143E+03  0.00000000000E+00 0. -1.
        -13    1    1    2    0    0  0.71545584516E+03  0.69890503903E+01  0.57946443345E+03  0.92070894098E+03  0.10566000000E+00 0.  1.
         13    1    1    2    0    0 -0.66786753550E+03 -0.29469373448E+03  0.12513292559E+04  0.14486947091E+04  0.10566000000E+00 0. -1.
          4    1    1    2  501    0 -0.47588309661E+02  0.28770468409E+03 -0.15265485440E+03  0.32915366782E+03  0.00000000000E+00 0.  1.
</event>
<event>
 5    1  0.1008363E-004  0.4745771E+03  0.7818608E-02  0.9715291E-01
          4   -1    0    0  502    0 -0.00000000000E+00  0.00000000000E+00  0.16779933577E+04  0.16779933577E+04  0.00000000000E+00 0.  1.
         21   -1    0    0  501  502  0.00000000000E+00 -0.00000000000E+00 -0.38599005365E+03  0.38599005365E+03  0.00000000000E+00 0.  1.
        -13    1    1    2    0    0 -0.46643605507E+03  0.47508527320E+02  0.35080520390E+03  0.58556293930E+03  0.10566000000E+00 0.  1.
         13    1    1    2    0    0  0.60221436005E+02  0.24388215285E+03  0.94568541187E+03  0.97848149457E+03  0.10566000000E+00 0. -1.
          4    1    1    2  501    0  0.40621461906E+03 -0.29139068017E+03 -0.44873117142E+01  0.49993897747E+03  0.00000000000E+00 0.  1.
</event>
<event>
 5    1  0.1008363E-004  0.1858110E+03  0.7818608E-02  0.1070324E+00
         21   -1    0    0  501  502  0.00000000000E+00  0.00000000000E+00  0.93126050207E+03  0.93126050207E+03  0.00000000000E+00 0. -1.
          4   -1    0    0  502    0 -0.00000000000E+00 -0.00000000000E+00 -0.13828757413E+03  0.13828757413E+03  0.00000000000E+00 0.  1.
        -13    1    1    2    0    0  0.18327065344E+03 -0.15009576869E+02  0.12339006324E+03  0.22144646910E+03  0.10566000000E+00 0.  1.
         13    1    1    2    0    0 -0.18663864215E+03 -0.28381351657E+02  0.12091156908E+02  0.18917106307E+03  0.10566000000E+00 0. -1.
          4    1    1    2  501    0  0.33679887109E+01  0.43390928526E+02  0.65749170779E+03  0.65893054402E+03  0.00000000000E+00 0.  1.
</event>
<event>
 5    1  0.1008363E-004  0.5372052E+03  0.7818608E-02  0.9399953E-01
          4   -1    0    0  502    0 -0.00000000000E+00  0.00000000000E+00  0.17519771200E+04  0.17519771200E+04  0.00000000000E+00 0.  1.
         21   -1    0    0  501  502  0.00000000000E+00 -0.00000000000E+00 -0.58262531645E+03  0.58262531645E+03  0.00000000000E+00 0.  1.
        -13    1    1    2    0    0 -0.58581319836E+03 -0.43015943590E+03  0.16663833064E+03  0.74564239959E+03  0.10566000000E+00 0.  1.
         13    1    1    2    0    0  0.51512835401E+03  0.36623228116E+02  0.10656615190E+04  0.11842014044E+04  0.10566000000E+00 0. -1.
          4    1    1    2  501    0  0.70684844349E+02  0.39353620779E+03 -0.62948046073E+02  0.40475863247E+03  0.00000000000E+00 0.  1.
</event>
<event>
 5    1  0.1008363E-004  0.2314919E+02  0.7818608E-02  0.1501926E+00
          4   -1    0    0  502    0 -0.00000000000E+00  0.00000000000E+00  0.28450230104E+02  0.28450230104E+02  0.00000000000E+00 0.  1.
         21   -1    0    0  501  502  0.00000000000E+00 -0.00000000000E+00 -0.55886227224E+02  0.55886227224E+02  0.00000000000E+00 0.  1.
        -13    1    1    2    0    0  0.13645165950E+02 -0.30832882786E+02 -0.32716801317E+01  0.33875836072E+02  0.10566000000E+00 0.  1.
         13    1    1    2    0    0 -0.10311356928E+02  0.10142864905E+02  0.43218321901E+01  0.15096065305E+02  0.10566000000E+00 0. -1.
          4    1    1    2  501    0 -0.33338090222E+01  0.20690017880E+02 -0.28486149179E+02  0.35364555949E+02  0.00000000000E+00 0.  1.
</event>
<event>
 5    1  0.1008363E-004  0.2520277E+02  0.7818608E-02  0.1448164E+00
         21   -1    0    0  501  502  0.00000000000E+00  0.00000000000E+00  0.12699464676E+03  0.12699464676E+03  0.00000000000E+00 0. -1.
          4   -1    0    0  502    0 -0.00000000000E+00 -0.00000000000E+00 -0.13581066671E+02  0.13581066671E+02  0.00000000000E+00 0.  1.
        -13    1    1    2    0    0  0.13116344313E+02 -0.22832729086E+02  0.54933225529E+01  0.26899066199E+02  0.10566000000E+00 0.  1.
         13    1    1    2    0    0 -0.53238852071E+00  0.22925845763E+02  0.63773168949E+02  0.67770982606E+02  0.10566000000E+00 0. -1.
          4    1    1    2  501    0 -0.12583955792E+02 -0.93116677319E-01  0.44147088587E+02  0.45905664626E+02  0.00000000000E+00 0.  1.
</event>
<event>
 5    1  0.1008363E-004  0.4852692E+03  0.7818608E-02  0.9937284E-01
         21   -1    0    0  501  502  0.00000000000E+00  0.00000000000E+00  0.21436671428E+03  0.21436671428E+03  0.00000000000E+00 0.  1.
          4   -1    0    0  502    0 -0.00000000000E+00 -0.00000000000E+00 -0.14541789966E+04  0.14541789966E+04  0.00000000000E+00 0.  1.
        -13    1    1    2    0    0  0.18361846290E+03  0.49122866548E+03 -0.39604940718E+03  0.65717310185E+03  0.10566000000E+00 0.  1.
         13    1    1    2    0    0  0.27697515200E+02 -0.10703510656E+03 -0.24910135025E+03  0.27253469549E+03  0.10566000000E+00 0. -1.
          4    1    1    2  501    0 -0.21131597810E+03 -0.38419355891E+03 -0.59466152490E+03  0.73883791355E+03  0.00000000000E+00 0.  1.
</event>
<event>
 5    1  0.1008363E-004  0.2721923E+03  0.7818608E-02  0.1019493E+00
         21   -1    0    0  501  502  0.00000000000E+00  0.00000000000E+00  0.58668903911E+03  0.58668903911E+03  0.00000000000E+00 0.  1.
          4   -1    0    0  502    0 -0.00000000000E+00 -0.00000000000E+00 -0.15618082592E+04  0.15618082592E+04  0.00000000000E+00 0.  1.
        -13    1    1    2    0    0  0.23430042897E+03 -0.14445964800E+03 -0.14668108988E+04  0.14924139858E+04  0.10566000000E+00 0.  1.
         13    1    1    2    0    0 -0.24893436434E+03 -0.37490962070E+02  0.27810688550E+03  0.37512310101E+03  0.10566000000E+00 0. -1.
          4    1    1    2  501    0  0.14633935369E+02  0.18195061007E+03  0.21358479321E+03  0.28096021152E+03  0.00000000000E+00 0.  1.
</event>
<event>
 5    1  0.1008363E-004  0.3229265E+03  0.7818608E-02  0.1027750E+00
         -4   -1    0    0    0  501 -0.00000000000E+00  0.00000000000E+00  0.11822054127E+04  0.11822054127E+04  0.00000000000E+00 0. -1.
         21   -1    0    0  501  502  0.00000000000E+00 -0.00000000000E+00 -0.29279820348E+03  0.29279820348E+03  0.00000000000E+00 0.  1.
        -13    1    1    2    0    0  0.21308789386E+02  0.12406903191E+03  0.27632241144E+03  0.30364662918E+03  0.10566000000E+00 0.  1.
         13    1    1    2    0    0 -0.30003047975E+03 -0.14072766760E+03 -0.14631052582E+03  0.36225591277E+03  0.10566000000E+00 0. -1.
         -4    1    1    2    0  502  0.27872169036E+03  0.16658635687E+02  0.75939532363E+03  0.80910107426E+03  0.00000000000E+00 0. -1.
</event>
<event>
 5    1  0.1008363E-004  0.3916444E+03  0.7818608E-02  0.9753492E-01
         -4   -1    0    0    0  501 -0.00000000000E+00  0.00000000000E+00  0.98199963117E+03  0.98199963117E+03  0.00000000000E+00 0. -1.
         21   -1    0    0  501  502  0.00000000000E+00 -0.00000000000E+00 -0.27729795661E+03  0.27729795661E+03  0.00000000000E+00 0.  1.
        -13    1    1    2    0    0 -0.18647511604E+03  0.30665984855E+03  0.22851969687E+03  0.42548148565E+03  0.10566000000E+00 0.  1.
         13    1    1    2    0    0  0.28164552277E+03 -0.30808018986E+03  0.56578101944E+03  0.70309727421E+03  0.10566000000E+00 0. -1.
         -4    1    1    2    0  502 -0.95170406732E+02  0.14203413125E+01 -0.89599041752E+02  0.13071882791E+03  0.00000000000E+00 0. -1.
</event>
<event>
 5    1  0.1008363E-004  0.1199887E+03  0.7818608E-02  0.1135159E+00
          4   -1    0    0  502    0 -0.00000000000E+00  0.00000000000E+00  0.10304098778E+04  0.10304098778E+04  0.00000000000E+00 0.  1.
         21   -1    0    0  501  502  0.00000000000E+00 -0.00000000000E+00 -0.19971430472E+02  0.19971430472E+02  0.00000000000E+00 0.  1.
        -13    1    1    2    0    0 -0.12549314993E+03 -0.10231552299E+02  0.51343884204E+03  0.52865174834E+03  0.10566000000E+00 0.  1.
         13    1    1    2    0    0  0.11412092847E+03  0.13529643794E+02  0.49676710744E+03  0.50988646557E+03  0.10566000000E+00 0. -1.
          4    1    1    2  501    0  0.11372221467E+02 -0.32980914950E+01  0.23249784051E+00  0.11843094353E+02  0.00000000000E+00 0.  1.
</event>
<event>
 5    1  0.1008363E-004  0.3942721E+03  0.7818608E-02  0.9807724E-01
         21   -1    0    0  501  502  0.00000000000E+00  0.00000000000E+00  0.30630465711E+03  0.30630465711E+03  0.00000000000E+00 0. -1.
         -4   -1    0    0    0  501 -0.00000000000E+00 -0.00000000000E+00 -0.14645163765E+04  0.14645163765E+04  0.00000000000E+00 0. -1.
        -13    1    1    2    0    0 -0.25183073811E+03 -0.19541385248E+03 -0.17000358856E+03  0.36125686939E+03  0.10566000000E+00 0.  1.
         13    1    1    2    0    0  0.34790831683E+03  0.51671912483E+03 -0.83265724751E+03  0.10398831443E+04  0.10566000000E+00 0. -1.
         -4    1    1    2    0  502 -0.96077578725E+02 -0.32130527235E+03 -0.15555088336E+03  0.36968101992E+03  0.00000000000E+00 0. -1.
</event>
<event>
 5    1  0.1008363E-004  0.7606472E+02  0.7818608E-02  0.1211658E+00
          4   -1    0    0  502    0 -0.00000000000E+00  0.00000000000E+00  0.22792917238E+03  0.22792917238E+03  0.00000000000E+00 0.  1.
         21   -1    0    0  501  502  0.00000000000E+00 -0.00000000000E+00 -0.15002743470E+03  0.15002743470E+03  0.00000000000E+00 0. -1.
        -13    1    1    2    0    0  0.40733873244E+02 -0.65151812527E+02  0.18887781428E+03  0.20390891838E+03  0.10566000000E+00 0.  1.
         13    1    1    2    0    0 -0.45418963344E+02  0.56163486397E+02 -0.10415403984E+02  0.72977470768E+02  0.10566000000E+00 0. -1.
          4    1    1    2  501    0  0.46850901002E+01  0.89883261295E+01 -0.10056067262E+03  0.10107021793E+03  0.00000000000E+00 0.  1.
</event>
<event>
 5    1  0.1008363E-004  0.2928597E+03  0.7818608E-02  0.1010297E+00
          4   -1    0    0  502    0 -0.00000000000E+00  0.00000000000E+00  0.94355354719E+03  0.94355354719E+03  0.00000000000E+00 0.  1.
         21   -1    0    0  501  502  0.00000000000E+00 -0.00000000000E+00 -0.14798467433E+03  0.14798467433E+03  0.00000000000E+00 0. -1.
        -13    1    1    2    0    0  0.27511012117E+03  0.10567486539E+03  0.72762532989E+03  0.78504228409E+03  0.10566000000E+00 0.  1.
         13    1    1    2    0    0 -0.26455132812E+03 -0.10801220739E+03  0.72429222282E+02  0.29478813673E+03  0.10566000000E+00 0. -1.
          4    1    1    2  501    0 -0.10558793052E+02  0.23373419938E+01 -0.44856793114E+01  0.11707800698E+02  0.00000000000E+00 0.  1.
</event>
<event>
 5    1  0.1161079E-004  0.1017812E+04  0.7818608E-02  0.8758034E-01
         21   -1    0    0  501  502  0.00000000000E+00  0.00000000000E+00  0.98783805286E+03  0.98783805286E+03  0.00000000000E+00 0. -1.
          4   -1    0    0  502    0 -0.00000000000E+00 -0.00000000000E+00 -0.15231811262E+04  0.15231811262E+04  0.00000000000E+00 0.  1.
        -13    1    1    2    0    0  0.10172680887E+04 -0.18345170087E+03 -0.80049610240E+03  0.13073954689E+04  0.10566000000E+00 0.  1.
         13    1    1    2    0    0 -0.98426483248E+03  0.79478748086E+02  0.82542798799E+02  0.99091243642E+03  0.10566000000E+00 0. -1.
          4    1    1    2  501    0 -0.33003256236E+02  0.10397295279E+03  0.18261023021E+03  0.21271127382E+03  0.00000000000E+00 0.  1.
</event>
<event>
 5    1  0.1011488E-004  0.8302138E+03  0.7818608E-02  0.8952922E-01
         21   -1    0    0  501  502  0.00000000000E+00  0.00000000000E+00  0.60994663846E+03  0.60994663846E+03  0.00000000000E+00 0. -1.
          4   -1    0    0  502    0 -0.00000000000E+00 -0.00000000000E+00 -0.19929658108E+04  0.19929658108E+04  0.00000000000E+00 0.  1.
        -13    1    1    2    0    0 -0.79227390012E+03  0.19414145270E+03 -0.10442827132E+04  0.13251095172E+04  0.10566000000E+00 0.  1.
         13    1    1    2    0    0  0.86977560424E+03 -0.10863744573E+02 -0.51594113297E+03  0.10113470653E+04  0.10566000000E+00 0. -1.
          4    1    1    2  501    0 -0.77501704126E+02 -0.18327770813E+03  0.17720467385E+03  0.26645586665E+03  0.00000000000E+00 0.  1.
</event>
<event>
 5    1  0.1008363E-004  0.4622862E+03  0.7818608E-02  0.9840395E-01
         21   -1    0    0  501  502  0.00000000000E+00  0.00000000000E+00  0.39013846159E+03  0.39013846159E+03  0.00000000000E+00 0. -1.
         -4   -1    0    0    0  501 -0.00000000000E+00 -0.00000000000E+00 -0.11158481938E+04  0.11158481938E+04  0.00000000000E+00 0. -1.
        -13    1    1    2    0    0  0.17690842262E+03  0.47905856594E+01 -0.40009248372E+03  0.43748548136E+03  0.10566000000E+00 0.  1.
         13    1    1    2    0    0  0.35054571325E+03 -0.22460236914E+03 -0.11620368415E+02  0.41648957421E+03  0.10566000000E+00 0. -1.
         -4    1    1    2    0  502 -0.52745413587E+03  0.21981178349E+03 -0.31399688007E+03  0.65201159982E+03  0.00000000000E+00 0. -1.
</event>
<event>
 5    1  0.1008363E-004  0.1118524E+03  0.7818608E-02  0.1146308E+00
         21   -1    0    0  501  502  0.00000000000E+00  0.00000000000E+00  0.34206202608E+03  0.34206202608E+03  0.00000000000E+00 0. -1.
          4   -1    0    0  502    0 -0.00000000000E+00 -0.00000000000E+00 -0.26003438798E+03  0.26003438798E+03  0.00000000000E+00 0.  1.
        -13    1    1    2    0    0  0.59287125083E+02  0.95664770107E+02 -0.23733854006E+03  0.26267147771E+03  0.10566000000E+00 0.  1.
         13    1    1    2    0    0 -0.56810940619E+02 -0.79247396045E+02  0.25665621955E+03  0.27455429144E+03  0.10566000000E+00 0. -1.
          4    1    1    2  501    0 -0.24761844642E+01 -0.16417374062E+02  0.62709958619E+02  0.64870644906E+02  0.00000000000E+00 0.  1.
</event>
<event>
 5    1  0.1008363E-004  0.2070804E+03  0.7818608E-02  0.1071525E+00
         21   -1    0    0  501  502  0.00000000000E+00  0.00000000000E+00  0.18677914603E+03  0.18677914603E+03  0.00000000000E+00 0.  1.
          4   -1    0    0  502    0 -0.00000000000E+00 -0.00000000000E+00 -0.58441451780E+03  0.58441451780E+03  0.00000000000E+00 0.  1.
        -13    1    1    2    0    0  0.27565789190E+03 -0.32675990238E+02 -0.11984306409E+03  0.30235304675E+03  0.10566000000E+00 0.  1.
         13    1    1    2    0    0 -0.11836648922E+03 -0.53040862110E+02 -0.25780794186E+03  0.28859817199E+03  0.10566000000E+00 0. -1.
          4    1    1    2  501    0 -0.15729140268E+03  0.85716852349E+02 -0.19984365818E+02  0.18024244509E+03  0.00000000000E+00 0.  1.
</event>
<event>
 5    1  0.1008363E-004  0.4239456E+03  0.7818608E-02  0.9672921E-01
         21   -1    0    0  501  502  0.00000000000E+00  0.00000000000E+00  0.55140857531E+03  0.55140857531E+03  0.00000000000E+00 0.  1.
         -4   -1    0    0    0  501 -0.00000000000E+00 -0.00000000000E+00 -0.13034554834E+04  0.13034554834E+04  0.00000000000E+00 0. -1.
        -13    1    1    2    0    0 -0.16379186225E+03 -0.39962595120E+03 -0.61012736304E+03  0.74751861870E+03  0.10566000000E+00 0.  1.
         13    1    1    2    0    0 -0.13110958612E+03 -0.12485435391E+02 -0.48027922356E+03  0.49800979249E+03  0.10566000000E+00 0. -1.
         -4    1    1    2    0  502  0.29490144837E+03  0.41211138660E+03  0.33835967856E+03  0.60933564747E+03  0.00000000000E+00 0. -1.
</event>
<event>
 5    1  0.1008363E-004  0.2462990E+03  0.7818608E-02  0.1043712E+00
         21   -1    0    0  501  502  0.00000000000E+00  0.00000000000E+00  0.12542300249E+03  0.12542300249E+03  0.00000000000E+00 0. -1.
         -4   -1    0    0    0  501 -0.00000000000E+00 -0.00000000000E+00 -0.23866514241E+04  0.23866514241E+04  0.00000000000E+00 0. -1.
        -13    1    1    2    0    0 -0.11736051383E+03  0.12875436835E+03 -0.60088725087E+03  0.62563302103E+03  0.10566000000E+00 0.  1.
         13    1    1    2    0    0  0.29947654856E+03 -0.27168468529E+03 -0.15956222350E+04  0.16460586561E+04  0.10566000000E+00 0. -1.
         -4    1    1    2    0  502 -0.18211603473E+03  0.14293031694E+03 -0.64718935789E+02  0.24038274950E+03  0.00000000000E+00 0. -1.
</event>
<event>
 5    1  0.1008363E-004  0.1710439E+03  0.7818608E-02  0.1082029E+00
         21   -1    0    0  501  502  0.00000000000E+00  0.00000000000E+00  0.81899275331E+03  0.81899275331E+03  0.00000000000E+00 0. -1.
         -4   -1    0    0    0  501 -0.00000000000E+00 -0.00000000000E+00 -0.17171557294E+03  0.17171557294E+03  0.00000000000E+00 0. -1.
        -13    1    1    2    0    0 -0.13067531165E+03  0.10777312213E+03 -0.72589127501E+02  0.18428313955E+03  0.10566000000E+00 0.  1.
         13    1    1    2    0    0  0.18197947954E+03 -0.53312598420E+02  0.18018633216E+03  0.26158342758E+03  0.10566000000E+00 0. -1.
         -4    1    1    2    0  502 -0.51304167896E+02 -0.54460523714E+02  0.53967997571E+03  0.54484175911E+03  0.00000000000E+00 0. -1.
</event>
<event>
 5    1  0.1008363E-004  0.2460588E+03  0.7818608E-02  0.1043202E+00
          4   -1    0    0  502    0 -0.00000000000E+00  0.00000000000E+00  0.18378971620E+03  0.18378971620E+03  0.00000000000E+00 0.  1.
         21   -1    0    0  501  502  0.00000000000E+00 -0.00000000000E+00 -0.69716457566E+03  0.69716457566E+03  0.00000000000E+00 0. -1.
        -13    1    1    2    0    0 -0.14567569427E+03 -0.17353032007E+03 -0.67848621736E+02  0.23651136658E+03  0.10566000000E+00 0.  1.
         13    1    1    2    0    0 -0.13419325319E+03  0.11607852098E+03 -0.20364092534E+03  0.27009570502E+03  0.10566000000E+00 0. -1.
          4    1    1    2  501    0  0.27986894746E+03  0.57451799085E+02 -0.24188531239E+03  0.37434722026E+03  0.00000000000E+00 0.  1.
</event>
<event>
 5    1  0.1008363E-004  0.3111841E+03  0.7818608E-02  0.1023950E+00
          4   -1    0    0  502    0 -0.00000000000E+00  0.00000000000E+00  0.40867111178E+03  0.40867111178E+03  0.00000000000E+00 0.  1.
         21   -1    0    0  501  502  0.00000000000E+00 -0.00000000000E+00 -0.99583988053E+03  0.99583988053E+03  0.00000000000E+00 0.  1.
        -13    1    1    2    0    0 -0.27792088271E+03 -0.19833462691E+03  0.13388855129E+03  0.36674622917E+03  0.10566000000E+00 0.  1.
         13    1    1    2    0    0 -0.30792656282E+02  0.15533956322E+03  0.80564627562E+02  0.17767734229E+03  0.10566000000E+00 0. -1.
          4    1    1    2  501    0  0.30871353899E+03  0.42995063682E+02 -0.80162194760E+03  0.86008742087E+03  0.00000000000E+00 0.  1.
</event>
<event>
 5    1  0.1008363E-004  0.4771830E+03  0.7818608E-02  0.9847519E-01
          4   -1    0    0  502    0 -0.00000000000E+00  0.00000000000E+00  0.55213041195E+03  0.55213041195E+03  0.00000000000E+00 0.  1.
         21   -1    0    0  501  502  0.00000000000E+00 -0.00000000000E+00 -0.63895563878E+03  0.63895563878E+03  0.00000000000E+00 0.  1.
        -13    1    1    2    0    0  0.16204299282E+03 -0.54963130967E+03  0.39550443818E+02  0.57438380623E+03  0.10566000000E+00 0.  1.
         13    1    1    2    0    0 -0.97283811905E+02  0.12332670705E+03  0.26321183997E+02  0.15926842946E+03  0.10566000000E+00 0. -1.
          4    1    1    2  501    0 -0.64759180914E+02  0.42630460262E+03 -0.15269685465E+03  0.45743381504E+03  0.00000000000E+00 0.  1.
</event>
<event>
 5    1  0.1008363E-004  0.1819735E+03  0.7818608E-02  0.1073250E+00
         -4   -1    0    0    0  501 -0.00000000000E+00  0.00000000000E+00  0.34088554097E+03  0.34088554097E+03  0.00000000000E+00 0. -1.
         21   -1    0    0  501  502  0.00000000000E+00 -0.00000000000E+00 -0.19357418161E+03  0.19357418161E+03  0.00000000000E+00 0. -1.
        -13    1    1    2    0    0 -0.40673200207E+02  0.12738786430E+03  0.22461576023E+02  0.13559686850E+03  0.10566000000E+00 0.  1.
         13    1    1    2    0    0  0.93858620148E+02 -0.21326563983E+03  0.16978782646E+03  0.28830468412E+03  0.10566000000E+00 0. -1.
         -4    1    1    2    0  502 -0.53185419941E+02  0.85877775527E+02 -0.44938043118E+02  0.11055816995E+03  0.00000000000E+00 0. -1.
</event>
<event>
 5    1  0.1008363E-004  0.2396607E+03  0.7818608E-02  0.1035894E+00
          4   -1    0    0  502    0 -0.00000000000E+00  0.00000000000E+00  0.10019643415E+04  0.10019643415E+04  0.00000000000E+00 0.  1.
         21   -1    0    0  501  502  0.00000000000E+00 -0.00000000000E+00 -0.13104832811E+03  0.13104832811E+03  0.00000000000E+00 0. -1.
        -13    1    1    2    0    0 -0.89486962610E+02  0.22471745143E+03  0.75225416462E+03  0.79018490799E+03  0.10566000000E+00 0.  1.
         13    1    1    2    0    0  0.15366074125E+03 -0.18479702782E+03  0.11683077307E+03  0.26722837722E+03  0.10566000000E+00 0. -1.
          4    1    1    2  501    0 -0.64173778638E+02 -0.39920423616E+02  0.18310757088E+01  0.75599384420E+02  0.00000000000E+00 0.  1.
</event>
<event>
 5    1  0.1008363E-004  0.5050673E+02  0.7818608E-02  0.1289739E+00
         -4   -1    0    0    0  501 -0.00000000000E+00  0.00000000000E+00  0.31445006200E+03  0.31445006200E+03  0.00000000000E+00 0. -1.
         21   -1    0    0  501  502  0.00000000000E+00 -0.00000000000E+00 -0.41931477245E+02  0.41931477245E+02  0.00000000000E+00 0.  1.
        -13    1    1    2    0    0  0.34053613936E+02 -0.40110951746E+02  0.47089938565E+02  0.70611688482E+02  0.10566000000E+00 0.  1.
         13    1    1    2    0    0 -0.18787552742E+02  0.46910477061E+02  0.25055131828E+03  0.25559643826E+03  0.10566000000E+00 0. -1.
         -4    1    1    2    0  502 -0.15266061194E+02 -0.67995253149E+01 -0.25122672091E+02  0.30173412500E+02  0.00000000000E+00 0. -1.
</event>
<event>
 5    1  0.1008363E-004  0.2767370E+03  0.7818608E-02  0.1017398E+00
          4   -1    0    0  502    0 -0.00000000000E+00  0.00000000000E+00  0.18160812262E+04  0.18160812262E+04  0.00000000000E+00 0.  1.
         21   -1    0    0  501  502  0.00000000000E+00 -0.00000000000E+00 -0.34880719530E+03  0.34880719530E+03  0.00000000000E+00 0.  1.
        -13    1    1    2    0    0 -0.21785270533E+03  0.10909536527E+03  0.94475431736E+03  0.97566507126E+03  0.10566000000E+00 0.  1.
         13    1    1    2    0    0  0.44181762960E+03  0.52222665204E+01  0.73661579607E+03  0.85897202054E+03  0.10566000000E+00 0. -1.
          4    1    1    2  501    0 -0.22396492427E+03 -0.11431763179E+03 -0.21409608250E+03  0.33025132972E+03  0.00000000000E+00 0.  1.
</event>
<event>
 5    1  0.1008363E-004  0.2067954E+03  0.7818608E-02  0.1069457E+00
         21   -1    0    0  501  502  0.00000000000E+00  0.00000000000E+00  0.44931170621E+03  0.44931170621E+03  0.00000000000E+00 0. -1.
         -4   -1    0    0    0  501 -0.00000000000E+00 -0.00000000000E+00 -0.33931935783E+03  0.33931935783E+03  0.00000000000E+00 0. -1.
        -13    1    1    2    0    0 -0.92633379222E+02  0.10252820395E+03 -0.29289632329E+01  0.13820841342E+03  0.10566000000E+00 0.  1.
         13    1    1    2    0    0  0.20606605142E+03 -0.25445736879E+03 -0.12121013141E+03  0.34914707102E+03  0.10566000000E+00 0. -1.
         -4    1    1    2    0  502 -0.11343267220E+03  0.15192916484E+03  0.23413144302E+03  0.30127557960E+03  0.00000000000E+00 0. -1.
</event>
<event>
 5    1  0.1008363E-004  0.2478719E+03  0.7818608E-02  0.1031501E+00
         21   -1    0    0  501  502  0.00000000000E+00  0.00000000000E+00  0.11209019345E+03  0.11209019345E+03  0.00000000000E+00 0.  1.
         -4   -1    0    0    0  501 -0.00000000000E+00 -0.00000000000E+00 -0.77060336670E+03  0.77060336670E+03  0.00000000000E+00 0. -1.
        -13    1    1    2    0    0 -0.10996351189E+03 -0.21580161694E+03 -0.10557315973E+03  0.26421206453E+03  0.10566000000E+00 0.  1.
         13    1    1    2    0    0  0.10538290344E+03  0.22652094114E+03 -0.55300850602E+03  0.60682428429E+03  0.10566000000E+00 0. -1.
         -4    1    1    2    0  502  0.45806084549E+01 -0.10719324191E+02  0.68492496413E-01  0.11657211337E+02  0.00000000000E+00 0. -1.
</event>
<event>
 5    1  0.1008363E-004  0.2430783E+03  0.7818608E-02  0.1034043E+00
         -4   -1    0    0    0  501 -0.00000000000E+00  0.00000000000E+00  0.45554770784E+02  0.45554770784E+02  0.00000000000E+00 0. -1.
         21   -1    0    0  501  502  0.00000000000E+00 -0.00000000000E+00 -0.15793859494E+04  0.15793859494E+04  0.00000000000E+00 0.  1.
        -13    1    1    2    0    0 -0.64389062486E+02  0.23853564985E+03 -0.62498998956E+03  0.67205483841E+03  0.10566000000E+00 0.  1.
         13    1    1    2    0    0  0.72138011652E+02 -0.22802285416E+03 -0.63202433467E+03  0.67576111573E+03  0.10566000000E+00 0. -1.
         -4    1    1    2    0  502 -0.77489491661E+01 -0.10512795683E+02 -0.27681685441E+03  0.27712476607E+03  0.00000000000E+00 0. -1.
</event>
<event>
 5    1  0.1008363E-004  0.4489444E+03  0.7818608E-02  0.9597497E-01
         -4   -1    0    0    0  501 -0.00000000000E+00  0.00000000000E+00  0.11492791768E+04  0.11492791768E+04  0.00000000000E+00 0. -1.
         21   -1    0    0  501  502  0.00000000000E+00 -0.00000000000E+00 -0.56108592563E+03  0.56108592563E+03  0.00000000000E+00 0. -1.
        -13    1    1    2    0    0 -0.35535140099E+03 -0.22726203454E+03  0.44883327123E+03  0.61593341122E+03  0.10566000000E+00 0.  1.
         13    1    1    2    0    0  0.27525818616E+03  0.42909498229E+03  0.47360937729E+03  0.69584152384E+03  0.10566000000E+00 0. -1.
         -4    1    1    2    0  502  0.80093214832E+02 -0.20183294775E+03 -0.33424939738E+03  0.39859016735E+03  0.00000000000E+00 0. -1.
</event>
<event>
 5    1  0.1008363E-004  0.2310927E+02  0.7818608E-02  0.1470702E+00
         -4   -1    0    0    0  501 -0.00000000000E+00  0.00000000000E+00  0.10087335116E+03  0.10087335116E+03  0.00000000000E+00 0. -1.
         21   -1    0    0  501  502  0.00000000000E+00 -0.00000000000E+00 -0.17776474532E+03  0.17776474532E+03  0.00000000000E+00 0. -1.
        -13    1    1    2    0    0  0.11660562676E+02 -0.37599968647E+02 -0.82745605408E+02  0.91632814769E+02  0.10566000000E+00 0.  1.
         13    1    1    2    0    0 -0.11662891453E+02  0.19672961950E+02  0.94160243028E+02  0.96897941155E+02  0.10566000000E+00 0. -1.
         -4    1    1    2    0  502  0.23287771423E-02  0.17927006697E+02 -0.88306031780E+02  0.90107340563E+02  0.00000000000E+00 0. -1.
</event>
<event>
 5    1  0.1008363E-004  0.4138633E+03  0.7818608E-02  0.9754281E-01
          4   -1    0    0  502    0 -0.00000000000E+00  0.00000000000E+00  0.80671958517E+03  0.80671958517E+03  0.00000000000E+00 0.  1.
         21   -1    0    0  501  502  0.00000000000E+00 -0.00000000000E+00 -0.58736458070E+03  0.58736458070E+03  0.00000000000E+00 0.  1.
        -13    1    1    2    0    0  0.32273776953E+03  0.14302206519E+03 -0.84182188710E+02  0.36290719347E+03  0.10566000000E+00 0.  1.
         13    1    1    2    0    0  0.32042685707E+03 -0.82953257999E+02  0.39518676870E+02  0.33334119267E+03  0.10566000000E+00 0. -1.
          4    1    1    2  501    0 -0.64316462661E+03 -0.60068807189E+02  0.26401851631E+03  0.69783577973E+03  0.00000000000E+00 0.  1.
</event>
<event>
 5    1  0.1008363E-004  0.1812096E+03  0.7818608E-02  0.1073842E+00
          4   -1    0    0  502    0 -0.00000000000E+00  0.00000000000E+00  0.14320376879E+03  0.14320376879E+03  0.00000000000E+00 0.  1.
         21   -1    0    0  501  502  0.00000000000E+00 -0.00000000000E+00 -0.67375471610E+03  0.67375471610E+03  0.00000000000E+00 0.  1.
        -13    1    1    2    0    0  0.71938434857E+02  0.16455089478E+03  0.41729201784E+02  0.18437318902E+03  0.10566000000E+00 0.  1.
         13    1    1    2    0    0 -0.86953849522E+02 -0.16699501324E+03 -0.26579456547E+03  0.32572237963E+03  0.10566000000E+00 0. -1.
          4    1    1    2  501    0  0.15015414665E+02  0.24441184633E+01 -0.30648558363E+03  0.30686291624E+03  0.00000000000E+00 0.  1.
</event>
<event>
 5    1  0.1008363E-004  0.4242325E+03  0.7818608E-02  0.9874882E-01
         21   -1    0    0  501  502  0.00000000000E+00  0.00000000000E+00  0.64673327019E+03  0.64673327019E+03  0.00000000000E+00 0. -1.
         -4   -1    0    0    0  501 -0.00000000000E+00 -0.00000000000E+00 -0.77492498786E+03  0.77492498786E+03  0.00000000000E+00 0. -1.
        -13    1    1    2    0    0  0.11991541340E+03  0.16483584292E+03 -0.31571064477E+03  0.37579753042E+03  0.10566000000E+00 0.  1.
         13    1    1    2    0    0  0.33409899784E+03  0.18391355066E+03  0.27024290396E+03  0.46741584566E+03  0.10566000000E+00 0. -1.
         -4    1    1    2    0  502 -0.45401441124E+03 -0.34874939358E+03 -0.82723976862E+02  0.57844488198E+03  0.00000000000E+00 0. -1.
</event>
<event>
 5    1  0.1070885E-004  0.4013622E+03  0.7818608E-02  0.1003833E+00
         21   -1    0    0  501  502  0.00000000000E+00  0.00000000000E+00  0.14343052482E+03  0.14343052482E+03  0.00000000000E+00 0. -1.
         -4   -1    0    0    0  501 -0.00000000000E+00 -0.00000000000E+00 -0.23530404522E+04  0.23530404522E+04  0.00000000000E+00 0. -1.
        -13    1    1    2    0    0 -0.96760458632E+02  0.10145929211E+03 -0.40221437753E+03  0.42594951692E+03  0.10566000000E+00 0.  1.
         13    1    1    2    0    0 -0.29917107717E+03 -0.22027973633E+03 -0.15257161439E+04  0.15702981432E+04  0.10566000000E+00 0. -1.
         -4    1    1    2    0  502  0.39593153581E+03  0.11882044422E+03 -0.28167940594E+03  0.50022331687E+03  0.00000000000E+00 0. -1.
</event>
<event>
 5    1  0.1008363E-004  0.4479930E+03  0.7818608E-02  0.9971193E-01
         21   -1    0    0  501  502  0.00000000000E+00  0.00000000000E+00  0.29053638899E+03  0.29053638899E+03  0.00000000000E+00 0.  1.
          4   -1    0    0  502    0 -0.00000000000E+00 -0.00000000000E+00 -0.14535635300E+04  0.14535635300E+04  0.00000000000E+00 0.  1.
        -13    1    1    2    0    0 -0.45325232696E+03 -0.15834417780E+03 -0.22344664374E+02  0.48063483616E+03  0.10566000000E+00 0.  1.
         13    1    1    2    0    0  0.12489330457E+03 -0.13370127114E+02 -0.56531926114E+03  0.57910532376E+03  0.10566000000E+00 0. -1.
          4    1    1    2  501    0  0.32835902239E+03  0.17171430492E+03 -0.57536321550E+03  0.68435975909E+03  0.00000000000E+00 0.  1.
</event>
<event>
 5    1  0.1008363E-004  0.4591345E+03  0.7818608E-02  0.9780434E-01
         21   -1    0    0  501  502  0.00000000000E+00  0.00000000000E+00  0.21812122376E+03  0.21812122376E+03  0.00000000000E+00 0. -1.
         -4   -1    0    0    0  501 -0.00000000000E+00 -0.00000000000E+00 -0.19834695493E+04  0.19834695493E+04  0.00000000000E+00 0. -1.
        -13    1    1    2    0    0 -0.12245823298E+03 -0.18466957074E+03 -0.64134803739E+03  0.67854711363E+03  0.10566000000E+00 0.  1.
         13    1    1    2    0    0  0.36780030745E+03 -0.26282074692E+03 -0.26533269273E+03  0.52416911409E+03  0.10566000000E+00 0. -1.
         -4    1    1    2    0  502 -0.24534207448E+03  0.44749031766E+03 -0.85866759547E+03  0.99887454538E+03  0.00000000000E+00 0. -1.
</event>
<event>
 5    1  0.1008363E-004  0.3341511E+03  0.7818608E-02  0.9941293E-01
          4   -1    0    0  502    0 -0.00000000000E+00  0.00000000000E+00  0.46590280386E+03  0.46590280386E+03  0.00000000000E+00 0.  1.
         21   -1    0    0  501  502  0.00000000000E+00 -0.00000000000E+00 -0.31635475791E+03  0.31635475791E+03  0.00000000000E+00 0. -1.
        -13    1    1    2    0    0  0.16133907902E+03 -0.29150717598E+03 -0.60757291817E+02  0.33867121481E+03  0.10566000000E+00 0.  1.
         13    1    1    2    0    0 -0.19903989794E+03  0.27005013701E+03  0.21721859057E+03  0.39965971116E+03  0.10566000000E+00 0. -1.
          4    1    1    2  501    0  0.37700818922E+02  0.21457038970E+02 -0.69132527960E+01  0.43926635803E+02  0.00000000000E+00 0.  1.
</event>
<event>
 5    1  0.1008363E-004  0.1162863E+03  0.7818608E-02  0.1140108E+00
         21   -1    0    0  501  502  0.00000000000E+00  0.00000000000E+00  0.46893217228E+02  0.46893217228E+02  0.00000000000E+00 0. -1.
          4   -1    0    0  502    0 -0.00000000000E+00 -0.00000000000E+00 -0.54861935218E+03  0.54861935218E+03  0.00000000000E+00 0.  1.
        -13    1    1    2    0    0  0.26135074409E+02 -0.10915944050E+03 -0.29558065819E+03  0.31617520811E+03  0.10566000000E+00 0.  1.
         13    1    1    2    0    0 -0.30377032788E+02  0.11855121536E+03 -0.22597713111E+03  0.25698799531E+03  0.10566000000E+00 0. -1.
          4    1    1    2  501    0  0.42419583782E+01 -0.93917748522E+01  0.19831654349E+02  0.22349365986E+02  0.00000000000E+00 0.  1.
</event>
<event>
 5    1  0.1008363E-004  0.3238589E+03  0.7818608E-02  0.9979164E-01
         21   -1    0    0  501  502  0.00000000000E+00  0.00000000000E+00  0.87254330393E+02  0.87254330393E+02  0.00000000000E+00 0.  1.
          4   -1    0    0  502    0 -0.00000000000E+00 -0.00000000000E+00 -0.26809899091E+04  0.26809899091E+04  0.00000000000E+00 0.  1.
        -13    1    1    2    0    0 -0.25408863364E+03  0.19546537392E+03 -0.14220487934E+04  0.14577347249E+04  0.10566000000E+00 0.  1.
         13    1    1    2    0    0  0.26816141480E+03 -0.18889168766E+03 -0.12181395882E+04  0.12615287081E+04  0.10566000000E+00 0. -1.
          4    1    1    2  501    0 -0.14072781161E+02 -0.65736862647E+01  0.46452802796E+02  0.48980806530E+02  0.00000000000E+00 0.  1.
</event>
<event>
 5    1  0.1008363E-004  0.1436646E+03  0.7818608E-02  0.1107533E+00
         -4   -1    0    0    0  501 -0.00000000000E+00  0.00000000000E+00  0.10419311348E+04  0.10419311348E+04  0.00000000000E+00 0. -1.
         21   -1    0    0  501  502  0.00000000000E+00 -0.00000000000E+00 -0.39783236919E+02  0.39783236919E+02  0.00000000000E+00 0.  1.
        -13    1    1    2    0    0 -0.44034810539E+02 -0.15750195844E+03  0.20512818279E+03  0.26234236026E+03  0.10566000000E+00 0.  1.
         13    1    1    2    0    0  0.62399186097E+02  0.12485075812E+03  0.72369831222E+03  0.73703502529E+03  0.10566000000E+00 0. -1.
         -4    1    1    2    0  502 -0.18364375558E+02  0.32651200317E+02  0.73321402884E+02  0.82336986177E+02  0.00000000000E+00 0. -1.
</event>
<event>
 5    1  0.1008363E-004  0.4201180E+03  0.7818608E-02  0.9981282E-01
         21   -1    0    0  501  502  0.00000000000E+00  0.00000000000E+00  0.13098590229E+03  0.13098590229E+03  0.00000000000E+00 0. -1.
         -4   -1    0    0    0  501 -0.00000000000E+00 -0.00000000000E+00 -0.25963385563E+04  0.25963385563E+04  0.00000000000E+00 0. -1.
        -13    1    1    2    0    0  0.11492952585E+03  0.92176599063E+02 -0.45792619893E+03  0.48104234341E+03  0.10566000000E+00 0.  1.
         13    1    1    2    0    0 -0.37666698151E+03  0.23471821811E+03 -0.16059709430E+04  0.16661672599E+04  0.10566000000E+00 0. -1.
         -4    1    1    2    0  502  0.26173745566E+03 -0.32689481717E+03 -0.40145551204E+03  0.58011485530E+03  0.00000000000E+00 0. -1.
</event>
<event>
 5    1  0.1008363E-004  0.1224132E+03  0.7818608E-02  0.1204494E+00
         21   -1    0    0  501  502  0.00000000000E+00  0.00000000000E+00  0.16532045280E+02  0.16532045280E+02  0.00000000000E+00 0. -1.
         -4   -1    0    0    0  501 -0.00000000000E+00 -0.00000000000E+00 -0.11697323050E+04  0.11697323050E+04  0.00000000000E+00 0. -1.
        -13    1    1    2    0    0 -0.17059221619E+02 -0.12980176937E+02 -0.39838883015E+02  0.45239913787E+02  0.10566000000E+00 0.  1.
         13    1    1    2    0    0  0.13246058195E+03  0.82305985375E+01 -0.65734605466E+03  0.67060971904E+03  0.10566000000E+00 0. -1.
         -4    1    1    2    0  502 -0.11540136033E+03  0.47495783999E+01 -0.45601532206E+03  0.47041471747E+03  0.00000000000E+00 0. -1.
</event>
<event>
 5    1  0.1008363E-004  0.7510261E+02  0.7818608E-02  0.1213942E+00
          4   -1    0    0  502    0 -0.00000000000E+00  0.00000000000E+00  0.15890485971E+02  0.15890485971E+02  0.00000000000E+00 0.  1.
         21   -1    0    0  501  502  0.00000000000E+00 -0.00000000000E+00 -0.83113071756E+03  0.83113071756E+03  0.00000000000E+00 0. -1.
        -13    1    1    2    0    0 -0.98657338274E+01  0.73292934109E+02 -0.10525550903E+03  0.12863871983E+03  0.10566000000E+00 0.  1.
         13    1    1    2    0    0 -0.28251662162E+01 -0.79791620270E+02 -0.39044257093E+03  0.39852239158E+03  0.10566000000E+00 0. -1.
          4    1    1    2  501    0  0.12690900044E+02  0.64986861606E+01 -0.31954215163E+03  0.31986009213E+03  0.00000000000E+00 0.  1.
</event>
<event>
 5    1  0.2459131E-004  0.4572135E+03  0.7818608E-02  0.1010790E+00
         21   -1    0    0  501  502  0.00000000000E+00  0.00000000000E+00  0.30901572022E+03  0.30901572022E+03  0.00000000000E+00 0.  1.
          4   -1    0    0  502    0 -0.00000000000E+00 -0.00000000000E+00 -0.99279391964E+03  0.99279391964E+03  0.00000000000E+00 0.  1.
        -13    1    1    2    0    0  0.40002927435E+03 -0.20073946885E+03 -0.49844925787E+03  0.66990404426E+03  0.10566000000E+00 0.  1.
         13    1    1    2    0    0 -0.25279345486E+02 -0.71412481630E+02 -0.14922735188E+03  0.16735471775E+03  0.10566000000E+00 0. -1.
          4    1    1    2  501    0 -0.37474992886E+03  0.27215195048E+03 -0.36101589676E+02  0.46455087785E+03  0.00000000000E+00 0.  1.
</event>
<event>
 5    1  0.1489133E-004  0.6525072E+03  0.7818608E-02  0.9438689E-01
          4   -1    0    0  502    0 -0.00000000000E+00  0.00000000000E+00  0.13641124420E+04  0.13641124420E+04  0.00000000000E+00 0.  1.
         21   -1    0    0  501  502  0.00000000000E+00 -0.00000000000E+00 -0.85217724923E+03  0.85217724923E+03  0.00000000000E+00 0. -1.
        -13    1    1    2    0    0  0.14441364309E+03  0.16086645783E+03  0.44806243838E+03  0.49748696205E+03  0.10566000000E+00 0.  1.
         13    1    1    2    0    0 -0.77170789726E+01 -0.79889441086E+03  0.49210054882E+03  0.93832552684E+03  0.10566000000E+00 0. -1.
          4    1    1    2  501    0 -0.13669656412E+03  0.63802795304E+03 -0.42822779440E+03  0.78047720235E+03  0.00000000000E+00 0.  1.
</event>
<event>
 5    1  0.1008363E-004  0.5792633E+03  0.7818608E-02  0.9387832E-01
         21   -1    0    0  501  502  0.00000000000E+00  0.00000000000E+00  0.44650415909E+03  0.44650415909E+03  0.00000000000E+00 0.  1.
          4   -1    0    0  502    0 -0.00000000000E+00 -0.00000000000E+00 -0.38244668743E+04  0.38244668743E+04  0.00000000000E+00 0.  1.
        -13    1    1    2    0    0  0.32635715364E+03  0.27695416995E+03 -0.39156369143E+03  0.58011614320E+03  0.10566000000E+00 0.  1.
         13    1    1    2    0    0  0.33904842767E+03 -0.56453643246E+03 -0.28846446423E+04  0.29588561883E+04  0.10566000000E+00 0. -1.
          4    1    1    2  501    0 -0.66540558131E+03  0.28758226252E+03 -0.10175438150E+03  0.73199870185E+03  0.00000000000E+00 0.  1.
</event>
<event>
 5    1  0.1008363E-004  0.2443280E+03  0.7818608E-02  0.1033375E+00
         -4   -1    0    0    0  501 -0.00000000000E+00  0.00000000000E+00  0.87069159797E+03  0.87069159797E+03  0.00000000000E+00 0. -1.
         21   -1    0    0  501  502  0.00000000000E+00 -0.00000000000E+00 -0.46493217883E+03  0.46493217883E+03  0.00000000000E+00 0. -1.
        -13    1    1    2    0    0 -0.22199041467E+03 -0.74320627693E+02  0.17441921057E+03  0.29193384882E+03  0.10566000000E+00 0.  1.
         13    1    1    2    0    0  0.23567779560E+03  0.78934747776E+02  0.61314850612E+03  0.66160850921E+03  0.10566000000E+00 0. -1.
         -4    1    1    2    0  502 -0.13687380925E+02 -0.46141200831E+01 -0.38180829754E+03  0.38208141877E+03  0.00000000000E+00 0. -1.
</event>
<event>
 5    1  0.1008363E-004  0.3656929E+03  0.7818608E-02  0.9833718E-01
         21   -1    0    0  501  502  0.00000000000E+00  0.00000000000E+00  0.33668272771E+03  0.33668272771E+03  0.00000000000E+00 0.  1.
         -4   -1    0    0    0  501 -0.00000000000E+00 -0.00000000000E+00 -0.41919677379E+03  0.41919677379E+03  0.00000000000E+00 0. -1.
        -13    1    1    2    0    0 -0.15008094135E+03 -0.33164729180E+03  0.86794642625E+01  0.36412849295E+03  0.10566000000E+00 0.  1.
         13    1    1    2    0    0  0.14097680577E+03  0.33888215403E+03 -0.95654575639E+02  0.37929590439E+03  0.10566000000E+00 0. -1.
         -4    1    1    2    0  502  0.91041355791E+01 -0.72348622310E+01  0.44610652922E+01  0.12455104162E+02  0.00000000000E+00 0. -1.
</event>
<event>
 5    1  0.1008363E-004  0.3551753E+03  0.7818608E-02  0.9868264E-01
          4   -1    0    0  502    0 -0.00000000000E+00  0.00000000000E+00  0.36617934492E+03  0.36617934492E+03  0.00000000000E+00 0.  1.
         21   -1    0    0  501  502  0.00000000000E+00 -0.00000000000E+00 -0.91487107000E+03  0.91487107000E+03  0.00000000000E+00 0.  1.
        -13    1    1    2    0    0 -0.26199550748E+03 -0.36663417750E+03  0.51224716733E+02  0.45352645878E+03  0.10566000000E+00 0.  1.
         13    1    1    2    0    0  0.49118657200E+02  0.26624559646E+03 -0.12650848062E+03  0.29883735870E+03  0.10566000000E+00 0. -1.
          4    1    1    2  501    0  0.21287685028E+03  0.10038858103E+03 -0.47340796119E+03  0.52868659744E+03  0.00000000000E+00 0.  1.
</event>
<event>
 5    1  0.1008363E-004  0.2201030E+03  0.7818608E-02  0.1047165E+00
          4   -1    0    0  502    0 -0.00000000000E+00  0.00000000000E+00  0.86206316382E+03  0.86206316382E+03  0.00000000000E+00 0.  1.
         21   -1    0    0  501  502  0.00000000000E+00 -0.00000000000E+00 -0.18684164246E+03  0.18684164246E+03  0.00000000000E+00 0.  1.
        -13    1    1    2    0    0 -0.23269611181E+03 -0.73823100981E+02  0.16987086084E+02  0.24471596382E+03  0.10566000000E+00 0.  1.
         13    1    1    2    0    0  0.19094475502E+03 -0.13583734796E+03  0.44109084297E+03  0.49947254928E+03  0.10566000000E+00 0. -1.
          4    1    1    2  501    0  0.41751356793E+02  0.20966044894E+03  0.21714359231E+03  0.30471629317E+03  0.00000000000E+00 0.  1.
</event>
<event>
 5    1  0.1008363E-004  0.3586611E+03  0.7818608E-02  0.9894474E-01
         21   -1    0    0  501  502  0.00000000000E+00  0.00000000000E+00  0.27479443606E+03  0.27479443606E+03  0.00000000000E+00 0. -1.
         -4   -1    0    0    0  501 -0.00000000000E+00 -0.00000000000E+00 -0.35830297569E+04  0.35830297569E+04  0.00000000000E+00 0. -1.
        -13    1    1    2    0    0 -0.59064779444E+03  0.31050320627E+02 -0.21479030669E+04  0.22278502049E+04  0.10566000000E+00 0.  1.
         13    1    1    2    0    0  0.22334779829E+03 -0.13669312022E+03 -0.12158889046E+04  0.12437664924E+04  0.10566000000E+00 0. -1.
         -4    1    1    2    0  502  0.36729999614E+03  0.10564279959E+03  0.55556650665E+02  0.38620749566E+03  0.00000000000E+00 0. -1.
</event>
<event>
 5    1  0.1008363E-004  0.5224953E+03  0.7818608E-02  0.9755066E-01
         21   -1    0    0  501  502  0.00000000000E+00  0.00000000000E+00  0.27021767712E+03  0.27021767712E+03  0.00000000000E+00 0.  1.
         -4   -1    0    0    0  501 -0.00000000000E+00 -0.00000000000E+00 -0.15446475547E+04  0.15446475547E+04  0.00000000000E+00 0. -1.
        -13    1    1    2    0    0  0.15727678836E+03 -0.46636636705E+02 -0.21871491555E+02  0.16549724272E+03  0.10566000000E+00 0.  1.
         13    1    1    2    0    0 -0.30417510440E+03 -0.44531921336E+03 -0.48118407298E+03  0.72275156117E+03  0.10566000000E+00 0. -1.
         -4    1    1    2    0  502  0.14689831604E+03  0.49195585006E+03 -0.77137431300E+03  0.92661642788E+03  0.00000000000E+00 0. -1.
</event>
<event>
 5    1  0.1008363E-004  0.5506481E+03  0.7818608E-02  0.9373373E-01
         21   -1    0    0  501  502  0.00000000000E+00  0.00000000000E+00  0.57562175746E+03  0.57562175746E+03  0.00000000000E+00 0. -1.
          4   -1    0    0  502    0 -0.00000000000E+00 -0.00000000000E+00 -0.17272840482E+04  0.17272840482E+04  0.00000000000E+00 0.  1.
        -13    1    1    2    0    0 -0.44870174096E+03 -0.23822362032E+03 -0.10254046409E+04  0.11443506606E+04  0.10566000000E+00 0.  1.
         13    1    1    2    0    0  0.57493142809E+03  0.39067733058E+03 -0.41419093910E+03  0.80915330366E+03  0.10566000000E+00 0. -1.
          4    1    1    2  501    0 -0.12622968713E+03 -0.15245371026E+03  0.28793328929E+03  0.34940184139E+03  0.00000000000E+00 0.  1.
</event>
<event>
 5    1  0.1008363E-004  0.3926093E+03  0.7818608E-02  0.9750636E-01
          4   -1    0    0  502    0 -0.00000000000E+00  0.00000000000E+00  0.60841892399E+03  0.60841892399E+03  0.00000000000E+00 0.  1.
         21   -1    0    0  501  502  0.00000000000E+00 -0.00000000000E+00 -0.84564884020E+03  0.84564884020E+03  0.00000000000E+00 0.  1.
        -13    1    1    2    0    0 -0.59365189211E+03  0.15830585420E+02 -0.48845036843E+03  0.76893234424E+03  0.10566000000E+00 0.  1.
         13    1    1    2    0    0  0.33536004692E+03 -0.94777242353E+02  0.58576460702E+02  0.35338406819E+03  0.10566000000E+00 0. -1.
          4    1    1    2  501    0  0.25829184518E+03  0.78946656933E+02  0.19264399152E+03  0.33175135176E+03  0.00000000000E+00 0.  1.
</event>
<event>
 5    1  0.1008363E-004  0.3683050E+03  0.7818608E-02  0.9825329E-01
         -4   -1    0    0    0  501 -0.00000000000E+00  0.00000000000E+00  0.65023998175E+03  0.65023998175E+03  0.00000000000E+00 0. -1.
         21   -1    0    0  501  502  0.00000000000E+00 -0.00000000000E+00 -0.71609919731E+03  0.71609919731E+03  0.00000000000E+00 0.  1.
        -13    1    1    2    0    0 -0.29608288695E+03  0.37542597276E+02  0.17586784636E+03  0.34641598275E+03  0.10566000000E+00 0.  1.
         13    1    1    2    0    0  0.55383041847E+03 -0.16973267724E+03  0.82550383578E+02  0.58510844391E+03  0.10566000000E+00 0. -1.
         -4    1    1    2    0  502 -0.25774753152E+03  0.13219007996E+03 -0.32427744549E+03  0.43481475239E+03  0.00000000000E+00 0. -1.
</event>
<event>
 5    1  0.1008363E-004  0.1350253E+03  0.7818608E-02  0.1116897E+00
         21   -1    0    0  501  502  0.00000000000E+00  0.00000000000E+00  0.38352377316E+03  0.38352377316E+03  0.00000000000E+00 0.  1.
          4   -1    0    0  502    0 -0.00000000000E+00 -0.00000000000E+00 -0.66623237561E+03  0.66623237561E+03  0.00000000000E+00 0.  1.
        -13    1    1    2    0    0 -0.11957639738E+03  0.68771475439E+02 -0.37208549772E+03  0.39683202923E+03  0.10566000000E+00 0.  1.
         13    1    1    2    0    0  0.10405518109E+03 -0.81422394853E+02 -0.26598767014E+03  0.29699585674E+03  0.10566000000E+00 0. -1.
          4    1    1    2  501    0  0.15521216296E+02  0.12650919414E+02  0.35536456540E+03  0.35592826280E+03  0.00000000000E+00 0.  1.
</event>
<event>
 5    1  0.1008363E-004  0.9393257E+02  0.7818608E-02  0.1175004E+00
          4   -1    0    0  502    0 -0.00000000000E+00  0.00000000000E+00  0.44996786569E+03  0.44996786569E+03  0.00000000000E+00 0.  1.
         21   -1    0    0  501  502  0.00000000000E+00 -0.00000000000E+00 -0.43559373427E+02  0.43559373427E+02  0.00000000000E+00 0. -1.
        -13    1    1    2    0    0 -0.19462425460E+02 -0.97410757126E+02  0.37004595865E+03  0.38314705308E+03  0.10566000000E+00 0.  1.
         13    1    1    2    0    0  0.57873578224E+00  0.74036480423E+02  0.28351807515E+02  0.79281596364E+02  0.10566000000E+00 0. -1.
          4    1    1    2  501    0  0.18883689677E+02  0.23374276702E+02  0.80107261036E+01  0.31098589677E+02  0.00000000000E+00 0.  1.
</event>
<event>
 5    1  0.1008363E-004  0.7795263E+02  0.7818608E-02  0.1256590E+00
         21   -1    0    0  501  502  0.00000000000E+00  0.00000000000E+00  0.12841971439E+03  0.12841971439E+03  0.00000000000E+00 0.  1.
          4   -1    0    0  502    0 -0.00000000000E+00 -0.00000000000E+00 -0.24429103288E+03  0.24429103288E+03  0.00000000000E+00 0.  1.
        -13    1    1    2    0    0 -0.85374192664E+02 -0.52345599386E+02 -0.20817973948E+03  0.23101434942E+03  0.10566000000E+00 0.  1.
         13    1    1    2    0    0  0.26489462702E+02  0.44408656664E+01  0.44526490660E+02  0.52000312082E+02  0.10566000000E+00 0. -1.
          4    1    1    2  501    0  0.58884729962E+02  0.47904733720E+02  0.47781930321E+02  0.89696085760E+02  0.00000000000E+00 0.  1.
</event>
<event>
 5    1  0.1008363E-004  0.4767272E+03  0.7818608E-02  0.9739113E-01
         21   -1    0    0  501  502  0.00000000000E+00  0.00000000000E+00  0.16623770522E+03  0.16623770522E+03  0.00000000000E+00 0.  1.
          4   -1    0    0  502    0 -0.00000000000E+00 -0.00000000000E+00 -0.23527304117E+04  0.23527304117E+04  0.00000000000E+00 0.  1.
        -13    1    1    2    0    0 -0.36221967538E+03  0.11415995415E+03 -0.12138818207E+04  0.12719059219E+04  0.10566000000E+00 0.  1.
         13    1    1    2    0    0 -0.17659652263E+03 -0.14452201653E+03 -0.39786292014E+03  0.45865876145E+03  0.10566000000E+00 0. -1.
          4    1    1    2  501    0  0.53881619801E+03  0.30362062376E+02 -0.57474796562E+03  0.78840343356E+03  0.00000000000E+00 0.  1.
</event>
<event>
 5    1  0.1008363E-004  0.4226776E+02  0.7818608E-02  0.1326928E+00
          4   -1    0    0  502    0 -0.00000000000E+00  0.00000000000E+00  0.53416625433E+02  0.53416625433E+02  0.00000000000E+00 0.  1.
         21   -1    0    0  501  502  0.00000000000E+00 -0.00000000000E+00 -0.99209850467E+02  0.99209850467E+02  0.00000000000E+00 0.  1.
        -13    1    1    2    0    0 -0.44607834634E+02  0.13099608864E+02  0.23048440723E+02  0.51891236707E+02  0.10566000000E+00 0.  1.
         13    1    1    2    0    0  0.35108644499E+02 -0.85349974576E+01 -0.55296311845E+01  0.36552032573E+02  0.10566000000E+00 0. -1.
          4    1    1    2  501    0  0.94991901354E+01 -0.45646114060E+01 -0.63312034572E+02  0.64183206621E+02  0.00000000000E+00 0.  1.
</event>
<event>
 5    1  0.1008363E-004  0.5667505E+03  0.7818608E-02  0.9346850E-01
         21   -1    0    0  501  502  0.00000000000E+00  0.00000000000E+00  0.10534476701E+04  0.10534476701E+04  0.00000000000E+00 0.  1.
          4   -1    0    0  502    0 -0.00000000000E+00 -0.00000000000E+00 -0.10581414253E+04  0.10581414253E+04  0.00000000000E+00 0.  1.
        -13    1    1    2    0    0  0.14215836025E+03 -0.59551789229E+03  0.12565868214E+03  0.62501253987E+03  0.10566000000E+00 0.  1.
         13    1    1    2    0    0  0.40748105560E+03  0.45730573403E+03 -0.51614225895E+03  0.80098201459E+03  0.10566000000E+00 0. -1.
          4    1    1    2  501    0 -0.54963941585E+03  0.13821215827E+03  0.38578982164E+03  0.68559454099E+03  0.00000000000E+00 0.  1.
</event>
<event>
 5    1  0.1008363E-004  0.3674126E+03  0.7818608E-02  0.9828187E-01
         -4   -1    0    0    0  501 -0.00000000000E+00  0.00000000000E+00  0.12676092237E+04  0.12676092237E+04  0.00000000000E+00 0. -1.
         21   -1    0    0  501  502  0.00000000000E+00 -0.00000000000E+00 -0.86490431921E+03  0.86490431921E+03  0.00000000000E+00 0. -1.
        -13    1    1    2    0    0  0.37969494595E+03 -0.61693016913E+02  0.89480867906E+03  0.97399017634E+03  0.10566000000E+00 0.  1.
         13    1    1    2    0    0 -0.32904767801E+03 -0.20745758502E+03  0.18307276392E+03  0.42991472647E+03  0.10566000000E+00 0. -1.
         -4    1    1    2    0  502 -0.50647267944E+02  0.26915060194E+03 -0.67517653849E+03  0.72860864008E+03  0.00000000000E+00 0. -1.
</event>
<event>
 5    1  0.1008363E-004  0.2163011E+03  0.7818608E-02  0.1049501E+00
         21   -1    0    0  501  502  0.00000000000E+00  0.00000000000E+00  0.14101664845E+03  0.14101664845E+03  0.00000000000E+00 0. -1.
          4   -1    0    0  502    0 -0.00000000000E+00 -0.00000000000E+00 -0.75038286160E+03  0.75038286160E+03  0.00000000000E+00 0.  1.
        -13    1    1    2    0    0  0.37451764957E+02  0.22047408358E+03 -0.59961016640E+03  0.63995610712E+03  0.10566000000E+00 0.  1.
         13    1    1    2    0    0 -0.64089549088E+02 -0.17933496995E+03 -0.38966618130E+02  0.19438855481E+03  0.10566000000E+00 0. -1.
          4    1    1    2  501    0  0.26637784131E+02 -0.41139113633E+02  0.29210571378E+02  0.57054848121E+02  0.00000000000E+00 0.  1.
</event>
<event>
 5    1  0.1008363E-004  0.4596109E+03  0.7818608E-02  0.9959965E-01
         21   -1    0    0  501  502  0.00000000000E+00  0.00000000000E+00  0.26106859220E+03  0.26106859220E+03  0.00000000000E+00 0.  1.
          4   -1    0    0  502    0 -0.00000000000E+00 -0.00000000000E+00 -0.12998810141E+04  0.12998810141E+04  0.00000000000E+00 0.  1.
        -13    1    1    2    0    0 -0.44996391842E+03 -0.57342111320E+02 -0.32105711523E+03  0.55572774630E+03  0.10566000000E+00 0.  1.
         13    1    1    2    0    0 -0.18674177501E+02  0.11925918345E+03 -0.44150492696E+03  0.45770961257E+03  0.10566000000E+00 0. -1.
          4    1    1    2  501    0  0.46863809592E+03 -0.61917072131E+02 -0.27625037967E+03  0.54751224738E+03  0.00000000000E+00 0.  1.
</event>
<event>
 5    1  0.1008363E-004  0.4563581E+03  0.7818608E-02  0.9579126E-01
         21   -1    0    0  501  502  0.00000000000E+00  0.00000000000E+00  0.35863225764E+03  0.35863225764E+03  0.00000000000E+00 0.  1.
          4   -1    0    0  502    0 -0.00000000000E+00 -0.00000000000E+00 -0.21569225884E+04  0.21569225884E+04  0.00000000000E+00 0.  1.
        -13    1    1    2    0    0  0.44116862439E+03 -0.51651517484E+03 -0.18015534450E+03  0.70276143912E+03  0.10566000000E+00 0.  1.
         13    1    1    2    0    0 -0.12376981340E+03  0.41330386713E+03 -0.12155803881E+04  0.12898739258E+04  0.10566000000E+00 0. -1.
          4    1    1    2  501    0 -0.31739881099E+03  0.10321130771E+03 -0.40255459809E+03  0.52291948109E+03  0.00000000000E+00 0.  1.
</event>
<event>
 5    1  0.1008363E-004  0.1701590E+03  0.7818608E-02  0.1082771E+00
         21   -1    0    0  501  502  0.00000000000E+00  0.00000000000E+00  0.36788468000E+03  0.36788468000E+03  0.00000000000E+00 0. -1.
          4   -1    0    0  502    0 -0.00000000000E+00 -0.00000000000E+00 -0.53058136025E+03  0.53058136025E+03  0.00000000000E+00 0.  1.
        -13    1    1    2    0    0  0.77094291409E+02  0.15115463386E+03 -0.48959738332E+03  0.51816682837E+03  0.10566000000E+00 0.  1.
         13    1    1    2    0    0 -0.82496945598E+02 -0.16080619593E+03  0.28937886939E+03  0.34118106615E+03  0.10566000000E+00 0. -1.
          4    1    1    2  501    0  0.54026541884E+01  0.96515620705E+01  0.37521833685E+02  0.39118145735E+02  0.00000000000E+00 0.  1.
</event>
<event>
 5    1  0.1008363E-004  0.6913044E+02  0.7818608E-02  0.1251834E+00
         21   -1    0    0  501  502  0.00000000000E+00  0.00000000000E+00  0.42259681422E+02  0.42259681422E+02  0.00000000000E+00 0.  1.
          4   -1    0    0  502    0 -0.00000000000E+00 -0.00000000000E+00 -0.20827337258E+03  0.20827337258E+03  0.00000000000E+00 0.  1.
        -13    1    1    2    0    0 -0.74509453698E+02 -0.46902002292E+02 -0.60728914704E+02  0.10695545220E+03  0.10566000000E+00 0.  1.
         13    1    1    2    0    0  0.20394352136E+02  0.37313474173E+02 -0.42154641634E+02  0.59876956579E+02  0.10566000000E+00 0. -1.
          4    1    1    2  501    0  0.54115101563E+02  0.95885281189E+01 -0.63130134819E+02  0.83700645224E+02  0.00000000000E+00 0.  1.
</event>
<event>
 5    1  0.1008363E-004  0.3576350E+03  0.7818608E-02  0.9860073E-01
          4   -1    0    0  502    0 -0.00000000000E+00  0.00000000000E+00  0.19968506992E+04  0.19968506992E+04  0.00000000000E+00 0.  1.
         21   -1    0    0  501  502  0.00000000000E+00 -0.00000000000E+00 -0.21795738630E+03  0.21795738630E+03  0.00000000000E+00 0.  1.
        -13    1    1    2    0    0  0.32809115809E+03 -0.32270013329E+03  0.13130850982E+04  0.13913919902E+04  0.10566000000E+00 0.  1.
         13    1    1    2    0    0 -0.22044228215E+03  0.16338869075E+03  0.54912869601E+03  0.61386724946E+03  0.10566000000E+00 0. -1.
          4    1    1    2  501    0 -0.10764887595E+03  0.15931144254E+03 -0.83320481262E+02  0.20954884590E+03  0.00000000000E+00 0.  1.
</event>
<event>
 5    1  0.1008363E-004  0.3474173E+03  0.7818608E-02  0.1014867E+00
         21   -1    0    0  501  502  0.00000000000E+00  0.00000000000E+00  0.31656990194E+03  0.31656990194E+03  0.00000000000E+00 0.  1.
          4   -1    0    0  502    0 -0.00000000000E+00 -0.00000000000E+00 -0.23502545587E+04  0.23502545587E+04  0.00000000000E+00 0.  1.
        -13    1    1    2    0    0 -0.14708164252E+03  0.13617069457E+03  0.72459999963E+02  0.21313359751E+03  0.10566000000E+00 0.  1.
         13    1    1    2    0    0 -0.43506012879E+03  0.29559500291E+03 -0.10251121215E+04  0.11521755918E+04  0.10566000000E+00 0. -1.
          4    1    1    2  501    0  0.58214177132E+03 -0.43176569748E+03 -0.10810325352E+04  0.13015152713E+04  0.00000000000E+00 0.  1.
</event>
<event>
 5    1  0.1008363E-004  0.1899397E+03  0.7818608E-02  0.1067260E+00
         21   -1    0    0  501  502  0.00000000000E+00  0.00000000000E+00  0.34357471181E+03  0.34357471181E+03  0.00000000000E+00 0. -1.
         -4   -1    0    0    0  501 -0.00000000000E+00 -0.00000000000E+00 -0.17635068142E+04  0.17635068142E+04  0.00000000000E+00 0. -1.
        -13    1    1    2    0    0  0.13650043091E+03  0.13357213647E+03 -0.10736995156E+04  0.10905524032E+04  0.10566000000E+00 0.  1.
         13    1    1    2    0    0 -0.29839436270E+02 -0.18165415595E+03  0.30425055101E+03  0.35560797697E+03  0.10566000000E+00 0. -1.
         -4    1    1    2    0  502 -0.10666099464E+03  0.48082019478E+02 -0.65048313782E+03  0.66092114580E+03  0.00000000000E+00 0. -1.
</event>
<event>
 5    1  0.1008363E-004  0.1369825E+03  0.7818608E-02  0.1114711E+00
         21   -1    0    0  501  502  0.00000000000E+00  0.00000000000E+00  0.11955737764E+04  0.11955737764E+04  0.00000000000E+00 0.  1.
         -4   -1    0    0    0  501 -0.00000000000E+00 -0.00000000000E+00 -0.38642063572E+02  0.38642063572E+02  0.00000000000E+00 0. -1.
        -13    1    1    2    0    0  0.25022176980E+02 -0.13039994533E+03  0.74311439043E+03  0.75488360925E+03  0.10566000000E+00 0.  1.
         13    1    1    2    0    0  0.12903060226E+02  0.13814150261E+03  0.12137866036E+03  0.18434303366E+03  0.10566000000E+00 0. -1.
         -4    1    1    2    0  502 -0.37925237205E+02 -0.77415572762E+01  0.29243866204E+03  0.29498919706E+03  0.00000000000E+00 0. -1.
</event>
<event>
 5    1  0.1008363E-004  0.4840865E+03  0.7818608E-02  0.9695560E-01
         -4   -1    0    0    0  501 -0.00000000000E+00  0.00000000000E+00  0.12524136655E+04  0.12524136655E+04  0.00000000000E+00 0. -1.
         21   -1    0    0  501  502  0.00000000000E+00 -0.00000000000E+00 -0.34231334948E+03  0.34231334948E+03  0.00000000000E+00 0.  1.
        -13    1    1    2    0    0 -0.12470703253E+03 -0.22071446099E+03  0.87944911300E+02  0.26833008747E+03  0.10566000000E+00 0.  1.
         13    1    1    2    0    0  0.66889690229E+02  0.62552422973E+03  0.54574231673E+03  0.83282019672E+03  0.10566000000E+00 0. -1.
         -4    1    1    2    0  502  0.57817342301E+02 -0.40480976874E+03  0.27641308795E+03  0.49357673074E+03  0.00000000000E+00 0. -1.
</event>
<event>
 5    1  0.1008363E-004  0.2126083E+03  0.7818608E-02  0.1059065E+00
         -4   -1    0    0    0  501 -0.00000000000E+00  0.00000000000E+00  0.10510878903E+04  0.10510878903E+04  0.00000000000E+00 0. -1.
         21   -1    0    0  501  502  0.00000000000E+00 -0.00000000000E+00 -0.57002332770E+03  0.57002332770E+03  0.00000000000E+00 0. -1.
        -13    1    1    2    0    0 -0.11060783719E+03 -0.13142611889E+03  0.57874000069E+03  0.60369439118E+03  0.10566000000E+00 0.  1.
         13    1    1    2    0    0  0.31750670792E+03  0.13881754230E+03  0.36941182950E+03  0.50650363332E+03  0.10566000000E+00 0. -1.
         -4    1    1    2    0  502 -0.20689887074E+03 -0.73914234022E+01 -0.46708726754E+03  0.51091319356E+03  0.00000000000E+00 0. -1.
</event>
<event>
 5    1  0.1008363E-004  0.4314065E+02  0.7818608E-02  0.1322551E+00
         21   -1    0    0  501  502  0.00000000000E+00  0.00000000000E+00  0.60645675687E+02  0.60645675687E+02  0.00000000000E+00 0.  1.
          4   -1    0    0  502    0 -0.00000000000E+00 -0.00000000000E+00 -0.25875254893E+03  0.25875254893E+03  0.00000000000E+00 0.  1.
        -13    1    1    2    0    0 -0.80650925379E+01 -0.44372661695E+02 -0.23767084909E+03  0.24191201395E+03  0.10566000000E+00 0.  1.
         13    1    1    2    0    0 -0.14877930939E+02  0.28716269992E+02  0.43451389678E+01  0.32632321217E+02  0.10566000000E+00 0. -1.
          4    1    1    2  501    0  0.22943023477E+02  0.15656391703E+02  0.35218836879E+02  0.44853889447E+02  0.00000000000E+00 0.  1.
</event>
<event>
 5    1  0.1008363E-004  0.4251166E+03  0.7818608E-02  0.9659190E-01
         21   -1    0    0  501  502  0.00000000000E+00  0.00000000000E+00  0.17966682721E+03  0.17966682721E+03  0.00000000000E+00 0. -1.
          4   -1    0    0  502    0 -0.00000000000E+00 -0.00000000000E+00 -0.21634752969E+04  0.21634752969E+04  0.00000000000E+00 0.  1.
        -13    1    1    2    0    0  0.13913222072E+02 -0.39437483551E+03 -0.11859525434E+04  0.12498834085E+04  0.10566000000E+00 0.  1.
         13    1    1    2    0    0  0.71781369414E+02  0.49068759931E+03 -0.82399836654E+03  0.96171732039E+03  0.10566000000E+00 0. -1.
          4    1    1    2  501    0 -0.85694591487E+02 -0.96312763797E+02  0.26142440181E+02  0.13154139523E+03  0.00000000000E+00 0.  1.
</event>
<event>
 5    1  0.1008363E-004  0.4920897E+03  0.7818608E-02  0.9581334E-01
         -4   -1    0    0    0  501 -0.00000000000E+00  0.00000000000E+00  0.27549064839E+04  0.27549064839E+04  0.00000000000E+00 0. -1.
         21   -1    0    0  501  502  0.00000000000E+00 -0.00000000000E+00 -0.20538434302E+03  0.20538434302E+03  0.00000000000E+00 0.  1.
        -13    1    1    2    0    0  0.32890206324E+03  0.14912368463E+03  0.29396146024E+03  0.46564771210E+03  0.10566000000E+00 0.  1.
         13    1    1    2    0    0  0.12888690242E+03  0.28091820983E+03  0.13974666659E+04  0.14312372157E+04  0.10566000000E+00 0. -1.
         -4    1    1    2    0  502 -0.45778896566E+03 -0.43004189446E+03  0.85809401473E+03  0.10634058991E+04  0.00000000000E+00 0. -1.
</event>
<event>
 5    1  0.1008363E-004  0.3696616E+03  0.7818608E-02  0.9821002E-01
         -4   -1    0    0    0  501 -0.00000000000E+00  0.00000000000E+00  0.75820211144E+03  0.75820211144E+03  0.00000000000E+00 0. -1.
         21   -1    0    0  501  502  0.00000000000E+00 -0.00000000000E+00 -0.40680165415E+03  0.40680165415E+03  0.00000000000E+00 0.  1.
        -13    1    1    2    0    0  0.16423918273E+03  0.30926053763E+03 -0.17491736451E+03  0.39142391962E+03  0.10566000000E+00 0.  1.
         13    1    1    2    0    0 -0.15490103765E+03 -0.33984244598E+03  0.59232235682E+03  0.70023782040E+03  0.10566000000E+00 0. -1.
         -4    1    1    2    0  502 -0.93381450815E+01  0.30581908353E+02 -0.66004535018E+02  0.73342025572E+02  0.00000000000E+00 0. -1.
</event>
<event>
 5    1  0.1008363E-004  0.7527772E+02  0.7818608E-02  0.1213524E+00
         21   -1    0    0  501  502  0.00000000000E+00  0.00000000000E+00  0.38169047804E+03  0.38169047804E+03  0.00000000000E+00 0.  1.
         -4   -1    0    0    0  501 -0.00000000000E+00 -0.00000000000E+00 -0.53694811336E+02  0.53694811336E+02  0.00000000000E+00 0. -1.
        -13    1    1    2    0    0  0.87828943250E+02  0.46533164149E+02  0.24870645134E+03  0.26783235193E+03  0.10566000000E+00 0.  1.
         13    1    1    2    0    0 -0.68234670304E+02 -0.24354111619E+02 -0.10321042654E+02  0.73182156771E+02  0.10566000000E+00 0. -1.
         -4    1    1    2    0  502 -0.19594272946E+02 -0.22179052529E+02  0.89610258015E+02  0.94370780674E+02  0.00000000000E+00 0. -1.
</event>
<event>
 5    1  0.1008363E-004  0.2836067E+03  0.7818608E-02  0.1069872E+00
         -4   -1    0    0    0  501 -0.00000000000E+00  0.00000000000E+00  0.75547901284E+03  0.75547901284E+03  0.00000000000E+00 0. -1.
         21   -1    0    0  501  502  0.00000000000E+00 -0.00000000000E+00 -0.42864988982E+03  0.42864988982E+03  0.00000000000E+00 0. -1.
        -13    1    1    2    0    0 -0.48104945851E+02  0.22094472519E+02  0.20818552413E+03  0.21481032367E+03  0.10566000000E+00 0.  1.
         13    1    1    2    0    0  0.13151686619E+03 -0.28955403392E+03  0.44005428282E+03  0.54294199289E+03  0.10566000000E+00 0. -1.
         -4    1    1    2    0  502 -0.83411920342E+02  0.26745956140E+03 -0.32141068392E+03  0.42637658611E+03  0.00000000000E+00 0. -1.
</event>
<event>
 5    1  0.1008363E-004  0.8229846E+02  0.7818608E-02  0.1197713E+00
         -4   -1    0    0    0  501 -0.00000000000E+00  0.00000000000E+00  0.20018609091E+03  0.20018609091E+03  0.00000000000E+00 0. -1.
         21   -1    0    0  501  502  0.00000000000E+00 -0.00000000000E+00 -0.18856182230E+03  0.18856182230E+03  0.00000000000E+00 0.  1.
        -13    1    1    2    0    0 -0.80731480935E+02  0.64975611405E+02 -0.10600046704E+03  0.14824139863E+03  0.10566000000E+00 0.  1.
         13    1    1    2    0    0  0.63567655328E+02 -0.49795965475E+02  0.16731840798E+03  0.18578467588E+03  0.10566000000E+00 0. -1.
         -4    1    1    2    0  502  0.17163825607E+02 -0.15179645930E+02 -0.49693672329E+02  0.54721838689E+02  0.00000000000E+00 0. -1.
</event>
<event>
 5    1  0.1008363E-004  0.4190953E+03  0.7818608E-02  0.9993698E-01
          4   -1    0    0  502    0 -0.00000000000E+00  0.00000000000E+00  0.19758793988E+04  0.19758793988E+04  0.00000000000E+00 0.  1.
         21   -1    0    0  501  502  0.00000000000E+00 -0.00000000000E+00 -0.16883275461E+03  0.16883275461E+03  0.00000000000E+00 0.  1.
        -13    1    1    2    0    0 -0.44949147562E+03 -0.29505699930E+02  0.26236990538E+03  0.52129756512E+03  0.10566000000E+00 0.  1.
         13    1    1    2    0    0  0.13695266265E+03  0.39284043100E+02  0.21831722198E+03  0.26069462677E+03  0.10566000000E+00 0. -1.
          4    1    1    2  501    0  0.31253881297E+03 -0.97783431700E+01  0.13263595168E+04  0.13627199615E+04  0.00000000000E+00 0.  1.
</event>
<event>
 5    1  0.1008363E-004  0.4350775E+03  0.7818608E-02  0.9938118E-01
         21   -1    0    0  501  502  0.00000000000E+00  0.00000000000E+00  0.17513752201E+03  0.17513752201E+03  0.00000000000E+00 0.  1.
          4   -1    0    0  502    0 -0.00000000000E+00 -0.00000000000E+00 -0.16826088471E+04  0.16826088471E+04  0.00000000000E+00 0.  1.
        -13    1    1    2    0    0  0.50898123027E+03 -0.11930283130E+03 -0.90816529512E+03  0.10478832343E+04  0.10566000000E+00 0.  1.
         13    1    1    2    0    0 -0.12015977173E+03  0.94687780991E+02 -0.13779178817E+03  0.20589010336E+03  0.10566000000E+00 0. -1.
          4    1    1    2  501    0 -0.38882145854E+03  0.24615050310E+02 -0.46151424185E+03  0.60397303148E+03  0.00000000000E+00 0.  1.
</event>
<event>
 5    1  0.1008363E-004  0.4616360E+03  0.7818608E-02  0.9981554E-01
          4   -1    0    0  502    0 -0.00000000000E+00  0.00000000000E+00  0.35450902046E+04  0.35450902046E+04  0.00000000000E+00 0.  1.
         21   -1    0    0  501  502  0.00000000000E+00 -0.00000000000E+00 -0.88368156470E+02  0.88368156470E+02  0.00000000000E+00 0.  1.
        -13    1    1    2    0    0  0.19926901504E+03  0.49538167002E+03  0.21556462879E+04  0.22207931171E+04  0.10566000000E+00 0.  1.
         13    1    1    2    0    0 -0.64702755054E+01 -0.11075646804E+03  0.38355926267E+03  0.39928258016E+03  0.10566000000E+00 0. -1.
          4    1    1    2  501    0 -0.19279873954E+03 -0.38462520198E+03  0.91751649757E+03  0.10133826638E+04  0.00000000000E+00 0.  1.
</event>
<event>
 5    1  0.1008363E-004  0.1785355E+03  0.7818608E-02  0.1118330E+00
          4   -1    0    0  502    0 -0.00000000000E+00  0.00000000000E+00  0.54608404647E+03  0.54608404647E+03  0.00000000000E+00 0.  1.
         21   -1    0    0  501  502  0.00000000000E+00 -0.00000000000E+00 -0.16659895830E+03  0.16659895830E+03  0.00000000000E+00 0.  1.
        -13    1    1    2    0    0 -0.15217243203E+03  0.83112783876E+02 -0.51864143786E+02  0.18098089537E+03  0.10566000000E+00 0.  1.
         13    1    1    2    0    0  0.72806843255E+01  0.55781668334E+02  0.26532489649E+03  0.27122299820E+03  0.10566000000E+00 0. -1.
          4    1    1    2  501    0  0.14489174771E+03 -0.13889445221E+03  0.16602433546E+03  0.26047911120E+03  0.00000000000E+00 0.  1.
</event>
<event>
 5    1  0.1008363E-004  0.4994907E+02  0.7818608E-02  0.1291996E+00
         -4   -1    0    0    0  501 -0.00000000000E+00  0.00000000000E+00  0.94927250276E+02  0.94927250276E+02  0.00000000000E+00 0. -1.
         21   -1    0    0  501  502  0.00000000000E+00 -0.00000000000E+00 -0.51592124662E+02  0.51592124662E+02  0.00000000000E+00 0.  1.
        -13    1    1    2    0    0  0.21683140272E+01  0.43568872191E+02  0.22935085576E+02  0.49284658102E+02  0.10566000000E+00 0.  1.
         13    1    1    2    0    0  0.35654542202E+01 -0.56887032389E+02  0.42292768009E+02  0.70975603610E+02  0.10566000000E+00 0. -1.
         -4    1    1    2    0  502 -0.57337682474E+01  0.13318160198E+02 -0.21892727972E+02  0.26259113226E+02  0.00000000000E+00 0. -1.
</event>
<event>
 5    1  0.1008363E-004  0.4591287E+03  0.7818608E-02  0.1002687E+00
          4   -1    0    0  502    0 -0.00000000000E+00  0.00000000000E+00  0.41991899826E+03  0.41991899826E+03  0.00000000000E+00 0.  1.
         21   -1    0    0  501  502  0.00000000000E+00 -0.00000000000E+00 -0.90364613156E+03  0.90364613156E+03  0.00000000000E+00 0.  1.
        -13    1    1    2    0    0 -0.43892037572E+03 -0.18760265060E+03 -0.81539608368E+02  0.48424639351E+03  0.10566000000E+00 0.  1.
         13    1    1    2    0    0 -0.62417002544E+01  0.97022034816E+02  0.11523513336E+03  0.15076929789E+03  0.10566000000E+00 0. -1.
          4    1    1    2  501    0  0.44516207597E+03  0.90580615785E+02 -0.51742265829E+03  0.68854943842E+03  0.00000000000E+00 0.  1.
</event>
<event>
 5    1  0.1008363E-004  0.6376090E+02  0.7818608E-02  0.1244115E+00
          4   -1    0    0  502    0 -0.00000000000E+00  0.00000000000E+00  0.58283004545E+02  0.58283004545E+02  0.00000000000E+00 0.  1.
         21   -1    0    0  501  502  0.00000000000E+00 -0.00000000000E+00 -0.34745965555E+03  0.34745965555E+03  0.00000000000E+00 0. -1.
        -13    1    1    2    0    0 -0.38665375175E+02 -0.49327532864E+02  0.24861577098E+02  0.67426448191E+02  0.10566000000E+00 0.  1.
         13    1    1    2    0    0  0.65077984280E+02  0.37049207700E+02 -0.11549420121E+03  0.13764704685E+03  0.10566000000E+00 0. -1.
          4    1    1    2  501    0 -0.26412609106E+02  0.12278325164E+02 -0.19854402689E+03  0.20066916505E+03  0.00000000000E+00 0.  1.
</event>
<event>
 5    1  0.1008363E-004  0.4805577E+03  0.7818608E-02  0.9812733E-01
         -4   -1    0    0    0  501 -0.00000000000E+00  0.00000000000E+00  0.14166561486E+04  0.14166561486E+04  0.00000000000E+00 0. -1.
         21   -1    0    0  501  502  0.00000000000E+00 -0.00000000000E+00 -0.26845447658E+03  0.26845447658E+03  0.00000000000E+00 0. -1.
        -13    1    1    2    0    0  0.80039945271E+01 -0.17287545189E+03  0.42650853404E+03  0.46028200765E+03  0.10566000000E+00 0.  1.
         13    1    1    2    0    0  0.46657981706E+03  0.19482462068E+03  0.45385865242E+03  0.67944171645E+03  0.10566000000E+00 0. -1.
         -4    1    1    2    0  502 -0.47458381158E+03 -0.21949168791E+02  0.26783448559E+03  0.54538690111E+03  0.00000000000E+00 0. -1.
</event>
<event>
 5    1  0.1008363E-004  0.1825773E+03  0.7818608E-02  0.1072784E+00
         21   -1    0    0  501  502  0.00000000000E+00  0.00000000000E+00  0.52904766423E+02  0.52904766423E+02  0.00000000000E+00 0. -1.
         -4   -1    0    0    0  501 -0.00000000000E+00 -0.00000000000E+00 -0.13092484585E+04  0.13092484585E+04  0.00000000000E+00 0. -1.
        -13    1    1    2    0    0 -0.13579958476E+03  0.12763339297E+02 -0.17409455629E+03  0.22116364019E+03  0.10566000000E+00 0.  1.
         13    1    1    2    0    0  0.18583065831E+03 -0.13474054469E+03 -0.68779189178E+03  0.72508326798E+03  0.10566000000E+00 0. -1.
         -4    1    1    2    0  502 -0.50031073554E+02  0.12197720539E+03 -0.39445724401E+03  0.41590631675E+03  0.00000000000E+00 0. -1.
</event>
<event>
 5    1  0.1008363E-004  0.2333713E+03  0.7818608E-02  0.1062156E+00
         21   -1    0    0  501  502  0.00000000000E+00  0.00000000000E+00  0.18861060736E+03  0.18861060736E+03  0.00000000000E+00 0. -1.
         -4   -1    0    0    0  501 -0.00000000000E+00 -0.00000000000E+00 -0.55702862498E+03  0.55702862498E+03  0.00000000000E+00 0. -1.
        -13    1    1    2    0    0 -0.10858628851E+03 -0.47930707817E+02 -0.38835777172E+01  0.11875785508E+03  0.10566000000E+00 0.  1.
         13    1    1    2    0    0 -0.89577550564E+02  0.21260925547E+03 -0.82861282458E+02  0.24513840248E+03  0.10566000000E+00 0. -1.
         -4    1    1    2    0  502  0.19816383907E+03 -0.16467854765E+03 -0.28167315744E+03  0.38174297478E+03  0.00000000000E+00 0. -1.
</event>
<event>
 5    1  0.1008363E-004  0.2604969E+03  0.7818608E-02  0.1025092E+00
          4   -1    0    0  502    0 -0.00000000000E+00  0.00000000000E+00  0.10415618731E+04  0.10415618731E+04  0.00000000000E+00 0.  1.
         21   -1    0    0  501  502  0.00000000000E+00 -0.00000000000E+00 -0.66419602031E+03  0.66419602031E+03  0.00000000000E+00 0.  1.
        -13    1    1    2    0    0  0.43641185229E+02  0.27421655943E+03  0.36310469276E+03  0.45710425899E+03  0.10566000000E+00 0.  1.
         13    1    1    2    0    0 -0.11510250633E+03 -0.22819524151E+03  0.60241515334E+03  0.65438955015E+03  0.10566000000E+00 0. -1.
          4    1    1    2  501    0  0.71461321099E+02 -0.46021317925E+02 -0.58815399327E+03  0.59426408432E+03  0.00000000000E+00 0.  1.
</event>
<event>
 5    1  0.1008363E-004  0.7023126E+02  0.7818608E-02  0.1226122E+00
          4   -1    0    0  502    0 -0.00000000000E+00  0.00000000000E+00  0.12928989492E+03  0.12928989492E+03  0.00000000000E+00 0.  1.
         21   -1    0    0  501  502  0.00000000000E+00 -0.00000000000E+00 -0.11882378947E+03  0.11882378947E+03  0.00000000000E+00 0. -1.
        -13    1    1    2    0    0  0.15146346481E+02  0.67207300729E+02  0.97112098071E+02  0.11906722403E+03  0.10566000000E+00 0.  1.
         13    1    1    2    0    0 -0.24594332445E+02 -0.77221941995E+02 -0.67546704764E+02  0.10550202843E+03  0.10566000000E+00 0. -1.
          4    1    1    2  501    0  0.94479859637E+01  0.10014641266E+02 -0.19099287859E+02  0.23544431936E+02  0.00000000000E+00 0.  1.
</event>
<event>
 5    1  0.1008363E-004  0.2616994E+03  0.7818608E-02  0.1024502E+00
         -4   -1    0    0    0  501 -0.00000000000E+00  0.00000000000E+00  0.83939598232E+03  0.83939598232E+03  0.00000000000E+00 0. -1.
         21   -1    0    0  501  502  0.00000000000E+00 -0.00000000000E+00 -0.20977505276E+03  0.20977505276E+03  0.00000000000E+00 0. -1.
        -13    1    1    2    0    0 -0.14223806436E+03  0.22757876382E+03  0.20266117237E+03  0.33629648027E+03  0.10566000000E+00 0.  1.
         13    1    1    2    0    0  0.13311937778E+03 -0.22191261991E+03  0.54027504221E+03  0.59905184418E+03  0.10566000000E+00 0. -1.
         -4    1    1    2    0  502  0.91186865784E+01 -0.56661439137E+01 -0.11331528503E+03  0.11382271062E+03  0.00000000000E+00 0. -1.
</event>
<event>
 5    1  0.1008363E-004  0.4708493E+03  0.7818608E-02  0.9612262E-01
         21   -1    0    0  501  502  0.00000000000E+00  0.00000000000E+00  0.48236951103E+03  0.48236951103E+03  0.00000000000E+00 0.  1.
         -4   -1    0    0    0  501 -0.00000000000E+00 -0.00000000000E+00 -0.12366145130E+04  0.12366145130E+04  0.00000000000E+00 0. -1.
        -13    1    1    2    0    0  0.17139008218E+02  0.36886479661E+03  0.64637501412E+02  0.37487731531E+03  0.10566000000E+00 0.  1.
         13    1    1    2    0    0 -0.41938985725E+03 -0.11288142865E+02 -0.66156394010E+03  0.78337866485E+03  0.10566000000E+00 0. -1.
         -4    1    1    2    0  502  0.40225084903E+03 -0.35757665375E+03 -0.15731856332E+03  0.56072804390E+03  0.00000000000E+00 0. -1.
</event>
<event>
 5    1  0.1008363E-004  0.4355494E+03  0.7818608E-02  0.9706096E-01
          4   -1    0    0  502    0 -0.00000000000E+00  0.00000000000E+00  0.15285372110E+04  0.15285372110E+04  0.00000000000E+00 0.  1.
         21   -1    0    0  501  502  0.00000000000E+00 -0.00000000000E+00 -0.37539288899E+03  0.37539288899E+03  0.00000000000E+00 0. -1.
        -13    1    1    2    0    0  0.65000905716E+03 -0.19394955587E+03  0.89275597943E+03  0.11212231957E+04  0.10566000000E+00 0.  1.
         13    1    1    2    0    0 -0.30456238983E+03  0.14076651388E+03 -0.17806676705E+02  0.33599188923E+03  0.10566000000E+00 0. -1.
          4    1    1    2  501    0 -0.34544666733E+03  0.53183041988E+02  0.27819501930E+03  0.44671501507E+03  0.00000000000E+00 0.  1.
</event>
<event>
 5    1  0.1008363E-004  0.3532621E+03  0.7818608E-02  0.1037049E+00
         21   -1    0    0  501  502  0.00000000000E+00  0.00000000000E+00  0.14201575481E+04  0.14201575481E+04  0.00000000000E+00 0. -1.
         -4   -1    0    0    0  501 -0.00000000000E+00 -0.00000000000E+00 -0.22202521408E+03  0.22202521408E+03  0.00000000000E+00 0. -1.
        -13    1    1    2    0    0  0.43960958043E+02  0.57327877979E+02  0.23205439566E+02  0.75878554382E+02  0.10566000000E+00 0.  1.
         13    1    1    2    0    0  0.16286917692E+03  0.24100223481E+03 -0.44257644856E+02  0.29422303830E+03  0.10566000000E+00 0. -1.
         -4    1    1    2    0  502 -0.20683013496E+03 -0.29833011279E+03  0.12191845393E+04  0.12720811695E+04  0.00000000000E+00 0. -1.
</event>
<event>
 5    1  0.1008363E-004  0.4410737E+03  0.7818608E-02  0.9957708E-01
         -4   -1    0    0    0  501 -0.00000000000E+00  0.00000000000E+00  0.28802290656E+04  0.28802290656E+04  0.00000000000E+00 0. -1.
         21   -1    0    0  501  502  0.00000000000E+00 -0.00000000000E+00 -0.93362974809E+02  0.93362974809E+02  0.00000000000E+00 0. -1.
        -13    1    1    2    0    0 -0.13509696502E+03 -0.26142186774E+02  0.49278013188E+03  0.51163157978E+03  0.10566000000E+00 0.  1.
         13    1    1    2    0    0 -0.28150762350E+03 -0.26063792374E+03  0.11081715717E+04  0.11726989865E+04  0.10566000000E+00 0. -1.
         -4    1    1    2    0  502  0.41660458852E+03  0.28678011051E+03  0.11859143872E+04  0.12892614742E+04  0.00000000000E+00 0. -1.
</event>
<event>
 5    1  0.1008363E-004  0.4995951E+03  0.7818608E-02  0.9609824E-01
          4   -1    0    0  502    0 -0.00000000000E+00  0.00000000000E+00  0.23559851516E+04  0.23559851516E+04  0.00000000000E+00 0.  1.
         21   -1    0    0  501  502  0.00000000000E+00 -0.00000000000E+00 -0.35000019467E+03  0.35000019467E+03  0.00000000000E+00 0.  1.
        -13    1    1    2    0    0 -0.32358302591E+03  0.22078052007E+03  0.33131043940E+03  0.51304642199E+03  0.10566000000E+00 0.  1.
         13    1    1    2    0    0  0.14076201946E+01  0.31180385137E+03  0.15198751181E+04  0.15515295707E+04  0.10566000000E+00 0. -1.
          4    1    1    2  501    0  0.32217540572E+03 -0.53258437143E+03  0.15479939943E+03  0.64140935354E+03  0.00000000000E+00 0.  1.
</event>
<event>
 5    1  0.1008363E-004  0.4901341E+03  0.7818608E-02  0.9553467E-01
         21   -1    0    0  501  502  0.00000000000E+00  0.00000000000E+00  0.32147878316E+03  0.32147878316E+03  0.00000000000E+00 0. -1.
         -4   -1    0    0    0  501 -0.00000000000E+00 -0.00000000000E+00 -0.24215344234E+04  0.24215344234E+04  0.00000000000E+00 0. -1.
        -13    1    1    2    0    0 -0.39945109463E+03 -0.59344469733E+02 -0.13946116506E+04  0.14519037882E+04  0.10566000000E+00 0.  1.
         13    1    1    2    0    0  0.69784462045E+02  0.50562519276E+03 -0.22759290982E+03  0.55886067178E+03  0.10566000000E+00 0. -1.
         -4    1    1    2    0  502  0.32966663258E+03 -0.44628072303E+03 -0.47785107989E+03  0.73224874663E+03  0.00000000000E+00 0. -1.
</event>
<event>
 5    1  0.1008363E-004  0.7414378E+03  0.7818608E-02  0.9064941E-01
         -4   -1    0    0    0  501 -0.00000000000E+00  0.00000000000E+00  0.15172545972E+04  0.15172545972E+04  0.00000000000E+00 0. -1.
         21   -1    0    0  501  502  0.00000000000E+00 -0.00000000000E+00 -0.59052357563E+03  0.59052357563E+03  0.00000000000E+00 0. -1.
        -13    1    1    2    0    0  0.26503573120E+03 -0.62262787525E+03  0.39003376147E+03  0.78104785775E+03  0.10566000000E+00 0.  1.
         13    1    1    2    0    0 -0.24049213578E+03  0.83321671253E+03  0.14211574500E+03  0.87879659396E+03  0.10566000000E+00 0. -1.
         -4    1    1    2    0  502 -0.24543595414E+02 -0.21058883728E+03  0.39458151508E+03  0.44793372111E+03  0.00000000000E+00 0. -1.
</event>
<event>
 5    1  0.1008363E-004  0.2851574E+03  0.7818608E-02  0.1013627E+00
         21   -1    0    0  501  502  0.00000000000E+00  0.00000000000E+00  0.24434154211E+03  0.24434154211E+03  0.00000000000E+00 0.  1.
         -4   -1    0    0    0  501 -0.00000000000E+00 -0.00000000000E+00 -0.10888909582E+04  0.10888909582E+04  0.00000000000E+00 0. -1.
        -13    1    1    2    0    0  0.21226381564E+03 -0.10544988845E+03  0.78535784967E+02  0.24968677796E+03  0.10566000000E+00 0.  1.
         13    1    1    2    0    0 -0.25713980728E+03  0.13721362955E+03 -0.96901932359E+03  0.10119026244E+04  0.10566000000E+00 0. -1.
         -4    1    1    2    0  502  0.44875991636E+02 -0.31763741095E+02  0.45934122512E+02  0.71643097955E+02  0.00000000000E+00 0. -1.
</event>
<event>
 5    1  0.1008363E-004  0.4432218E+03  0.7818608E-02  0.9789137E-01
         21   -1    0    0  501  502  0.00000000000E+00  0.00000000000E+00  0.23969541067E+03  0.23969541067E+03  0.00000000000E+00 0. -1.
         -4   -1    0    0    0  501 -0.00000000000E+00 -0.00000000000E+00 -0.16687047011E+04  0.16687047011E+04  0.00000000000E+00 0. -1.
        -13    1    1    2    0    0 -0.18578431324E+03 -0.15048312545E+03 -0.32789004109E+03  0.40579905409E+03  0.10566000000E+00 0.  1.
         13    1    1    2    0    0  0.57225932703E+03  0.37245295724E+02 -0.85856999185E+03  0.10324777923E+04  0.10566000000E+00 0. -1.
         -4    1    1    2    0  502 -0.38647501379E+03  0.11323782973E+03 -0.24254925744E+03  0.47012326538E+03  0.00000000000E+00 0. -1.
</event>
<event>
 5    1  0.1008363E-004  0.9991803E+02  0.7818608E-02  0.1164691E+00
         21   -1    0    0  501  502  0.00000000000E+00  0.00000000000E+00  0.12576357410E+03  0.12576357410E+03  0.00000000000E+00 0. -1.
         -4   -1    0    0    0  501 -0.00000000000E+00 -0.00000000000E+00 -0.13778765373E+03  0.13778765373E+03  0.00000000000E+00 0. -1.
        -13    1    1    2    0    0 -0.94402342975E+02  0.17065510756E+02 -0.66985679740E+02  0.11700481388E+03  0.10566000000E+00 0.  1.
         13    1    1    2    0    0  0.10875246523E+03 -0.23308017865E+02  0.26919915757E+02  0.11443362888E+03  0.10566000000E+00 0. -1.
         -4    1    1    2    0  502 -0.14350122255E+02  0.62425071093E+01  0.28041684351E+02  0.32112785070E+02  0.00000000000E+00 0. -1.
</event>
<event>
 5    1  0.1008363E-004  0.4852205E+03  0.7818608E-02  0.9977947E-01
         21   -1    0    0  501  502  0.00000000000E+00  0.00000000000E+00  0.76937693863E+03  0.76937693863E+03  0.00000000000E+00 0. -1.
         -4   -1    0    0    0  501 -0.00000000000E+00 -0.00000000000E+00 -0.48891133364E+03  0.48891133364E+03  0.00000000000E+00 0. -1.
        -13    1    1    2    0    0  0.90474465788E+02 -0.34084834069E+02 -0.13105126000E+03  0.16285530014E+03  0.10566000000E+00 0.  1.
         13    1    1    2    0    0  0.33258184834E+03  0.30988431809E+03  0.17533317514E+02  0.45491362348E+03  0.10566000000E+00 0. -1.
         -4    1    1    2    0  502 -0.42305631413E+03 -0.27579948402E+03  0.39398354748E+03  0.64051934865E+03  0.00000000000E+00 0. -1.
</event>
<event>
 5    1  0.1008363E-004  0.4834464E+03  0.7818608E-02  0.9741135E-01
         -4   -1    0    0    0  501 -0.00000000000E+00  0.00000000000E+00  0.68137592078E+03  0.68137592078E+03  0.00000000000E+00 0. -1.
         21   -1    0    0  501  502  0.00000000000E+00 -0.00000000000E+00 -0.58300279618E+03  0.58300279618E+03  0.00000000000E+00 0. -1.
        -13    1    1    2    0    0  0.68747491644E+02  0.20612667928E+03  0.71843172496E+02  0.22885776831E+03  0.10566000000E+00 0.  1.
         13    1    1    2    0    0  0.39813369789E+03 -0.32786132556E+03  0.15067630384E+03  0.53731447951E+03  0.10566000000E+00 0. -1.
         -4    1    1    2    0  502 -0.46688118953E+03  0.12173464628E+03 -0.12414635174E+03  0.49820646914E+03  0.00000000000E+00 0. -1.
</event>
<event>
 5    1  0.1008363E-004  0.1127279E+03  0.7818608E-02  0.1145059E+00
         21   -1    0    0  501  502  0.00000000000E+00  0.00000000000E+00  0.49093978249E+03  0.49093978249E+03  0.00000000000E+00 0.  1.
         -4   -1    0    0    0  501 -0.00000000000E+00 -0.00000000000E+00 -0.53990251976E+02  0.53990251976E+02  0.00000000000E+00 0. -1.
        -13    1    1    2    0    0 -0.39734488509E+02 -0.95282994733E+02  0.24986750672E+03  0.27035432444E+03  0.10566000000E+00 0.  1.
         13    1    1    2    0    0  0.69690012075E+02  0.93248219257E+02  0.37936718968E+02  0.12243828645E+03  0.10566000000E+00 0. -1.
         -4    1    1    2    0  502 -0.29955523566E+02  0.20347754767E+01  0.14914530482E+03  0.15213742358E+03  0.00000000000E+00 0. -1.
</event>
<event>
 5    1  0.1008363E-004  0.8868036E+02  0.7818608E-02  0.1184778E+00
         21   -1    0    0  501  502  0.00000000000E+00  0.00000000000E+00  0.40218933412E+03  0.40218933412E+03  0.00000000000E+00 0.  1.
          4   -1    0    0  502    0 -0.00000000000E+00 -0.00000000000E+00 -0.65765072022E+02  0.65765072022E+02  0.00000000000E+00 0.  1.
        -13    1    1    2    0    0 -0.27517442968E+02 -0.92865441093E+02  0.21573700844E+01  0.96880675197E+02  0.10566000000E+00 0.  1.
         13    1    1    2    0    0  0.88379675927E+00  0.76770686539E+02  0.66697977701E+02  0.10170128220E+03  0.10566000000E+00 0. -1.
          4    1    1    2  501    0  0.26633646209E+02  0.16094754554E+02  0.26756891431E+03  0.26937244874E+03  0.00000000000E+00 0.  1.
</event>
<event>
 5    1  0.1008363E-004  0.4025796E+03  0.7818608E-02  0.9841012E-01
         21   -1    0    0  501  502  0.00000000000E+00  0.00000000000E+00  0.15547548675E+03  0.15547548675E+03  0.00000000000E+00 0. -1.
         -4   -1    0    0    0  501 -0.00000000000E+00 -0.00000000000E+00 -0.25847433619E+04  0.25847433619E+04  0.00000000000E+00 0. -1.
        -13    1    1    2    0    0  0.17873349169E+03  0.19890377205E+03 -0.49465176257E+03  0.56230663251E+03  0.10566000000E+00 0.  1.
         13    1    1    2    0    0 -0.51042435008E+03 -0.49926684069E-01 -0.15524583492E+04  0.16342153949E+04  0.10566000000E+00 0. -1.
         -4    1    1    2    0  502  0.33169085839E+03 -0.19885384537E+03 -0.38215776335E+03  0.54369682126E+03  0.00000000000E+00 0. -1.
</event>
<event>
 5    1  0.1008363E-004  0.5268784E+03  0.7818608E-02  0.9420929E-01
         21   -1    0    0  501  502  0.00000000000E+00  0.00000000000E+00  0.42925757119E+03  0.42925757119E+03  0.00000000000E+00 0. -1.
         -4   -1    0    0    0  501 -0.00000000000E+00 -0.00000000000E+00 -0.18803027182E+04  0.18803027182E+04  0.00000000000E+00 0. -1.
        -13    1    1    2    0    0  0.51955205500E+03 -0.22041027987E+03 -0.82610437028E+03  0.10004816196E+04  0.10566000000E+00 0.  1.
         13    1    1    2    0    0 -0.53652353354E+03 -0.27376877649E+03 -0.53678454502E+03  0.80681131869E+03  0.10566000000E+00 0. -1.
         -4    1    1    2    0  502  0.16971478545E+02  0.49417905636E+03 -0.88156231713E+02  0.50226735114E+03  0.00000000000E+00 0. -1.
</event>
<event>
 5    1  0.1008363E-004  0.2190857E+03  0.7818608E-02  0.1115848E+00
         21   -1    0    0  501  502  0.00000000000E+00  0.00000000000E+00  0.52798006367E+03  0.52798006367E+03  0.00000000000E+00 0.  1.
          4   -1    0    0  502    0 -0.00000000000E+00 -0.00000000000E+00 -0.18582112532E+03  0.18582112532E+03  0.00000000000E+00 0.  1.
        -13    1    1    2    0    0  0.15769261197E+03  0.11664329220E+03 -0.78108166433E+02  0.21112440483E+03  0.10566000000E+00 0.  1.
         13    1    1    2    0    0  0.14137604174E+02  0.29256840423E+02  0.13628425753E+03  0.14010440599E+03  0.10566000000E+00 0. -1.
          4    1    1    2  501    0 -0.17183021615E+03 -0.14590013263E+03  0.28398284725E+03  0.36257237817E+03  0.00000000000E+00 0.  1.
</event>
<event>
 5    1  0.1008363E-004  0.2937188E+02  0.7818608E-02  0.1410025E+00
         -4   -1    0    0    0  501 -0.00000000000E+00  0.00000000000E+00  0.16252575165E+02  0.16252575165E+02  0.00000000000E+00 0. -1.
         21   -1    0    0  501  502  0.00000000000E+00 -0.00000000000E+00 -0.22456372745E+03  0.22456372745E+03  0.00000000000E+00 0.  1.
        -13    1    1    2    0    0 -0.13928067762E+02 -0.33521879439E+02 -0.18102230868E+03  0.18462609478E+03  0.10566000000E+00 0.  1.
         13    1    1    2    0    0  0.49218845315E+01  0.28430056331E+02 -0.20648939041E+01  0.28926942479E+02  0.10566000000E+00 0. -1.
         -4    1    1    2    0  502  0.90061832300E+01  0.50918231079E+01 -0.25223949704E+02  0.27263265351E+02  0.00000000000E+00 0. -1.
</event>
<event>
 5    1  0.1008363E-004  0.2617894E+03  0.7818608E-02  0.1037590E+00
         21   -1    0    0  501  502  0.00000000000E+00  0.00000000000E+00  0.41500737173E+03  0.41500737173E+03  0.00000000000E+00 0. -1.
         -4   -1    0    0    0  501 -0.00000000000E+00 -0.00000000000E+00 -0.85936213366E+03  0.85936213366E+03  0.00000000000E+00 0. -1.
        -13    1    1    2    0    0 -0.27193920820E+02  0.17248118080E+03 -0.99821367502E+02  0.20113076252E+03  0.10566000000E+00 0.  1.
         13    1    1    2    0    0 -0.10306002668E+03  0.22705129717E+03  0.24479736623E+03  0.34942727759E+03  0.10566000000E+00 0. -1.
         -4    1    1    2    0  502  0.13025394750E+03 -0.39953247797E+03 -0.58933076067E+03  0.72381146527E+03  0.00000000000E+00 0. -1.
</event>
<event>
 5    1  0.1008363E-004  0.3647213E+03  0.7818608E-02  0.1004587E+00
         21   -1    0    0  501  502  0.00000000000E+00  0.00000000000E+00  0.31129788831E+03  0.31129788831E+03  0.00000000000E+00 0.  1.
          4   -1    0    0  502    0 -0.00000000000E+00 -0.00000000000E+00 -0.11408571488E+04  0.11408571488E+04  0.00000000000E+00 0.  1.
        -13    1    1    2    0    0 -0.80094576964E+02  0.38575873686E+03  0.93500917437E+02  0.40492885430E+03  0.10566000000E+00 0.  1.
         13    1    1    2    0    0  0.27351705112E+02 -0.18026049185E+03 -0.12403559740E+03  0.22051485501E+03  0.10566000000E+00 0. -1.
          4    1    1    2  501    0  0.52742871852E+02 -0.20549824501E+03 -0.79902458049E+03  0.82671132777E+03  0.00000000000E+00 0.  1.
</event>
<event>
 5    1  0.1008363E-004  0.6710790E+03  0.7818608E-02  0.9166022E-01
         -4   -1    0    0    0  501 -0.00000000000E+00  0.00000000000E+00  0.17515643562E+04  0.17515643562E+04  0.00000000000E+00 0. -1.
         21   -1    0    0  501  502  0.00000000000E+00 -0.00000000000E+00 -0.47795961952E+03  0.47795961952E+03  0.00000000000E+00 0. -1.
        -13    1    1    2    0    0  0.36732950197E+03 -0.52716674488E+03  0.57358909261E+03  0.86130145609E+03  0.10566000000E+00 0.  1.
         13    1    1    2    0    0 -0.69010815120E+03  0.32206820062E+03  0.60898253417E+03  0.97510867307E+03  0.10566000000E+00 0. -1.
         -4    1    1    2    0  502  0.32277864923E+03  0.20509854426E+03  0.91033109873E+02  0.39311384655E+03  0.00000000000E+00 0. -1.
</event>
<event>
 5    1  0.1008363E-004  0.2039705E+03  0.7818608E-02  0.1057447E+00
         21   -1    0    0  501  502  0.00000000000E+00  0.00000000000E+00  0.61425105816E+03  0.61425105816E+03  0.00000000000E+00 0. -1.
         -4   -1    0    0    0  501 -0.00000000000E+00 -0.00000000000E+00 -0.42576169205E+03  0.42576169205E+03  0.00000000000E+00 0. -1.
        -13    1    1    2    0    0  0.20219753832E+03  0.24951417195E+02  0.13824943818E+03  0.24620994303E+03  0.10566000000E+00 0.  1.
         13    1    1    2    0    0 -0.18981517710E+03 -0.77196803702E+02 -0.34157569747E+03  0.39832538989E+03  0.10566000000E+00 0. -1.
         -4    1    1    2    0  502 -0.12382361217E+02  0.52245386507E+02  0.39181562540E+03  0.39547741729E+03  0.00000000000E+00 0. -1.
</event>
<event>
 5    1  0.1008363E-004  0.9453847E+02  0.7818608E-02  0.1173922E+00
          4   -1    0    0  502    0 -0.00000000000E+00  0.00000000000E+00  0.21487903634E+02  0.21487903634E+02  0.00000000000E+00 0.  1.
         21   -1    0    0  501  502  0.00000000000E+00 -0.00000000000E+00 -0.78793980544E+03  0.78793980544E+03  0.00000000000E+00 0.  1.
        -13    1    1    2    0    0 -0.94026647271E+02 -0.74073599458E+02 -0.37100878136E+03  0.38984026927E+03  0.10566000000E+00 0.  1.
         13    1    1    2    0    0  0.63563108510E+02  0.54543266035E+02 -0.15270413909E+03  0.17416601819E+03  0.10566000000E+00 0. -1.
          4    1    1    2  501    0  0.30463538761E+02  0.19530333423E+02 -0.24273898135E+03  0.24542142161E+03  0.00000000000E+00 0.  1.
</event>
<event>
 5    1  0.1008363E-004  0.2645909E+03  0.7818608E-02  0.1027934E+00
          4   -1    0    0  502    0 -0.00000000000E+00  0.00000000000E+00  0.90750628021E+03  0.90750628021E+03  0.00000000000E+00 0.  1.
         21   -1    0    0  501  502  0.00000000000E+00 -0.00000000000E+00 -0.44707650443E+03  0.44707650443E+03  0.00000000000E+00 0.  1.
        -13    1    1    2    0    0 -0.26525017457E+03  0.53441974048E+02 -0.26282055573E+03  0.37721128745E+03  0.10566000000E+00 0.  1.
         13    1    1    2    0    0  0.12738205715E+03  0.18855793720E+03  0.29069839984E+02  0.22940215981E+03  0.10566000000E+00 0. -1.
          4    1    1    2  501    0  0.13786811742E+03 -0.24199991125E+03  0.69418049152E+03  0.74796933738E+03  0.00000000000E+00 0.  1.
</event>
<event>
 5    1  0.1008363E-004  0.3198469E+03  0.7818608E-02  0.9994337E-01
         21   -1    0    0  501  502  0.00000000000E+00  0.00000000000E+00  0.18636003809E+03  0.18636003809E+03  0.00000000000E+00 0.  1.
         -4   -1    0    0    0  501 -0.00000000000E+00 -0.00000000000E+00 -0.72351568197E+03  0.72351568197E+03  0.00000000000E+00 0. -1.
        -13    1    1    2    0    0  0.12768149436E+03  0.25971919499E+03 -0.15483700597E+03  0.32822421274E+03  0.10566000000E+00 0.  1.
         13    1    1    2    0    0 -0.21365061510E+03 -0.27749690873E+03 -0.31476946378E+03  0.47088315555E+03  0.10566000000E+00 0. -1.
         -4    1    1    2    0  502  0.85969120743E+02  0.17777713742E+02 -0.67549174133E+02  0.11076835177E+03  0.00000000000E+00 0. -1.
</event>
<event>
 5    1  0.1008363E-004  0.4916316E+03  0.7818608E-02  0.9555658E-01
         -4   -1    0    0    0  501 -0.00000000000E+00  0.00000000000E+00  0.19048994068E+04  0.19048994068E+04  0.00000000000E+00 0. -1.
         21   -1    0    0  501  502  0.00000000000E+00 -0.00000000000E+00 -0.29767072318E+03  0.29767072318E+03  0.00000000000E+00 0.  1.
        -13    1    1    2    0    0 -0.23964525531E+03 -0.31653460940E+03  0.26803985643E+03  0.47902962658E+03  0.10566000000E+00 0.  1.
         13    1    1    2    0    0 -0.39587418186E+03  0.17815114793E+03  0.51189701045E+03  0.67118757426E+03  0.10566000000E+00 0. -1.
         -4    1    1    2    0  502  0.63551943717E+03  0.13838346148E+03  0.82729181676E+03  0.10523529292E+04  0.00000000000E+00 0. -1.
</event>
<event>
 5    1  0.1008363E-004  0.5900183E+03  0.7818608E-02  0.9299897E-01
         21   -1    0    0  501  502  0.00000000000E+00  0.00000000000E+00  0.35398422658E+03  0.35398422658E+03  0.00000000000E+00 0. -1.
         -4   -1    0    0    0  501 -0.00000000000E+00 -0.00000000000E+00 -0.27300803008E+04  0.27300803008E+04  0.00000000000E+00 0. -1.
        -13    1    1    2    0    0 -0.31350542974E+03  0.48288882728E+03 -0.16458763881E+04  0.17436675056E+04  0.10566000000E+00 0.  1.
         13    1    1    2    0    0  0.34061719222E+03 -0.58689543659E+03 -0.82215096518E+02  0.68353906866E+03  0.10566000000E+00 0. -1.
         -4    1    1    2    0  502 -0.27111762477E+02  0.10400660931E+03 -0.64800458958E+03  0.65685795311E+03  0.00000000000E+00 0. -1.
</event>
<event>
 5    1  0.1008363E-004  0.2747013E+03  0.7818608E-02  0.1051000E+00
         21   -1    0    0  501  502  0.00000000000E+00  0.00000000000E+00  0.19430108850E+03  0.19430108850E+03  0.00000000000E+00 0. -1.
         -4   -1    0    0    0  501 -0.00000000000E+00 -0.00000000000E+00 -0.15672043499E+04  0.15672043499E+04  0.00000000000E+00 0. -1.
        -13    1    1    2    0    0  0.19381597208E+02 -0.99118636867E+02 -0.29890133129E+03  0.31550303881E+03  0.10566000000E+00 0.  1.
         13    1    1    2    0    0  0.30677271120E+02 -0.26392453677E+03  0.44132343869E+02  0.26934166223E+03  0.10566000000E+00 0. -1.
         -4    1    1    2    0  502 -0.50058868328E+02  0.36304317364E+03 -0.11181342740E+04  0.11766607374E+04  0.00000000000E+00 0. -1.
</event>
<event>
 5    1  0.1008363E-004  0.3362001E+03  0.7818608E-02  0.9933927E-01
          4   -1    0    0  502    0 -0.00000000000E+00  0.00000000000E+00  0.16811873627E+04  0.16811873627E+04  0.00000000000E+00 0.  1.
         21   -1    0    0  501  502  0.00000000000E+00 -0.00000000000E+00 -0.12349315319E+04  0.12349315319E+04  0.00000000000E+00 0.  1.
        -13    1    1    2    0    0 -0.22671991213E+02  0.34787713755E+03  0.13492484313E+04  0.13935579868E+04  0.10566000000E+00 0.  1.
         13    1    1    2    0    0  0.35763316977E+02 -0.29451192115E+03  0.23794069696E+03  0.38030523658E+03  0.10566000000E+00 0. -1.
          4    1    1    2  501    0 -0.13091325764E+02 -0.53365216408E+02 -0.11409332975E+04  0.11422556712E+04  0.00000000000E+00 0.  1.
</event>
<event>
 5    1  0.1008363E-004  0.4805762E+03  0.7818608E-02  0.9914735E-01
         21   -1    0    0  501  502  0.00000000000E+00  0.00000000000E+00  0.72026437447E+03  0.72026437447E+03  0.00000000000E+00 0.  1.
          4   -1    0    0  502    0 -0.00000000000E+00 -0.00000000000E+00 -0.58382388535E+03  0.58382388535E+03  0.00000000000E+00 0.  1.
        -13    1    1    2    0    0 -0.43197053126E+03  0.52097260366E+02  0.32341810375E+02  0.43630112111E+03  0.10566000000E+00 0.  1.
         13    1    1    2    0    0 -0.82676700028E+02 -0.90665076442E+02 -0.22458593850E+03  0.25591883039E+03  0.10566000000E+00 0. -1.
          4    1    1    2  501    0  0.51464723129E+03  0.38567816076E+02  0.32868461724E+03  0.61186830832E+03  0.00000000000E+00 0.  1.
</event>
<event>
 5    1  0.1008363E-004  0.3889670E+03  0.7818608E-02  0.1009550E+00
         21   -1    0    0  501  502  0.00000000000E+00  0.00000000000E+00  0.29363612511E+03  0.29363612511E+03  0.00000000000E+00 0.  1.
          4   -1    0    0  502    0 -0.00000000000E+00 -0.00000000000E+00 -0.90305308459E+03  0.90305308459E+03  0.00000000000E+00 0.  1.
        -13    1    1    2    0    0 -0.34221793626E+03  0.23224045132E+03 -0.13775469959E+03  0.43591869833E+03  0.10566000000E+00 0.  1.
         13    1    1    2    0    0 -0.18040030107E+02 -0.12675887237E+03 -0.33943535641E+03  0.36278041121E+03  0.10566000000E+00 0. -1.
          4    1    1    2  501    0  0.36025796637E+03 -0.10548157895E+03 -0.13222690348E+03  0.39799010017E+03  0.00000000000E+00 0.  1.
</event>
<event>
 5    1  0.1008363E-004  0.1915547E+03  0.7818608E-02  0.1066085E+00
         -4   -1    0    0    0  501 -0.00000000000E+00  0.00000000000E+00  0.24711011574E+04  0.24711011574E+04  0.00000000000E+00 0. -1.
         21   -1    0    0  501  502  0.00000000000E+00 -0.00000000000E+00 -0.38699888659E+02  0.38699888659E+02  0.00000000000E+00 0. -1.
        -13    1    1    2    0    0 -0.11038856238E+03 -0.12511228591E+03  0.88390896662E+03  0.89951864418E+03  0.10566000000E+00 0.  1.
         13    1    1    2    0    0  0.16072918816E+03  0.22747803337E+03  0.68770412349E+03  0.74196839570E+03  0.10566000000E+00 0. -1.
         -4    1    1    2    0  502 -0.50340625779E+02 -0.10236574746E+03  0.86078817867E+03  0.86831400621E+03  0.00000000000E+00 0. -1.
</event>
<event>
 5    1  0.1008363E-004  0.2426027E+03  0.7818608E-02  0.1063061E+00
         21   -1    0    0  501  502  0.00000000000E+00  0.00000000000E+00  0.10551667282E+04  0.10551667282E+04  0.00000000000E+00 0. -1.
         -4   -1    0    0    0  501 -0.00000000000E+00 -0.00000000000E+00 -0.57060686036E+03  0.57060686036E+03  0.00000000000E+00 0. -1.
        -13    1    1    2    0    0 -0.35387543628E+03 -0.11626304206E+03 -0.13012964414E+03  0.39456134479E+03  0.10566000000E+00 0.  1.
         13    1    1    2    0    0 -0.14276900733E+03 -0.40729095082E+02  0.68922988722E+03  0.70503879130E+03  0.10566000000E+00 0. -1.
         -4    1    1    2    0  502  0.49664444361E+03  0.15699213715E+03 -0.74540375278E+02  0.52617345243E+03  0.00000000000E+00 0. -1.
</event>
<event>
 5    1  0.1008363E-004  0.4549277E+03  0.7818608E-02  0.9582641E-01
         -4   -1    0    0    0  501 -0.00000000000E+00  0.00000000000E+00  0.28020687805E+04  0.28020687805E+04  0.00000000000E+00 0. -1.
         21   -1    0    0  501  502  0.00000000000E+00 -0.00000000000E+00 -0.36055226887E+03  0.36055226887E+03  0.00000000000E+00 0. -1.
        -13    1    1    2    0    0  0.25420406340E+03  0.34003821448E+03  0.18905110121E+04  0.19375958276E+04  0.10566000000E+00 0.  1.
         13    1    1    2    0    0 -0.31340804261E+03 -0.67749669369E+03  0.43121494860E+03  0.86207465697E+03  0.10566000000E+00 0. -1.
         -4    1    1    2    0  502  0.59203979214E+02  0.33745847922E+03  0.11979055085E+03  0.36295056471E+03  0.00000000000E+00 0. -1.
</event>
<event>
 5    1  0.1008363E-004  0.5016984E+03  0.7818608E-02  0.9742094E-01
         21   -1    0    0  501  502  0.00000000000E+00  0.00000000000E+00  0.24012784670E+03  0.24012784670E+03  0.00000000000E+00 0. -1.
         -4   -1    0    0    0  501 -0.00000000000E+00 -0.00000000000E+00 -0.18021229276E+04  0.18021229276E+04  0.00000000000E+00 0. -1.
        -13    1    1    2    0    0 -0.18634091194E+03  0.53187495956E+02 -0.59176226217E+03  0.62268325116E+03  0.10566000000E+00 0.  1.
         13    1    1    2    0    0 -0.10253511878E+03 -0.48605552466E+03 -0.60983305136E+03  0.78654928983E+03  0.10566000000E+00 0. -1.
         -4    1    1    2    0  502  0.28887603072E+03  0.43286802870E+03 -0.36039976741E+03  0.63301823334E+03  0.00000000000E+00 0. -1.
</event>
<event>
 5    1  0.1008363E-004  0.8546942E+02  0.7818608E-02  0.1191130E+00
         -4   -1    0    0    0  501 -0.00000000000E+00  0.00000000000E+00  0.57548579043E+02  0.57548579043E+02  0.00000000000E+00 0. -1.
         21   -1    0    0  501  502  0.00000000000E+00 -0.00000000000E+00 -0.33313615684E+03  0.33313615684E+03  0.00000000000E+00 0. -1.
        -13    1    1    2    0    0 -0.28884988404E+02  0.83914174640E+02 -0.54406869306E+02  0.10409634889E+03  0.10566000000E+00 0.  1.
         13    1    1    2    0    0  0.36025948116E+02 -0.75311816082E+02 -0.20986737727E+02  0.86082477332E+02  0.10566000000E+00 0. -1.
         -4    1    1    2    0  502 -0.71409597118E+01 -0.86023585584E+01 -0.20019397077E+03  0.20050590966E+03  0.00000000000E+00 0. -1.
</event>
<event>
 5    1  0.1008363E-004  0.3020504E+02  0.7818608E-02  0.1403270E+00
          4   -1    0    0  502    0 -0.00000000000E+00  0.00000000000E+00  0.16934709603E+03  0.16934709603E+03  0.00000000000E+00 0.  1.
         21   -1    0    0  501  502  0.00000000000E+00 -0.00000000000E+00 -0.20801465820E+03  0.20801465820E+03  0.00000000000E+00 0.  1.
        -13    1    1    2    0    0 -0.19453237606E+02 -0.23306597636E+02  0.16288728058E+03  0.16569219440E+03  0.10566000000E+00 0.  1.
         13    1    1    2    0    0  0.29703069970E+02  0.69177800349E+01 -0.47775858722E+02  0.56680436545E+02  0.10566000000E+00 0. -1.
          4    1    1    2  501    0 -0.10249832365E+02  0.16388817601E+02 -0.15377898403E+03  0.15498912328E+03  0.00000000000E+00 0.  1.
</event>
<event>
 5    1  0.1008363E-004  0.5062431E+03  0.7818608E-02  0.9592178E-01
          4   -1    0    0  502    0 -0.00000000000E+00  0.00000000000E+00  0.56100893517E+03  0.56100893517E+03  0.00000000000E+00 0.  1.
         21   -1    0    0  501  502  0.00000000000E+00 -0.00000000000E+00 -0.87940964653E+03  0.87940964653E+03  0.00000000000E+00 0.  1.
        -13    1    1    2    0    0 -0.31187262835E+02  0.65952653423E+03 -0.13913838071E+03  0.67476469593E+03  0.10566000000E+00 0.  1.
         13    1    1    2    0    0  0.18175502294E+03 -0.26227031345E+03 -0.90026751546E+02  0.33155004576E+03  0.10566000000E+00 0. -1.
          4    1    1    2  501    0 -0.15056776011E+03 -0.39725622078E+03 -0.89235579104E+02  0.43410384001E+03  0.00000000000E+00 0.  1.
</event>
<event>
 5    1  0.1008363E-004  0.6038533E+03  0.7818608E-02  0.9422998E-01
         -4   -1    0    0    0  501 -0.00000000000E+00  0.00000000000E+00  0.30063661640E+04  0.30063661640E+04  0.00000000000E+00 0. -1.
         21   -1    0    0  501  502  0.00000000000E+00 -0.00000000000E+00 -0.56813025872E+03  0.56813025872E+03  0.00000000000E+00 0.  1.
        -13    1    1    2    0    0 -0.46120729353E+03  0.68496322186E+03  0.20745146553E+04  0.22328228432E+04  0.10566000000E+00 0.  1.
         13    1    1    2    0    0  0.16581180890E+03 -0.15829414361E+03  0.63837960040E+03  0.67829132181E+03  0.10566000000E+00 0. -1.
         -4    1    1    2    0  502  0.29539548463E+03 -0.52666907825E+03 -0.27465835045E+03  0.66338225767E+03  0.00000000000E+00 0. -1.
</event>
<event>
 5    1  0.1008363E-004  0.2577812E+03  0.7818608E-02  0.1040845E+00
         -4   -1    0    0    0  501 -0.00000000000E+00  0.00000000000E+00  0.17650312406E+04  0.17650312406E+04  0.00000000000E+00 0. -1.
         21   -1    0    0  501  502  0.00000000000E+00 -0.00000000000E+00 -0.81748342371E+02  0.81748342371E+02  0.00000000000E+00 0. -1.
        -13    1    1    2    0    0  0.16371517244E+03 -0.25489047262E+02  0.27722624688E+03  0.32296555906E+03  0.10566000000E+00 0.  1.
         13    1    1    2    0    0 -0.30912602146E+03 -0.15160692402E+03  0.99934923727E+03  0.10569969091E+04  0.10566000000E+00 0. -1.
         -4    1    1    2    0  502  0.14541084902E+03  0.17709597128E+03  0.40670741409E+03  0.46681711487E+03  0.00000000000E+00 0. -1.
</event>
<event>
 5    1  0.1008363E-004  0.4475505E+03  0.7818608E-02  0.9790978E-01
         21   -1    0    0  501  502  0.00000000000E+00  0.00000000000E+00  0.13293043635E+03  0.13293043635E+03  0.00000000000E+00 0. -1.
         -4   -1    0    0    0  501 -0.00000000000E+00 -0.00000000000E+00 -0.30218511285E+04  0.30218511285E+04  0.00000000000E+00 0. -1.
        -13    1    1    2    0    0 -0.18454235162E+03  0.13853535884E+03 -0.30645668372E+03  0.38361912798E+03  0.10566000000E+00 0.  1.
         13    1    1    2    0    0  0.55931923045E+03 -0.22193330021E+03 -0.18301931590E+04  0.19265771206E+04  0.10566000000E+00 0. -1.
         -4    1    1    2    0  502 -0.37477687884E+03  0.83397941372E+02 -0.75227084950E+03  0.84458531632E+03  0.00000000000E+00 0. -1.
</event>
<event>
 5    1  0.1008363E-004  0.5075224E+03  0.7818608E-02  0.9461635E-01
         -4   -1    0    0    0  501 -0.00000000000E+00  0.00000000000E+00  0.18847555049E+04  0.18847555049E+04  0.00000000000E+00 0. -1.
         21   -1    0    0  501  502  0.00000000000E+00 -0.00000000000E+00 -0.31082996293E+03  0.31082996293E+03  0.00000000000E+00 0. -1.
        -13    1    1    2    0    0  0.18763507862E+03 -0.37734038703E+03  0.66069738339E+03  0.78365409078E+03  0.10566000000E+00 0.  1.
         13    1    1    2    0    0 -0.37033306698E+03  0.53360026779E+03  0.96766251700E+03  0.11654383657E+04  0.10566000000E+00 0. -1.
         -4    1    1    2    0  502  0.18269798836E+03 -0.15625988076E+03 -0.54434358383E+02  0.24649301138E+03  0.00000000000E+00 0. -1.
</event>
<event>
 5    1  0.1008363E-004  0.3817667E+03  0.7818608E-02  0.9783232E-01
         -4   -1    0    0    0  501 -0.00000000000E+00  0.00000000000E+00  0.12276413257E+04  0.12276413257E+04  0.00000000000E+00 0. -1.
         21   -1    0    0  501  502  0.00000000000E+00 -0.00000000000E+00 -0.16009211966E+03  0.16009211966E+03  0.00000000000E+00 0.  1.
        -13    1    1    2    0    0 -0.35117165195E+03  0.22427617431E+03  0.48239228806E+03  0.63743522200E+03  0.10566000000E+00 0.  1.
         13    1    1    2    0    0  0.28873459493E+03 -0.21383209748E+03  0.58554830268E+03  0.68699247315E+03  0.10566000000E+00 0. -1.
         -4    1    1    2    0  502  0.62437057020E+02 -0.10444076834E+02 -0.39138468260E+00  0.63305750230E+02  0.00000000000E+00 0. -1.
</event>
<event>
 5    1  0.1008363E-004  0.7539527E+02  0.7818608E-02  0.1255039E+00
          4   -1    0    0  502    0 -0.00000000000E+00  0.00000000000E+00  0.88308275913E+02  0.88308275913E+02  0.00000000000E+00 0.  1.
         21   -1    0    0  501  502  0.00000000000E+00 -0.00000000000E+00 -0.27896851771E+03  0.27896851771E+03  0.00000000000E+00 0.  1.
        -13    1    1    2    0    0  0.33934829960E+01 -0.64973904985E+02 -0.39977144243E+02  0.76362996810E+02  0.10566000000E+00 0.  1.
         13    1    1    2    0    0 -0.28139855755E+02 -0.12169361088E+02  0.58798708121E+02  0.66311718964E+02  0.10566000000E+00 0. -1.
          4    1    1    2  501    0  0.24746372759E+02  0.77143266073E+02 -0.20948180568E+03  0.22460207785E+03  0.00000000000E+00 0.  1.
</event>
<event>
 5    1  0.1008363E-004  0.2890825E+02  0.7818608E-02  0.1413895E+00
          4   -1    0    0  502    0 -0.00000000000E+00  0.00000000000E+00  0.10080498234E+03  0.10080498234E+03  0.00000000000E+00 0.  1.
         21   -1    0    0  501  502  0.00000000000E+00 -0.00000000000E+00 -0.30097435262E+02  0.30097435262E+02  0.00000000000E+00 0.  1.
        -13    1    1    2    0    0  0.19462848378E+02  0.21020713135E+02  0.74141424498E+02  0.79483550741E+02  0.10566000000E+00 0.  1.
         13    1    1    2    0    0 -0.28012526913E+02 -0.14419999286E+02  0.11017367958E+02  0.33377111982E+02  0.10566000000E+00 0. -1.
          4    1    1    2  501    0  0.85496785349E+01 -0.66007138487E+01 -0.14451245375E+02  0.18041754883E+02  0.00000000000E+00 0.  1.
</event>
<event>
 5    1  0.1008363E-004  0.3689520E+02  0.7818608E-02  0.1356789E+00
         -4   -1    0    0    0  501 -0.00000000000E+00  0.00000000000E+00  0.22659606465E+03  0.22659606465E+03  0.00000000000E+00 0. -1.
         21   -1    0    0  501  502  0.00000000000E+00 -0.00000000000E+00 -0.25910212161E+02  0.25910212161E+02  0.00000000000E+00 0. -1.
        -13    1    1    2    0    0  0.37984445266E+02 -0.12056253910E+01  0.55428796992E+02  0.67205909821E+02  0.10566000000E+00 0.  1.
         13    1    1    2    0    0 -0.26468065917E+02  0.30610758668E+02  0.14816030160E+03  0.15358731456E+03  0.10566000000E+00 0. -1.
         -4    1    1    2    0  502 -0.11516379349E+02 -0.29405133277E+02 -0.29032461059E+01  0.31713052428E+02  0.00000000000E+00 0. -1.
</event>
<event>
 5    1  0.1008363E-004  0.2238058E+02  0.7818608E-02  0.1479205E+00
         21   -1    0    0  501  502  0.00000000000E+00  0.00000000000E+00  0.10526749982E+02  0.10526749982E+02  0.00000000000E+00 0. -1.
          4   -1    0    0  502    0 -0.00000000000E+00 -0.00000000000E+00 -0.13998432822E+03  0.13998432822E+03  0.00000000000E+00 0.  1.
        -13    1    1    2    0    0 -0.21761001445E+02  0.27578602029E+01 -0.72736217977E+02  0.75971807576E+02  0.10566000000E+00 0.  1.
         13    1    1    2    0    0  0.23165165881E+02  0.11429292657E+02 -0.54228367610E+02  0.60066468671E+02  0.10566000000E+00 0. -1.
          4    1    1    2  501    0 -0.14041644360E+01 -0.14187152860E+02 -0.24929926501E+01  0.14472801954E+02  0.00000000000E+00 0.  1.
</event>
<event>
 5    1  0.1008363E-004  0.3736767E+03  0.7818608E-02  0.9808307E-01
         21   -1    0    0  501  502  0.00000000000E+00  0.00000000000E+00  0.47532268332E+03  0.47532268332E+03  0.00000000000E+00 0. -1.
          4   -1    0    0  502    0 -0.00000000000E+00 -0.00000000000E+00 -0.46098669275E+03  0.46098669275E+03  0.00000000000E+00 0.  1.
        -13    1    1    2    0    0  0.28145537521E+03 -0.25208518342E+03 -0.15230327865E+03  0.40738233612E+03  0.10566000000E+00 0.  1.
         13    1    1    2    0    0 -0.29983591495E+03  0.21469789590E+03  0.12212786744E+02  0.36897957358E+03  0.10566000000E+00 0. -1.
          4    1    1    2  501    0  0.18380539737E+02  0.37387287520E+02  0.15442648247E+03  0.15994746637E+03  0.00000000000E+00 0.  1.
</event>
<event>
 5    1  0.1008363E-004  0.2489216E+03  0.7818608E-02  0.1057986E+00
          4   -1    0    0  502    0 -0.00000000000E+00  0.00000000000E+00  0.85651133394E+03  0.85651133394E+03  0.00000000000E+00 0.  1.
         21   -1    0    0  501  502  0.00000000000E+00 -0.00000000000E+00 -0.67790168102E+03  0.67790168102E+03  0.00000000000E+00 0.  1.
        -13    1    1    2    0    0  0.14714632788E+03  0.72938300305E+02  0.45938805940E+03  0.48786210935E+03  0.10566000000E+00 0.  1.
         13    1    1    2    0    0  0.43830327836E+02 -0.39411360417E+03  0.19474230435E+03  0.44178185442E+03  0.10566000000E+00 0. -1.
          4    1    1    2  501    0 -0.19097665571E+03  0.32117530386E+03 -0.47552071083E+03  0.60476905118E+03  0.00000000000E+00 0.  1.
</event>
<event>
 5    1  0.1008363E-004  0.1467913E+03  0.7818608E-02  0.1113655E+00
          4   -1    0    0  502    0 -0.00000000000E+00  0.00000000000E+00  0.45601277982E+03  0.45601277982E+03  0.00000000000E+00 0.  1.
         21   -1    0    0  501  502  0.00000000000E+00 -0.00000000000E+00 -0.13095553089E+03  0.13095553089E+03  0.00000000000E+00 0. -1.
        -13    1    1    2    0    0  0.16911253367E+03 -0.11740674430E+03  0.24851787311E+03  0.32271432734E+03  0.10566000000E+00 0.  1.
         13    1    1    2    0    0 -0.11445347138E+03 -0.13899258851E+01  0.35979257355E+01  0.11451849300E+03  0.10566000000E+00 0. -1.
          4    1    1    2  501    0 -0.54659062282E+02  0.11879667018E+03  0.72941450079E+02  0.14973549037E+03  0.00000000000E+00 0.  1.
</event>
<event>
 5    1  0.1008363E-004  0.4866203E+03  0.7818608E-02  0.9521191E-01
          4   -1    0    0  502    0 -0.00000000000E+00  0.00000000000E+00  0.20923389468E+04  0.20923389468E+04  0.00000000000E+00 0.  1.
         21   -1    0    0  501  502  0.00000000000E+00 -0.00000000000E+00 -0.29197397174E+03  0.29197397174E+03  0.00000000000E+00 0.  1.
        -13    1    1    2    0    0 -0.36184539700E+03 -0.34320625262E+03  0.53424170191E+03  0.73084665313E+03  0.10566000000E+00 0.  1.
         13    1    1    2    0    0 -0.21205046080E+03  0.41221821043E+03  0.73203103180E+03  0.86646332502E+03  0.10566000000E+00 0. -1.
          4    1    1    2  501    0  0.57389585780E+03 -0.69011957807E+02  0.53409224138E+03  0.78700294042E+03  0.00000000000E+00 0.  1.
</event>
<event>
 5    1  0.1008363E-004  0.5782441E+03  0.7818608E-02  0.9321221E-01
         21   -1    0    0  501  502  0.00000000000E+00  0.00000000000E+00  0.45194481684E+03  0.45194481684E+03  0.00000000000E+00 0.  1.
          4   -1    0    0  502    0 -0.00000000000E+00 -0.00000000000E+00 -0.20318347290E+04  0.20318347290E+04  0.00000000000E+00 0.  1.
        -13    1    1    2    0    0 -0.76624721930E+03  0.30971922006E+02 -0.50512211724E+03  0.91828232343E+03  0.10566000000E+00 0.  1.
         13    1    1    2    0    0  0.49193406758E+03  0.21501225574E+03 -0.10698658314E+04  0.11970139119E+04  0.10566000000E+00 0. -1.
          4    1    1    2  501    0  0.27431315172E+03 -0.24598417775E+03 -0.49019635811E+01  0.36848331055E+03  0.00000000000E+00 0.  1.
</event>
<event>
 5    1  0.1008363E-004  0.3587552E+03  0.7818608E-02  0.9945921E-01
         -4   -1    0    0    0  501 -0.00000000000E+00  0.00000000000E+00  0.85922103640E+03  0.85922103640E+03  0.00000000000E+00 0. -1.
         21   -1    0    0  501  502  0.00000000000E+00 -0.00000000000E+00 -0.57805249547E+03  0.57805249547E+03  0.00000000000E+00 0. -1.
        -13    1    1    2    0    0 -0.91317593270E+02  0.24972387523E+03  0.33800731755E+03  0.43005798979E+03  0.10566000000E+00 0.  1.
         13    1    1    2    0    0  0.78713254362E+02 -0.56761468313E+03  0.19088508828E+03  0.60400275911E+03  0.10566000000E+00 0. -1.
         -4    1    1    2    0  502  0.12604338908E+02  0.31789080791E+03 -0.24772386490E+03  0.40321278297E+03  0.00000000000E+00 0. -1.
</event>
<event>
 5    1  0.1008363E-004  0.7145890E+03  0.7818608E-02  0.9102079E-01
          4   -1    0    0  502    0 -0.00000000000E+00  0.00000000000E+00  0.19775602514E+04  0.19775602514E+04  0.00000000000E+00 0.  1.
         21   -1    0    0  501  502  0.00000000000E+00 -0.00000000000E+00 -0.35291283141E+03  0.35291283141E+03  0.00000000000E+00 0. -1.
        -13    1    1    2    0    0 -0.56585463012E+03 -0.42941548602E+03  0.10473146089E+04  0.12654868720E+04  0.10566000000E+00 0.  1.
         13    1    1    2    0    0  0.56376949218E+03  0.44924453190E+03  0.66156291590E+03  0.97842842999E+03  0.10566000000E+00 0. -1.
          4    1    1    2  501    0  0.20851379360E+01 -0.19829045880E+02 -0.84230104811E+02  0.86557780801E+02  0.00000000000E+00 0.  1.
</event>
<event>
 5    1  0.1008363E-004  0.4135549E+03  0.7818608E-02  0.9690694E-01
          4   -1    0    0  502    0 -0.00000000000E+00  0.00000000000E+00  0.24994076584E+04  0.24994076584E+04  0.00000000000E+00 0.  1.
         21   -1    0    0  501  502  0.00000000000E+00 -0.00000000000E+00 -0.49082447667E+03  0.49082447667E+03  0.00000000000E+00 0.  1.
        -13    1    1    2    0    0 -0.10654230218E+03  0.58346855556E+03 -0.14124686846E+03  0.60970280178E+03  0.10566000000E+00 0.  1.
         13    1    1    2    0    0  0.31952158230E+03 -0.25811748224E+03  0.18343861807E+04  0.18798115191E+04  0.10566000000E+00 0. -1.
          4    1    1    2  501    0 -0.21297928012E+03 -0.32535107332E+03  0.31544386951E+03  0.50071781423E+03  0.00000000000E+00 0.  1.
</event>
<event>
 5    1  0.1008363E-004  0.4781384E+03  0.7818608E-02  0.9878748E-01
         21   -1    0    0  501  502  0.00000000000E+00  0.00000000000E+00  0.33819424156E+03  0.33819424156E+03  0.00000000000E+00 0. -1.
         -4   -1    0    0    0  501 -0.00000000000E+00 -0.00000000000E+00 -0.98285522360E+03  0.98285522360E+03  0.00000000000E+00 0. -1.
        -13    1    1    2    0    0 -0.13608529903E+03 -0.35097643221E+02 -0.11130885652E+03  0.17927834748E+03  0.10566000000E+00 0.  1.
         13    1    1    2    0    0  0.43744107168E+03 -0.26525555451E+03 -0.76141811422E+02  0.51721638315E+03  0.10566000000E+00 0. -1.
         -4    1    1    2    0  502 -0.30135577266E+03  0.30035319773E+03 -0.45721031410E+03  0.62455473453E+03  0.00000000000E+00 0. -1.
</event>
<event>
 5    1  0.1008363E-004  0.4827199E+03  0.7818608E-02  0.9994333E-01
         21   -1    0    0  501  502  0.00000000000E+00  0.00000000000E+00  0.50125205926E+03  0.50125205926E+03  0.00000000000E+00 0. -1.
         -4   -1    0    0    0  501 -0.00000000000E+00 -0.00000000000E+00 -0.59745729424E+03  0.59745729424E+03  0.00000000000E+00 0. -1.
        -13    1    1    2    0    0  0.36559444003E+02 -0.85560279806E+02 -0.50810938359E+01  0.93182525749E+02  0.10566000000E+00 0.  1.
         13    1    1    2    0    0  0.52677160476E+01  0.53536852036E+03 -0.13352196588E+03  0.55179283065E+03  0.10566000000E+00 0. -1.
         -4    1    1    2    0  502 -0.41827160051E+02 -0.44980824055E+03  0.42397824740E+02  0.45373399710E+03  0.00000000000E+00 0. -1.
</event>
<event>
 5    1  0.1008363E-004  0.2627672E+02  0.7818608E-02  0.1437563E+00
         -4   -1    0    0    0  501 -0.00000000000E+00  0.00000000000E+00  0.33163893658E+02  0.33163893658E+02  0.00000000000E+00 0. -1.
         21   -1    0    0  501  502  0.00000000000E+00 -0.00000000000E+00 -0.62565926540E+02  0.62565926540E+02  0.00000000000E+00 0. -1.
        -13    1    1    2    0    0 -0.14354820890E+02  0.12589334559E+02 -0.61520745926E+01  0.20060194746E+02  0.10566000000E+00 0.  1.
         13    1    1    2    0    0  0.23136277739E+02 -0.21781643132E+02  0.15162245367E+02  0.35208410554E+02  0.10566000000E+00 0. -1.
         -4    1    1    2    0  502 -0.87814568497E+01  0.91923085728E+01 -0.38412203655E+02  0.40461214897E+02  0.00000000000E+00 0. -1.
</event>
<event>
 5    1  0.1008363E-004  0.2179442E+02  0.7818608E-02  0.1505106E+00
         -4   -1    0    0    0  501 -0.00000000000E+00  0.00000000000E+00  0.49638516913E+02  0.49638516913E+02  0.00000000000E+00 0. -1.
         21   -1    0    0  501  502  0.00000000000E+00 -0.00000000000E+00 -0.21422763801E+02  0.21422763801E+02  0.00000000000E+00 0. -1.
        -13    1    1    2    0    0 -0.13344793676E+02 -0.97908812357E+01  0.37841993495E+01  0.16978698489E+02  0.10566000000E+00 0.  1.
         13    1    1    2    0    0  0.10047048605E+02  0.27975590287E+02  0.16171118205E+02  0.33839223773E+02  0.10566000000E+00 0. -1.
         -4    1    1    2    0  502  0.32977450715E+01 -0.18184709051E+02  0.82604355564E+01  0.20243358452E+02  0.00000000000E+00 0. -1.
</event>
<event>
 5    1  0.1008363E-004  0.9470532E+02  0.7818608E-02  0.1173626E+00
         -4   -1    0    0    0  501 -0.00000000000E+00  0.00000000000E+00  0.95877557621E+02  0.95877557621E+02  0.00000000000E+00 0. -1.
         21   -1    0    0  501  502  0.00000000000E+00 -0.00000000000E+00 -0.36348701420E+03  0.36348701420E+03  0.00000000000E+00 0.  1.
        -13    1    1    2    0    0 -0.95676713400E+02  0.44640282856E+02 -0.26770581353E+03  0.28777283073E+03  0.10566000000E+00 0.  1.
         13    1    1    2    0    0  0.68806319471E+02 -0.64184009695E+02  0.53837776156E+02  0.10840855135E+03  0.10566000000E+00 0. -1.
         -4    1    1    2    0  502  0.26870393929E+02  0.19543726839E+02 -0.53741419197E+02  0.63183189742E+02  0.00000000000E+00 0. -1.
</event>
<event>
 5    1  0.1008363E-004  0.1639908E+03  0.7818608E-02  0.1088078E+00
         -4   -1    0    0    0  501 -0.00000000000E+00  0.00000000000E+00  0.32537936575E+03  0.32537936575E+03  0.00000000000E+00 0. -1.
         21   -1    0    0  501  502  0.00000000000E+00 -0.00000000000E+00 -0.28090360636E+03  0.28090360636E+03  0.00000000000E+00 0. -1.
        -13    1    1    2    0    0 -0.11782940196E+03 -0.10771677832E+03  0.51463802712E+01  0.15972842168E+03  0.10566000000E+00 0.  1.
         13    1    1    2    0    0  0.13344320948E+03  0.98438944868E+02  0.21412032557E+03  0.27082252677E+03  0.10566000000E+00 0. -1.
         -4    1    1    2    0  502 -0.15613807519E+02  0.92778334509E+01 -0.17479094645E+03  0.17573202366E+03  0.00000000000E+00 0. -1.
</event>
<event>
 5    1  0.1008363E-004  0.9936768E+03  0.7818608E-02  0.8780555E-01
          4   -1    0    0  502    0 -0.00000000000E+00  0.00000000000E+00  0.27414225906E+04  0.27414225906E+04  0.00000000000E+00 0.  1.
         21   -1    0    0  501  502  0.00000000000E+00 -0.00000000000E+00 -0.57493395937E+03  0.57493395937E+03  0.00000000000E+00 0. -1.
        -13    1    1    2    0    0 -0.10257374401E+04  0.54046232264E+02  0.14588357831E+04  0.17841693150E+04  0.10566000000E+00 0.  1.
         13    1    1    2    0    0  0.92916714531E+03  0.30951691065E+03  0.55933441599E+03  0.11278330116E+04  0.10566000000E+00 0. -1.
          4    1    1    2  501    0  0.96570294802E+02 -0.36356314291E+03  0.14831843220E+03  0.40435422349E+03  0.00000000000E+00 0.  1.
</event>
<event>
 5    1  0.1008363E-004  0.6784443E+03  0.7818608E-02  0.9154848E-01
          4   -1    0    0  502    0 -0.00000000000E+00  0.00000000000E+00  0.23043446542E+04  0.23043446542E+04  0.00000000000E+00 0.  1.
         21   -1    0    0  501  502  0.00000000000E+00 -0.00000000000E+00 -0.34297924530E+03  0.34297924530E+03  0.00000000000E+00 0.  1.
        -13    1    1    2    0    0  0.75364399977E+03  0.22840546506E+03  0.12513486383E+04  0.14785201252E+04  0.10566000000E+00 0.  1.
         13    1    1    2    0    0 -0.53029590698E+03  0.26054415844E+02  0.22347524722E+03  0.57605015305E+03  0.10566000000E+00 0. -1.
          4    1    1    2  501    0 -0.22334809279E+03 -0.25445988090E+03  0.48654152331E+03  0.59275362120E+03  0.00000000000E+00 0.  1.
</event>
<event>
 5    1  0.1008363E-004  0.2263738E+02  0.7818608E-02  0.1480988E+00
          4   -1    0    0  502    0 -0.00000000000E+00  0.00000000000E+00  0.11310474152E+03  0.11310474152E+03  0.00000000000E+00 0.  1.
         21   -1    0    0  501  502  0.00000000000E+00 -0.00000000000E+00 -0.18337198378E+02  0.18337198378E+02  0.00000000000E+00 0. -1.
        -13    1    1    2    0    0  0.15769400927E+02  0.13394784764E+02  0.80590401098E+02  0.83204075487E+02  0.10566000000E+00 0.  1.
         13    1    1    2    0    0  0.82689103219E+01 -0.19366501256E+02  0.38745889712E+01  0.21411675613E+02  0.10566000000E+00 0. -1.
          4    1    1    2  501    0 -0.24038311249E+02  0.59717164925E+01  0.10302553070E+02  0.26826188796E+02  0.00000000000E+00 0.  1.
</event>
<event>
 5    1  0.1008363E-004  0.2384110E+03  0.7818608E-02  0.1036580E+00
         21   -1    0    0  501  502  0.00000000000E+00  0.00000000000E+00  0.16484905659E+03  0.16484905659E+03  0.00000000000E+00 0.  1.
          4   -1    0    0  502    0 -0.00000000000E+00 -0.00000000000E+00 -0.10343691325E+04  0.10343691325E+04  0.00000000000E+00 0.  1.
        -13    1    1    2    0    0 -0.22029171173E+03 -0.10222026966E+03 -0.64930969193E+03  0.69323914271E+03  0.10566000000E+00 0.  1.
         13    1    1    2    0    0  0.22050309308E+03  0.71903498447E+02 -0.32365895343E+03  0.39817942746E+03  0.10566000000E+00 0. -1.
          4    1    1    2  501    0 -0.21138135043E+00  0.30316771215E+02  0.10344856949E+03  0.10779961887E+03  0.00000000000E+00 0.  1.
</event>
<event>
 5    1  0.1008363E-004  0.3848799E+03  0.7818608E-02  0.9891173E-01
         21   -1    0    0  501  502  0.00000000000E+00  0.00000000000E+00  0.12473828847E+03  0.12473828847E+03  0.00000000000E+00 0.  1.
          4   -1    0    0  502    0 -0.00000000000E+00 -0.00000000000E+00 -0.52805573056E+04  0.52805573056E+04  0.00000000000E+00 0.  1.
        -13    1    1    2    0    0  0.47266594114E+02  0.28165423862E+03 -0.28231696912E+03  0.40157953542E+03  0.10566000000E+00 0.  1.
         13    1    1    2    0    0  0.44867761518E+03  0.13887739071E+03 -0.24428832526E+04  0.24876247967E+04  0.10566000000E+00 0. -1.
          4    1    1    2  501    0 -0.49594420929E+03 -0.42053162934E+03 -0.24306187954E+04  0.25160912620E+04  0.00000000000E+00 0.  1.
</event>
<event>
 5    1  0.1008363E-004  0.3302382E+03  0.7818608E-02  0.9955517E-01
         -4   -1    0    0    0  501 -0.00000000000E+00  0.00000000000E+00  0.95012102366E+03  0.95012102366E+03  0.00000000000E+00 0. -1.
         21   -1    0    0  501  502  0.00000000000E+00 -0.00000000000E+00 -0.72653860290E+03  0.72653860290E+03  0.00000000000E+00 0. -1.
        -13    1    1    2    0    0 -0.23219794158E+03 -0.16698061001E+03 -0.23006768490E+03  0.36705525333E+03  0.10566000000E+00 0.  1.
         13    1    1    2    0    0  0.29539991919E+03  0.15845202341E+03  0.84710275454E+03  0.91101659913E+03  0.10566000000E+00 0. -1.
         -4    1    1    2    0  502 -0.63201977606E+02  0.85285865986E+01 -0.39345264887E+03  0.39858777411E+03  0.00000000000E+00 0. -1.
</event>
<event>
 5    1  0.1008363E-004  0.4386481E+03  0.7818608E-02  0.9760305E-01
         -4   -1    0    0    0  501 -0.00000000000E+00  0.00000000000E+00  0.17518001882E+04  0.17518001882E+04  0.00000000000E+00 0. -1.
         21   -1    0    0  501  502  0.00000000000E+00 -0.00000000000E+00 -0.28431552810E+03  0.28431552810E+03  0.00000000000E+00 0. -1.
        -13    1    1    2    0    0  0.30549555630E+02 -0.27056959065E+03  0.67533305357E+03  0.72815927045E+03  0.10566000000E+00 0.  1.
         13    1    1    2    0    0 -0.23747697095E+03 -0.30434921262E+03  0.13091145111E+03  0.40762921160E+03  0.10566000000E+00 0. -1.
         -4    1    1    2    0  502  0.20692741532E+03  0.57491880327E+03  0.66124015537E+03  0.90032723420E+03  0.00000000000E+00 0. -1.
</event>
<event>
 5    1  0.1008363E-004  0.4741424E+03  0.7818608E-02  0.9770898E-01
         21   -1    0    0  501  502  0.00000000000E+00  0.00000000000E+00  0.16663517021E+03  0.16663517021E+03  0.00000000000E+00 0.  1.
          4   -1    0    0  502    0 -0.00000000000E+00 -0.00000000000E+00 -0.22250805401E+04  0.22250805401E+04  0.00000000000E+00 0.  1.
        -13    1    1    2    0    0 -0.34173117707E+03 -0.46871301445E+03 -0.93397865393E+03  0.10994490550E+04  0.10566000000E+00 0.  1.
         13    1    1    2    0    0  0.24554582457E+02  0.20643661941E+03 -0.52923017009E+03  0.56859791544E+03  0.10566000000E+00 0. -1.
          4    1    1    2  501    0  0.31717659462E+03  0.26227639504E+03 -0.59523654592E+03  0.72366873994E+03  0.00000000000E+00 0.  1.
</event>
<event>
 5    1  0.1008363E-004  0.2505925E+03  0.7818608E-02  0.1062057E+00
          4   -1    0    0  502    0 -0.00000000000E+00  0.00000000000E+00  0.15433568983E+04  0.15433568983E+04  0.00000000000E+00 0.  1.
         21   -1    0    0  501  502  0.00000000000E+00 -0.00000000000E+00 -0.21190116419E+03  0.21190116419E+03  0.00000000000E+00 0.  1.
        -13    1    1    2    0    0 -0.14498920927E+03  0.17539215003E+03  0.13719682982E+04  0.13907125150E+04  0.10566000000E+00 0.  1.
         13    1    1    2    0    0 -0.78293806894E+02 -0.55800340509E+02  0.31571649201E+02  0.10119475479E+03  0.10566000000E+00 0. -1.
          4    1    1    2  501    0  0.22328301617E+03 -0.11959180952E+03 -0.72084213247E+02  0.26335079269E+03  0.00000000000E+00 0.  1.
</event>
<event>
 5    1  0.1008363E-004  0.7224948E+02  0.7818608E-02  0.1220946E+00
         21   -1    0    0  501  502  0.00000000000E+00  0.00000000000E+00  0.87079520607E+02  0.87079520607E+02  0.00000000000E+00 0.  1.
         -4   -1    0    0    0  501 -0.00000000000E+00 -0.00000000000E+00 -0.15695233528E+03  0.15695233528E+03  0.00000000000E+00 0. -1.
        -13    1    1    2    0    0  0.48125643865E+02 -0.29826091772E+02  0.35722892942E+02  0.66946318734E+02  0.10566000000E+00 0.  1.
         13    1    1    2    0    0 -0.64097022215E+02  0.39683450625E+02 -0.12757433746E+03  0.14818376177E+03  0.10566000000E+00 0. -1.
         -4    1    1    2    0  502  0.15971378350E+02 -0.98573588530E+01  0.21978629849E+02  0.28901775378E+02  0.00000000000E+00 0. -1.
</event>
<event>
 5    1  0.1008363E-004  0.3004116E+03  0.7818608E-02  0.1008412E+00
         21   -1    0    0  501  502  0.00000000000E+00  0.00000000000E+00  0.11561628964E+04  0.11561628964E+04  0.00000000000E+00 0. -1.
         -4   -1    0    0    0  501 -0.00000000000E+00 -0.00000000000E+00 -0.37642092068E+03  0.37642092068E+03  0.00000000000E+00 0. -1.
        -13    1    1    2    0    0  0.76179195939E+02  0.27803870664E+03  0.20524880778E+03  0.35388681318E+03  0.10566000000E+00 0.  1.
         13    1    1    2    0    0  0.20979915042E+03 -0.36292710241E+03 -0.10882681468E+03  0.43309935573E+03  0.10566000000E+00 0. -1.
         -4    1    1    2    0  502 -0.28597834636E+03  0.84888395764E+02  0.68331998259E+03  0.74559764815E+03  0.00000000000E+00 0. -1.
</event>
<event>
 5    1  0.1008363E-004  0.2775728E+02  0.7818608E-02  0.1423874E+00
         -4   -1    0    0    0  501 -0.00000000000E+00  0.00000000000E+00  0.12398995106E+02  0.12398995106E+02  0.00000000000E+00 0. -1.
         21   -1    0    0  501  502  0.00000000000E+00 -0.00000000000E+00 -0.60522602783E+03  0.60522602783E+03  0.00000000000E+00 0. -1.
        -13    1    1    2    0    0 -0.13094289257E+02 -0.18099191514E+02 -0.11184190456E+03  0.11405114609E+03  0.10566000000E+00 0.  1.
         13    1    1    2    0    0  0.26595363730E+02  0.11854194188E+02 -0.77857468762E+01  0.30140741700E+02  0.10566000000E+00 0. -1.
         -4    1    1    2    0  502 -0.13501074473E+02  0.62449973260E+01 -0.47319938129E+03  0.47343313515E+03  0.00000000000E+00 0. -1.
</event>
<event>
 5    1  0.1008363E-004  0.4361429E+03  0.7818608E-02  0.9630121E-01
         21   -1    0    0  501  502  0.00000000000E+00  0.00000000000E+00  0.50634286330E+03  0.50634286330E+03  0.00000000000E+00 0. -1.
         -4   -1    0    0    0  501 -0.00000000000E+00 -0.00000000000E+00 -0.18105836634E+04  0.18105836634E+04  0.00000000000E+00 0. -1.
        -13    1    1    2    0    0  0.24430467424E+03  0.35512138080E+03 -0.11376979960E+04  0.12166152680E+04  0.10566000000E+00 0.  1.
         13    1    1    2    0    0  0.11411150256E+02 -0.52402304250E+03 -0.44398815463E+03  0.68691764866E+03  0.10566000000E+00 0. -1.
         -4    1    1    2    0  502 -0.25571582449E+03  0.16890166170E+03  0.27744535061E+03  0.41339361001E+03  0.00000000000E+00 0. -1.
</event>
<event>
 5    1  0.1008363E-004  0.1748324E+03  0.7818608E-02  0.1078908E+00
         -4   -1    0    0    0  501 -0.00000000000E+00  0.00000000000E+00  0.18369790480E+03  0.18369790480E+03  0.00000000000E+00 0. -1.
         21   -1    0    0  501  502  0.00000000000E+00 -0.00000000000E+00 -0.38264186498E+03  0.38264186498E+03  0.00000000000E+00 0.  1.
        -13    1    1    2    0    0  0.17828073741E+03  0.11834965071E+02 -0.17473505754E+03  0.24991286328E+03  0.10566000000E+00 0.  1.
         13    1    1    2    0    0 -0.15428880995E+03 -0.88274213378E+02  0.71512628343E+02  0.19160229852E+03  0.10566000000E+00 0. -1.
         -4    1    1    2    0  502 -0.23991927465E+02  0.76439248307E+02 -0.95721530979E+02  0.12482460798E+03  0.00000000000E+00 0. -1.
</event>
<event>
 5    1  0.1008363E-004  0.3278432E+03  0.7818608E-02  0.9964327E-01
          4   -1    0    0  502    0 -0.00000000000E+00  0.00000000000E+00  0.89291538965E+03  0.89291538965E+03  0.00000000000E+00 0.  1.
         21   -1    0    0  501  502  0.00000000000E+00 -0.00000000000E+00 -0.43780431353E+03  0.43780431353E+03  0.00000000000E+00 0. -1.
        -13    1    1    2    0    0  0.25196470698E+03  0.21549121938E+03  0.20731639523E+03  0.39102784823E+03  0.10566000000E+00 0.  1.
         13    1    1    2    0    0 -0.36510112630E+03  0.21233388772E+02  0.47024035078E+03  0.59571443485E+03  0.10566000000E+00 0. -1.
          4    1    1    2  501    0  0.11313641932E+03 -0.23672460815E+03 -0.22244566990E+03  0.34397742010E+03  0.00000000000E+00 0.  1.
</event>
<event>
 5    1  0.1008363E-004  0.4473270E+03  0.7818608E-02  0.9691751E-01
          4   -1    0    0  502    0 -0.00000000000E+00  0.00000000000E+00  0.56305849397E+03  0.56305849397E+03  0.00000000000E+00 0.  1.
         21   -1    0    0  501  502  0.00000000000E+00 -0.00000000000E+00 -0.84269813534E+03  0.84269813534E+03  0.00000000000E+00 0. -1.
        -13    1    1    2    0    0  0.25542973080E+03 -0.19452822185E+02  0.25754944054E+03  0.36325539934E+03  0.10566000000E+00 0.  1.
         13    1    1    2    0    0  0.23100781621E+03  0.22942716277E+03 -0.63311394152E+02  0.33167721954E+03  0.10566000000E+00 0. -1.
          4    1    1    2  501    0 -0.48643754701E+03 -0.20997434059E+03 -0.47387768775E+03  0.71082401042E+03  0.00000000000E+00 0.  1.
</event>
<event>
 5    1  0.1008363E-004  0.4855692E+03  0.7818608E-02  0.9528519E-01
          4   -1    0    0  502    0 -0.00000000000E+00  0.00000000000E+00  0.28892626248E+03  0.28892626248E+03  0.00000000000E+00 0.  1.
         21   -1    0    0  501  502  0.00000000000E+00 -0.00000000000E+00 -0.23281775833E+04  0.23281775833E+04  0.00000000000E+00 0. -1.
        -13    1    1    2    0    0  0.35032489970E+03  0.13502348835E+03 -0.54584862451E+03  0.66250253569E+03  0.10566000000E+00 0.  1.
         13    1    1    2    0    0  0.57017302213E+02  0.49870713556E+03 -0.50734659156E+03  0.71369486122E+03  0.10566000000E+00 0. -1.
          4    1    1    2  501    0 -0.40734220192E+03 -0.63373062390E+03 -0.98605610475E+03  0.12409064489E+04  0.00000000000E+00 0.  1.
</event>
<event>
 5    1  0.1008363E-004  0.5036361E+03  0.7818608E-02  0.1004523E+00
         21   -1    0    0  501  502  0.00000000000E+00  0.00000000000E+00  0.12153949344E+04  0.12153949344E+04  0.00000000000E+00 0. -1.
         -4   -1    0    0    0  501 -0.00000000000E+00 -0.00000000000E+00 -0.30094778170E+03  0.30094778170E+03  0.00000000000E+00 0. -1.
        -13    1    1    2    0    0  0.69310308307E+02  0.32348652015E+01 -0.57108663244E+02  0.89865420335E+02  0.10566000000E+00 0.  1.
         13    1    1    2    0    0  0.20605929326E+03 -0.43946351282E+03  0.26920987413E+03  0.55503385386E+03  0.10566000000E+00 0. -1.
         -4    1    1    2    0  502 -0.27536960157E+03  0.43622864762E+03  0.70234594186E+03  0.87144344195E+03  0.00000000000E+00 0. -1.
</event>
<event>
 5    1  0.1008363E-004  0.5187102E+03  0.7818608E-02  0.9437880E-01
         21   -1    0    0  501  502  0.00000000000E+00  0.00000000000E+00  0.22231066568E+03  0.22231066568E+03  0.00000000000E+00 0. -1.
          4   -1    0    0  502    0 -0.00000000000E+00 -0.00000000000E+00 -0.21439314018E+04  0.21439314018E+04  0.00000000000E+00 0.  1.
        -13    1    1    2    0    0  0.14459773749E+03  0.50360322982E+03 -0.11395218156E+04  0.12542068004E+04  0.10566000000E+00 0.  1.
         13    1    1    2    0    0 -0.15001397151E+03 -0.48996399589E+03 -0.87715169515E+03  0.10158562971E+04  0.10566000000E+00 0. -1.
          4    1    1    2  501    0  0.54162340188E+01 -0.13639233930E+02  0.95052774648E+02  0.96178969954E+02  0.00000000000E+00 0.  1.
</event>
<event>
 5    1  0.1008363E-004  0.4883653E+03  0.7818608E-02  0.9531434E-01
         21   -1    0    0  501  502  0.00000000000E+00  0.00000000000E+00  0.55552895686E+03  0.55552895686E+03  0.00000000000E+00 0. -1.
          4   -1    0    0  502    0 -0.00000000000E+00 -0.00000000000E+00 -0.11869062336E+04  0.11869062336E+04  0.00000000000E+00 0.  1.
        -13    1    1    2    0    0 -0.57989659331E+03  0.16667524310E+03 -0.17283881381E+03  0.62764158747E+03  0.10566000000E+00 0.  1.
         13    1    1    2    0    0  0.35497253248E+03  0.26327187180E+03 -0.44821665306E+03  0.62945671538E+03  0.10566000000E+00 0. -1.
          4    1    1    2  501    0  0.22492406084E+03 -0.42994711489E+03 -0.10321809893E+02  0.48533688764E+03  0.00000000000E+00 0.  1.
</event>
<event>
 5    1  0.1008363E-004  0.2664039E+03  0.7818608E-02  0.1043089E+00
         -4   -1    0    0    0  501 -0.00000000000E+00  0.00000000000E+00  0.69601177060E+03  0.69601177060E+03  0.00000000000E+00 0. -1.
         21   -1    0    0  501  502  0.00000000000E+00 -0.00000000000E+00 -0.19993045984E+03  0.19993045984E+03  0.00000000000E+00 0. -1.
        -13    1    1    2    0    0 -0.12595716261E+03  0.61751842314E+02  0.13262852573E+03  0.19305137618E+03  0.10566000000E+00 0.  1.
         13    1    1    2    0    0 -0.56625282088E+02 -0.26671365693E+03  0.32735971290E+03  0.42603637187E+03  0.10566000000E+00 0. -1.
         -4    1    1    2    0  502  0.18258244470E+03  0.20496181461E+03  0.36093072128E+02  0.27685448239E+03  0.00000000000E+00 0. -1.
</event>
<event>
 5    1  0.1008363E-004  0.8390278E+02  0.7818608E-02  0.1194343E+00
         -4   -1    0    0    0  501 -0.00000000000E+00  0.00000000000E+00  0.81728492163E+03  0.81728492163E+03  0.00000000000E+00 0. -1.
         21   -1    0    0  501  502  0.00000000000E+00 -0.00000000000E+00 -0.10597037988E+02  0.10597037988E+02  0.00000000000E+00 0.  1.
        -13    1    1    2    0    0  0.74309462822E+02  0.25757391300E+02  0.33109718472E+03  0.34030970654E+03  0.10566000000E+00 0.  1.
         13    1    1    2    0    0 -0.87080779932E+02 -0.24382929948E+02  0.35648685549E+03  0.36777775735E+03  0.10566000000E+00 0. -1.
         -4    1    1    2    0  502  0.12771317110E+02 -0.13744613523E+01  0.11910384344E+03  0.11979449573E+03  0.00000000000E+00 0. -1.
</event>
<event>
 5    1  0.1008363E-004  0.2202067E+03  0.7818608E-02  0.1047102E+00
         21   -1    0    0  501  502  0.00000000000E+00  0.00000000000E+00  0.34087530279E+03  0.34087530279E+03  0.00000000000E+00 0.  1.
         -4   -1    0    0    0  501 -0.00000000000E+00 -0.00000000000E+00 -0.28032088943E+03  0.28032088943E+03  0.00000000000E+00 0. -1.
        -13    1    1    2    0    0  0.58085289395E+02 -0.21194402820E+03  0.11535715232E+03  0.24819640548E+03  0.10566000000E+00 0.  1.
         13    1    1    2    0    0 -0.69780979562E+02  0.20908782177E+03 -0.15666563732E+03  0.27042787468E+03  0.10566000000E+00 0. -1.
         -4    1    1    2    0  502  0.11695690167E+02  0.28562064363E+01  0.10186289835E+03  0.10257191207E+03  0.00000000000E+00 0. -1.
</event>
<event>
 5    1  0.1008363E-004  0.1062113E+03  0.7818608E-02  0.1154669E+00
          4   -1    0    0  502    0 -0.00000000000E+00  0.00000000000E+00  0.53667321123E+02  0.53667321123E+02  0.00000000000E+00 0.  1.
         21   -1    0    0  501  502  0.00000000000E+00 -0.00000000000E+00 -0.96371157984E+03  0.96371157984E+03  0.00000000000E+00 0.  1.
        -13    1    1    2    0    0 -0.56351604629E+02  0.92403540452E+02 -0.62119571331E+02  0.12479090487E+03  0.10566000000E+00 0.  1.
         13    1    1    2    0    0  0.67887203823E+02 -0.79237089610E+02 -0.10021326213E+03  0.14467168998E+03  0.10566000000E+00 0. -1.
          4    1    1    2  501    0 -0.11535599195E+02 -0.13166450842E+02 -0.74771142526E+03  0.74791630610E+03  0.00000000000E+00 0.  1.
</event>
<event>
 5    1  0.1008363E-004  0.5776076E+02  0.7818608E-02  0.1263061E+00
         21   -1    0    0  501  502  0.00000000000E+00  0.00000000000E+00  0.26838866228E+03  0.26838866228E+03  0.00000000000E+00 0. -1.
          4   -1    0    0  502    0 -0.00000000000E+00 -0.00000000000E+00 -0.18344319869E+02  0.18344319869E+02  0.00000000000E+00 0.  1.
        -13    1    1    2    0    0  0.47499800858E+02  0.24139212286E+02  0.84621115848E+02  0.99998385301E+02  0.10566000000E+00 0.  1.
         13    1    1    2    0    0 -0.58520739015E+02 -0.22109710144E+02  0.85026176145E+02  0.10556030490E+03  0.10566000000E+00 0. -1.
          4    1    1    2  501    0  0.11020938157E+02 -0.20295021424E+01  0.80397050415E+02  0.81174291942E+02  0.00000000000E+00 0.  1.
</event>
<event>
 5    1  0.1008363E-004  0.5455148E+03  0.7818608E-02  0.9383429E-01
         21   -1    0    0  501  502  0.00000000000E+00  0.00000000000E+00  0.10198817881E+04  0.10198817881E+04  0.00000000000E+00 0. -1.
         -4   -1    0    0    0  501 -0.00000000000E+00 -0.00000000000E+00 -0.59048952713E+03  0.59048952713E+03  0.00000000000E+00 0. -1.
        -13    1    1    2    0    0 -0.30434190354E+02 -0.43872933014E+03  0.29033441525E+03  0.52697604207E+03  0.10566000000E+00 0.  1.
         13    1    1    2    0    0 -0.31629226299E+03  0.61028486062E+03  0.99232441909E+02  0.69450377639E+03  0.10566000000E+00 0. -1.
         -4    1    1    2    0  502  0.34672645334E+03 -0.17155553048E+03  0.39825403829E+02  0.38889149679E+03  0.00000000000E+00 0. -1.
</event>
<event>
 5    1  0.1008363E-004  0.4656378E+03  0.7818608E-02  0.9642314E-01
          4   -1    0    0  502    0 -0.00000000000E+00  0.00000000000E+00  0.30287676922E+04  0.30287676922E+04  0.00000000000E+00 0.  1.
         21   -1    0    0  501  502  0.00000000000E+00 -0.00000000000E+00 -0.16392331293E+03  0.16392331293E+03  0.00000000000E+00 0.  1.
        -13    1    1    2    0    0  0.36617508525E+03  0.11069934993E+03  0.62306764472E+03  0.73113052200E+03  0.10566000000E+00 0.  1.
         13    1    1    2    0    0  0.29953786237E+03 -0.16773201587E+03  0.88313832222E+03  0.94751795101E+03  0.10566000000E+00 0. -1.
          4    1    1    2  501    0 -0.66571294762E+03  0.57032665940E+02  0.13586384123E+04  0.15140425321E+04  0.00000000000E+00 0.  1.
</event>
<event>
 5    1  0.1008363E-004  0.4818218E+03  0.7818608E-02  0.9646974E-01
          4   -1    0    0  502    0 -0.00000000000E+00  0.00000000000E+00  0.16528626496E+04  0.16528626496E+04  0.00000000000E+00 0.  1.
         21   -1    0    0  501  502  0.00000000000E+00 -0.00000000000E+00 -0.27352575785E+03  0.27352575785E+03  0.00000000000E+00 0.  1.
        -13    1    1    2    0    0  0.40668660036E+03 -0.42538881292E+03  0.31835505248E+03  0.66910356722E+03  0.10566000000E+00 0.  1.
         13    1    1    2    0    0 -0.12155305321E+03  0.27952638694E+03  0.28289683767E+03  0.41586148857E+03  0.10566000000E+00 0. -1.
          4    1    1    2  501    0 -0.28513354715E+03  0.14586242598E+03  0.77808500156E+03  0.84142335163E+03  0.00000000000E+00 0.  1.
</event>
<event>
 5    1  0.1008363E-004  0.1489707E+03  0.7818608E-02  0.1102131E+00
         21   -1    0    0  501  502  0.00000000000E+00  0.00000000000E+00  0.11974141099E+03  0.11974141099E+03  0.00000000000E+00 0. -1.
          4   -1    0    0  502    0 -0.00000000000E+00 -0.00000000000E+00 -0.68627897159E+03  0.68627897159E+03  0.00000000000E+00 0.  1.
        -13    1    1    2    0    0  0.95460339985E+02  0.11757870168E+03 -0.61584018647E+03  0.63418969877E+03  0.10566000000E+00 0.  1.
         13    1    1    2    0    0 -0.68925912393E+02 -0.10966456438E+03  0.19220230877E+02  0.13094474606E+03  0.10566000000E+00 0. -1.
          4    1    1    2  501    0 -0.26534427592E+02 -0.79141372919E+01  0.30082394998E+02  0.40885937748E+02  0.00000000000E+00 0.  1.
</event>
<event>
 5    1  0.1008363E-004  0.3412837E+03  0.7818608E-02  0.9915891E-01
         21   -1    0    0  501  502  0.00000000000E+00  0.00000000000E+00  0.62421662309E+03  0.62421662309E+03  0.00000000000E+00 0. -1.
         -4   -1    0    0    0  501 -0.00000000000E+00 -0.00000000000E+00 -0.11864505601E+04  0.11864505601E+04  0.00000000000E+00 0. -1.
        -13    1    1    2    0    0  0.12559308449E+02 -0.30537894400E+03 -0.68274099833E+03  0.74803029192E+03  0.10566000000E+00 0.  1.
         13    1    1    2    0    0 -0.36420334151E+02  0.47817810345E+03 -0.32826610969E+03  0.58115349891E+03  0.10566000000E+00 0. -1.
         -4    1    1    2    0  502  0.23861025702E+02 -0.17279915945E+03  0.44877317104E+03  0.48148339234E+03  0.00000000000E+00 0. -1.
</event>
<event>
 5    1  0.1008363E-004  0.4418485E+03  0.7818608E-02  0.9949613E-01
          4   -1    0    0  502    0 -0.00000000000E+00  0.00000000000E+00  0.33842912053E+04  0.33842912053E+04  0.00000000000E+00 0.  1.
         21   -1    0    0  501  502  0.00000000000E+00 -0.00000000000E+00 -0.92713339261E+02  0.92713339261E+02  0.00000000000E+00 0.  1.
        -13    1    1    2    0    0 -0.36642292965E+03  0.32036467919E+03  0.19878777380E+04  0.20465964926E+04  0.10566000000E+00 0.  1.
         13    1    1    2    0    0  0.13480189266E+03  0.39947295618E+02  0.50369570734E+03  0.52295001047E+03  0.10566000000E+00 0. -1.
          4    1    1    2  501    0  0.23162103698E+03 -0.36031197481E+03  0.80000442068E+03  0.90745804149E+03  0.00000000000E+00 0.  1.
</event>
<event>
 5    1  0.1008363E-004  0.4887473E+03  0.7818608E-02  0.9558387E-01
         21   -1    0    0  501  502  0.00000000000E+00  0.00000000000E+00  0.22596222543E+03  0.22596222543E+03  0.00000000000E+00 0.  1.
          4   -1    0    0  502    0 -0.00000000000E+00 -0.00000000000E+00 -0.25544792466E+04  0.25544792466E+04  0.00000000000E+00 0.  1.
        -13    1    1    2    0    0 -0.60133270796E+03  0.11089925997E+03 -0.58576513895E+03  0.84677061870E+03  0.10566000000E+00 0.  1.
         13    1    1    2    0    0  0.23681059965E+03 -0.32255264304E+03 -0.10383356964E+04  0.11127715387E+04  0.10566000000E+00 0. -1.
          4    1    1    2  501    0  0.36452210831E+03  0.21165338308E+03 -0.70441618583E+03  0.82089931470E+03  0.00000000000E+00 0.  1.
</event>
<event>
 5    1  0.1008363E-004  0.1753102E+03  0.7818608E-02  0.1078521E+00
         21   -1    0    0  501  502  0.00000000000E+00  0.00000000000E+00  0.35143659923E+02  0.35143659923E+02  0.00000000000E+00 0.  1.
         -4   -1    0    0    0  501 -0.00000000000E+00 -0.00000000000E+00 -0.15528361448E+04  0.15528361448E+04  0.00000000000E+00 0. -1.
        -13    1    1    2    0    0 -0.69575535456E+00 -0.17312959631E+03 -0.35722819815E+03  0.39697145730E+03  0.10566000000E+00 0.  1.
         13    1    1    2    0    0 -0.53459985921E+02  0.17014687535E+03 -0.10756457627E+04  0.10903310265E+04  0.10566000000E+00 0. -1.
         -4    1    1    2    0  502  0.54155741275E+02  0.29827209669E+01 -0.84818524025E+02  0.10067732096E+03  0.00000000000E+00 0. -1.
</event>
<event>
 5    1  0.1008363E-004  0.9968343E+02  0.7818608E-02  0.1171655E+00
         21   -1    0    0  501  502  0.00000000000E+00  0.00000000000E+00  0.19719062836E+03  0.19719062836E+03  0.00000000000E+00 0.  1.
          4   -1    0    0  502    0 -0.00000000000E+00 -0.00000000000E+00 -0.20479746325E+03  0.20479746325E+03  0.00000000000E+00 0.  1.
        -13    1    1    2    0    0  0.82100971429E+01  0.16576796096E+03 -0.30064394381E+01  0.16599841089E+03  0.10566000000E+00 0.  1.
         13    1    1    2    0    0  0.16077805870E+02 -0.83587908738E+02 -0.83693924665E+02  0.11937386028E+03  0.10566000000E+00 0. -1.
          4    1    1    2  501    0 -0.24287903013E+02 -0.82180052219E+02  0.79093529213E+02  0.11661582045E+03  0.00000000000E+00 0.  1.
</event>
<event>
 5    1  0.1008363E-004  0.7887413E+02  0.7818608E-02  0.1205197E+00
         21   -1    0    0  501  502  0.00000000000E+00  0.00000000000E+00  0.52632865427E+02  0.52632865427E+02  0.00000000000E+00 0.  1.
         -4   -1    0    0    0  501 -0.00000000000E+00 -0.00000000000E+00 -0.44724230478E+03  0.44724230478E+03  0.00000000000E+00 0. -1.
        -13    1    1    2    0    0 -0.55156002933E+02 -0.66635702637E+02 -0.68135369286E+02  0.11011331090E+03  0.10566000000E+00 0.  1.
         13    1    1    2    0    0  0.66039832667E+02  0.41560854070E+02 -0.34694495199E+03  0.35561126946E+03  0.10566000000E+00 0. -1.
         -4    1    1    2    0  502 -0.10883829734E+02  0.25074848567E+02  0.20470881924E+02  0.34150589850E+02  0.00000000000E+00 0. -1.
</event>
<event>
 5    1  0.1008363E-004  0.5765934E+03  0.7818608E-02  0.9324254E-01
         -4   -1    0    0    0  501 -0.00000000000E+00  0.00000000000E+00  0.23232491903E+04  0.23232491903E+04  0.00000000000E+00 0. -1.
         21   -1    0    0  501  502  0.00000000000E+00 -0.00000000000E+00 -0.30784961875E+03  0.30784961875E+03  0.00000000000E+00 0. -1.
        -13    1    1    2    0    0 -0.48699586182E+03  0.11895103760E+03  0.32369767562E+03  0.59673655421E+03  0.10566000000E+00 0.  1.
         13    1    1    2    0    0  0.61105139897E+03  0.11404439373E+03  0.16549690179E+04  0.17678553100E+04  0.10566000000E+00 0. -1.
         -4    1    1    2    0  502 -0.12405553715E+03 -0.23299543133E+03  0.36732878115E+02  0.26650694485E+03  0.00000000000E+00 0. -1.
</event>
<event>
 5    1  0.1008363E-004  0.3423675E+03  0.7818608E-02  0.9912089E-01
         21   -1    0    0  501  502  0.00000000000E+00  0.00000000000E+00  0.34551210170E+03  0.34551210170E+03  0.00000000000E+00 0. -1.
         -4   -1    0    0    0  501 -0.00000000000E+00 -0.00000000000E+00 -0.16714899519E+04  0.16714899519E+04  0.00000000000E+00 0. -1.
        -13    1    1    2    0    0 -0.20653832813E+03  0.29796837279E+03 -0.35599555733E+03  0.50811030315E+03  0.10566000000E+00 0.  1.
         13    1    1    2    0    0  0.17914431740E+03 -0.28471701200E+03 -0.12156568062E+04  0.12613397421E+04  0.10566000000E+00 0. -1.
         -4    1    1    2    0  502  0.27394010733E+02 -0.13251360783E+02  0.24567451328E+03  0.24755200839E+03  0.00000000000E+00 0. -1.
</event>
<event>
 5    1  0.1008363E-004  0.1516913E+03  0.7818608E-02  0.1099455E+00
         21   -1    0    0  501  502  0.00000000000E+00  0.00000000000E+00  0.23048809733E+03  0.23048809733E+03  0.00000000000E+00 0. -1.
         -4   -1    0    0    0  501 -0.00000000000E+00 -0.00000000000E+00 -0.28999497339E+03  0.28999497339E+03  0.00000000000E+00 0. -1.
        -13    1    1    2    0    0 -0.11060796042E+03  0.79474939188E+02 -0.83418110915E+02  0.15971530690E+03  0.10566000000E+00 0.  1.
         13    1    1    2    0    0  0.12782395872E+03 -0.18635027515E+03  0.78893006116E+02  0.23935226561E+03  0.10566000000E+00 0. -1.
         -4    1    1    2    0  502 -0.17215998304E+02  0.10687533597E+03 -0.54981771254E+02  0.12141549821E+03  0.00000000000E+00 0. -1.
</event>
<event>
 5    1  0.1008363E-004  0.4971488E+03  0.7818608E-02  0.9594782E-01
          4   -1    0    0  502    0 -0.00000000000E+00  0.00000000000E+00  0.30987974712E+04  0.30987974712E+04  0.00000000000E+00 0.  1.
         21   -1    0    0  501  502  0.00000000000E+00 -0.00000000000E+00 -0.17766096513E+03  0.17766096513E+03  0.00000000000E+00 0.  1.
        -13    1    1    2    0    0 -0.16600155612E+03  0.38508652547E+03  0.82514645086E+03  0.92558890727E+03  0.10566000000E+00 0.  1.
         13    1    1    2    0    0 -0.33243986763E+03 -0.30296436647E+02  0.13261632409E+04  0.13675317519E+04  0.10566000000E+00 0. -1.
          4    1    1    2  501    0  0.49844142375E+03 -0.35479008882E+03  0.76982681425E+03  0.98333777715E+03  0.00000000000E+00 0.  1.
</event>
<event>
 5    1  0.1008363E-004  0.1162296E+03  0.7818608E-02  0.1146897E+00
          4   -1    0    0  502    0 -0.00000000000E+00  0.00000000000E+00  0.35014581310E+03  0.35014581310E+03  0.00000000000E+00 0.  1.
         21   -1    0    0  501  502  0.00000000000E+00 -0.00000000000E+00 -0.26959592312E+03  0.26959592312E+03  0.00000000000E+00 0.  1.
        -13    1    1    2    0    0 -0.11161221907E+03 -0.26368850164E+02 -0.19168507410E+03  0.22337363878E+03  0.10566000000E+00 0.  1.
         13    1    1    2    0    0 -0.27626717415E+01 -0.98192342125E+02  0.33456624014E+02  0.10377246871E+03  0.10566000000E+00 0. -1.
          4    1    1    2  501    0  0.11437489081E+03  0.12456119229E+03  0.23877834006E+03  0.29259562873E+03  0.00000000000E+00 0.  1.
</event>
<event>
 5    1  0.1008363E-004  0.1753541E+03  0.7818608E-02  0.1078485E+00
          4   -1    0    0  502    0 -0.00000000000E+00  0.00000000000E+00  0.98043905374E+03  0.98043905374E+03  0.00000000000E+00 0.  1.
         21   -1    0    0  501  502  0.00000000000E+00 -0.00000000000E+00 -0.14360999502E+03  0.14360999502E+03  0.00000000000E+00 0.  1.
        -13    1    1    2    0    0 -0.63592321064E+02  0.21170496641E+03 -0.29804901047E+02  0.22305003787E+03  0.10566000000E+00 0.  1.
         13    1    1    2    0    0  0.86021172294E+02 -0.14765448767E+03  0.50716664753E+03  0.53518175356E+03  0.10566000000E+00 0. -1.
          4    1    1    2  501    0 -0.22428851231E+02 -0.64050478741E+02  0.35946731224E+03  0.36581725733E+03  0.00000000000E+00 0.  1.
</event>
<event>
 5    1  0.1008363E-004  0.4723395E+03  0.7818608E-02  0.9985367E-01
          4   -1    0    0  502    0 -0.00000000000E+00  0.00000000000E+00  0.22427183997E+03  0.22427183997E+03  0.00000000000E+00 0.  1.
         21   -1    0    0  501  502  0.00000000000E+00 -0.00000000000E+00 -0.14621507695E+04  0.14621507695E+04  0.00000000000E+00 0.  1.
        -13    1    1    2    0    0  0.47305670952E+03  0.34468557205E+02 -0.33804970622E+03  0.58245029564E+03  0.10566000000E+00 0.  1.
         13    1    1    2    0    0 -0.17696607065E+02  0.10073954492E+03 -0.20165312587E+02  0.10425102785E+03  0.10566000000E+00 0. -1.
          4    1    1    2  501    0 -0.45536010245E+03 -0.13520810213E+03 -0.87966391073E+03  0.99972128597E+03  0.00000000000E+00 0.  1.
</event>
<event>
 5    1  0.1008363E-004  0.5724402E+02  0.7818608E-02  0.1264813E+00
          4   -1    0    0  502    0 -0.00000000000E+00  0.00000000000E+00  0.48088743788E+02  0.48088743788E+02  0.00000000000E+00 0.  1.
         21   -1    0    0  501  502  0.00000000000E+00 -0.00000000000E+00 -0.11079890183E+03  0.11079890183E+03  0.00000000000E+00 0.  1.
        -13    1    1    2    0    0  0.53823975757E+02 -0.40438021348E+02 -0.37140893505E+02  0.76887652267E+02  0.10566000000E+00 0.  1.
         13    1    1    2    0    0 -0.40172364866E+02  0.27593389569E+02 -0.35961297097E+02  0.60567648954E+02  0.10566000000E+00 0. -1.
          4    1    1    2  501    0 -0.13651610891E+02  0.12844631779E+02  0.10392032562E+02  0.21432344394E+02  0.00000000000E+00 0.  1.
</event>
<event>
 5    1  0.1008363E-004  0.4999862E+03  0.7818608E-02  0.9780427E-01
         21   -1    0    0  501  502  0.00000000000E+00  0.00000000000E+00  0.27662729008E+03  0.27662729008E+03  0.00000000000E+00 0.  1.
          4   -1    0    0  502    0 -0.00000000000E+00 -0.00000000000E+00 -0.14816757192E+04  0.14816757192E+04  0.00000000000E+00 0.  1.
        -13    1    1    2    0    0  0.57898787106E+03  0.10862249843E+03 -0.39932442926E+03  0.71167816671E+03  0.10566000000E+00 0.  1.
         13    1    1    2    0    0 -0.14841674462E+03 -0.86114283726E+02 -0.46947856180E+03  0.49985330958E+03  0.10566000000E+00 0. -1.
          4    1    1    2  501    0 -0.43057112645E+03 -0.22508214708E+02 -0.33624543804E+03  0.54677153296E+03  0.00000000000E+00 0.  1.
</event>
<event>
 5    1  0.1008363E-004  0.6550417E+02  0.7818608E-02  0.1253297E+00
         21   -1    0    0  501  502  0.00000000000E+00  0.00000000000E+00  0.92154459348E+02  0.92154459348E+02  0.00000000000E+00 0. -1.
         -4   -1    0    0    0  501 -0.00000000000E+00 -0.00000000000E+00 -0.98462181307E+02  0.98462181307E+02  0.00000000000E+00 0. -1.
        -13    1    1    2    0    0  0.47958100120E+02  0.70826259081E+01 -0.12330044638E+02  0.50021836449E+02  0.10566000000E+00 0.  1.
         13    1    1    2    0    0 -0.56893356017E+02  0.51843179567E+02  0.19686744210E+02  0.79449029498E+02  0.10566000000E+00 0. -1.
         -4    1    1    2    0  502  0.89352558966E+01 -0.58925805475E+02 -0.13664421531E+02  0.61145774708E+02  0.00000000000E+00 0. -1.
</event>
<event>
 5    1  0.1008363E-004  0.1051748E+03  0.7818608E-02  0.1156266E+00
         -4   -1    0    0    0  501 -0.00000000000E+00  0.00000000000E+00  0.91026348316E+02  0.91026348316E+02  0.00000000000E+00 0. -1.
         21   -1    0    0  501  502  0.00000000000E+00 -0.00000000000E+00 -0.24903153060E+03  0.24903153060E+03  0.00000000000E+00 0.  1.
        -13    1    1    2    0    0 -0.54031886045E+02 -0.94116541958E+02 -0.14532806745E+03  0.18137702868E+03  0.10566000000E+00 0.  1.
         13    1    1    2    0    0  0.71639403802E+02  0.76656386790E+02  0.30172783891E+02  0.10917332030E+03  0.10566000000E+00 0. -1.
         -4    1    1    2    0  502 -0.17607517757E+02  0.17460155167E+02 -0.42849898726E+02  0.49507529941E+02  0.00000000000E+00 0. -1.
</event>
<event>
 5    1  0.1008363E-004  0.4858163E+03  0.7818608E-02  0.9634451E-01
          4   -1    0    0  502    0 -0.00000000000E+00  0.00000000000E+00  0.14113151025E+04  0.14113151025E+04  0.00000000000E+00 0.  1.
         21   -1    0    0  501  502  0.00000000000E+00 -0.00000000000E+00 -0.35338139497E+03  0.35338139497E+03  0.00000000000E+00 0.  1.
        -13    1    1    2    0    0 -0.53808055957E+03  0.31435572985E+03  0.22298548794E+03  0.66187064633E+03  0.10566000000E+00 0.  1.
         13    1    1    2    0    0  0.15985128437E+03 -0.26651982423E+03  0.53095367895E+03  0.61522115550E+03  0.10566000000E+00 0. -1.
          4    1    1    2  501    0  0.37822927520E+03 -0.47835905627E+02  0.30399454066E+03  0.48760469567E+03  0.00000000000E+00 0.  1.
</event>
<event>
 5    1  0.1008363E-004  0.2035467E+03  0.7818608E-02  0.1057731E+00
         -4   -1    0    0    0  501 -0.00000000000E+00  0.00000000000E+00  0.10589599437E+04  0.10589599437E+04  0.00000000000E+00 0. -1.
         21   -1    0    0  501  502  0.00000000000E+00 -0.00000000000E+00 -0.38879659561E+03  0.38879659561E+03  0.00000000000E+00 0. -1.
        -13    1    1    2    0    0 -0.21316607569E+03 -0.49663035822E+02  0.27521382575E+03  0.35163738993E+03  0.10566000000E+00 0.  1.
         13    1    1    2    0    0  0.71971007106E+02 -0.18274677135E+02 -0.33828028364E+03  0.34633416111E+03  0.10566000000E+00 0. -1.
         -4    1    1    2    0  502  0.14119506858E+03  0.67937712957E+02  0.73322980597E+03  0.74978498824E+03  0.00000000000E+00 0. -1.
</event>
<event>
 5    1  0.1008363E-004  0.4577627E+03  0.7818608E-02  0.1009102E+00
         21   -1    0    0  501  502  0.00000000000E+00  0.00000000000E+00  0.78306422635E+03  0.78306422635E+03  0.00000000000E+00 0. -1.
         -4   -1    0    0    0  501 -0.00000000000E+00 -0.00000000000E+00 -0.39758427929E+03  0.39758427929E+03  0.00000000000E+00 0. -1.
        -13    1    1    2    0    0  0.49171570253E+02 -0.62712495217E+02 -0.92083332282E+02  0.12177869939E+03  0.10566000000E+00 0.  1.
         13    1    1    2    0    0 -0.47816296451E+03 -0.56185166030E+02  0.14376071088E+03  0.50245770635E+03  0.10566000000E+00 0. -1.
         -4    1    1    2    0  502  0.42899139426E+03  0.11889766125E+03  0.33380256847E+03  0.55641209990E+03  0.00000000000E+00 0. -1.
</event>
<event>
 5    1  0.1008363E-004  0.4163404E+03  0.7818608E-02  0.9683004E-01
          4   -1    0    0  502    0 -0.00000000000E+00  0.00000000000E+00  0.46642278488E+03  0.46642278488E+03  0.00000000000E+00 0.  1.
         21   -1    0    0  501  502  0.00000000000E+00 -0.00000000000E+00 -0.44314348298E+03  0.44314348298E+03  0.00000000000E+00 0. -1.
        -13    1    1    2    0    0 -0.23035383332E+03  0.33428178557E+03 -0.63195863857E+02  0.41085390233E+03  0.10566000000E+00 0.  1.
         13    1    1    2    0    0  0.23917160963E+03 -0.34897453337E+03  0.13752856437E+03  0.44485997907E+03  0.10566000000E+00 0. -1.
          4    1    1    2  501    0 -0.88177763079E+01  0.14692747800E+02 -0.51053398624E+02  0.53852386465E+02  0.00000000000E+00 0.  1.
</event>
<event>
 5    1  0.1008363E-004  0.5178530E+03  0.7818608E-02  0.9735915E-01
         21   -1    0    0  501  502  0.00000000000E+00  0.00000000000E+00  0.29659457493E+03  0.29659457493E+03  0.00000000000E+00 0.  1.
          4   -1    0    0  502    0 -0.00000000000E+00 -0.00000000000E+00 -0.20359388483E+04  0.20359388483E+04  0.00000000000E+00 0.  1.
        -13    1    1    2    0    0  0.42549220820E+03  0.43514793843E+03 -0.45147055517E+03  0.75777504637E+03  0.10566000000E+00 0.  1.
         13    1    1    2    0    0 -0.17384582260E+03 -0.46705905050E+02 -0.10286410007E+04  0.10442730156E+04  0.10566000000E+00 0. -1.
          4    1    1    2  501    0 -0.25164638560E+03 -0.38844203338E+03 -0.25923271748E+03  0.53048536124E+03  0.00000000000E+00 0.  1.
</event>
<event>
 5    1  0.1008363E-004  0.8173327E+02  0.7818608E-02  0.1198920E+00
          4   -1    0    0  502    0 -0.00000000000E+00  0.00000000000E+00  0.13848208393E+03  0.13848208393E+03  0.00000000000E+00 0.  1.
         21   -1    0    0  501  502  0.00000000000E+00 -0.00000000000E+00 -0.84733728688E+02  0.84733728688E+02  0.00000000000E+00 0. -1.
        -13    1    1    2    0    0 -0.24544235489E+02  0.75255229275E+02  0.79811132133E+02  0.11240817144E+03  0.10566000000E+00 0.  1.
         13    1    1    2    0    0  0.33038553055E+02 -0.83399345494E+02 -0.91039659307E+01  0.90165903625E+02  0.10566000000E+00 0. -1.
          4    1    1    2  501    0 -0.84943175652E+01  0.81441162190E+01 -0.16958810965E+02  0.20641737554E+02  0.00000000000E+00 0.  1.
</event>
<event>
 5    1  0.1008363E-004  0.2630660E+02  0.7818608E-02  0.1437276E+00
          4   -1    0    0  502    0 -0.00000000000E+00  0.00000000000E+00  0.15857940379E+02  0.15857940379E+02  0.00000000000E+00 0.  1.
         21   -1    0    0  501  502  0.00000000000E+00 -0.00000000000E+00 -0.92727334651E+02  0.92727334651E+02  0.00000000000E+00 0. -1.
        -13    1    1    2    0    0  0.28862541528E+01  0.24768796214E+02 -0.68691314027E+01  0.25865418210E+02  0.10566000000E+00 0.  1.
         13    1    1    2    0    0 -0.14063016909E+02 -0.28839710156E+02 -0.48610272180E+02  0.58244888634E+02  0.10566000000E+00 0. -1.
          4    1    1    2  501    0  0.11176762756E+02  0.40709139422E+01 -0.21389990689E+02  0.24474968186E+02  0.00000000000E+00 0.  1.
</event>
<event>
 5    1  0.1008363E-004  0.3653668E+03  0.7818608E-02  0.9834771E-01
         -4   -1    0    0    0  501 -0.00000000000E+00  0.00000000000E+00  0.11622092107E+04  0.11622092107E+04  0.00000000000E+00 0. -1.
         21   -1    0    0  501  502  0.00000000000E+00 -0.00000000000E+00 -0.17852876527E+03  0.17852876527E+03  0.00000000000E+00 0.  1.
        -13    1    1    2    0    0 -0.38515609685E+01  0.34332557253E+03  0.47269085490E+03  0.58422935457E+03  0.10566000000E+00 0.  1.
         13    1    1    2    0    0  0.65914446584E+01 -0.38923992206E+03  0.56464346286E+03  0.68583774713E+03  0.10566000000E+00 0. -1.
         -4    1    1    2    0  502 -0.27398836899E+01  0.45914349526E+02 -0.53653872323E+02  0.70670874271E+02  0.00000000000E+00 0. -1.
</event>
<event>
 5    1  0.1008363E-004  0.1008539E+03  0.7818608E-02  0.1163150E+00
         -4   -1    0    0    0  501 -0.00000000000E+00  0.00000000000E+00  0.63049889008E+02  0.63049889008E+02  0.00000000000E+00 0. -1.
         21   -1    0    0  501  502  0.00000000000E+00 -0.00000000000E+00 -0.65609092019E+03  0.65609092019E+03  0.00000000000E+00 0.  1.
        -13    1    1    2    0    0  0.30390519013E+02  0.10630290378E+03 -0.41315157565E+03  0.42768928747E+03  0.10566000000E+00 0.  1.
         13    1    1    2    0    0 -0.36887325611E+02 -0.92806851045E+02  0.10549399306E+02  0.10042453575E+03  0.10566000000E+00 0. -1.
         -4    1    1    2    0  502  0.64968065977E+01 -0.13496052732E+02 -0.19043885484E+03  0.19102698597E+03  0.00000000000E+00 0. -1.
</event>
<event>
 5    1  0.1008363E-004  0.6295326E+02  0.7818608E-02  0.1246526E+00
          4   -1    0    0  502    0 -0.00000000000E+00  0.00000000000E+00  0.47388605820E+02  0.47388605820E+02  0.00000000000E+00 0.  1.
         21   -1    0    0  501  502  0.00000000000E+00 -0.00000000000E+00 -0.18503957865E+03  0.18503957865E+03  0.00000000000E+00 0. -1.
        -13    1    1    2    0    0  0.18009121702E+01 -0.70812151082E+02 -0.19841794409E+02  0.73561620393E+02  0.10566000000E+00 0.  1.
         13    1    1    2    0    0 -0.30497763306E+02  0.41665826114E+02 -0.10326551273E+03  0.11545532433E+03  0.10566000000E+00 0. -1.
          4    1    1    2  501    0  0.28696851136E+02  0.29146324968E+02 -0.14543665683E+02  0.43411239740E+02  0.00000000000E+00 0.  1.
</event>
<event>
 5    1  0.1008363E-004  0.1403718E+02  0.7818608E-02  0.1615201E+00
         21   -1    0    0  501  502  0.00000000000E+00  0.00000000000E+00  0.16362200763E+03  0.16362200763E+03  0.00000000000E+00 0.  1.
         -4   -1    0    0    0  501 -0.00000000000E+00 -0.00000000000E+00 -0.50500498668E+01  0.50500498668E+01  0.00000000000E+00 0. -1.
        -13    1    1    2    0    0  0.61848536495E+01  0.12114601594E+02  0.11623374638E+02  0.17892176738E+02  0.10566000000E+00 0.  1.
         13    1    1    2    0    0  0.25967482858E+01 -0.17682837353E+02  0.46861923173E+02  0.50154529666E+02  0.10566000000E+00 0. -1.
         -4    1    1    2    0  502 -0.87816019354E+01  0.55682357591E+01  0.10008665995E+03  0.10062535109E+03  0.00000000000E+00 0. -1.
</event>
<event>
 5    1  0.1008363E-004  0.3818746E+03  0.7818608E-02  0.1010386E+00
         21   -1    0    0  501  502  0.00000000000E+00  0.00000000000E+00  0.15232174170E+03  0.15232174170E+03  0.00000000000E+00 0. -1.
         -4   -1    0    0    0  501 -0.00000000000E+00 -0.00000000000E+00 -0.22046169001E+04  0.22046169001E+04  0.00000000000E+00 0. -1.
        -13    1    1    2    0    0 -0.11223939313E+03 -0.68932548092E+02 -0.43262714572E+03  0.45223404995E+03  0.10566000000E+00 0.  1.
         13    1    1    2    0    0  0.47357026568E+03  0.40871945893E+02 -0.14055769829E+04  0.14837742343E+04  0.10566000000E+00 0. -1.
         -4    1    1    2    0  502 -0.36133087255E+03  0.28060602199E+02 -0.21409102984E+03  0.42093035755E+03  0.00000000000E+00 0. -1.
</event>
<event>
 5    1  0.1008363E-004  0.4508721E+03  0.7818608E-02  0.1003885E+00
         21   -1    0    0  501  502  0.00000000000E+00  0.00000000000E+00  0.17066830845E+03  0.17066830845E+03  0.00000000000E+00 0. -1.
         -4   -1    0    0    0  501 -0.00000000000E+00 -0.00000000000E+00 -0.17571509946E+04  0.17571509946E+04  0.00000000000E+00 0. -1.
        -13    1    1    2    0    0 -0.98687822850E+02  0.29712681733E+01 -0.13793597053E+03  0.16963035679E+03  0.10566000000E+00 0.  1.
         13    1    1    2    0    0  0.46777715934E+03 -0.10384563707E+03 -0.34570175015E+03  0.59085454924E+03  0.10566000000E+00 0. -1.
         -4    1    1    2    0  502 -0.36908933649E+03  0.10087436890E+03 -0.11028449654E+04  0.11673343970E+04  0.00000000000E+00 0. -1.
</event>
<event>
 5    1  0.1008363E-004  0.1757740E+03  0.7818608E-02  0.1078146E+00
         -4   -1    0    0    0  501 -0.00000000000E+00  0.00000000000E+00  0.17279664713E+04  0.17279664713E+04  0.00000000000E+00 0. -1.
         21   -1    0    0  501  502  0.00000000000E+00 -0.00000000000E+00 -0.23635588440E+02  0.23635588440E+02  0.00000000000E+00 0. -1.
        -13    1    1    2    0    0  0.10524801785E+03  0.12862901891E+03  0.73229740356E+03  0.75092081353E+03  0.10566000000E+00 0.  1.
         13    1    1    2    0    0 -0.94642295415E+02 -0.16060842432E+03  0.91996488839E+03  0.93866268546E+03  0.10566000000E+00 0. -1.
         -4    1    1    2    0  502 -0.10605722438E+02  0.31979405413E+02  0.52068590962E+02  0.62018560801E+02  0.00000000000E+00 0. -1.
</event>
<event>
 5    1  0.1008363E-004  0.4129437E+03  0.7818608E-02  0.9929166E-01
          4   -1    0    0  502    0 -0.00000000000E+00  0.00000000000E+00  0.13965525036E+04  0.13965525036E+04  0.00000000000E+00 0.  1.
         21   -1    0    0  501  502  0.00000000000E+00 -0.00000000000E+00 -0.25631131878E+03  0.25631131878E+03  0.00000000000E+00 0.  1.
        -13    1    1    2    0    0 -0.44932558893E+03  0.29470556741E+03  0.77049882636E+03  0.93936856926E+03  0.10566000000E+00 0.  1.
         13    1    1    2    0    0  0.96444625032E+02 -0.15708322537E+03  0.26081440287E+03  0.31937574940E+03  0.10566000000E+00 0. -1.
          4    1    1    2  501    0  0.35288096390E+03 -0.13762234203E+03  0.10892795558E+03  0.39411950372E+03  0.00000000000E+00 0.  1.
</event>
<event>
 5    1  0.1008363E-004  0.6512043E+03  0.7818608E-02  0.9721391E-01
         21   -1    0    0  501  502  0.00000000000E+00  0.00000000000E+00  0.34346840550E+03  0.34346840550E+03  0.00000000000E+00 0. -1.
         -4   -1    0    0    0  501 -0.00000000000E+00 -0.00000000000E+00 -0.15815901596E+04  0.15815901596E+04  0.00000000000E+00 0. -1.
        -13    1    1    2    0    0  0.51077262664E+02 -0.80330012222E+02 -0.72109873645E+02  0.11942211967E+03  0.10566000000E+00 0.  1.
         13    1    1    2    0    0  0.43164666737E+03  0.50856934328E+03 -0.86837027386E+03  0.10950016283E+04  0.10566000000E+00 0. -1.
         -4    1    1    2    0  502 -0.48272393004E+03 -0.42823933106E+03 -0.29764160659E+03  0.71063481710E+03  0.00000000000E+00 0. -1.
</event>
<event>
 5    1  0.1008363E-004  0.5163484E+03  0.7818608E-02  0.9576915E-01
         -4   -1    0    0    0  501 -0.00000000000E+00  0.00000000000E+00  0.10082895271E+04  0.10082895271E+04  0.00000000000E+00 0. -1.
         21   -1    0    0  501  502  0.00000000000E+00 -0.00000000000E+00 -0.78147832250E+03  0.78147832250E+03  0.00000000000E+00 0.  1.
        -13    1    1    2    0    0 -0.37707740443E+03  0.48120865307E+03  0.58531180737E+02  0.61414578644E+03  0.10566000000E+00 0.  1.
         13    1    1    2    0    0  0.30498433666E+03  0.30082163187E+02  0.48219214824E+03  0.57134023238E+03  0.10566000000E+00 0. -1.
         -4    1    1    2    0  502  0.72093067772E+02 -0.51129081625E+03 -0.31391212437E+03  0.60428183080E+03  0.00000000000E+00 0. -1.
</event>
<event>
 5    1  0.1008363E-004  0.2008868E+03  0.7818608E-02  0.1059530E+00
          4   -1    0    0  502    0 -0.00000000000E+00  0.00000000000E+00  0.50208010753E+03  0.50208010753E+03  0.00000000000E+00 0.  1.
         21   -1    0    0  501  502  0.00000000000E+00 -0.00000000000E+00 -0.64346131192E+03  0.64346131192E+03  0.00000000000E+00 0.  1.
        -13    1    1    2    0    0  0.85703778755E+02 -0.18661871315E+03  0.41517121232E+03  0.46318336379E+03  0.10566000000E+00 0.  1.
         13    1    1    2    0    0  0.44844655063E+02  0.19734890484E+03 -0.14101384704E+03  0.24666282563E+03  0.10566000000E+00 0. -1.
          4    1    1    2  501    0 -0.13054843382E+03 -0.10730191691E+02 -0.41553856967E+03  0.43569523003E+03  0.00000000000E+00 0.  1.
</event>
<event>
 5    1  0.1008363E-004  0.3702258E+03  0.7818608E-02  0.1010755E+00
         -4   -1    0    0    0  501 -0.00000000000E+00  0.00000000000E+00  0.22382399368E+04  0.22382399368E+04  0.00000000000E+00 0. -1.
         21   -1    0    0  501  502  0.00000000000E+00 -0.00000000000E+00 -0.14544242046E+03  0.14544242046E+03  0.00000000000E+00 0. -1.
        -13    1    1    2    0    0  0.14061586902E+03 -0.25116200654E+02  0.25994443663E+03  0.29660540699E+03  0.10566000000E+00 0.  1.
         13    1    1    2    0    0  0.10252368917E+03  0.35226610711E+03  0.22956073100E+03  0.43278245973E+03  0.10566000000E+00 0. -1.
         -4    1    1    2    0  502 -0.24313955819E+03 -0.32714990646E+03  0.16032923487E+04  0.16542944906E+04  0.00000000000E+00 0. -1.
</event>
<event>
 5    1  0.1008363E-004  0.1405880E+03  0.7818608E-02  0.1110784E+00
         21   -1    0    0  501  502  0.00000000000E+00  0.00000000000E+00  0.11261314437E+04  0.11261314437E+04  0.00000000000E+00 0. -1.
         -4   -1    0    0    0  501 -0.00000000000E+00 -0.00000000000E+00 -0.28549796244E+02  0.28549796244E+02  0.00000000000E+00 0. -1.
        -13    1    1    2    0    0 -0.41643668582E+02  0.12255908520E+03  0.34291659150E+03  0.36653338782E+03  0.10566000000E+00 0.  1.
         13    1    1    2    0    0  0.77848994984E+02 -0.13263965252E+03  0.35711089838E+03  0.38882122929E+03  0.10566000000E+00 0. -1.
         -4    1    1    2    0  502 -0.36205326402E+02  0.10080567316E+02  0.39755415759E+03  0.39932662285E+03  0.00000000000E+00 0. -1.
</event>
<event>
 5    1  0.1008363E-004  0.5498114E+03  0.7818608E-02  0.9486293E-01
         21   -1    0    0  501  502  0.00000000000E+00  0.00000000000E+00  0.34689192846E+03  0.34689192846E+03  0.00000000000E+00 0.  1.
          4   -1    0    0  502    0 -0.00000000000E+00 -0.00000000000E+00 -0.23874022598E+04  0.23874022598E+04  0.00000000000E+00 0.  1.
        -13    1    1    2    0    0 -0.19097987519E+02  0.44199378995E+03 -0.66601792964E+03  0.79956434216E+03  0.10566000000E+00 0.  1.
         13    1    1    2    0    0 -0.35719987561E+03  0.74098854656E+02 -0.12258095668E+04  0.12789415532E+04  0.10566000000E+00 0. -1.
          4    1    1    2  501    0  0.37629786313E+03 -0.51609264461E+03 -0.14868283485E+03  0.65578829281E+03  0.00000000000E+00 0.  1.
</event>
<event>
 5    1  0.1008363E-004  0.1448323E+03  0.7818608E-02  0.1106323E+00
         21   -1    0    0  501  502  0.00000000000E+00  0.00000000000E+00  0.82488952887E+03  0.82488952887E+03  0.00000000000E+00 0. -1.
          4   -1    0    0  502    0 -0.00000000000E+00 -0.00000000000E+00 -0.16737523910E+03  0.16737523910E+03  0.00000000000E+00 0.  1.
        -13    1    1    2    0    0 -0.17441839633E+02  0.14315074500E+03 -0.12007784650E+03  0.18765674502E+03  0.10566000000E+00 0.  1.
         13    1    1    2    0    0  0.35409367169E+02 -0.14982801060E+03  0.43428982824E+03  0.46077100833E+03  0.10566000000E+00 0. -1.
          4    1    1    2  501    0 -0.17967527536E+02  0.66772655944E+01  0.34330230803E+03  0.34383701462E+03  0.00000000000E+00 0.  1.
</event>
<event>
 5    1  0.1008363E-004  0.4741014E+03  0.7818608E-02  0.9792085E-01
         -4   -1    0    0    0  501 -0.00000000000E+00  0.00000000000E+00  0.14218869016E+04  0.14218869016E+04  0.00000000000E+00 0. -1.
         21   -1    0    0  501  502  0.00000000000E+00 -0.00000000000E+00 -0.54515858194E+03  0.54515858194E+03  0.00000000000E+00 0. -1.
        -13    1    1    2    0    0  0.18672751279E+03 -0.50300447867E+02  0.93059868872E+03  0.95047947358E+03  0.10566000000E+00 0.  1.
         13    1    1    2    0    0 -0.14419444239E+03 -0.44069725776E+03  0.14393773611E+03  0.48551435948E+03  0.10566000000E+00 0. -1.
         -4    1    1    2    0  502 -0.42533070393E+02  0.49099770563E+03 -0.19780810516E+03  0.53105165048E+03  0.00000000000E+00 0. -1.
</event>
<event>
 5    1  0.1008363E-004  0.3316653E+03  0.7818608E-02  0.1008355E+00
         -4   -1    0    0    0  501 -0.00000000000E+00  0.00000000000E+00  0.10937693603E+04  0.10937693603E+04  0.00000000000E+00 0. -1.
         21   -1    0    0  501  502  0.00000000000E+00 -0.00000000000E+00 -0.37769867299E+03  0.37769867299E+03  0.00000000000E+00 0. -1.
        -13    1    1    2    0    0 -0.13462307889E+03  0.16715526728E+03  0.15326585358E+01  0.21463135129E+03  0.10566000000E+00 0.  1.
         13    1    1    2    0    0  0.44978939281E+03 -0.14770373994E+03  0.80011199383E+03  0.92968064760E+03  0.10566000000E+00 0. -1.
         -4    1    1    2    0  502 -0.31516631392E+03 -0.19451527335E+02 -0.85573965068E+02  0.32715603439E+03  0.00000000000E+00 0. -1.
</event>
<event>
 5    1  0.1008363E-004  0.3520480E+03  0.7818608E-02  0.9960997E-01
          4   -1    0    0  502    0 -0.00000000000E+00  0.00000000000E+00  0.35669525466E+03  0.35669525466E+03  0.00000000000E+00 0.  1.
         21   -1    0    0  501  502  0.00000000000E+00 -0.00000000000E+00 -0.14428470338E+04  0.14428470338E+04  0.00000000000E+00 0.  1.
        -13    1    1    2    0    0 -0.46760000289E+03 -0.19591746446E+03 -0.24760274847E+03  0.56421675604E+03  0.10566000000E+00 0.  1.
         13    1    1    2    0    0  0.26007180146E+03 -0.63418809977E+02  0.62598326444E+02  0.27491425757E+03  0.10566000000E+00 0. -1.
          4    1    1    2  501    0  0.20752820143E+03  0.25933627443E+03 -0.90114735708E+03  0.96041127482E+03  0.00000000000E+00 0.  1.
</event>
<event>
 5    1  0.1008363E-004  0.2903992E+03  0.7818608E-02  0.1028188E+00
         21   -1    0    0  501  502  0.00000000000E+00  0.00000000000E+00  0.23527286003E+03  0.23527286003E+03  0.00000000000E+00 0. -1.
         -4   -1    0    0    0  501 -0.00000000000E+00 -0.00000000000E+00 -0.17017888800E+04  0.17017888800E+04  0.00000000000E+00 0. -1.
        -13    1    1    2    0    0  0.16667607662E+03  0.37162789726E+02 -0.57864530455E+03  0.60331781600E+03  0.10566000000E+00 0.  1.
         13    1    1    2    0    0 -0.43708643484E+03  0.13242235285E+02 -0.95521659023E+03  0.10505515950E+04  0.10566000000E+00 0. -1.
         -4    1    1    2    0  502  0.27041035822E+03 -0.50405025011E+02  0.67345874810E+02  0.28319232905E+03  0.00000000000E+00 0. -1.
</event>
<event>
 5    1  0.1008363E-004  0.1460215E+03  0.7818608E-02  0.1105103E+00
         -4   -1    0    0    0  501 -0.00000000000E+00  0.00000000000E+00  0.11876284658E+03  0.11876284658E+03  0.00000000000E+00 0. -1.
         21   -1    0    0  501  502  0.00000000000E+00 -0.00000000000E+00 -0.89215099755E+03  0.89215099755E+03  0.00000000000E+00 0. -1.
        -13    1    1    2    0    0 -0.13674689407E+03  0.81497683630E+02 -0.42886723316E+03  0.45745896026E+03  0.10566000000E+00 0.  1.
         13    1    1    2    0    0  0.11035222633E+03 -0.93668832760E+02  0.53542512619E+02  0.15433170739E+03  0.10566000000E+00 0. -1.
         -4    1    1    2    0  502  0.26394667747E+02  0.12171149129E+02 -0.39806343043E+03  0.39912317648E+03  0.00000000000E+00 0. -1.
</event>
<event>
 5    1  0.1008363E-004  0.2497976E+03  0.7818608E-02  0.1030498E+00
         21   -1    0    0  501  502  0.00000000000E+00  0.00000000000E+00  0.18158434221E+04  0.18158434221E+04  0.00000000000E+00 0.  1.
          4   -1    0    0  502    0 -0.00000000000E+00 -0.00000000000E+00 -0.12040755806E+04  0.12040755806E+04  0.00000000000E+00 0.  1.
        -13    1    1    2    0    0  0.41735215395E+03  0.85829107208E+02  0.21578018960E+03  0.47760920996E+03  0.10566000000E+00 0.  1.
         13    1    1    2    0    0 -0.23748735758E+03 -0.50408599731E+02 -0.10535831898E+04  0.10811932394E+04  0.10566000000E+00 0. -1.
          4    1    1    2  501    0 -0.17986479637E+03 -0.35420507477E+02  0.14495708417E+04  0.14611165534E+04  0.00000000000E+00 0.  1.
</event>
<event>
 5    1  0.1008363E-004  0.2842335E+03  0.7818608E-02  0.1014034E+00
         21   -1    0    0  501  502  0.00000000000E+00  0.00000000000E+00  0.28382620980E+03  0.28382620980E+03  0.00000000000E+00 0.  1.
          4   -1    0    0  502    0 -0.00000000000E+00 -0.00000000000E+00 -0.21111368392E+04  0.21111368392E+04  0.00000000000E+00 0.  1.
        -13    1    1    2    0    0 -0.16333616839E+03  0.19940399440E+03 -0.11110019936E+04  0.11405113317E+04  0.10566000000E+00 0.  1.
         13    1    1    2    0    0  0.32073300303E+03 -0.17139662375E+03 -0.92363423181E+03  0.99264629512E+03  0.10566000000E+00 0. -1.
          4    1    1    2  501    0 -0.15739683464E+03 -0.28007370650E+02  0.20732559594E+03  0.26180542221E+03  0.00000000000E+00 0.  1.
</event>
<event>
 5    1  0.1008363E-004  0.2963779E+03  0.7818608E-02  0.1008812E+00
         -4   -1    0    0    0  501 -0.00000000000E+00  0.00000000000E+00  0.21529549713E+03  0.21529549713E+03  0.00000000000E+00 0. -1.
         21   -1    0    0  501  502  0.00000000000E+00 -0.00000000000E+00 -0.44677032417E+03  0.44677032417E+03  0.00000000000E+00 0.  1.
        -13    1    1    2    0    0  0.94821968219E+02  0.28854202472E+03 -0.14232931493E+03  0.33541817294E+03  0.10566000000E+00 0.  1.
         13    1    1    2    0    0 -0.82988528145E+02 -0.27875676786E+03 -0.64983007063E+02  0.29801884807E+03  0.10566000000E+00 0. -1.
         -4    1    1    2    0  502 -0.11833440075E+02 -0.97852568617E+01 -0.24162505052E+02  0.28628800293E+02  0.00000000000E+00 0. -1.
</event>
<event>
 5    1  0.1008363E-004  0.4414351E+03  0.7818608E-02  0.9616492E-01
         21   -1    0    0  501  502  0.00000000000E+00  0.00000000000E+00  0.61755733745E+03  0.61755733745E+03  0.00000000000E+00 0.  1.
          4   -1    0    0  502    0 -0.00000000000E+00 -0.00000000000E+00 -0.11392815135E+04  0.11392815135E+04  0.00000000000E+00 0.  1.
        -13    1    1    2    0    0 -0.78274545951E+02  0.52413777909E+03 -0.35893875631E+03  0.64006590126E+03  0.10566000000E+00 0.  1.
         13    1    1    2    0    0  0.25097207467E+03 -0.33208733047E+03 -0.52619467780E+03  0.67093205874E+03  0.10566000000E+00 0. -1.
          4    1    1    2  501    0 -0.17269752872E+03 -0.19205044861E+03  0.36340925804E+03  0.44584089098E+03  0.00000000000E+00 0.  1.
</event>
<event>
 5    1  0.1008363E-004  0.2453515E+02  0.7818608E-02  0.1455069E+00
         21   -1    0    0  501  502  0.00000000000E+00  0.00000000000E+00  0.20645910479E+03  0.20645910479E+03  0.00000000000E+00 0.  1.
          4   -1    0    0  502    0 -0.00000000000E+00 -0.00000000000E+00 -0.86801715035E+02  0.86801715035E+02  0.00000000000E+00 0.  1.
        -13    1    1    2    0    0  0.95999033308E+01 -0.21765856951E+02 -0.66525573538E+02  0.70651070560E+02  0.10566000000E+00 0.  1.
         13    1    1    2    0    0 -0.22639271313E+01  0.30679012245E+02 -0.49242157672E+01  0.31154232832E+02  0.10566000000E+00 0. -1.
          4    1    1    2  501    0 -0.73359761995E+01 -0.89131552945E+01  0.19110717907E+03  0.19145551644E+03  0.00000000000E+00 0.  1.
</event>
<event>
 5    1  0.1008363E-004  0.5095603E+03  0.7818608E-02  0.9893947E-01
         -4   -1    0    0    0  501 -0.00000000000E+00  0.00000000000E+00  0.19949431206E+04  0.19949431206E+04  0.00000000000E+00 0. -1.
         21   -1    0    0  501  502  0.00000000000E+00 -0.00000000000E+00 -0.18962060713E+03  0.18962060713E+03  0.00000000000E+00 0. -1.
        -13    1    1    2    0    0 -0.44226959078E+02  0.10108633772E+03  0.55125837002E+03  0.56219238101E+03  0.10566000000E+00 0.  1.
         13    1    1    2    0    0  0.41435306914E+03  0.27687757227E+03  0.55886161277E+03  0.74878299214E+03  0.10566000000E+00 0. -1.
         -4    1    1    2    0  502 -0.37012611006E+03 -0.37796390999E+03  0.69520253069E+03  0.87358835459E+03  0.00000000000E+00 0. -1.
</event>
<event>
 5    1  0.1008363E-004  0.1024176E+03  0.7818608E-02  0.1164956E+00
         21   -1    0    0  501  502  0.00000000000E+00  0.00000000000E+00  0.34767311566E+02  0.34767311566E+02  0.00000000000E+00 0.  1.
          4   -1    0    0  502    0 -0.00000000000E+00 -0.00000000000E+00 -0.78474229391E+03  0.78474229391E+03  0.00000000000E+00 0.  1.
        -13    1    1    2    0    0 -0.10372088866E+03  0.44523718291E+02 -0.25494391126E+03  0.27881318707E+03  0.10566000000E+00 0.  1.
         13    1    1    2    0    0  0.16523362965E+02 -0.10816217500E+03 -0.24054434200E+03  0.26426060860E+03  0.10566000000E+00 0. -1.
          4    1    1    2  501    0  0.87197525695E+02  0.63638456712E+02 -0.25448672909E+03  0.27643580980E+03  0.00000000000E+00 0.  1.
</event>
<event>
 5    1  0.1008363E-004  0.1388025E+03  0.7818608E-02  0.1112712E+00
         -4   -1    0    0    0  501 -0.00000000000E+00  0.00000000000E+00  0.14470313156E+04  0.14470313156E+04  0.00000000000E+00 0. -1.
         21   -1    0    0  501  502  0.00000000000E+00 -0.00000000000E+00 -0.19094914568E+02  0.19094914568E+02  0.00000000000E+00 0.  1.
        -13    1    1    2    0    0  0.52054936761E+02  0.11706848502E+03  0.54444600821E+03  0.55931763216E+03  0.10566000000E+00 0.  1.
         13    1    1    2    0    0 -0.64602271090E+02 -0.13292286711E+03  0.87009002190E+03  0.88255232106E+03  0.10566000000E+00 0. -1.
         -4    1    1    2    0  502  0.12547334328E+02  0.15854382095E+02  0.13400370910E+02  0.24256276938E+02  0.00000000000E+00 0. -1.
</event>
<event>
 5    1  0.1008363E-004  0.1888612E+03  0.7818608E-02  0.1068052E+00
          4   -1    0    0  502    0 -0.00000000000E+00  0.00000000000E+00  0.36533098280E+03  0.36533098280E+03  0.00000000000E+00 0.  1.
         21   -1    0    0  501  502  0.00000000000E+00 -0.00000000000E+00 -0.26915766937E+03  0.26915766937E+03  0.00000000000E+00 0. -1.
        -13    1    1    2    0    0 -0.18373341169E+03  0.39861508265E+02  0.29309914083E+03  0.34821548491E+03  0.10566000000E+00 0.  1.
         13    1    1    2    0    0  0.18959473801E+03 -0.49440971318E+02 -0.18069370176E+03  0.26653479950E+03  0.10566000000E+00 0. -1.
          4    1    1    2  501    0 -0.58613263171E+01  0.95794630524E+01 -0.16232125645E+02  0.19738367752E+02  0.00000000000E+00 0.  1.
</event>
<event>
 5    1  0.1008363E-004  0.4114681E+03  0.7818608E-02  0.9865560E-01
         21   -1    0    0  501  502  0.00000000000E+00  0.00000000000E+00  0.45493639803E+03  0.45493639803E+03  0.00000000000E+00 0.  1.
          4   -1    0    0  502    0 -0.00000000000E+00 -0.00000000000E+00 -0.99800959378E+03  0.99800959378E+03  0.00000000000E+00 0.  1.
        -13    1    1    2    0    0  0.28473712626E+03 -0.23212010373E+03  0.11352508536E+03  0.38450348476E+03  0.10566000000E+00 0.  1.
         13    1    1    2    0    0  0.22649243574E+03 -0.42930143981E+02 -0.32941978487E+03  0.40206868385E+03  0.10566000000E+00 0. -1.
          4    1    1    2  501    0 -0.51122956200E+03  0.27505024771E+03 -0.32717849625E+03  0.66637382319E+03  0.00000000000E+00 0.  1.
</event>
<event>
 5    1  0.1008363E-004  0.1784796E+03  0.7818608E-02  0.1075983E+00
         -4   -1    0    0    0  501 -0.00000000000E+00  0.00000000000E+00  0.11416227293E+04  0.11416227293E+04  0.00000000000E+00 0. -1.
         21   -1    0    0  501  502  0.00000000000E+00 -0.00000000000E+00 -0.33971869818E+02  0.33971869818E+02  0.00000000000E+00 0.  1.
        -13    1    1    2    0    0  0.18113816547E+03  0.72360520649E+01  0.35367274612E+03  0.39742649377E+03  0.10566000000E+00 0.  1.
         13    1    1    2    0    0 -0.17717642799E+03  0.52721880539E+01  0.72506608686E+03  0.74641819651E+03  0.10566000000E+00 0. -1.
         -4    1    1    2    0  502 -0.39617374806E+01 -0.12508240119E+02  0.28912026521E+02  0.31749908855E+02  0.00000000000E+00 0. -1.
</event>
<event>
 5    1  0.1008363E-004  0.7492565E+03  0.7818608E-02  0.9225424E-01
         -4   -1    0    0    0  501 -0.00000000000E+00  0.00000000000E+00  0.17100714969E+04  0.17100714969E+04  0.00000000000E+00 0. -1.
         21   -1    0    0  501  502  0.00000000000E+00 -0.00000000000E+00 -0.13662201749E+04  0.13662201749E+04  0.00000000000E+00 0. -1.
        -13    1    1    2    0    0  0.13274311495E+01 -0.97694482774E+03  0.11145823295E+04  0.14821324971E+04  0.10566000000E+00 0.  1.
         13    1    1    2    0    0  0.42587896268E+02  0.22897638059E+03  0.24103165430E+03  0.33517186832E+03  0.10566000000E+00 0. -1.
         -4    1    1    2    0  502 -0.43915327417E+02  0.74796844715E+03 -0.10117626618E+04  0.12589873064E+04  0.00000000000E+00 0. -1.
</event>
<event>
 5    1  0.1008363E-004  0.2184527E+02  0.7818608E-02  0.1504004E+00
         21   -1    0    0  501  502  0.00000000000E+00  0.00000000000E+00  0.27399984863E+02  0.27399984863E+02  0.00000000000E+00 0.  1.
          4   -1    0    0  502    0 -0.00000000000E+00 -0.00000000000E+00 -0.76519205916E+02  0.76519205916E+02  0.00000000000E+00 0.  1.
        -13    1    1    2    0    0 -0.22428287278E+02 -0.26313010918E+02 -0.14795894904E+02  0.37607609387E+02  0.10566000000E+00 0.  1.
         13    1    1    2    0    0  0.13783747911E+02  0.94292869247E+01 -0.42494395824E+02  0.45658383664E+02  0.10566000000E+00 0. -1.
          4    1    1    2  501    0  0.86445393666E+01  0.16883723993E+02  0.81710696748E+01  0.20653197727E+02  0.00000000000E+00 0.  1.
</event>
<event>
 5    1  0.1008363E-004  0.2974157E+03  0.7818608E-02  0.1008378E+00
         21   -1    0    0  501  502  0.00000000000E+00  0.00000000000E+00  0.16358156907E+04  0.16358156907E+04  0.00000000000E+00 0. -1.
         -4   -1    0    0    0  501 -0.00000000000E+00 -0.00000000000E+00 -0.37616768733E+03  0.37616768733E+03  0.00000000000E+00 0. -1.
        -13    1    1    2    0    0  0.20076688527E+03 -0.30683186951E+03  0.10993608687E+02  0.36684330302E+03  0.10566000000E+00 0.  1.
         13    1    1    2    0    0 -0.19803667873E+03  0.17957158591E+03 -0.10375247928E+03  0.28675611363E+03  0.10566000000E+00 0. -1.
         -4    1    1    2    0  502 -0.27302065468E+01  0.12726028361E+03  0.13524068739E+04  0.13583839614E+04  0.00000000000E+00 0. -1.
</event>
<event>
 5    1  0.1008363E-004  0.4332828E+03  0.7818608E-02  0.9693653E-01
         21   -1    0    0  501  502  0.00000000000E+00  0.00000000000E+00  0.70360629564E+03  0.70360629564E+03  0.00000000000E+00 0.  1.
          4   -1    0    0  502    0 -0.00000000000E+00 -0.00000000000E+00 -0.13318739830E+04  0.13318739830E+04  0.00000000000E+00 0.  1.
        -13    1    1    2    0    0  0.42049926817E+03 -0.41550997548E+03 -0.55233981738E+02  0.59373308663E+03  0.10566000000E+00 0.  1.
         13    1    1    2    0    0 -0.35568473020E+03  0.12568498084E+02 -0.86803899024E+03  0.93816911812E+03  0.10566000000E+00 0. -1.
          4    1    1    2  501    0 -0.64814537973E+02  0.40294147740E+03  0.29500528463E+03  0.50357807389E+03  0.00000000000E+00 0.  1.
</event>
<event>
 5    1  0.1008363E-004  0.4967668E+03  0.7818608E-02  0.9675745E-01
          4   -1    0    0  502    0 -0.00000000000E+00  0.00000000000E+00  0.37991396043E+04  0.37991396043E+04  0.00000000000E+00 0.  1.
         21   -1    0    0  501  502  0.00000000000E+00 -0.00000000000E+00 -0.10897450833E+03  0.10897450833E+03  0.00000000000E+00 0. -1.
        -13    1    1    2    0    0  0.37266466235E+03  0.47132214396E+03  0.17078706378E+04  0.18104821569E+04  0.10566000000E+00 0.  1.
         13    1    1    2    0    0 -0.60916829985E+01 -0.25132444052E+03  0.59423647633E+03  0.64522715687E+03  0.10566000000E+00 0. -1.
          4    1    1    2  501    0 -0.36657297935E+03 -0.21999770344E+03  0.13880579819E+04  0.14524047989E+04  0.00000000000E+00 0.  1.
</event>
<event>
 5    1  0.1008363E-004  0.5557122E+03  0.7818608E-02  0.9430763E-01
          4   -1    0    0  502    0 -0.00000000000E+00  0.00000000000E+00  0.27574587700E+04  0.27574587700E+04  0.00000000000E+00 0.  1.
         21   -1    0    0  501  502  0.00000000000E+00 -0.00000000000E+00 -0.39373312408E+03  0.39373312408E+03  0.00000000000E+00 0.  1.
        -13    1    1    2    0    0 -0.38767321398E+03 -0.79950051282E+02  0.52283685652E+03  0.65577505384E+03  0.10566000000E+00 0.  1.
         13    1    1    2    0    0 -0.10251317016E+03 -0.42073746217E+03  0.17332204471E+04  0.17864999557E+04  0.10566000000E+00 0. -1.
          4    1    1    2  501    0  0.49018638414E+03  0.50068751345E+03  0.10766834229E+03  0.70891688459E+03  0.00000000000E+00 0.  1.
</event>
<event>
 5    1  0.1008363E-004  0.1812775E+03  0.7818608E-02  0.1073789E+00
         -4   -1    0    0    0  501 -0.00000000000E+00  0.00000000000E+00  0.12976932389E+04  0.12976932389E+04  0.00000000000E+00 0. -1.
         21   -1    0    0  501  502  0.00000000000E+00 -0.00000000000E+00 -0.36531730886E+02  0.36531730886E+02  0.00000000000E+00 0.  1.
        -13    1    1    2    0    0 -0.60820698692E+02 -0.17875174243E+03  0.44751390547E+03  0.48571601741E+03  0.10566000000E+00 0.  1.
         13    1    1    2    0    0  0.50823038925E+02  0.17012423275E+03  0.81600168051E+03  0.83509519793E+03  0.10566000000E+00 0. -1.
         -4    1    1    2    0  502  0.99976597669E+01  0.86275096809E+01 -0.23540780018E+01  0.13413754409E+02  0.00000000000E+00 0. -1.
</event>
<event>
 5    1  0.1008363E-004  0.4527574E+03  0.7818608E-02  0.9847550E-01
         21   -1    0    0  501  502  0.00000000000E+00  0.00000000000E+00  0.11751839764E+04  0.11751839764E+04  0.00000000000E+00 0. -1.
         -4   -1    0    0    0  501 -0.00000000000E+00 -0.00000000000E+00 -0.34083455390E+03  0.34083455390E+03  0.00000000000E+00 0. -1.
        -13    1    1    2    0    0  0.17114255409E+03 -0.67240265083E+02 -0.23365536065E+02  0.18535637704E+03  0.10566000000E+00 0.  1.
         13    1    1    2    0    0 -0.84039641452E+02  0.49908888596E+03  0.21141655989E+03  0.54849735677E+03  0.10566000000E+00 0. -1.
         -4    1    1    2    0  502 -0.87102912637E+02 -0.43184862088E+03  0.64629839867E+03  0.78216479649E+03  0.00000000000E+00 0. -1.
</event>
<event>
 5    1  0.1008363E-004  0.4510632E+03  0.7818608E-02  0.9736557E-01
         -4   -1    0    0    0  501 -0.00000000000E+00  0.00000000000E+00  0.12085309747E+04  0.12085309747E+04  0.00000000000E+00 0. -1.
         21   -1    0    0  501  502  0.00000000000E+00 -0.00000000000E+00 -0.14079654744E+04  0.14079654744E+04  0.00000000000E+00 0. -1.
        -13    1    1    2    0    0  0.10683069153E+03 -0.24991860454E+03  0.99541995764E+03  0.10318590063E+04  0.10566000000E+00 0.  1.
         13    1    1    2    0    0  0.37590439488E+03 -0.12699112890E+03 -0.66706036884E+03  0.77614457915E+03  0.10566000000E+00 0. -1.
         -4    1    1    2    0  502 -0.48273508641E+03  0.37690973344E+03 -0.52779408846E+03  0.80849286368E+03  0.00000000000E+00 0. -1.
</event>
<event>
 5    1  0.1008363E-004  0.7604250E+02  0.7818608E-02  0.1211711E+00
         21   -1    0    0  501  502  0.00000000000E+00  0.00000000000E+00  0.31743972147E+02  0.31743972147E+02  0.00000000000E+00 0. -1.
         -4   -1    0    0    0  501 -0.00000000000E+00 -0.00000000000E+00 -0.32580363568E+03  0.32580363568E+03  0.00000000000E+00 0. -1.
        -13    1    1    2    0    0  0.40200712153E+02 -0.54262791568E+02 -0.88793597022E+02  0.11155654101E+03  0.10566000000E+00 0.  1.
         13    1    1    2    0    0 -0.55332393388E+02  0.60365235913E+02 -0.21280571574E+03  0.22801736618E+03  0.10566000000E+00 0. -1.
         -4    1    1    2    0  502  0.15131681235E+02 -0.61024443449E+01  0.75396492287E+01  0.17973700634E+02  0.00000000000E+00 0. -1.
</event>
<event>
 5    1  0.1008363E-004  0.3507669E+03  0.7818608E-02  0.9883124E-01
         21   -1    0    0  501  502  0.00000000000E+00  0.00000000000E+00  0.74154478143E+03  0.74154478143E+03  0.00000000000E+00 0.  1.
         -4   -1    0    0    0  501 -0.00000000000E+00 -0.00000000000E+00 -0.85218770985E+03  0.85218770985E+03  0.00000000000E+00 0. -1.
        -13    1    1    2    0    0 -0.14174918457E+03  0.30785939737E+03  0.61350965647E+03  0.70090252505E+03  0.10566000000E+00 0.  1.
         13    1    1    2    0    0  0.14693131226E+03 -0.31926836542E+03 -0.76940461769E+03  0.84587503602E+03  0.10566000000E+00 0. -1.
         -4    1    1    2    0  502 -0.51821276892E+01  0.11408968050E+02  0.45252032795E+02  0.46954930215E+02  0.00000000000E+00 0. -1.
</event>
<event>
 5    1  0.1008363E-004  0.3849431E+02  0.7818608E-02  0.1383117E+00
         21   -1    0    0  501  502  0.00000000000E+00  0.00000000000E+00  0.12801448156E+03  0.12801448156E+03  0.00000000000E+00 0.  1.
          4   -1    0    0  502    0 -0.00000000000E+00 -0.00000000000E+00 -0.34005406886E+02  0.34005406886E+02  0.00000000000E+00 0.  1.
        -13    1    1    2    0    0  0.44879010853E+02 -0.95911220405E+01 -0.59481046137E+01  0.46276412455E+02  0.10566000000E+00 0.  1.
         13    1    1    2    0    0 -0.15169568449E+02 -0.13802402953E+02  0.33396242569E+02  0.39191099959E+02  0.10566000000E+00 0. -1.
          4    1    1    2  501    0 -0.29709442404E+02  0.23393524993E+02  0.66560936723E+02  0.76552376038E+02  0.00000000000E+00 0.  1.
</event>
<event>
 5    1  0.1008363E-004  0.4572210E+03  0.7818608E-02  0.9577011E-01
          4   -1    0    0  502    0 -0.00000000000E+00  0.00000000000E+00  0.18120374451E+04  0.18120374451E+04  0.00000000000E+00 0.  1.
         21   -1    0    0  501  502  0.00000000000E+00 -0.00000000000E+00 -0.29721049617E+03  0.29721049617E+03  0.00000000000E+00 0.  1.
        -13    1    1    2    0    0 -0.55114666770E+03 -0.87619646722E+02  0.99937083018E+03  0.11446317832E+04  0.10566000000E+00 0.  1.
         13    1    1    2    0    0  0.26830925621E+03  0.30371180366E+03  0.44480504512E+03  0.60173271141E+03  0.10566000000E+00 0. -1.
          4    1    1    2  501    0  0.28283741149E+03 -0.21609215694E+03  0.70651073634E+02  0.36288344662E+03  0.00000000000E+00 0.  1.
</event>
<event>
 5    1  0.1008363E-004  0.2028835E+03  0.7818608E-02  0.1058177E+00
         21   -1    0    0  501  502  0.00000000000E+00  0.00000000000E+00  0.32133850633E+03  0.32133850633E+03  0.00000000000E+00 0.  1.
          4   -1    0    0  502    0 -0.00000000000E+00 -0.00000000000E+00 -0.39020802373E+03  0.39020802373E+03  0.00000000000E+00 0.  1.
        -13    1    1    2    0    0 -0.67381726471E+02 -0.19439974544E+03 -0.25117673731E+03  0.32468649898E+03  0.10566000000E+00 0.  1.
         13    1    1    2    0    0  0.65131989871E+02  0.18442936373E+03 -0.85021744203E+01  0.19577707845E+03  0.10566000000E+00 0. -1.
          4    1    1    2  501    0  0.22497366004E+01  0.99703817123E+01  0.19080939432E+03  0.19108295264E+03  0.00000000000E+00 0.  1.
</event>
<event>
 5    1  0.1008363E-004  0.3220631E+03  0.7818608E-02  0.9985926E-01
         21   -1    0    0  501  502  0.00000000000E+00  0.00000000000E+00  0.15381311874E+03  0.15381311874E+03  0.00000000000E+00 0.  1.
         -4   -1    0    0    0  501 -0.00000000000E+00 -0.00000000000E+00 -0.22539397180E+04  0.22539397180E+04  0.00000000000E+00 0. -1.
        -13    1    1    2    0    0  0.23001029454E+03  0.21647762746E+03 -0.16223579481E+04  0.16528195974E+04  0.10566000000E+00 0.  1.
         13    1    1    2    0    0 -0.32666645258E+03 -0.14986412915E+03 -0.51832411224E+03  0.63073776241E+03  0.10566000000E+00 0. -1.
         -4    1    1    2    0  502  0.96656158033E+02 -0.66613498311E+02  0.40555461109E+02  0.12419547684E+03  0.00000000000E+00 0. -1.
</event>
<event>
 5    1  0.1008363E-004  0.4445038E+03  0.7818608E-02  0.9813137E-01
          4   -1    0    0  502    0 -0.00000000000E+00  0.00000000000E+00  0.39348864186E+04  0.39348864186E+04  0.00000000000E+00 0.  1.
         21   -1    0    0  501  502  0.00000000000E+00 -0.00000000000E+00 -0.98068912975E+02  0.98068912975E+02  0.00000000000E+00 0.  1.
        -13    1    1    2    0    0 -0.49938912142E+03 -0.57330058100E+02  0.77153458771E+03  0.92083758684E+03  0.10566000000E+00 0.  1.
         13    1    1    2    0    0  0.19995800520E+03  0.87785161765E+02  0.90531422073E+03  0.93128045609E+03  0.10566000000E+00 0. -1.
          4    1    1    2  501    0  0.29943111623E+03 -0.30455103665E+02  0.21599686972E+04  0.21808372887E+04  0.00000000000E+00 0.  1.
</event>
<event>
 5    1  0.1008363E-004  0.3518599E+03  0.7818608E-02  0.9879418E-01
         21   -1    0    0  501  502  0.00000000000E+00  0.00000000000E+00  0.25794004824E+03  0.25794004824E+03  0.00000000000E+00 0. -1.
         -4   -1    0    0    0  501 -0.00000000000E+00 -0.00000000000E+00 -0.17871631187E+04  0.17871631187E+04  0.00000000000E+00 0. -1.
        -13    1    1    2    0    0 -0.13182350165E+03  0.26317245340E+03 -0.45843105945E+03  0.54479007264E+03  0.10566000000E+00 0.  1.
         13    1    1    2    0    0  0.28892154193E+03 -0.28107300978E+03 -0.12188050890E+04  0.12837303262E+04  0.10566000000E+00 0. -1.
         -4    1    1    2    0  502 -0.15709804028E+03  0.17900556382E+02  0.14801307800E+03  0.21658276810E+03  0.00000000000E+00 0. -1.
</event>
<event>
 5    1  0.1008363E-004  0.3906830E+03  0.7818608E-02  0.1022893E+00
         21   -1    0    0  501  502  0.00000000000E+00  0.00000000000E+00  0.27713364954E+03  0.27713364954E+03  0.00000000000E+00 0. -1.
          4   -1    0    0  502    0 -0.00000000000E+00 -0.00000000000E+00 -0.18050694861E+04  0.18050694861E+04  0.00000000000E+00 0.  1.
        -13    1    1    2    0    0 -0.34635320035E+03  0.69017110130E+01 -0.14395929809E+04  0.14806877236E+04  0.10566000000E+00 0.  1.
         13    1    1    2    0    0 -0.48432660774E+02  0.67058248176E+02  0.12255527614E+03  0.14785918352E+03  0.10566000000E+00 0. -1.
          4    1    1    2  501    0  0.39478586113E+03 -0.73959959189E+02 -0.21089813185E+03  0.45365622858E+03  0.00000000000E+00 0.  1.
</event>
<event>
 5    1  0.1008363E-004  0.4791013E+02  0.7818608E-02  0.1356209E+00
         21   -1    0    0  501  502  0.00000000000E+00  0.00000000000E+00  0.95643277801E+02  0.95643277801E+02  0.00000000000E+00 0. -1.
         -4   -1    0    0    0  501 -0.00000000000E+00 -0.00000000000E+00 -0.12544881288E+03  0.12544881288E+03  0.00000000000E+00 0. -1.
        -13    1    1    2    0    0 -0.31563010964E+01  0.16729364295E+02  0.49847065248E+02  0.52674234158E+02  0.10566000000E+00 0.  1.
         13    1    1    2    0    0  0.50447325414E+02 -0.19511715287E+02 -0.10244480496E+03  0.11584726540E+03  0.10566000000E+00 0. -1.
         -4    1    1    2    0  502 -0.47291024318E+02  0.27823509920E+01  0.22792204634E+02  0.52570591115E+02  0.00000000000E+00 0. -1.
</event>
<event>
 5    1  0.1008363E-004  0.2147582E+02  0.7818608E-02  0.1516855E+00
         21   -1    0    0  501  502  0.00000000000E+00  0.00000000000E+00  0.19136240801E+02  0.19136240801E+02  0.00000000000E+00 0.  1.
         -4   -1    0    0    0  501 -0.00000000000E+00 -0.00000000000E+00 -0.59300129538E+02  0.59300129538E+02  0.00000000000E+00 0. -1.
        -13    1    1    2    0    0 -0.71576491418E+01  0.12739969130E+02  0.34418084053E+01  0.15013192992E+02  0.10566000000E+00 0.  1.
         13    1    1    2    0    0  0.19492169408E+02 -0.22630797640E+02 -0.24551754357E+02  0.38663904046E+02  0.10566000000E+00 0. -1.
         -4    1    1    2    0  502 -0.12334520266E+02  0.98908285093E+01 -0.19053942785E+02  0.24759273302E+02  0.00000000000E+00 0. -1.
</event>
<event>
 5    1  0.1008363E-004  0.5090558E+03  0.7818608E-02  0.9743790E-01
          4   -1    0    0  502    0 -0.00000000000E+00  0.00000000000E+00  0.17705469963E+04  0.17705469963E+04  0.00000000000E+00 0.  1.
         21   -1    0    0  501  502  0.00000000000E+00 -0.00000000000E+00 -0.21047834942E+03  0.21047834942E+03  0.00000000000E+00 0. -1.
        -13    1    1    2    0    0  0.15973144799E+03 -0.55364954855E+03  0.58526756594E+03  0.82132824923E+03  0.10566000000E+00 0.  1.
         13    1    1    2    0    0  0.64563136070E+02  0.17274740989E+03  0.24845346989E+03  0.30941752379E+03  0.10566000000E+00 0. -1.
          4    1    1    2  501    0 -0.22429458406E+03  0.38090213865E+03  0.72634761110E+03  0.85027957274E+03  0.00000000000E+00 0.  1.
</event>
<event>
 5    1  0.1008363E-004  0.1934005E+03  0.7818608E-02  0.1064757E+00
          4   -1    0    0  502    0 -0.00000000000E+00  0.00000000000E+00  0.66656010723E+03  0.66656010723E+03  0.00000000000E+00 0.  1.
         21   -1    0    0  501  502  0.00000000000E+00 -0.00000000000E+00 -0.95540729158E+02  0.95540729158E+02  0.00000000000E+00 0. -1.
        -13    1    1    2    0    0  0.11270604254E+03 -0.16240075325E+03  0.29714999157E+03  0.35689604276E+03  0.10566000000E+00 0.  1.
         13    1    1    2    0    0 -0.15159770451E+03  0.12004993640E+03  0.28714974073E+03  0.34619190633E+03  0.10566000000E+00 0. -1.
          4    1    1    2  501    0  0.38891661975E+02  0.42350816850E+02 -0.13280354229E+02  0.59012887300E+02  0.00000000000E+00 0.  1.
</event>
<event>
 5    1  0.1008363E-004  0.1516906E+03  0.7818608E-02  0.1099456E+00
         -4   -1    0    0    0  501 -0.00000000000E+00  0.00000000000E+00  0.23423367314E+03  0.23423367314E+03  0.00000000000E+00 0. -1.
         21   -1    0    0  501  502  0.00000000000E+00 -0.00000000000E+00 -0.15864752984E+03  0.15864752984E+03  0.00000000000E+00 0.  1.
        -13    1    1    2    0    0  0.60046475709E+01 -0.16760760815E+03  0.64710869813E+02  0.17976616461E+03  0.10566000000E+00 0.  1.
         13    1    1    2    0    0  0.30439947028E+02  0.13706726135E+03  0.52519487664E+02  0.14990774582E+03  0.10566000000E+00 0. -1.
         -4    1    1    2    0  502 -0.36444594599E+02  0.30540346801E+02 -0.41644214180E+02  0.63207292561E+02  0.00000000000E+00 0. -1.
</event>
<event>
 5    1  0.1008363E-004  0.1626934E+03  0.7818608E-02  0.1089226E+00
         21   -1    0    0  501  502  0.00000000000E+00  0.00000000000E+00  0.75117994117E+03  0.75117994117E+03  0.00000000000E+00 0. -1.
         -4   -1    0    0    0  501 -0.00000000000E+00 -0.00000000000E+00 -0.49221874636E+03  0.49221874636E+03  0.00000000000E+00 0. -1.
        -13    1    1    2    0    0 -0.14532462171E+03  0.79152832285E+02  0.67373368172E+02  0.17867176172E+03  0.10566000000E+00 0.  1.
         13    1    1    2    0    0  0.14802730288E+03 -0.66799241595E+02 -0.42139896998E+03  0.45160970333E+03  0.10566000000E+00 0. -1.
         -4    1    1    2    0  502 -0.27026811710E+01 -0.12353590690E+02  0.61298679661E+03  0.61311722248E+03  0.00000000000E+00 0. -1.
</event>
<event>
 5    1  0.1008363E-004  0.1112924E+03  0.7818608E-02  0.1147114E+00
          4   -1    0    0  502    0 -0.00000000000E+00  0.00000000000E+00  0.18261908333E+02  0.18261908333E+02  0.00000000000E+00 0.  1.
         21   -1    0    0  501  502  0.00000000000E+00 -0.00000000000E+00 -0.88709997859E+03  0.88709997859E+03  0.00000000000E+00 0. -1.
        -13    1    1    2    0    0 -0.43345841903E+02 -0.99478232906E+02 -0.40860032742E+03  0.42276355042E+03  0.10566000000E+00 0.  1.
         13    1    1    2    0    0  0.56641471477E+02  0.98413849720E+02 -0.28403112029E+03  0.30588761100E+03  0.10566000000E+00 0. -1.
          4    1    1    2  501    0 -0.13295629575E+02  0.10643831852E+01 -0.17620662255E+03  0.17671072550E+03  0.00000000000E+00 0.  1.
</event>
<event>
 5    1  0.1008363E-004  0.2809377E+03  0.7818608E-02  0.1040013E+00
         21   -1    0    0  501  502  0.00000000000E+00  0.00000000000E+00  0.14324029944E+03  0.14324029944E+03  0.00000000000E+00 0.  1.
          4   -1    0    0  502    0 -0.00000000000E+00 -0.00000000000E+00 -0.26703639798E+04  0.26703639798E+04  0.00000000000E+00 0.  1.
        -13    1    1    2    0    0 -0.19681895582E+03  0.34335919158E+03 -0.17463286906E+04  0.17906136218E+04  0.10566000000E+00 0.  1.
         13    1    1    2    0    0  0.34260715039E+02 -0.12671786318E+03 -0.73703141436E+03  0.74862976856E+03  0.10566000000E+00 0. -1.
          4    1    1    2  501    0  0.16255824078E+03 -0.21664132840E+03 -0.43763575404E+02  0.27436088888E+03  0.00000000000E+00 0.  1.
</event>
<event>
 5    1  0.1008363E-004  0.3558171E+03  0.7818608E-02  0.1000824E+00
         21   -1    0    0  501  502  0.00000000000E+00  0.00000000000E+00  0.36588951954E+03  0.36588951954E+03  0.00000000000E+00 0.  1.
          4   -1    0    0  502    0 -0.00000000000E+00 -0.00000000000E+00 -0.13988707685E+04  0.13988707685E+04  0.00000000000E+00 0.  1.
        -13    1    1    2    0    0 -0.81957588258E+02 -0.43730176996E+03 -0.84937450584E+03  0.95884667524E+03  0.10566000000E+00 0.  1.
         13    1    1    2    0    0  0.19551828530E+03  0.10509728508E+03 -0.35230838401E+03  0.41640610926E+03  0.10566000000E+00 0. -1.
          4    1    1    2  501    0 -0.11356069704E+03  0.33220448488E+03  0.16870164088E+03  0.38950750355E+03  0.00000000000E+00 0.  1.
</event>
<event>
 5    1  0.1008363E-004  0.9634153E+02  0.7818608E-02  0.1170755E+00
         -4   -1    0    0    0  501 -0.00000000000E+00  0.00000000000E+00  0.39316296395E+03  0.39316296395E+03  0.00000000000E+00 0. -1.
         21   -1    0    0  501  502  0.00000000000E+00 -0.00000000000E+00 -0.86116361197E+02  0.86116361197E+02  0.00000000000E+00 0.  1.
        -13    1    1    2    0    0  0.11213188933E+03 -0.52120655127E+02  0.12299479635E+02  0.12426347677E+03  0.10566000000E+00 0.  1.
         13    1    1    2    0    0 -0.91878178812E+02 -0.28740832382E+02  0.23042069726E+03  0.24972253418E+03  0.10566000000E+00 0. -1.
         -4    1    1    2    0  502 -0.20253710514E+02  0.80861487508E+02  0.64326425862E+02  0.10529331420E+03  0.00000000000E+00 0. -1.
</event>
<event>
 5    1  0.1008363E-004  0.2827473E+03  0.7818608E-02  0.1014692E+00
         21   -1    0    0  501  502  0.00000000000E+00  0.00000000000E+00  0.28405488552E+03  0.28405488552E+03  0.00000000000E+00 0.  1.
         -4   -1    0    0    0  501 -0.00000000000E+00 -0.00000000000E+00 -0.43939089644E+03  0.43939089644E+03  0.00000000000E+00 0. -1.
        -13    1    1    2    0    0 -0.25395365222E+03  0.13432409334E+03 -0.17731153003E+03  0.33760155417E+03  0.10566000000E+00 0.  1.
         13    1    1    2    0    0  0.23622505820E+03 -0.14476426122E+03 -0.74745066521E+02  0.28695958876E+03  0.10566000000E+00 0. -1.
         -4    1    1    2    0  502  0.17728594017E+02  0.10440167878E+02  0.96720585636E+02  0.98884639034E+02  0.00000000000E+00 0. -1.
</event>
<event>
 5    1  0.1008363E-004  0.4950368E+03  0.7818608E-02  0.9903537E-01
          4   -1    0    0  502    0 -0.00000000000E+00  0.00000000000E+00  0.26241936935E+04  0.26241936935E+04  0.00000000000E+00 0.  1.
         21   -1    0    0  501  502  0.00000000000E+00 -0.00000000000E+00 -0.14406916486E+03  0.14406916486E+03  0.00000000000E+00 0. -1.
        -13    1    1    2    0    0 -0.20523179967E+03 -0.38771384986E+03  0.16466862579E+04  0.17041178844E+04  0.10566000000E+00 0.  1.
         13    1    1    2    0    0 -0.11228872592E+03 -0.31177800353E+02  0.65916223972E+02  0.13388716499E+03  0.10566000000E+00 0. -1.
          4    1    1    2  501    0  0.31752052559E+03  0.41889165021E+03  0.76752204679E+03  0.93025780894E+03  0.00000000000E+00 0.  1.
</event>
<event>
 5    1  0.1008363E-004  0.3962687E+03  0.7818608E-02  0.9739884E-01
         21   -1    0    0  501  502  0.00000000000E+00  0.00000000000E+00  0.32691913000E+03  0.32691913000E+03  0.00000000000E+00 0.  1.
         -4   -1    0    0    0  501 -0.00000000000E+00 -0.00000000000E+00 -0.76593156176E+03  0.76593156176E+03  0.00000000000E+00 0. -1.
        -13    1    1    2    0    0  0.17222003999E+03  0.32132538490E+03 -0.19237216613E+02  0.36507509751E+03  0.10566000000E+00 0.  1.
         13    1    1    2    0    0 -0.17751994522E+03 -0.36955425080E+03 -0.49221207120E+03  0.64059067230E+03  0.10566000000E+00 0. -1.
         -4    1    1    2    0  502  0.52999052306E+01  0.48228865898E+02  0.72436856049E+02  0.87184921951E+02  0.00000000000E+00 0. -1.
</event>
<event>
 5    1  0.1008363E-004  0.2572251E+03  0.7818608E-02  0.1026715E+00
         21   -1    0    0  501  502  0.00000000000E+00  0.00000000000E+00  0.42884855385E+03  0.42884855385E+03  0.00000000000E+00 0. -1.
          4   -1    0    0  502    0 -0.00000000000E+00 -0.00000000000E+00 -0.65632261517E+03  0.65632261517E+03  0.00000000000E+00 0.  1.
        -13    1    1    2    0    0 -0.83052324979E+02 -0.24207000979E+03 -0.57433310980E+03  0.62877190658E+03  0.10566000000E+00 0.  1.
         13    1    1    2    0    0  0.96911939678E+02  0.25779233216E+03  0.32701069063E+03  0.42753340632E+03  0.10566000000E+00 0. -1.
          4    1    1    2  501    0 -0.13859614699E+02 -0.15722322366E+02  0.19848357848E+02  0.28865856119E+02  0.00000000000E+00 0.  1.
</event>
<event>
 5    1  0.1008363E-004  0.3596514E+03  0.7818608E-02  0.9853409E-01
          4   -1    0    0  502    0 -0.00000000000E+00  0.00000000000E+00  0.88205996053E+03  0.88205996053E+03  0.00000000000E+00 0.  1.
         21   -1    0    0  501  502  0.00000000000E+00 -0.00000000000E+00 -0.31697385272E+03  0.31697385272E+03  0.00000000000E+00 0. -1.
        -13    1    1    2    0    0  0.33832371627E+03  0.18956649736E+03  0.42890518978E+03  0.57823703349E+03  0.10566000000E+00 0.  1.
         13    1    1    2    0    0 -0.35584783689E+03  0.54037493519E+02  0.10260146754E+03  0.37426568909E+03  0.10566000000E+00 0. -1.
          4    1    1    2  501    0  0.17524120627E+02 -0.24360399088E+03  0.33579450490E+02  0.24653109068E+03  0.00000000000E+00 0.  1.
</event>
<event>
 5    1  0.1008363E-004  0.6383869E+02  0.7818608E-02  0.1243884E+00
         21   -1    0    0  501  502  0.00000000000E+00  0.00000000000E+00  0.31172449228E+02  0.31172449228E+02  0.00000000000E+00 0.  1.
         -4   -1    0    0    0  501 -0.00000000000E+00 -0.00000000000E+00 -0.50693042176E+03  0.50693042176E+03  0.00000000000E+00 0. -1.
        -13    1    1    2    0    0 -0.64405834667E+02 -0.71529734020E+02 -0.21923075361E+03  0.23943005008E+03  0.10566000000E+00 0.  1.
         13    1    1    2    0    0  0.44229394312E+02  0.32141033913E+02 -0.24755001185E+03  0.25351588691E+03  0.10566000000E+00 0. -1.
         -4    1    1    2    0  502  0.20176440355E+02  0.39388700107E+02 -0.89772070666E+01  0.45156934000E+02  0.00000000000E+00 0. -1.
</event>
<event>
 5    1  0.1418049E-004  0.4908549E+03  0.7818608E-02  0.9866227E-01
         21   -1    0    0  501  502  0.00000000000E+00  0.00000000000E+00  0.27011466578E+03  0.27011466578E+03  0.00000000000E+00 0.  1.
          4   -1    0    0  502    0 -0.00000000000E+00 -0.00000000000E+00 -0.13505395725E+04  0.13505395725E+04  0.00000000000E+00 0.  1.
        -13    1    1    2    0    0 -0.10300568437E+02  0.41703235710E+03 -0.48962582764E+03  0.64323833128E+03  0.10566000000E+00 0.  1.
         13    1    1    2    0    0  0.47819476020E+02  0.12676550567E+03 -0.36150906159E+03  0.38606347728E+03  0.10566000000E+00 0. -1.
          4    1    1    2  501    0 -0.37518907584E+02 -0.54379786278E+03 -0.22929001748E+03  0.59135242969E+03  0.00000000000E+00 0.  1.
</event>
<event>
 5    1  0.1008363E-004  0.3241234E+03  0.7818608E-02  0.9978172E-01
          4   -1    0    0  502    0 -0.00000000000E+00  0.00000000000E+00  0.18361585920E+04  0.18361585920E+04  0.00000000000E+00 0.  1.
         21   -1    0    0  501  502  0.00000000000E+00 -0.00000000000E+00 -0.38286319761E+03  0.38286319761E+03  0.00000000000E+00 0.  1.
        -13    1    1    2    0    0 -0.13424226338E+03 -0.44381288817E+03 -0.18775699944E+03  0.50024350769E+03  0.10566000000E+00 0.  1.
         13    1    1    2    0    0 -0.12143038192E+02  0.31601421726E+03  0.10513132652E+04  0.10978488200E+04  0.10566000000E+00 0. -1.
          4    1    1    2  501    0  0.14638530158E+03  0.12779867091E+03  0.58973912865E+03  0.62092946191E+03  0.00000000000E+00 0.  1.
</event>
<event>
 5    1  0.1008363E-004  0.5022366E+03  0.7818608E-02  0.9757504E-01
         21   -1    0    0  501  502  0.00000000000E+00  0.00000000000E+00  0.46800380060E+03  0.46800380060E+03  0.00000000000E+00 0. -1.
         -4   -1    0    0    0  501 -0.00000000000E+00 -0.00000000000E+00 -0.80713309599E+03  0.80713309599E+03  0.00000000000E+00 0. -1.
        -13    1    1    2    0    0  0.16375736067E+02  0.18243064776E+03  0.22927514483E+02  0.18459357534E+03  0.10566000000E+00 0.  1.
         13    1    1    2    0    0 -0.42001312113E+03 -0.39142074975E+03 -0.20614499672E+03  0.61001393106E+03  0.10566000000E+00 0. -1.
         -4    1    1    2    0  502  0.40363738506E+03  0.20899010199E+03 -0.15591181315E+03  0.48052939018E+03  0.00000000000E+00 0. -1.
</event>
<event>
 5    1  0.1008363E-004  0.8267916E+03  0.7818608E-02  0.8956963E-01
          4   -1    0    0  502    0 -0.00000000000E+00  0.00000000000E+00  0.30963062841E+04  0.30963062841E+04  0.00000000000E+00 0.  1.
         21   -1    0    0  501  502  0.00000000000E+00 -0.00000000000E+00 -0.46010647235E+03  0.46010647235E+03  0.00000000000E+00 0. -1.
        -13    1    1    2    0    0 -0.25478970262E+03  0.74038849147E+03  0.14267260474E+04  0.16274643272E+04  0.10566000000E+00 0.  1.
         13    1    1    2    0    0 -0.15729726438E+03 -0.97369208356E+03  0.10200673895E+04  0.14189278323E+04  0.10566000000E+00 0. -1.
          4    1    1    2  501    0  0.41208696699E+03  0.23330359208E+03  0.18940637480E+03  0.51002059690E+03  0.00000000000E+00 0.  1.
</event>
<event>
 5    1  0.1008363E-004  0.1575031E+03  0.7818608E-02  0.1093939E+00
         21   -1    0    0  501  502  0.00000000000E+00  0.00000000000E+00  0.23277390894E+03  0.23277390894E+03  0.00000000000E+00 0. -1.
         -4   -1    0    0    0  501 -0.00000000000E+00 -0.00000000000E+00 -0.79335855583E+03  0.79335855583E+03  0.00000000000E+00 0. -1.
        -13    1    1    2    0    0 -0.23664591913E+03  0.41879794305E+02 -0.96898937781E+02  0.25912279621E+03  0.10566000000E+00 0.  1.
         13    1    1    2    0    0  0.14843369157E+03 -0.95975974294E+00 -0.58955436389E+03  0.60795381493E+03  0.10566000000E+00 0. -1.
         -4    1    1    2    0  502  0.88212227554E+02 -0.40920034562E+02  0.12586865478E+03  0.15905585363E+03  0.00000000000E+00 0. -1.
</event>
<event>
 5    1  0.1008363E-004  0.2544542E+03  0.7818608E-02  0.1039448E+00
         21   -1    0    0  501  502  0.00000000000E+00  0.00000000000E+00  0.23197406772E+03  0.23197406772E+03  0.00000000000E+00 0.  1.
          4   -1    0    0  502    0 -0.00000000000E+00 -0.00000000000E+00 -0.16920978005E+04  0.16920978005E+04  0.00000000000E+00 0.  1.
        -13    1    1    2    0    0  0.17518865205E+03 -0.25254442746E+03 -0.14459812874E+04  0.14782867267E+04  0.10566000000E+00 0.  1.
         13    1    1    2    0    0 -0.17970877214E+03 -0.19201678160E+01 -0.55166062053E+02  0.18799530685E+03  0.10566000000E+00 0. -1.
          4    1    1    2  501    0  0.45201200943E+01  0.25446459528E+03  0.41023616687E+02  0.25778983467E+03  0.00000000000E+00 0.  1.
</event>
<event>
 5    1  0.1008363E-004  0.4227087E+03  0.7818608E-02  0.9673214E-01
         -4   -1    0    0    0  501 -0.00000000000E+00  0.00000000000E+00  0.21457453604E+04  0.21457453604E+04  0.00000000000E+00 0. -1.
         21   -1    0    0  501  502  0.00000000000E+00 -0.00000000000E+00 -0.34426900082E+03  0.34426900082E+03  0.00000000000E+00 0. -1.
        -13    1    1    2    0    0  0.23216337513E+03 -0.35996580521E+03  0.11371061730E+04  0.12151072683E+04  0.10566000000E+00 0.  1.
         13    1    1    2    0    0  0.36373656874E+03  0.11445384082E+03  0.50146849047E+02  0.38460199005E+03  0.10566000000E+00 0. -1.
         -4    1    1    2    0  502 -0.59589994387E+03  0.24551196440E+03  0.61422333749E+03  0.89030510281E+03  0.00000000000E+00 0. -1.
</event>
<event>
 5    1  0.1008363E-004  0.3284470E+03  0.7818608E-02  0.1015624E+00
         21   -1    0    0  501  502  0.00000000000E+00  0.00000000000E+00  0.20354662244E+04  0.20354662244E+04  0.00000000000E+00 0.  1.
          4   -1    0    0  502    0 -0.00000000000E+00 -0.00000000000E+00 -0.16903727421E+03  0.16903727421E+03  0.00000000000E+00 0.  1.
        -13    1    1    2    0    0  0.33750911820E+03 -0.31558656903E+03  0.29743077868E+03  0.54952012401E+03  0.10566000000E+00 0.  1.
         13    1    1    2    0    0 -0.16544577614E+03  0.57381943970E+02  0.28899843255E+03  0.33791285492E+03  0.10566000000E+00 0. -1.
          4    1    1    2  501    0 -0.17206334206E+03  0.25820462506E+03  0.12799997390E+04  0.13170705197E+04  0.00000000000E+00 0.  1.
</event>
<event>
 5    1  0.1008363E-004  0.2679310E+02  0.7818608E-02  0.1461522E+00
         21   -1    0    0  501  502  0.00000000000E+00  0.00000000000E+00  0.19267268786E+02  0.19267268786E+02  0.00000000000E+00 0. -1.
         -4   -1    0    0    0  501 -0.00000000000E+00 -0.00000000000E+00 -0.89379569168E+02  0.89379569168E+02  0.00000000000E+00 0. -1.
        -13    1    1    2    0    0  0.17654836800E+01  0.16964334568E+02 -0.24576087698E+02  0.29914893123E+02  0.10566000000E+00 0.  1.
         13    1    1    2    0    0 -0.20945206726E+02  0.55131706263E+01 -0.44120198530E+02  0.49149769252E+02  0.10566000000E+00 0. -1.
         -4    1    1    2    0  502  0.19179723046E+02 -0.22477505195E+02 -0.14160141543E+01  0.29582175579E+02  0.00000000000E+00 0. -1.
</event>
<event>
 5    1  0.1008363E-004  0.3660456E+03  0.7818608E-02  0.9832581E-01
         21   -1    0    0  501  502  0.00000000000E+00  0.00000000000E+00  0.24694254046E+03  0.24694254046E+03  0.00000000000E+00 0.  1.
          4   -1    0    0  502    0 -0.00000000000E+00 -0.00000000000E+00 -0.18990706441E+04  0.18990706441E+04  0.00000000000E+00 0.  1.
        -13    1    1    2    0    0 -0.30358757542E+03 -0.24548872590E+03 -0.13613288554E+04  0.14162084572E+04  0.10566000000E+00 0.  1.
         13    1    1    2    0    0  0.22854332906E+03  0.22597342116E+03 -0.44984604381E+03  0.55286301614E+03  0.10566000000E+00 0. -1.
          4    1    1    2  501    0  0.75044246364E+02  0.19515304737E+02  0.15904679551E+03  0.17694171128E+03  0.00000000000E+00 0.  1.
</event>
<event>
 5    1  0.1008363E-004  0.3798230E+03  0.7818608E-02  0.9795764E-01
         -4   -1    0    0    0  501 -0.00000000000E+00  0.00000000000E+00  0.10665874775E+04  0.10665874775E+04  0.00000000000E+00 0. -1.
         21   -1    0    0  501  502  0.00000000000E+00 -0.00000000000E+00 -0.76301143313E+03  0.76301143313E+03  0.00000000000E+00 0. -1.
        -13    1    1    2    0    0  0.35982071842E+03  0.13442713686E+03  0.58136980240E+03  0.69680159503E+03  0.10566000000E+00 0.  1.
         13    1    1    2    0    0 -0.31933670154E+03  0.26207752934E+03  0.24123855899E+03  0.47838960465E+03  0.10566000000E+00 0. -1.
         -4    1    1    2    0  502 -0.40484016884E+02 -0.39650466620E+03 -0.51903231706E+03  0.65440771091E+03  0.00000000000E+00 0. -1.
</event>
<event>
 5    1  0.1008363E-004  0.7445536E+02  0.7818608E-02  0.1291473E+00
         -4   -1    0    0    0  501 -0.00000000000E+00  0.00000000000E+00  0.26040802997E+02  0.26040802997E+02  0.00000000000E+00 0. -1.
         21   -1    0    0  501  502  0.00000000000E+00 -0.00000000000E+00 -0.26152660851E+03  0.26152660851E+03  0.00000000000E+00 0. -1.
        -13    1    1    2    0    0  0.15236082596E+02 -0.32073196425E-02 -0.18674978308E+02  0.24101954319E+02  0.10566000000E+00 0.  1.
         13    1    1    2    0    0 -0.57386306411E+02  0.55414915200E+02 -0.12398008843E+03  0.14742820111E+03  0.10566000000E+00 0. -1.
         -4    1    1    2    0  502  0.42150223815E+02 -0.55411707880E+02 -0.92830738776E+02  0.11603725608E+03  0.00000000000E+00 0. -1.
</event>
<event>
 5    1  0.1008363E-004  0.4364838E+02  0.7818608E-02  0.1320058E+00
         -4   -1    0    0    0  501 -0.00000000000E+00  0.00000000000E+00  0.93003637029E+01  0.93003637029E+01  0.00000000000E+00 0. -1.
         21   -1    0    0  501  502  0.00000000000E+00 -0.00000000000E+00 -0.51983219548E+03  0.51983219548E+03  0.00000000000E+00 0. -1.
        -13    1    1    2    0    0  0.46649287175E+02 -0.12260931811E+02 -0.16169856966E+03  0.16873922199E+03  0.10566000000E+00 0.  1.
         13    1    1    2    0    0 -0.42131129639E+02 -0.64391960517E+01 -0.78059532016E+02  0.88937039714E+02  0.10566000000E+00 0. -1.
         -4    1    1    2    0  502 -0.45181575359E+01  0.18700127862E+02 -0.27077373010E+03  0.27145629748E+03  0.00000000000E+00 0. -1.
</event>
<event>
 5    1  0.1008363E-004  0.1591184E+03  0.7818608E-02  0.1092451E+00
          4   -1    0    0  502    0 -0.00000000000E+00  0.00000000000E+00  0.10316612153E+04  0.10316612153E+04  0.00000000000E+00 0.  1.
         21   -1    0    0  501  502  0.00000000000E+00 -0.00000000000E+00 -0.47479555326E+03  0.47479555326E+03  0.00000000000E+00 0.  1.
        -13    1    1    2    0    0 -0.10026518712E+03  0.46374278404E+02 -0.44651049060E+03  0.45997316316E+03  0.10566000000E+00 0.  1.
         13    1    1    2    0    0  0.13900676621E+03  0.82731472481E+02  0.51123996290E+03  0.53622167843E+03  0.10566000000E+00 0. -1.
          4    1    1    2  501    0 -0.38741579088E+02 -0.12910575089E+03  0.49213618976E+03  0.51026192699E+03  0.00000000000E+00 0.  1.
</event>
<event>
 5    1  0.1008363E-004  0.6313655E+03  0.7818608E-02  0.9228971E-01
         -4   -1    0    0    0  501 -0.00000000000E+00  0.00000000000E+00  0.22071612842E+04  0.22071612842E+04  0.00000000000E+00 0. -1.
         21   -1    0    0  501  502  0.00000000000E+00 -0.00000000000E+00 -0.21682330446E+03  0.21682330446E+03  0.00000000000E+00 0.  1.
        -13    1    1    2    0    0  0.48737628192E+02  0.64975926609E+03  0.88009575011E+03  0.10950484011E+04  0.10566000000E+00 0.  1.
         13    1    1    2    0    0  0.53468265998E+02 -0.61614977882E+03  0.99263676445E+03  0.11695414327E+04  0.10566000000E+00 0. -1.
         -4    1    1    2    0  502 -0.10220589419E+03 -0.33609487274E+02  0.11760546513E+03  0.15939475484E+03  0.00000000000E+00 0. -1.
</event>
<event>
 5    1  0.1008363E-004  0.7882408E+02  0.7818608E-02  0.1205310E+00
          4   -1    0    0  502    0 -0.00000000000E+00  0.00000000000E+00  0.22316265936E+03  0.22316265936E+03  0.00000000000E+00 0.  1.
         21   -1    0    0  501  502  0.00000000000E+00 -0.00000000000E+00 -0.98946619110E+02  0.98946619110E+02  0.00000000000E+00 0.  1.
        -13    1    1    2    0    0  0.77253710049E+02 -0.18861439314E+01  0.15467835698E+03  0.17290777466E+03  0.10566000000E+00 0.  1.
         13    1    1    2    0    0 -0.84016171720E+02 -0.63886470887E+01  0.28752971563E+02  0.89029638099E+02  0.10566000000E+00 0. -1.
          4    1    1    2  501    0  0.67624616719E+01  0.82747910201E+01 -0.59215288300E+02  0.60171865707E+02  0.00000000000E+00 0.  1.
</event>
<event>
 5    1  0.1008363E-004  0.1342833E+03  0.7818608E-02  0.1117737E+00
         21   -1    0    0  501  502  0.00000000000E+00  0.00000000000E+00  0.25203419471E+03  0.25203419471E+03  0.00000000000E+00 0.  1.
         -4   -1    0    0    0  501 -0.00000000000E+00 -0.00000000000E+00 -0.11800738618E+03  0.11800738618E+03  0.00000000000E+00 0. -1.
        -13    1    1    2    0    0  0.89615658775E+02  0.84986648195E+02  0.11869567675E+03  0.17129615148E+03  0.10566000000E+00 0.  1.
         13    1    1    2    0    0 -0.87893746536E+02 -0.10708768011E+03 -0.35736317305E+02  0.14307402786E+03  0.10566000000E+00 0. -1.
         -4    1    1    2    0  502 -0.17219122386E+01  0.22101031911E+02  0.51067449089E+02  0.55671401542E+02  0.00000000000E+00 0. -1.
</event>
<event>
 5    1  0.1008363E-004  0.1627307E+03  0.7818608E-02  0.1089193E+00
         21   -1    0    0  501  502  0.00000000000E+00  0.00000000000E+00  0.10967685308E+03  0.10967685308E+03  0.00000000000E+00 0. -1.
         -4   -1    0    0    0  501 -0.00000000000E+00 -0.00000000000E+00 -0.31306401156E+03  0.31306401156E+03  0.00000000000E+00 0. -1.
        -13    1    1    2    0    0  0.17737153917E+02 -0.14560827037E+03 -0.71224558073E+02  0.16306233123E+03  0.10566000000E+00 0.  1.
         13    1    1    2    0    0 -0.20306019010E+02  0.17652216718E+03 -0.14165175674E+03  0.22723917195E+03  0.10566000000E+00 0. -1.
         -4    1    1    2    0  502  0.25688650933E+01 -0.30913896815E+02  0.94891563392E+01  0.32439361464E+02  0.00000000000E+00 0. -1.
</event>
<event>
 5    1  0.1008363E-004  0.8052046E+03  0.7818608E-02  0.8982937E-01
          4   -1    0    0  502    0 -0.00000000000E+00  0.00000000000E+00  0.36385322102E+04  0.36385322102E+04  0.00000000000E+00 0.  1.
         21   -1    0    0  501  502  0.00000000000E+00 -0.00000000000E+00 -0.54220704321E+03  0.54220704321E+03  0.00000000000E+00 0.  1.
        -13    1    1    2    0    0  0.63569219729E+03 -0.47244398166E+03  0.73038298040E+03  0.10773890638E+04  0.10566000000E+00 0.  1.
         13    1    1    2    0    0 -0.65320112415E+03  0.47858491781E+03  0.26744161525E+04  0.27943187006E+04  0.10566000000E+00 0. -1.
          4    1    1    2  501    0  0.17508926868E+02 -0.61409361568E+01 -0.30847396592E+03  0.30903148912E+03  0.00000000000E+00 0.  1.
</event>
<event>
 5    1  0.1008363E-004  0.5054819E+03  0.7818608E-02  0.1035943E+00
         -4   -1    0    0    0  501 -0.00000000000E+00  0.00000000000E+00  0.22037416282E+04  0.22037416282E+04  0.00000000000E+00 0. -1.
         21   -1    0    0  501  502  0.00000000000E+00 -0.00000000000E+00 -0.12693936418E+03  0.12693936418E+03  0.00000000000E+00 0. -1.
        -13    1    1    2    0    0 -0.22479585494E+02  0.12048225204E+02  0.64611053121E+01  0.26310616497E+02  0.10566000000E+00 0.  1.
         13    1    1    2    0    0  0.47531855615E+03  0.19499022108E+03  0.10713228676E+04  0.11881420849E+04  0.10566000000E+00 0. -1.
         -4    1    1    2    0  502 -0.45283897065E+03 -0.20703844629E+03  0.99901829110E+03  0.11162282910E+04  0.00000000000E+00 0. -1.
</event>
<event>
 5    1  0.1008363E-004  0.9082646E+02  0.7818608E-02  0.1180696E+00
         -4   -1    0    0    0  501 -0.00000000000E+00  0.00000000000E+00  0.16441763090E+03  0.16441763090E+03  0.00000000000E+00 0. -1.
         21   -1    0    0  501  502  0.00000000000E+00 -0.00000000000E+00 -0.37253460369E+03  0.37253460369E+03  0.00000000000E+00 0. -1.
        -13    1    1    2    0    0  0.84441401722E+02  0.75912962520E+01 -0.12873480187E+03  0.15414486199E+03  0.10566000000E+00 0.  1.
         13    1    1    2    0    0 -0.74327118070E+02 -0.55245997732E+02  0.13458185590E+03  0.16336746263E+03  0.10566000000E+00 0. -1.
         -4    1    1    2    0  502 -0.10114283651E+02  0.47654701480E+02 -0.21396402683E+03  0.21943990996E+03  0.00000000000E+00 0. -1.
</event>
<event>
 5    1  0.1008363E-004  0.4063097E+03  0.7818608E-02  0.9941131E-01
         -4   -1    0    0    0  501 -0.00000000000E+00  0.00000000000E+00  0.32509172994E+03  0.32509172994E+03  0.00000000000E+00 0. -1.
         21   -1    0    0  501  502  0.00000000000E+00 -0.00000000000E+00 -0.12173825500E+04  0.12173825500E+04  0.00000000000E+00 0. -1.
        -13    1    1    2    0    0 -0.62595798517E+02  0.17511413776E+03  0.33975763220E+01  0.18599663955E+03  0.10566000000E+00 0.  1.
         13    1    1    2    0    0  0.32008531163E+03 -0.30242971573E+03 -0.96522724268E+03  0.10609344847E+04  0.10566000000E+00 0. -1.
         -4    1    1    2    0  502 -0.25748951311E+03  0.12731557797E+03  0.69538846245E+02  0.29554315572E+03  0.00000000000E+00 0. -1.
</event>
<event>
 5    1  0.1008363E-004  0.1470338E+03  0.7818608E-02  0.1104074E+00
         21   -1    0    0  501  502  0.00000000000E+00  0.00000000000E+00  0.30227485148E+03  0.30227485148E+03  0.00000000000E+00 0.  1.
         -4   -1    0    0    0  501 -0.00000000000E+00 -0.00000000000E+00 -0.80459329972E+02  0.80459329972E+02  0.00000000000E+00 0. -1.
        -13    1    1    2    0    0  0.14439362909E+03 -0.41146145551E+01  0.13077623367E+03  0.19485606131E+03  0.10566000000E+00 0.  1.
         13    1    1    2    0    0 -0.14893257497E+03 -0.55315874756E+01  0.70788268872E+02  0.16499242564E+03  0.10566000000E+00 0. -1.
         -4    1    1    2    0  502  0.45389458797E+01  0.96462020307E+01  0.20251018972E+02  0.22885694500E+02  0.00000000000E+00 0. -1.
</event>
<event>
 5    1  0.1008363E-004  0.4063427E+03  0.7818608E-02  0.9777203E-01
         21   -1    0    0  501  502  0.00000000000E+00  0.00000000000E+00  0.83864938332E+03  0.83864938332E+03  0.00000000000E+00 0. -1.
         -4   -1    0    0    0  501 -0.00000000000E+00 -0.00000000000E+00 -0.69401099727E+03  0.69401099727E+03  0.00000000000E+00 0. -1.
        -13    1    1    2    0    0  0.31949339770E+03  0.48894410644E+02 -0.15679634043E+03  0.35923780161E+03  0.10566000000E+00 0.  1.
         13    1    1    2    0    0 -0.44512839229E+03  0.32396587818E+03 -0.15389771843E+03  0.57164472774E+03  0.10566000000E+00 0. -1.
         -4    1    1    2    0  502  0.12563499459E+03 -0.37286028882E+03  0.45533244492E+03  0.60177785124E+03  0.00000000000E+00 0. -1.
</event>
<event>
 5    1  0.1008363E-004  0.6832110E+02  0.7818608E-02  0.1231203E+00
         21   -1    0    0  501  502  0.00000000000E+00  0.00000000000E+00  0.43325408787E+02  0.43325408787E+02  0.00000000000E+00 0.  1.
         -4   -1    0    0    0  501 -0.00000000000E+00 -0.00000000000E+00 -0.17503864155E+03  0.17503864155E+03  0.00000000000E+00 0. -1.
        -13    1    1    2    0    0  0.38846954961E+02 -0.43734376311E+02 -0.20540248679E+02  0.61997536732E+02  0.10566000000E+00 0.  1.
         13    1    1    2    0    0 -0.67507751943E+02  0.35355424110E+02 -0.96884186434E+02  0.12326337384E+03  0.10566000000E+00 0. -1.
         -4    1    1    2    0  502  0.28660796982E+02  0.83789522016E+01 -0.14288797646E+02  0.33103139757E+02  0.00000000000E+00 0. -1.
</event>
<event>
 5    1  0.1008363E-004  0.4445731E+03  0.7818608E-02  0.9773389E-01
         -4   -1    0    0    0  501 -0.00000000000E+00  0.00000000000E+00  0.18069945312E+04  0.18069945312E+04  0.00000000000E+00 0. -1.
         21   -1    0    0  501  502  0.00000000000E+00 -0.00000000000E+00 -0.50262720544E+03  0.50262720544E+03  0.00000000000E+00 0. -1.
        -13    1    1    2    0    0 -0.47428449133E+02 -0.24550673142E+03  0.12534452107E+04  0.12781423709E+04  0.10566000000E+00 0.  1.
         13    1    1    2    0    0 -0.10192662312E+03  0.49619412065E+03 -0.28923033513E+03  0.58331110035E+03  0.10566000000E+00 0. -1.
         -4    1    1    2    0  502  0.14935507226E+03 -0.25068738923E+03  0.34015245027E+03  0.44816826544E+03  0.00000000000E+00 0. -1.
</event>
<event>
 5    1  0.2288535E-004  0.1955728E+03  0.7818608E-02  0.1063959E+00
         21   -1    0    0  501  502  0.00000000000E+00  0.00000000000E+00  0.51002940702E+03  0.51002940702E+03  0.00000000000E+00 0.  1.
          4   -1    0    0  502    0 -0.00000000000E+00 -0.00000000000E+00 -0.14288757851E+04  0.14288757851E+04  0.00000000000E+00 0.  1.
        -13    1    1    2    0    0 -0.97448055842E+02  0.11403915723E+03 -0.55652738985E+03  0.57638858402E+03  0.10566000000E+00 0.  1.
         13    1    1    2    0    0  0.27263032664E+03 -0.20098689561E+03 -0.80783277609E+03  0.87596622794E+03  0.10566000000E+00 0. -1.
          4    1    1    2  501    0 -0.17518227079E+03  0.86947738381E+02  0.44551378789E+03  0.48655038013E+03  0.00000000000E+00 0.  1.
</event>
<event>
 5    1  0.1008363E-004  0.3735954E+03  0.7818608E-02  0.9908828E-01
         21   -1    0    0  501  502  0.00000000000E+00  0.00000000000E+00  0.26451808902E+03  0.26451808902E+03  0.00000000000E+00 0.  1.
         -4   -1    0    0    0  501 -0.00000000000E+00 -0.00000000000E+00 -0.17674486510E+04  0.17674486510E+04  0.00000000000E+00 0. -1.
        -13    1    1    2    0    0 -0.43529268109E+03  0.79213815897E+02 -0.10373941819E+04  0.11278037270E+04  0.10566000000E+00 0.  1.
         13    1    1    2    0    0  0.11061664246E+03  0.24004231751E+03 -0.34224631993E+03  0.43242214381E+03  0.10566000000E+00 0. -1.
         -4    1    1    2    0  502  0.32467603863E+03 -0.31925613341E+03 -0.12329006021E+03  0.47174086926E+03  0.00000000000E+00 0. -1.
</event>
<event>
 5    1  0.1008363E-004  0.2094188E+03  0.7818608E-02  0.1053864E+00
          4   -1    0    0  502    0 -0.00000000000E+00  0.00000000000E+00  0.15852303734E+04  0.15852303734E+04  0.00000000000E+00 0.  1.
         21   -1    0    0  501  502  0.00000000000E+00 -0.00000000000E+00 -0.80139067484E+02  0.80139067484E+02  0.00000000000E+00 0. -1.
        -13    1    1    2    0    0  0.21280270427E+02 -0.22708353009E+03  0.11133981153E+04  0.11365188753E+04  0.10566000000E+00 0.  1.
         13    1    1    2    0    0 -0.96118907355E+01  0.18002473574E+03  0.43051573928E+03  0.46673879939E+03  0.10566000000E+00 0. -1.
          4    1    1    2  501    0 -0.11668379692E+02  0.47058794349E+02 -0.38822548704E+02  0.62111766180E+02  0.00000000000E+00 0.  1.
</event>
<event>
 5    1  0.1008363E-004  0.5456062E+03  0.7818608E-02  0.9383249E-01
         21   -1    0    0  501  502  0.00000000000E+00  0.00000000000E+00  0.66820414602E+03  0.66820414602E+03  0.00000000000E+00 0. -1.
         -4   -1    0    0    0  501 -0.00000000000E+00 -0.00000000000E+00 -0.11630902591E+04  0.11630902591E+04  0.00000000000E+00 0. -1.
        -13    1    1    2    0    0 -0.12722261086E+03 -0.57552822693E+03 -0.42517703010E+02  0.59095355058E+03  0.10566000000E+00 0.  1.
         13    1    1    2    0    0  0.23239997905E+03  0.48243364537E+03 -0.74398512806E+03  0.91666016297E+03  0.10566000000E+00 0. -1.
         -4    1    1    2    0  502 -0.10517736818E+03  0.93094581566E+02  0.29161671798E+03  0.32368069158E+03  0.00000000000E+00 0. -1.
</event>
<event>
 5    1  0.1008363E-004  0.7693589E+03  0.7818608E-02  0.9028011E-01
         21   -1    0    0  501  502  0.00000000000E+00  0.00000000000E+00  0.68814587975E+03  0.68814587975E+03  0.00000000000E+00 0.  1.
         -4   -1    0    0    0  501 -0.00000000000E+00 -0.00000000000E+00 -0.17123067345E+04  0.17123067345E+04  0.00000000000E+00 0. -1.
        -13    1    1    2    0    0  0.56185847280E+03  0.53422706990E+03 -0.81107956121E+03  0.11220220904E+04  0.10566000000E+00 0.  1.
         13    1    1    2    0    0 -0.77634851126E+03 -0.24392053086E+03  0.74159519313E+02  0.81713761496E+03  0.10566000000E+00 0. -1.
         -4    1    1    2    0  502  0.21449003845E+03 -0.29030653903E+03 -0.28724081289E+03  0.46129290889E+03  0.00000000000E+00 0. -1.
</event>
<event>
 5    1  0.1008363E-004  0.3932895E+03  0.7818608E-02  0.9908084E-01
         21   -1    0    0  501  502  0.00000000000E+00  0.00000000000E+00  0.73832824199E+03  0.73832824199E+03  0.00000000000E+00 0. -1.
         -4   -1    0    0    0  501 -0.00000000000E+00 -0.00000000000E+00 -0.64695017476E+03  0.64695017476E+03  0.00000000000E+00 0. -1.
        -13    1    1    2    0    0 -0.11288125415E+03  0.19912711951E+03 -0.20879252426E+03  0.30981949037E+03  0.10566000000E+00 0.  1.
         13    1    1    2    0    0  0.18222608809E+03  0.22099180951E+03 -0.24970403518E+03  0.37999453075E+03  0.10566000000E+00 0. -1.
         -4    1    1    2    0  502 -0.69344833942E+02 -0.42011892902E+03  0.54987462668E+03  0.69546439562E+03  0.00000000000E+00 0. -1.
</event>
<event>
 5    1  0.1008363E-004  0.4907867E+03  0.7818608E-02  0.9725098E-01
         21   -1    0    0  501  502  0.00000000000E+00  0.00000000000E+00  0.55079142690E+03  0.55079142690E+03  0.00000000000E+00 0. -1.
         -4   -1    0    0    0  501 -0.00000000000E+00 -0.00000000000E+00 -0.73656435448E+03  0.73656435448E+03  0.00000000000E+00 0. -1.
        -13    1    1    2    0    0 -0.14485212680E+03  0.16496338924E+03  0.73962054173E+02  0.23165805631E+03  0.10566000000E+00 0.  1.
         13    1    1    2    0    0  0.43765974821E+03  0.24502433613E+03 -0.31411350156E+02  0.50256309512E+03  0.10566000000E+00 0. -1.
         -4    1    1    2    0  502 -0.29280762140E+03 -0.40998772537E+03 -0.22832363160E+03  0.55313462995E+03  0.00000000000E+00 0. -1.
</event>
<event>
 5    1  0.1008363E-004  0.1378176E+03  0.7818608E-02  0.1160013E+00
         21   -1    0    0  501  502  0.00000000000E+00  0.00000000000E+00  0.47592335934E+03  0.47592335934E+03  0.00000000000E+00 0. -1.
         -4   -1    0    0    0  501 -0.00000000000E+00 -0.00000000000E+00 -0.12215320860E+03  0.12215320860E+03  0.00000000000E+00 0. -1.
        -13    1    1    2    0    0  0.24324565899E+02  0.35039041553E+02 -0.62128031955E+02  0.75361279566E+02  0.10566000000E+00 0.  1.
         13    1    1    2    0    0  0.78971622861E+02 -0.12384565059E+03  0.97217849083E+02  0.17614080655E+03  0.10566000000E+00 0. -1.
         -4    1    1    2    0  502 -0.10329618876E+03  0.88806609034E+02  0.31868033361E+03  0.34657448182E+03  0.00000000000E+00 0. -1.
</event>
<event>
 5    1  0.1008363E-004  0.1748913E+02  0.7818608E-02  0.1548116E+00
         21   -1    0    0  501  502  0.00000000000E+00  0.00000000000E+00  0.14269142958E+03  0.14269142958E+03  0.00000000000E+00 0. -1.
          4   -1    0    0  502    0 -0.00000000000E+00 -0.00000000000E+00 -0.65373238160E+01  0.65373238160E+01  0.00000000000E+00 0.  1.
        -13    1    1    2    0    0  0.18073710515E+02  0.33107770194E+01  0.13682018609E+02  0.22909147813E+02  0.10566000000E+00 0.  1.
         13    1    1    2    0    0 -0.15180170993E+02  0.94245944143E+01  0.69084281844E+02  0.71357618606E+02  0.10566000000E+00 0. -1.
          4    1    1    2  501    0 -0.28935395221E+01 -0.12735371434E+02  0.53387805309E+02  0.54961986975E+02  0.00000000000E+00 0.  1.
</event>
<event>
 5    1  0.1008363E-004  0.4702042E+03  0.7818608E-02  0.1001346E+00
         21   -1    0    0  501  502  0.00000000000E+00  0.00000000000E+00  0.25498599142E+03  0.25498599142E+03  0.00000000000E+00 0.  1.
          4   -1    0    0  502    0 -0.00000000000E+00 -0.00000000000E+00 -0.17181560729E+04  0.17181560729E+04  0.00000000000E+00 0.  1.
        -13    1    1    2    0    0 -0.74429114211E+01  0.48463753931E+03 -0.80130249185E+02  0.49127366044E+03  0.10566000000E+00 0.  1.
         13    1    1    2    0    0 -0.65673182093E+02 -0.68036425879E+02 -0.41192028843E+03  0.42263489832E+03  0.10566000000E+00 0. -1.
          4    1    1    2  501    0  0.73116093514E+02 -0.41660111343E+03 -0.97111954382E+03  0.10592335055E+04  0.00000000000E+00 0.  1.
</event>
<event>
 5    1  0.1008363E-004  0.6356627E+02  0.7818608E-02  0.1244692E+00
          4   -1    0    0  502    0 -0.00000000000E+00  0.00000000000E+00  0.48503379045E+02  0.48503379045E+02  0.00000000000E+00 0.  1.
         21   -1    0    0  501  502  0.00000000000E+00 -0.00000000000E+00 -0.22309568720E+03  0.22309568720E+03  0.00000000000E+00 0. -1.
        -13    1    1    2    0    0 -0.31313085825E+02 -0.56599880476E+02  0.15123792858E+02  0.66428879926E+02  0.10566000000E+00 0.  1.
         13    1    1    2    0    0  0.14302879833E+02  0.57698179456E+02 -0.12776514671E+03  0.14091698322E+03  0.10566000000E+00 0. -1.
          4    1    1    2  501    0  0.17010205991E+02 -0.10982989805E+01 -0.61950954302E+02  0.64253203091E+02  0.00000000000E+00 0.  1.
</event>
<event>
 5    1  0.1008363E-004  0.3215631E+03  0.7818608E-02  0.9987818E-01
          4   -1    0    0  502    0 -0.00000000000E+00  0.00000000000E+00  0.45267659901E+03  0.45267659901E+03  0.00000000000E+00 0.  1.
         21   -1    0    0  501  502  0.00000000000E+00 -0.00000000000E+00 -0.49779970847E+03  0.49779970847E+03  0.00000000000E+00 0.  1.
        -13    1    1    2    0    0  0.15700904367E+03  0.37001359557E+03  0.85081246264E+02  0.41085366048E+03  0.10566000000E+00 0.  1.
         13    1    1    2    0    0  0.34650653308E+02 -0.27592361596E+03  0.19632141254E+02  0.27878296532E+03  0.10566000000E+00 0. -1.
          4    1    1    2  501    0 -0.19165969698E+03 -0.94089979609E+02 -0.14983649698E+03  0.26083968167E+03  0.00000000000E+00 0.  1.
</event>
<event>
 5    1  0.1008363E-004  0.3859043E+03  0.7818608E-02  0.9882418E-01
         -4   -1    0    0    0  501 -0.00000000000E+00  0.00000000000E+00  0.81078010573E+03  0.81078010573E+03  0.00000000000E+00 0. -1.
         21   -1    0    0  501  502  0.00000000000E+00 -0.00000000000E+00 -0.51895340792E+03  0.51895340792E+03  0.00000000000E+00 0. -1.
        -13    1    1    2    0    0 -0.91348696259E+01  0.26387854565E+03  0.61233392544E+02  0.27104404111E+03  0.10566000000E+00 0.  1.
         13    1    1    2    0    0  0.38009586206E+03 -0.31605516811E+03  0.41102567962E+03  0.64288867942E+03  0.10566000000E+00 0. -1.
         -4    1    1    2    0  502 -0.37096099244E+03  0.52176622460E+02 -0.18043237435E+03  0.41580079312E+03  0.00000000000E+00 0. -1.
</event>
<event>
 5    1  0.1008363E-004  0.4451438E+03  0.7818608E-02  0.9906245E-01
          4   -1    0    0  502    0 -0.00000000000E+00  0.00000000000E+00  0.19882319969E+04  0.19882319969E+04  0.00000000000E+00 0.  1.
         21   -1    0    0  501  502  0.00000000000E+00 -0.00000000000E+00 -0.17300994024E+03  0.17300994024E+03  0.00000000000E+00 0.  1.
        -13    1    1    2    0    0  0.22779809775E+03  0.40505166346E+03  0.12190498134E+04  0.13046230421E+04  0.10566000000E+00 0.  1.
         13    1    1    2    0    0  0.10990943870E+03 -0.11466573018E+03  0.23271310464E+03  0.28175115728E+03  0.10566000000E+00 0. -1.
          4    1    1    2  501    0 -0.33770753644E+03 -0.29038593328E+03  0.36345913866E+03  0.57486773774E+03  0.00000000000E+00 0.  1.
</event>
<event>
 5    1  0.1008363E-004  0.4153432E+03  0.7818608E-02  0.9685750E-01
         21   -1    0    0  501  502  0.00000000000E+00  0.00000000000E+00  0.60001817668E+03  0.60001817668E+03  0.00000000000E+00 0. -1.
         -4   -1    0    0    0  501 -0.00000000000E+00 -0.00000000000E+00 -0.13873474875E+04  0.13873474875E+04  0.00000000000E+00 0. -1.
        -13    1    1    2    0    0  0.32496177843E+01 -0.38680347567E+03 -0.80657750151E+03  0.89453606183E+03  0.10566000000E+00 0.  1.
         13    1    1    2    0    0  0.28676081377E+03  0.52140558026E+03 -0.27752853046E+03  0.65659549178E+03  0.10566000000E+00 0. -1.
         -4    1    1    2    0  502 -0.29001043155E+03 -0.13460210459E+03  0.29677672118E+03  0.43623411054E+03  0.00000000000E+00 0. -1.
</event>
<event>
 5    1  0.1008363E-004  0.5030734E+03  0.7818608E-02  0.9811811E-01
         21   -1    0    0  501  502  0.00000000000E+00  0.00000000000E+00  0.68677465144E+03  0.68677465144E+03  0.00000000000E+00 0.  1.
          4   -1    0    0  502    0 -0.00000000000E+00 -0.00000000000E+00 -0.12038914577E+04  0.12038914577E+04  0.00000000000E+00 0.  1.
        -13    1    1    2    0    0  0.29654799369E+03 -0.36450152768E+03  0.14328715353E+03  0.49125685316E+03  0.10566000000E+00 0.  1.
         13    1    1    2    0    0  0.14696391801E+03  0.36059224624E+02 -0.81288264393E+03  0.82684754631E+03  0.10566000000E+00 0. -1.
          4    1    1    2  501    0 -0.44351191169E+03  0.32844230306E+03  0.15247868414E+03  0.57256170966E+03  0.00000000000E+00 0.  1.
</event>
<event>
 5    1  0.1008363E-004  0.4652659E+03  0.7818608E-02  0.9579835E-01
          4   -1    0    0  502    0 -0.00000000000E+00  0.00000000000E+00  0.18224652485E+04  0.18224652485E+04  0.00000000000E+00 0.  1.
         21   -1    0    0  501  502  0.00000000000E+00 -0.00000000000E+00 -0.46180539150E+03  0.46180539150E+03  0.00000000000E+00 0.  1.
        -13    1    1    2    0    0 -0.45670146585E+02  0.34845353172E+03  0.64971718330E+02  0.35738908965E+03  0.10566000000E+00 0.  1.
         13    1    1    2    0    0  0.11851877694E+03  0.41288148168E+03  0.10320999014E+04  0.11179213014E+04  0.10566000000E+00 0. -1.
          4    1    1    2  501    0 -0.72848630356E+02 -0.76133501340E+03  0.26358823723E+03  0.80896024895E+03  0.00000000000E+00 0.  1.
</event>
<event>
 5    1  0.1008363E-004  0.3816468E+03  0.7818608E-02  0.9936703E-01
         -4   -1    0    0    0  501 -0.00000000000E+00  0.00000000000E+00  0.21396912871E+04  0.21396912871E+04  0.00000000000E+00 0. -1.
         21   -1    0    0  501  502  0.00000000000E+00 -0.00000000000E+00 -0.23116549821E+03  0.23116549821E+03  0.00000000000E+00 0. -1.
        -13    1    1    2    0    0  0.19233138102E+03  0.12192303027E+03  0.92184880499E+03  0.94955874798E+03  0.10566000000E+00 0.  1.
         13    1    1    2    0    0 -0.44122400588E+03  0.15567923221E+03  0.93415241363E+03  0.10447752819E+04  0.10566000000E+00 0. -1.
         -4    1    1    2    0  502  0.24889262486E+03 -0.27760226248E+03  0.52524570269E+02  0.37652275539E+03  0.00000000000E+00 0. -1.
</event>
<event>
 5    1  0.1008363E-004  0.5564637E+02  0.7818608E-02  0.1270364E+00
         21   -1    0    0  501  502  0.00000000000E+00  0.00000000000E+00  0.10654814420E+03  0.10654814420E+03  0.00000000000E+00 0.  1.
          4   -1    0    0  502    0 -0.00000000000E+00 -0.00000000000E+00 -0.28903502727E+03  0.28903502727E+03  0.00000000000E+00 0.  1.
        -13    1    1    2    0    0 -0.38014408084E+02 -0.42784808252E+02 -0.19341717044E+03  0.20170733260E+03  0.10566000000E+00 0.  1.
         13    1    1    2    0    0  0.42537966071E+02  0.32191494201E+02 -0.83314517710E+02  0.98929726986E+02  0.10566000000E+00 0. -1.
          4    1    1    2  501    0 -0.45235579872E+01  0.10593314051E+02  0.94244805076E+02  0.94946111891E+02  0.00000000000E+00 0.  1.
</event>
<event>
 5    1  0.1008363E-004  0.2136621E+03  0.7818608E-02  0.1051153E+00
         21   -1    0    0  501  502  0.00000000000E+00  0.00000000000E+00  0.98299486856E+02  0.98299486856E+02  0.00000000000E+00 0.  1.
         -4   -1    0    0    0  501 -0.00000000000E+00 -0.00000000000E+00 -0.54893479805E+03  0.54893479805E+03  0.00000000000E+00 0. -1.
        -13    1    1    2    0    0  0.32604061602E+02 -0.19815764196E+03 -0.16875824903E+03  0.26231437947E+03  0.10566000000E+00 0.  1.
         13    1    1    2    0    0 -0.62019697436E+02  0.21750732886E+03 -0.25321127004E+03  0.33951706793E+03  0.10566000000E+00 0. -1.
         -4    1    1    2    0  502  0.29415635834E+02 -0.19349686904E+02 -0.28665792124E+02  0.45402837498E+02  0.00000000000E+00 0. -1.
</event>
<event>
 5    1  0.1008363E-004  0.4335864E+03  0.7818608E-02  0.9706449E-01
          4   -1    0    0  502    0 -0.00000000000E+00  0.00000000000E+00  0.38479906143E+04  0.38479906143E+04  0.00000000000E+00 0.  1.
         21   -1    0    0  501  502  0.00000000000E+00 -0.00000000000E+00 -0.15383089290E+03  0.15383089290E+03  0.00000000000E+00 0.  1.
        -13    1    1    2    0    0  0.50196406800E+03 -0.41523157042E+03  0.14234473490E+04  0.15654352587E+04  0.10566000000E+00 0.  1.
         13    1    1    2    0    0 -0.14878938903E+03  0.30535888898E+03  0.18289595367E+04  0.18602352893E+04  0.10566000000E+00 0. -1.
          4    1    1    2  501    0 -0.35317467898E+03  0.10987268144E+03  0.44175283570E+03  0.57615095925E+03  0.00000000000E+00 0.  1.
</event>
<event>
 5    1  0.1008363E-004  0.3503733E+03  0.7818608E-02  0.9884462E-01
         21   -1    0    0  501  502  0.00000000000E+00  0.00000000000E+00  0.22291480149E+03  0.22291480149E+03  0.00000000000E+00 0.  1.
          4   -1    0    0  502    0 -0.00000000000E+00 -0.00000000000E+00 -0.15854061249E+04  0.15854061249E+04  0.00000000000E+00 0.  1.
        -13    1    1    2    0    0  0.35139540521E+03  0.27112236915E+03 -0.10684993988E+04  0.11570121202E+04  0.10566000000E+00 0.  1.
         13    1    1    2    0    0 -0.89043570256E+02 -0.25167750349E+03 -0.28147259941E+03  0.38793963260E+03  0.10566000000E+00 0. -1.
          4    1    1    2  501    0 -0.26235183495E+03 -0.19444865662E+02 -0.12519325212E+02  0.26336917361E+03  0.00000000000E+00 0.  1.
</event>
<event>
 5    1  0.1008363E-004  0.4643038E+03  0.7818608E-02  0.9559842E-01
         -4   -1    0    0    0  501 -0.00000000000E+00  0.00000000000E+00  0.72826711719E+03  0.72826711719E+03  0.00000000000E+00 0. -1.
         21   -1    0    0  501  502  0.00000000000E+00 -0.00000000000E+00 -0.76849140989E+03  0.76849140989E+03  0.00000000000E+00 0.  1.
        -13    1    1    2    0    0  0.39445648333E+03 -0.14257028655E+02  0.10224490834E+03  0.40774160023E+03  0.10566000000E+00 0.  1.
         13    1    1    2    0    0 -0.65924403904E+03  0.24080877275E+03 -0.21302716494E+03  0.73346584939E+03  0.10566000000E+00 0. -1.
         -4    1    1    2    0  502  0.26478755571E+03 -0.22655174410E+03  0.70557963908E+02  0.35555107746E+03  0.00000000000E+00 0. -1.
</event>
<event>
 5    1  0.1008363E-004  0.4455962E+03  0.7818608E-02  0.9605917E-01
         21   -1    0    0  501  502  0.00000000000E+00  0.00000000000E+00  0.14181093992E+03  0.14181093992E+03  0.00000000000E+00 0.  1.
         -4   -1    0    0    0  501 -0.00000000000E+00 -0.00000000000E+00 -0.17993381263E+04  0.17993381263E+04  0.00000000000E+00 0. -1.
        -13    1    1    2    0    0  0.36383366036E+03  0.24208411334E+03 -0.42986617199E+03  0.61299640074E+03  0.10566000000E+00 0.  1.
         13    1    1    2    0    0 -0.38390835270E+03 -0.23369434147E+03 -0.12266236193E+04  0.13063706148E+04  0.10566000000E+00 0. -1.
         -4    1    1    2    0  502  0.20074692340E+02 -0.83897718744E+01 -0.10373950737E+01  0.21782050712E+02  0.00000000000E+00 0. -1.
</event>
<event>
 5    1  0.1008363E-004  0.5883628E+02  0.7818608E-02  0.1286019E+00
         -4   -1    0    0    0  501 -0.00000000000E+00  0.00000000000E+00  0.50816572401E+03  0.50816572401E+03  0.00000000000E+00 0. -1.
         21   -1    0    0  501  502  0.00000000000E+00 -0.00000000000E+00 -0.65665381955E+02  0.65665381955E+02  0.00000000000E+00 0. -1.
        -13    1    1    2    0    0  0.28452642184E+01 -0.34269197800E+02  0.95367081509E+01  0.35685198791E+02  0.10566000000E+00 0.  1.
         13    1    1    2    0    0 -0.47915019642E+02  0.70750820805E+02  0.46439468474E+03  0.47219059937E+03  0.10566000000E+00 0. -1.
         -4    1    1    2    0  502  0.45069755424E+02 -0.36481623004E+02 -0.31431050837E+02  0.65955307805E+02  0.00000000000E+00 0. -1.
</event>
<event>
 5    1  0.1008363E-004  0.5160625E+03  0.7818608E-02  0.9622414E-01
         21   -1    0    0  501  502  0.00000000000E+00  0.00000000000E+00  0.14251720433E+04  0.14251720433E+04  0.00000000000E+00 0. -1.
          4   -1    0    0  502    0 -0.00000000000E+00 -0.00000000000E+00 -0.45147133190E+03  0.45147133190E+03  0.00000000000E+00 0.  1.
        -13    1    1    2    0    0 -0.46552209055E+03 -0.39837386613E+03  0.64352262686E+03  0.88855722182E+03  0.10566000000E+00 0.  1.
         13    1    1    2    0    0  0.19565397891E+02  0.26984283743E+03 -0.15897032087E+03  0.31379855925E+03  0.10566000000E+00 0. -1.
          4    1    1    2  501    0  0.44595669266E+03  0.12853102870E+03  0.48914840536E+03  0.67428759408E+03  0.00000000000E+00 0.  1.
</event>
<event>
 5    1  0.1008363E-004  0.2497502E+03  0.7818608E-02  0.1030522E+00
         21   -1    0    0  501  502  0.00000000000E+00  0.00000000000E+00  0.89303595574E+02  0.89303595574E+02  0.00000000000E+00 0. -1.
          4   -1    0    0  502    0 -0.00000000000E+00 -0.00000000000E+00 -0.13396904256E+04  0.13396904256E+04  0.00000000000E+00 0.  1.
        -13    1    1    2    0    0  0.17122112278E+03  0.19008306030E+03 -0.10417248486E+04  0.10726783833E+04  0.10566000000E+00 0.  1.
         13    1    1    2    0    0 -0.11989534537E+03 -0.19838254134E+03 -0.19407108187E+03  0.30231460853E+03  0.10566000000E+00 0. -1.
          4    1    1    2  501    0 -0.51325777413E+02  0.82994810396E+01 -0.14590899499E+02  0.54001029257E+02  0.00000000000E+00 0.  1.
</event>
<event>
 5    1  0.1008363E-004  0.4868205E+03  0.7818608E-02  0.9722735E-01
         -4   -1    0    0    0  501 -0.00000000000E+00  0.00000000000E+00  0.21614553007E+04  0.21614553007E+04  0.00000000000E+00 0. -1.
         21   -1    0    0  501  502  0.00000000000E+00 -0.00000000000E+00 -0.20230919512E+03  0.20230919512E+03  0.00000000000E+00 0. -1.
        -13    1    1    2    0    0 -0.14844680283E+03 -0.17145995981E+03  0.71488526300E+03  0.74999728100E+03  0.10566000000E+00 0.  1.
         13    1    1    2    0    0  0.90194932783E+02 -0.38073023338E+03  0.84088742198E+03  0.92746013613E+03  0.10566000000E+00 0. -1.
         -4    1    1    2    0  502  0.58251870049E+02  0.55219019318E+03  0.40337342061E+03  0.68630707870E+03  0.00000000000E+00 0. -1.
</event>
<event>
 5    1  0.1008363E-004  0.4740102E+03  0.7818608E-02  0.9718583E-01
         -4   -1    0    0    0  501 -0.00000000000E+00  0.00000000000E+00  0.12853989281E+03  0.12853989281E+03  0.00000000000E+00 0. -1.
         21   -1    0    0  501  502  0.00000000000E+00 -0.00000000000E+00 -0.31505617434E+04  0.31505617434E+04  0.00000000000E+00 0. -1.
        -13    1    1    2    0    0  0.20465992991E+03  0.14225917795E+03 -0.56792211693E+03  0.62020875734E+03  0.10566000000E+00 0.  1.
         13    1    1    2    0    0 -0.19027407659E+03 -0.50911270415E+03 -0.20125610613E+04  0.20846587266E+04  0.10566000000E+00 0. -1.
         -4    1    1    2    0  502 -0.14385853323E+02  0.36685352620E+03 -0.44153867241E+03  0.57423415232E+03  0.00000000000E+00 0. -1.
</event>
<event>
 5    1  0.1008363E-004  0.3068176E+03  0.7818608E-02  0.1021999E+00
          4   -1    0    0  502    0 -0.00000000000E+00  0.00000000000E+00  0.13291550417E+04  0.13291550417E+04  0.00000000000E+00 0.  1.
         21   -1    0    0  501  502  0.00000000000E+00 -0.00000000000E+00 -0.28528047775E+03  0.28528047775E+03  0.00000000000E+00 0.  1.
        -13    1    1    2    0    0  0.35040584890E+03  0.14735522865E+03  0.82609298566E+03  0.90935551599E+03  0.10566000000E+00 0.  1.
         13    1    1    2    0    0 -0.15470386640E+03  0.83157199154E+02  0.33701697301E+03  0.38003796825E+03  0.10566000000E+00 0. -1.
          4    1    1    2  501    0 -0.19570198249E+03 -0.23051242780E+03 -0.11923539468E+03  0.32504203523E+03  0.00000000000E+00 0.  1.
</event>
<event>
 5    1  0.1008363E-004  0.4663324E+03  0.7818608E-02  0.9777182E-01
         21   -1    0    0  501  502  0.00000000000E+00  0.00000000000E+00  0.15219063461E+04  0.15219063461E+04  0.00000000000E+00 0.  1.
          4   -1    0    0  502    0 -0.00000000000E+00 -0.00000000000E+00 -0.52803538366E+03  0.52803538366E+03  0.00000000000E+00 0.  1.
        -13    1    1    2    0    0 -0.23679590496E+03  0.35312789867E+03  0.74696302795E+03  0.85949135523E+03  0.10566000000E+00 0.  1.
         13    1    1    2    0    0 -0.21383474869E+03 -0.26201500077E+01 -0.32066138789E+03  0.38542950300E+03  0.10566000000E+00 0. -1.
          4    1    1    2  501    0  0.45063065366E+03 -0.35050774867E+03  0.56756932239E+03  0.80502087153E+03  0.00000000000E+00 0.  1.
</event>
<event>
 5    1  0.1008363E-004  0.4893559E+03  0.7818608E-02  0.9801009E-01
         21   -1    0    0  501  502  0.00000000000E+00  0.00000000000E+00  0.11632303559E+04  0.11632303559E+04  0.00000000000E+00 0.  1.
         -4   -1    0    0    0  501 -0.00000000000E+00 -0.00000000000E+00 -0.30668355323E+03  0.30668355323E+03  0.00000000000E+00 0. -1.
        -13    1    1    2    0    0 -0.29241047105E+02  0.16805130430E+03  0.60707244366E+02  0.18105706392E+03  0.10566000000E+00 0.  1.
         13    1    1    2    0    0 -0.33494548150E+03 -0.44042059399E+03  0.36838647180E+03  0.66473105762E+03  0.10566000000E+00 0. -1.
         -4    1    1    2    0  502  0.36418652860E+03  0.27236928969E+03  0.42745308655E+03  0.62412578763E+03  0.00000000000E+00 0. -1.
</event>
<event>
 5    1  0.1008363E-004  0.1861705E+03  0.7818608E-02  0.1070054E+00
          4   -1    0    0  502    0 -0.00000000000E+00  0.00000000000E+00  0.11334950963E+04  0.11334950963E+04  0.00000000000E+00 0.  1.
         21   -1    0    0  501  502  0.00000000000E+00 -0.00000000000E+00 -0.13875104482E+03  0.13875104482E+03  0.00000000000E+00 0.  1.
        -13    1    1    2    0    0  0.45585555368E+02 -0.18171285361E+03  0.97638413243E+03  0.99419494529E+03  0.10566000000E+00 0.  1.
         13    1    1    2    0    0 -0.53408393044E+02  0.17111056027E+03  0.93218415345E+02  0.20204198674E+03  0.10566000000E+00 0. -1.
          4    1    1    2  501    0  0.78228376760E+01  0.10602293344E+02 -0.74858496246E+02  0.76009209137E+02  0.00000000000E+00 0.  1.
</event>
<event>
 5    1  0.1008363E-004  0.8138327E+03  0.7818608E-02  0.8972454E-01
         -4   -1    0    0    0  501 -0.00000000000E+00  0.00000000000E+00  0.12255310421E+04  0.12255310421E+04  0.00000000000E+00 0. -1.
         21   -1    0    0  501  502  0.00000000000E+00 -0.00000000000E+00 -0.10961223188E+04  0.10961223188E+04  0.00000000000E+00 0.  1.
        -13    1    1    2    0    0  0.17634858838E+03  0.75214653955E+03  0.55092243419E+03  0.94886183464E+03  0.10566000000E+00 0.  1.
         13    1    1    2    0    0 -0.39261804639E+03 -0.84098166869E+03 -0.44519909750E+02  0.92918304491E+03  0.10566000000E+00 0. -1.
         -4    1    1    2    0  502  0.21626945801E+03  0.88835129138E+02 -0.37699380109E+03  0.44360848132E+03  0.00000000000E+00 0. -1.
</event>
<event>
 5    1  0.1008363E-004  0.4687950E+03  0.7818608E-02  0.9625427E-01
         -4   -1    0    0    0  501 -0.00000000000E+00  0.00000000000E+00  0.23451067563E+04  0.23451067563E+04  0.00000000000E+00 0. -1.
         21   -1    0    0  501  502  0.00000000000E+00 -0.00000000000E+00 -0.29399617999E+03  0.29399617999E+03  0.00000000000E+00 0. -1.
        -13    1    1    2    0    0 -0.23015319454E+03  0.47300041521E+03  0.75980600053E+03  0.92412393939E+03  0.10566000000E+00 0.  1.
         13    1    1    2    0    0  0.36349157309E+03 -0.23567895241E+02  0.11775205759E+04  0.12325730353E+04  0.10566000000E+00 0. -1.
         -4    1    1    2    0  502 -0.13333837855E+03 -0.44943251997E+03  0.11378399988E+03  0.48240596165E+03  0.00000000000E+00 0. -1.
</event>
<event>
 5    1  0.1008363E-004  0.5406572E+03  0.7818608E-02  0.9393051E-01
         21   -1    0    0  501  502  0.00000000000E+00  0.00000000000E+00  0.19456440081E+03  0.19456440081E+03  0.00000000000E+00 0. -1.
         -4   -1    0    0    0  501 -0.00000000000E+00 -0.00000000000E+00 -0.33998370557E+04  0.33998370557E+04  0.00000000000E+00 0. -1.
        -13    1    1    2    0    0 -0.36546609523E+03 -0.31878293832E+03 -0.10100399262E+04  0.11204323685E+04  0.10566000000E+00 0.  1.
         13    1    1    2    0    0  0.19056036132E+03  0.59660075781E+03 -0.19913607079E+04  0.20875256156E+04  0.10566000000E+00 0. -1.
         -4    1    1    2    0  502  0.17490573391E+03 -0.27781781949E+03 -0.20387202075E+03  0.38644347248E+03  0.00000000000E+00 0. -1.
</event>
<event>
 5    1  0.1008363E-004  0.3239487E+03  0.7818608E-02  0.1068792E+00
         21   -1    0    0  501  502  0.00000000000E+00  0.00000000000E+00  0.73308353609E+03  0.73308353609E+03  0.00000000000E+00 0.  1.
          4   -1    0    0  502    0 -0.00000000000E+00 -0.00000000000E+00 -0.36313154953E+03  0.36313154953E+03  0.00000000000E+00 0.  1.
        -13    1    1    2    0    0 -0.34894230062E+03 -0.63973558085E+02 -0.21023940660E+03  0.41237599899E+03  0.10566000000E+00 0.  1.
         13    1    1    2    0    0  0.36457815413E+02 -0.36196642840E+01  0.29369215567E+02  0.46955684014E+02  0.10566000000E+00 0. -1.
          4    1    1    2  501    0  0.31248448521E+03  0.67593222369E+02  0.55082217759E+03  0.63688340262E+03  0.00000000000E+00 0.  1.
</event>
<event>
 5    1  0.1008363E-004  0.4010203E+03  0.7818608E-02  0.9825117E-01
         -4   -1    0    0    0  501 -0.00000000000E+00  0.00000000000E+00  0.10329018523E+04  0.10329018523E+04  0.00000000000E+00 0. -1.
         21   -1    0    0  501  502  0.00000000000E+00 -0.00000000000E+00 -0.50695054842E+03  0.50695054842E+03  0.00000000000E+00 0.  1.
        -13    1    1    2    0    0  0.28108185812E+03  0.50177698216E+02  0.39822295480E+03  0.49000647470E+03  0.10566000000E+00 0.  1.
         13    1    1    2    0    0 -0.13347803704E+03 -0.43061381507E+03  0.36300900449E+03  0.57880928863E+03  0.10566000000E+00 0. -1.
         -4    1    1    2    0  502 -0.14760382108E+03  0.38043611686E+03 -0.23528065536E+03  0.47103663742E+03  0.00000000000E+00 0. -1.
</event>
<event>
 5    1  0.1008363E-004  0.3342865E+03  0.7818608E-02  0.1019709E+00
          4   -1    0    0  502    0 -0.00000000000E+00  0.00000000000E+00  0.14037153969E+04  0.14037153969E+04  0.00000000000E+00 0.  1.
         21   -1    0    0  501  502  0.00000000000E+00 -0.00000000000E+00 -0.25035950336E+03  0.25035950336E+03  0.00000000000E+00 0.  1.
        -13    1    1    2    0    0  0.10894992450E+03 -0.22221816011E+03  0.96884367549E+03  0.99995453668E+03  0.10566000000E+00 0.  1.
         13    1    1    2    0    0  0.14496235280E+03 -0.16901904855E+02  0.25916906657E+03  0.29743633663E+03  0.10566000000E+00 0. -1.
          4    1    1    2  501    0 -0.25391227730E+03  0.23912006496E+03 -0.74656848547E+02  0.35668402693E+03  0.00000000000E+00 0.  1.
</event>
<event>
 5    1  0.1008363E-004  0.2954515E+03  0.7818608E-02  0.1021035E+00
          4   -1    0    0  502    0 -0.00000000000E+00  0.00000000000E+00  0.14842240127E+04  0.14842240127E+04  0.00000000000E+00 0.  1.
         21   -1    0    0  501  502  0.00000000000E+00 -0.00000000000E+00 -0.23025590379E+03  0.23025590379E+03  0.00000000000E+00 0.  1.
        -13    1    1    2    0    0  0.20918822507E+03 -0.42673278264E+03  0.95601384884E+03  0.10676249677E+04  0.10566000000E+00 0.  1.
         13    1    1    2    0    0 -0.93927134472E+02  0.17967484591E+03  0.31399411902E+03  0.37376152127E+03  0.10566000000E+00 0. -1.
          4    1    1    2  501    0 -0.11526109060E+03  0.24705793673E+03 -0.16039858916E+02  0.27309342757E+03  0.00000000000E+00 0.  1.
</event>
<event>
 5    1  0.1008363E-004  0.6821652E+02  0.7818608E-02  0.1291888E+00
          4   -1    0    0  502    0 -0.00000000000E+00  0.00000000000E+00  0.69006044923E+03  0.69006044923E+03  0.00000000000E+00 0.  1.
         21   -1    0    0  501  502  0.00000000000E+00 -0.00000000000E+00 -0.12769454098E+02  0.12769454098E+02  0.00000000000E+00 0.  1.
        -13    1    1    2    0    0  0.82729957833E+02 -0.64617486093E+01  0.49642085438E+03  0.50330872826E+03  0.10566000000E+00 0.  1.
         13    1    1    2    0    0 -0.19600509671E+02 -0.13880793556E+01  0.30930762206E+02  0.36644644333E+02  0.10566000000E+00 0. -1.
          4    1    1    2  501    0 -0.63129448162E+02  0.78498279648E+01  0.14993937854E+03  0.16287653073E+03  0.00000000000E+00 0.  1.
</event>
<event>
 5    1  0.1008363E-004  0.5489647E+03  0.7818608E-02  0.9376658E-01
         -4   -1    0    0    0  501 -0.00000000000E+00  0.00000000000E+00  0.15707816392E+04  0.15707816392E+04  0.00000000000E+00 0. -1.
         21   -1    0    0  501  502  0.00000000000E+00 -0.00000000000E+00 -0.46482248838E+03  0.46482248838E+03  0.00000000000E+00 0. -1.
        -13    1    1    2    0    0 -0.26966624632E+02 -0.48957917006E+03  0.70054145942E+03  0.85508672667E+03  0.10566000000E+00 0.  1.
         13    1    1    2    0    0 -0.14908163108E+03  0.76544985266E+03  0.25613581548E+03  0.82081933262E+03  0.10566000000E+00 0. -1.
         -4    1    1    2    0  502  0.17604825572E+03 -0.27587068260E+03  0.14928187591E+03  0.35969806829E+03  0.00000000000E+00 0. -1.
</event>
<event>
 5    1  0.1008363E-004  0.5394769E+03  0.7818608E-02  0.9395405E-01
         -4   -1    0    0    0  501 -0.00000000000E+00  0.00000000000E+00  0.34512111544E+04  0.34512111544E+04  0.00000000000E+00 0. -1.
         21   -1    0    0  501  502  0.00000000000E+00 -0.00000000000E+00 -0.18542298882E+03  0.18542298882E+03  0.00000000000E+00 0. -1.
        -13    1    1    2    0    0 -0.48135367419E+03 -0.59201825540E+02  0.87957250623E+03  0.10044172543E+04  0.10566000000E+00 0.  1.
         13    1    1    2    0    0  0.56567874066E+03 -0.14566104470E+03  0.23321299777E+04  0.24041713378E+04  0.10566000000E+00 0. -1.
         -4    1    1    2    0  502 -0.84325066466E+02  0.20486287024E+03  0.54085681681E+02  0.22804555116E+03  0.00000000000E+00 0. -1.
</event>
<event>
 5    1  0.1008363E-004  0.1694910E+03  0.7818608E-02  0.1083333E+00
         21   -1    0    0  501  502  0.00000000000E+00  0.00000000000E+00  0.11459393274E+03  0.11459393274E+03  0.00000000000E+00 0.  1.
          4   -1    0    0  502    0 -0.00000000000E+00 -0.00000000000E+00 -0.74689444778E+03  0.74689444778E+03  0.00000000000E+00 0.  1.
        -13    1    1    2    0    0 -0.13820063129E+03 -0.99356339420E+02 -0.58711197200E+03  0.61128681934E+03  0.10566000000E+00 0.  1.
         13    1    1    2    0    0  0.14080451915E+03  0.89599667510E+02 -0.99937583809E+02  0.19452903344E+03  0.10566000000E+00 0. -1.
          4    1    1    2  501    0 -0.26038878621E+01  0.97566719096E+01  0.54749040774E+02  0.55672527735E+02  0.00000000000E+00 0.  1.
</event>
<event>
 5    1  0.1008363E-004  0.1253594E+03  0.7818608E-02  0.1149503E+00
         21   -1    0    0  501  502  0.00000000000E+00  0.00000000000E+00  0.30031915239E+02  0.30031915239E+02  0.00000000000E+00 0. -1.
         -4   -1    0    0    0  501 -0.00000000000E+00 -0.00000000000E+00 -0.25693615342E+04  0.25693615342E+04  0.00000000000E+00 0. -1.
        -13    1    1    2    0    0 -0.14449517179E+03 -0.77242304035E+02 -0.79295512468E+03  0.80970554471E+03  0.10566000000E+00 0.  1.
         13    1    1    2    0    0 -0.84151609709E+02 -0.18965299171E+01 -0.12715552731E+03  0.15249140806E+03  0.10566000000E+00 0. -1.
         -4    1    1    2    0  502  0.22864678150E+03  0.79138833952E+02 -0.16192189670E+04  0.16371964967E+04  0.00000000000E+00 0. -1.
</event>
<event>
 5    1  0.1008363E-004  0.3017262E+03  0.7818608E-02  0.1006596E+00
         -4   -1    0    0    0  501 -0.00000000000E+00  0.00000000000E+00  0.30290842073E+04  0.30290842073E+04  0.00000000000E+00 0. -1.
         21   -1    0    0  501  502  0.00000000000E+00 -0.00000000000E+00 -0.12805617435E+03  0.12805617435E+03  0.00000000000E+00 0. -1.
        -13    1    1    2    0    0  0.17066703861E+03  0.24782489647E+03  0.15288301633E+04  0.15581611267E+04  0.10566000000E+00 0.  1.
         13    1    1    2    0    0 -0.20577557004E+03 -0.22394413439E+03  0.14653650792E+04  0.14965925922E+04  0.10566000000E+00 0. -1.
         -4    1    1    2    0  502  0.35108531428E+02 -0.23880762084E+02 -0.93167209535E+02  0.10238666275E+03  0.00000000000E+00 0. -1.
</event>
<event>
 5    1  0.1008363E-004  0.4023707E+03  0.7818608E-02  0.9846869E-01
         -4   -1    0    0    0  501 -0.00000000000E+00  0.00000000000E+00  0.31306360552E+04  0.31306360552E+04  0.00000000000E+00 0. -1.
         21   -1    0    0  501  502  0.00000000000E+00 -0.00000000000E+00 -0.17107772262E+03  0.17107772262E+03  0.00000000000E+00 0. -1.
        -13    1    1    2    0    0  0.25820368625E+03  0.47688962747E+02  0.14429652008E+04  0.14666601387E+04  0.10566000000E+00 0.  1.
         13    1    1    2    0    0  0.69824646052E+02 -0.39301226172E+03  0.22449160757E+03  0.45796354887E+03  0.10566000000E+00 0. -1.
         -4    1    1    2    0  502 -0.32802833230E+03  0.34532329897E+03  0.12921015242E+04  0.13770900902E+04  0.00000000000E+00 0. -1.
</event>
<event>
 5    1  0.1008363E-004  0.6477363E+03  0.7818608E-02  0.9202450E-01
         -4   -1    0    0    0  501 -0.00000000000E+00  0.00000000000E+00  0.37077677119E+04  0.37077677119E+04  0.00000000000E+00 0. -1.
         21   -1    0    0  501  502  0.00000000000E+00 -0.00000000000E+00 -0.30298283625E+03  0.30298283625E+03  0.00000000000E+00 0.  1.
        -13    1    1    2    0    0  0.14797824575E+03 -0.67308294884E+03  0.21717887410E+04  0.22785092855E+04  0.10566000000E+00 0.  1.
         13    1    1    2    0    0  0.32519520815E+03  0.59675120692E+03  0.97338234666E+03  0.11871550574E+04  0.10566000000E+00 0. -1.
         -4    1    1    2    0  502 -0.47317345390E+03  0.76331741920E+02  0.25961378802E+03  0.54508620532E+03  0.00000000000E+00 0. -1.
</event>
<event>
 5    1  0.1008363E-004  0.2807705E+03  0.7818608E-02  0.1015574E+00
         21   -1    0    0  501  502  0.00000000000E+00  0.00000000000E+00  0.16331846352E+04  0.16331846352E+04  0.00000000000E+00 0. -1.
          4   -1    0    0  502    0 -0.00000000000E+00 -0.00000000000E+00 -0.64623778223E+02  0.64623778223E+02  0.00000000000E+00 0.  1.
        -13    1    1    2    0    0  0.24289897167E+03 -0.13179844031E+03  0.47269309456E+03  0.54754863904E+03  0.10566000000E+00 0.  1.
         13    1    1    2    0    0 -0.25481641045E+03  0.13290289791E+03  0.73493551690E+03  0.78912914562E+03  0.10566000000E+00 0. -1.
          4    1    1    2  501    0  0.11917438783E+02 -0.11044576004E+01  0.36093224555E+03  0.36113062879E+03  0.00000000000E+00 0.  1.
</event>
<event>
 5    1  0.1008363E-004  0.5656532E+02  0.7818608E-02  0.1292766E+00
         -4   -1    0    0    0  501 -0.00000000000E+00  0.00000000000E+00  0.78322834340E+02  0.78322834340E+02  0.00000000000E+00 0. -1.
         21   -1    0    0  501  502  0.00000000000E+00 -0.00000000000E+00 -0.51519484487E+03  0.51519484487E+03  0.00000000000E+00 0. -1.
        -13    1    1    2    0    0 -0.87969662043E+02  0.73856390882E+01 -0.15411208453E+03  0.17760561609E+03  0.10566000000E+00 0.  1.
         13    1    1    2    0    0  0.32401232162E+02  0.31872307129E+01  0.60134937634E+02  0.68382893866E+02  0.10566000000E+00 0. -1.
         -4    1    1    2    0  502  0.55568429881E+02 -0.10572869801E+02 -0.34289486363E+03  0.34752916925E+03  0.00000000000E+00 0. -1.
</event>
<event>
 5    1  0.1008363E-004  0.5229458E+02  0.7818608E-02  0.1363176E+00
          4   -1    0    0  502    0 -0.00000000000E+00  0.00000000000E+00  0.56097792235E+02  0.56097792235E+02  0.00000000000E+00 0.  1.
         21   -1    0    0  501  502  0.00000000000E+00 -0.00000000000E+00 -0.24073830598E+03  0.24073830598E+03  0.00000000000E+00 0.  1.
        -13    1    1    2    0    0  0.29004612607E+02 -0.29862860675E+02  0.43194651004E+02  0.59990391227E+02  0.10566000000E+00 0.  1.
         13    1    1    2    0    0  0.94685831116E+01 -0.66495429193E+01 -0.36078048871E+02  0.37888088650E+02  0.10566000000E+00 0. -1.
          4    1    1    2  501    0 -0.38473195718E+02  0.36512403594E+02 -0.19175711588E+03  0.19895761834E+03  0.00000000000E+00 0.  1.
</event>
<event>
 5    1  0.1008363E-004  0.1884705E+03  0.7818608E-02  0.1068341E+00
         21   -1    0    0  501  502  0.00000000000E+00  0.00000000000E+00  0.31296265354E+03  0.31296265354E+03  0.00000000000E+00 0. -1.
         -4   -1    0    0    0  501 -0.00000000000E+00 -0.00000000000E+00 -0.25568004301E+03  0.25568004301E+03  0.00000000000E+00 0. -1.
        -13    1    1    2    0    0 -0.88441213635E+02  0.14996382941E+03  0.16579634362E+03  0.24041513497E+03  0.10566000000E+00 0.  1.
         13    1    1    2    0    0  0.79188909507E+02 -0.17453109457E+03 -0.17325970592E+03  0.25836200034E+03  0.10566000000E+00 0. -1.
         -4    1    1    2    0  502  0.92523041277E+01  0.24567265159E+02  0.64745972830E+02  0.69865561235E+02  0.00000000000E+00 0. -1.
</event>
<event>
 5    1  0.1008363E-004  0.4894291E+03  0.7818608E-02  0.9866380E-01
          4   -1    0    0  502    0 -0.00000000000E+00  0.00000000000E+00  0.22328868681E+04  0.22328868681E+04  0.00000000000E+00 0.  1.
         21   -1    0    0  501  502  0.00000000000E+00 -0.00000000000E+00 -0.17464515715E+03  0.17464515715E+03  0.00000000000E+00 0.  1.
        -13    1    1    2    0    0  0.32007536592E+03  0.34330798526E+03  0.50695006923E+03  0.69087408149E+03  0.10566000000E+00 0.  1.
         13    1    1    2    0    0 -0.64448375634E+02  0.12044317367E+03  0.70676633152E+03  0.71984637927E+03  0.10566000000E+00 0. -1.
          4    1    1    2  501    0 -0.25562699029E+03 -0.46375115892E+03  0.84452531021E+03  0.99681156452E+03  0.00000000000E+00 0.  1.
</event>
<event>
 5    1  0.1008363E-004  0.5709985E+03  0.7818608E-02  0.9334612E-01
          4   -1    0    0  502    0 -0.00000000000E+00  0.00000000000E+00  0.32977355783E+04  0.32977355783E+04  0.00000000000E+00 0.  1.
         21   -1    0    0  501  502  0.00000000000E+00 -0.00000000000E+00 -0.13171305100E+03  0.13171305100E+03  0.00000000000E+00 0. -1.
        -13    1    1    2    0    0 -0.23185819299E+03 -0.55092044319E+03  0.18805460655E+04  0.19732524096E+04  0.10566000000E+00 0.  1.
         13    1    1    2    0    0  0.28706763085E+03  0.45931480824E+03  0.12087723173E+04  0.13245785910E+04  0.10566000000E+00 0. -1.
          4    1    1    2  501    0 -0.55209437856E+02  0.91605634948E+02  0.76704144588E+02  0.13161762868E+03  0.00000000000E+00 0.  1.
</event>
<event>
 5    1  0.1008363E-004  0.6032445E+03  0.7818608E-02  0.9276561E-01
         21   -1    0    0  501  502  0.00000000000E+00  0.00000000000E+00  0.70088109359E+03  0.70088109359E+03  0.00000000000E+00 0.  1.
         -4   -1    0    0    0  501 -0.00000000000E+00 -0.00000000000E+00 -0.67215974528E+03  0.67215974528E+03  0.00000000000E+00 0. -1.
        -13    1    1    2    0    0  0.50463399509E+03 -0.29782850005E+03  0.27256772536E+03  0.64625881852E+03  0.10566000000E+00 0.  1.
         13    1    1    2    0    0 -0.52154171761E+03  0.31740472003E+03 -0.28843160029E+03  0.67523649095E+03  0.10566000000E+00 0. -1.
         -4    1    1    2    0  502  0.16907722516E+02 -0.19576219975E+02  0.44585223239E+02  0.51545529394E+02  0.00000000000E+00 0. -1.
</event>
<event>
 5    1  0.1008363E-004  0.6167319E+03  0.7818608E-02  0.9253403E-01
         21   -1    0    0  501  502  0.00000000000E+00  0.00000000000E+00  0.22390213379E+03  0.22390213379E+03  0.00000000000E+00 0.  1.
         -4   -1    0    0    0  501 -0.00000000000E+00 -0.00000000000E+00 -0.31040979256E+04  0.31040979256E+04  0.00000000000E+00 0. -1.
        -13    1    1    2    0    0 -0.31114539617E+03 -0.43533333717E+03 -0.13055847019E+04  0.14109847615E+04  0.10566000000E+00 0.  1.
         13    1    1    2    0    0  0.36738293621E+03  0.67272006291E+03 -0.14567052634E+04  0.16460597621E+04  0.10566000000E+00 0. -1.
         -4    1    1    2    0  502 -0.56237540045E+02 -0.23738672574E+03 -0.11790582648E+03  0.27095553581E+03  0.00000000000E+00 0. -1.
</event>
<event>
 5    1  0.1008363E-004  0.6452976E+03  0.7818608E-02  0.9206349E-01
         21   -1    0    0  501  502  0.00000000000E+00  0.00000000000E+00  0.82621445910E+03  0.82621445910E+03  0.00000000000E+00 0.  1.
         -4   -1    0    0    0  501 -0.00000000000E+00 -0.00000000000E+00 -0.12597572804E+04  0.12597572804E+04  0.00000000000E+00 0. -1.
        -13    1    1    2    0    0 -0.11717876750E+03  0.64069421635E+03 -0.22380006102E+03  0.68869907862E+03  0.10566000000E+00 0.  1.
         13    1    1    2    0    0  0.19965132081E+03 -0.61230230640E+03 -0.66969620575E+03  0.92912204983E+03  0.10566000000E+00 0. -1.
         -4    1    1    2    0  502 -0.82472553317E+02 -0.28391909949E+02  0.45995344548E+03  0.46815061104E+03  0.00000000000E+00 0. -1.
</event>
<event>
 5    1  0.1008363E-004  0.3984458E+02  0.7818608E-02  0.1345404E+00
         21   -1    0    0  501  502  0.00000000000E+00  0.00000000000E+00  0.89672750095E+02  0.89672750095E+02  0.00000000000E+00 0. -1.
          4   -1    0    0  502    0 -0.00000000000E+00 -0.00000000000E+00 -0.70503091503E+02  0.70503091503E+02  0.00000000000E+00 0.  1.
        -13    1    1    2    0    0  0.37188822485E+02 -0.10060384847E+02 -0.34226661508E+02  0.51533439465E+02  0.10566000000E+00 0.  1.
         13    1    1    2    0    0 -0.40222623825E+02 -0.31783807869E+02  0.38539106669E+02  0.64135355436E+02  0.10566000000E+00 0. -1.
          4    1    1    2  501    0  0.30338013399E+01  0.41844192717E+02  0.14857213431E+02  0.44507046696E+02  0.00000000000E+00 0.  1.
</event>
<event>
 5    1  0.1008363E-004  0.4969723E+03  0.7818608E-02  0.9484633E-01
          4   -1    0    0  502    0 -0.00000000000E+00  0.00000000000E+00  0.18310498243E+04  0.18310498243E+04  0.00000000000E+00 0.  1.
         21   -1    0    0  501  502  0.00000000000E+00 -0.00000000000E+00 -0.34903270119E+03  0.34903270119E+03  0.00000000000E+00 0.  1.
        -13    1    1    2    0    0  0.35314468574E+03  0.39826886567E+03  0.11050590473E+04  0.12265744036E+04  0.10566000000E+00 0.  1.
         13    1    1    2    0    0 -0.49126137887E+02 -0.49073592987E+03  0.39985235252E+03  0.63491499058E+03  0.10566000000E+00 0. -1.
          4    1    1    2  501    0 -0.30401854785E+03  0.92467064193E+02 -0.22894276700E+02  0.31859313129E+03  0.00000000000E+00 0.  1.
</event>
<event>
 5    1  0.1008363E-004  0.3821489E+03  0.7818608E-02  0.9795549E-01
         21   -1    0    0  501  502  0.00000000000E+00  0.00000000000E+00  0.10295237445E+04  0.10295237445E+04  0.00000000000E+00 0.  1.
         -4   -1    0    0    0  501 -0.00000000000E+00 -0.00000000000E+00 -0.55195347670E+03  0.55195347670E+03  0.00000000000E+00 0. -1.
        -13    1    1    2    0    0 -0.34208608768E+03 -0.12704843395E+03  0.37560824889E+03  0.52368479427E+03  0.10566000000E+00 0.  1.
         13    1    1    2    0    0  0.14829856718E+03  0.46272411102E+03 -0.23905836418E+03  0.54153022131E+03  0.10566000000E+00 0. -1.
         -4    1    1    2    0  502  0.19378752051E+03 -0.33567567706E+03  0.34102038313E+03  0.51626220565E+03  0.00000000000E+00 0. -1.
</event>
<event>
 5    1  0.1094724E-004  0.4981259E+03  0.7818608E-02  0.9833305E-01
         -4   -1    0    0    0  501 -0.00000000000E+00  0.00000000000E+00  0.36652438607E+04  0.36652438607E+04  0.00000000000E+00 0. -1.
         21   -1    0    0  501  502  0.00000000000E+00 -0.00000000000E+00 -0.95987007622E+02  0.95987007622E+02  0.00000000000E+00 0. -1.
        -13    1    1    2    0    0  0.14370900769E+03  0.18512263844E+02  0.80067328138E+03  0.81367849762E+03  0.10566000000E+00 0.  1.
         13    1    1    2    0    0  0.19516073898E+03 -0.42614709855E+03  0.15331359410E+04  0.16031827371E+04  0.10566000000E+00 0. -1.
         -4    1    1    2    0  502 -0.33886974668E+03  0.40763483471E+03  0.12354476307E+04  0.13443696336E+04  0.00000000000E+00 0. -1.
</event>
<event>
 5    1  0.1008363E-004  0.2889826E+03  0.7818608E-02  0.1018999E+00
          4   -1    0    0  502    0 -0.00000000000E+00  0.00000000000E+00  0.18046682393E+04  0.18046682393E+04  0.00000000000E+00 0.  1.
         21   -1    0    0  501  502  0.00000000000E+00 -0.00000000000E+00 -0.24185147233E+03  0.24185147233E+03  0.00000000000E+00 0.  1.
        -13    1    1    2    0    0 -0.30992679596E+03 -0.13186721666E+02  0.11973771031E+04  0.12369076145E+04  0.10566000000E+00 0.  1.
         13    1    1    2    0    0  0.10990867669E+03 -0.20321096171E+03  0.44758957589E+03  0.50369738115E+03  0.10566000000E+00 0. -1.
          4    1    1    2  501    0  0.20001811926E+03  0.21639768338E+03 -0.82149912067E+02  0.30591471599E+03  0.00000000000E+00 0.  1.
</event>
<event>
 5    1  0.1008363E-004  0.4925422E+03  0.7818608E-02  0.9516909E-01
          4   -1    0    0  502    0 -0.00000000000E+00  0.00000000000E+00  0.11949904352E+04  0.11949904352E+04  0.00000000000E+00 0.  1.
         21   -1    0    0  501  502  0.00000000000E+00 -0.00000000000E+00 -0.50268888426E+03  0.50268888426E+03  0.00000000000E+00 0.  1.
        -13    1    1    2    0    0  0.21832470887E+03 -0.32798970014E+03  0.39051010807E+03  0.55474415506E+03  0.10566000000E+00 0.  1.
         13    1    1    2    0    0  0.39987582818E+03  0.21502764624E+03  0.23421485545E+03  0.51087589128E+03  0.10566000000E+00 0. -1.
          4    1    1    2  501    0 -0.61820053705E+03  0.11296205390E+03  0.67576587465E+02  0.63205927317E+03  0.00000000000E+00 0.  1.
</event>
<event>
 5    1  0.1008363E-004  0.6292083E+03  0.7818608E-02  0.9232529E-01
          4   -1    0    0  502    0 -0.00000000000E+00  0.00000000000E+00  0.17098040353E+04  0.17098040353E+04  0.00000000000E+00 0.  1.
         21   -1    0    0  501  502  0.00000000000E+00 -0.00000000000E+00 -0.13688850601E+04  0.13688850601E+04  0.00000000000E+00 0.  1.
        -13    1    1    2    0    0 -0.64750030415E+03  0.46000369843E+02  0.12370253775E+04  0.13969983799E+04  0.10566000000E+00 0.  1.
         13    1    1    2    0    0  0.54796542799E+03 -0.23596943543E+03  0.14889205883E+03  0.61491181569E+03  0.10566000000E+00 0. -1.
          4    1    1    2  501    0  0.99534876164E+02  0.18996906558E+03 -0.10449984610E+04  0.10667788998E+04  0.00000000000E+00 0.  1.
</event>
<event>
 5    1  0.1008363E-004  0.5413196E+03  0.7818608E-02  0.9391732E-01
          4   -1    0    0  502    0 -0.00000000000E+00  0.00000000000E+00  0.16260779674E+04  0.16260779674E+04  0.00000000000E+00 0.  1.
         21   -1    0    0  501  502  0.00000000000E+00 -0.00000000000E+00 -0.35514825893E+03  0.35514825893E+03  0.00000000000E+00 0.  1.
        -13    1    1    2    0    0 -0.14027136072E+02  0.62657635481E+03  0.86718250635E+03  0.10699533632E+04  0.10566000000E+00 0.  1.
         13    1    1    2    0    0  0.11401890210E+03 -0.45576798167E+03  0.50433158660E+03  0.68925693581E+03  0.10566000000E+00 0. -1.
          4    1    1    2  501    0 -0.99991766024E+02 -0.17080837314E+03 -0.10058438444E+03  0.22201592736E+03  0.00000000000E+00 0.  1.
</event>
<event>
 5    1  0.1008363E-004  0.2738048E+03  0.7818608E-02  0.1018745E+00
         21   -1    0    0  501  502  0.00000000000E+00  0.00000000000E+00  0.10077178702E+03  0.10077178702E+03  0.00000000000E+00 0.  1.
         -4   -1    0    0    0  501 -0.00000000000E+00 -0.00000000000E+00 -0.91946515534E+03  0.91946515534E+03  0.00000000000E+00 0. -1.
        -13    1    1    2    0    0  0.18904570098E+03 -0.20585679056E+03 -0.53235938555E+03  0.60126684744E+03  0.10566000000E+00 0.  1.
         13    1    1    2    0    0 -0.18308998146E+03  0.19227378968E+03 -0.29871362434E+03  0.39965108787E+03  0.10566000000E+00 0. -1.
         -4    1    1    2    0  502 -0.59557195158E+01  0.13583000886E+02  0.12379641573E+02  0.19319007053E+02  0.00000000000E+00 0. -1.
</event>
<event>
 5    1  0.1008363E-004  0.4630845E+03  0.7818608E-02  0.9562774E-01
          4   -1    0    0  502    0 -0.00000000000E+00  0.00000000000E+00  0.13779191606E+04  0.13779191606E+04  0.00000000000E+00 0.  1.
         21   -1    0    0  501  502  0.00000000000E+00 -0.00000000000E+00 -0.65972565779E+03  0.65972565779E+03  0.00000000000E+00 0.  1.
        -13    1    1    2    0    0 -0.69104010198E+03  0.16893299555E+03  0.39809563278E+01  0.71140047703E+03  0.10566000000E+00 0.  1.
         13    1    1    2    0    0  0.42791134260E+03  0.65460529814E+02  0.84575737078E+03  0.95010459397E+03  0.10566000000E+00 0. -1.
          4    1    1    2  501    0  0.26312875938E+03 -0.23439352536E+03 -0.13154482433E+03  0.37613974738E+03  0.00000000000E+00 0.  1.
</event>
<event>
 5    1  0.1008363E-004  0.3385762E+03  0.7818608E-02  0.1010847E+00
          4   -1    0    0  502    0 -0.00000000000E+00  0.00000000000E+00  0.22461821292E+04  0.22461821292E+04  0.00000000000E+00 0.  1.
         21   -1    0    0  501  502  0.00000000000E+00 -0.00000000000E+00 -0.36147205492E+03  0.36147205492E+03  0.00000000000E+00 0.  1.
        -13    1    1    2    0    0  0.72278883169E+02 -0.22999431019E+03  0.72217586924E+03  0.76135380537E+03  0.10566000000E+00 0.  1.
         13    1    1    2    0    0 -0.46142371529E+03 -0.87568414335E+01  0.12918343283E+04  0.13717960746E+04  0.10566000000E+00 0. -1.
          4    1    1    2  501    0  0.38914483212E+03  0.23875115162E+03 -0.12930012329E+03  0.47450430414E+03  0.00000000000E+00 0.  1.
</event>
<event>
 5    1  0.1008363E-004  0.4817684E+03  0.7818608E-02  0.9590854E-01
          4   -1    0    0  502    0 -0.00000000000E+00  0.00000000000E+00  0.13290545586E+04  0.13290545586E+04  0.00000000000E+00 0.  1.
         21   -1    0    0  501  502  0.00000000000E+00 -0.00000000000E+00 -0.49157593424E+03  0.49157593424E+03  0.00000000000E+00 0.  1.
        -13    1    1    2    0    0 -0.22470549994E+03  0.34985855883E+03  0.59408246834E+02  0.42002728941E+03  0.10566000000E+00 0.  1.
         13    1    1    2    0    0 -0.36292080799E+03 -0.81637076559E+02  0.63971124244E+03  0.74000446621E+03  0.10566000000E+00 0. -1.
          4    1    1    2  501    0  0.58762630793E+03 -0.26822148227E+03  0.13835913505E+03  0.66059873719E+03  0.00000000000E+00 0.  1.
</event>
<event>
 5    1  0.1008363E-004  0.3579627E+03  0.7818608E-02  0.9858986E-01
          4   -1    0    0  502    0 -0.00000000000E+00  0.00000000000E+00  0.23918578886E+04  0.23918578886E+04  0.00000000000E+00 0.  1.
         21   -1    0    0  501  502  0.00000000000E+00 -0.00000000000E+00 -0.29074650206E+03  0.29074650206E+03  0.00000000000E+00 0.  1.
        -13    1    1    2    0    0  0.27854001376E+03  0.18038562463E+03  0.10504908290E+04  0.11016598866E+04  0.10566000000E+00 0.  1.
         13    1    1    2    0    0 -0.18313223174E+03 -0.38944688678E+03  0.12211610979E+04  0.12947743936E+04  0.10566000000E+00 0. -1.
          4    1    1    2  501    0 -0.95407782013E+02  0.20906126215E+03 -0.17054054041E+03  0.28617011046E+03  0.00000000000E+00 0.  1.
</event>
<event>
 5    1  0.1008363E-004  0.2899799E+03  0.7818608E-02  0.1011529E+00
         21   -1    0    0  501  502  0.00000000000E+00  0.00000000000E+00  0.16922946830E+03  0.16922946830E+03  0.00000000000E+00 0.  1.
          4   -1    0    0  502    0 -0.00000000000E+00 -0.00000000000E+00 -0.11166414522E+04  0.11166414522E+04  0.00000000000E+00 0.  1.
        -13    1    1    2    0    0  0.27874158527E+03 -0.11434755566E+03 -0.70593763989E+03  0.76754165843E+03  0.10566000000E+00 0.  1.
         13    1    1    2    0    0 -0.28771725958E+03 -0.30500824009E+02 -0.23553860865E+03  0.37308171901E+03  0.10566000000E+00 0. -1.
          4    1    1    2  501    0  0.89756743135E+01  0.14484837967E+03 -0.59357353898E+01  0.14524754310E+03  0.00000000000E+00 0.  1.
</event>
<event>
 5    1  0.1008363E-004  0.2067837E+03  0.7818608E-02  0.1055582E+00
          4   -1    0    0  502    0 -0.00000000000E+00  0.00000000000E+00  0.10900062717E+04  0.10900062717E+04  0.00000000000E+00 0.  1.
         21   -1    0    0  501  502  0.00000000000E+00 -0.00000000000E+00 -0.44746412098E+03  0.44746412098E+03  0.00000000000E+00 0.  1.
        -13    1    1    2    0    0 -0.18444135130E+03  0.10481691702E+03  0.98804836936E+03  0.10105665686E+04  0.10566000000E+00 0.  1.
         13    1    1    2    0    0  0.17083899475E+03 -0.32226977838E+02 -0.26564190878E+00  0.17385229926E+03  0.10566000000E+00 0. -1.
          4    1    1    2  501    0  0.13602356552E+02 -0.72589939187E+02 -0.34524057673E+03  0.35305152485E+03  0.00000000000E+00 0.  1.
</event>
<event>
 5    1  0.1008363E-004  0.6542944E+02  0.7818608E-02  0.1239255E+00
          4   -1    0    0  502    0 -0.00000000000E+00  0.00000000000E+00  0.67675573190E+02  0.67675573190E+02  0.00000000000E+00 0.  1.
         21   -1    0    0  501  502  0.00000000000E+00 -0.00000000000E+00 -0.46156312796E+03  0.46156312796E+03  0.00000000000E+00 0.  1.
        -13    1    1    2    0    0  0.49983749349E+02  0.50915463464E+02  0.40919450374E+02  0.82250666877E+02  0.10566000000E+00 0.  1.
         13    1    1    2    0    0 -0.14149905348E+02 -0.40652051909E+02 -0.85758379974E+02  0.95954781254E+02  0.10566000000E+00 0. -1.
          4    1    1    2  501    0 -0.35833844001E+02 -0.10263411556E+02 -0.34904862517E+03  0.35103325302E+03  0.00000000000E+00 0.  1.
</event>
<event>
 5    1  0.1008363E-004  0.4810555E+03  0.7818608E-02  0.9708749E-01
         21   -1    0    0  501  502  0.00000000000E+00  0.00000000000E+00  0.27183660855E+03  0.27183660855E+03  0.00000000000E+00 0. -1.
         -4   -1    0    0    0  501 -0.00000000000E+00 -0.00000000000E+00 -0.17889192163E+04  0.17889192163E+04  0.00000000000E+00 0. -1.
        -13    1    1    2    0    0 -0.23132783823E+03 -0.85834892741E+02 -0.56885402088E+03  0.62006056623E+03  0.10566000000E+00 0.  1.
         13    1    1    2    0    0  0.45455763968E+03  0.31146161156E+03 -0.13442379118E+03  0.56718669772E+03  0.10566000000E+00 0. -1.
         -4    1    1    2    0  502 -0.22322980145E+03 -0.22562671882E+03 -0.81380479571E+03  0.87350856093E+03  0.00000000000E+00 0. -1.
</event>
<event>
 5    1  0.1008363E-004  0.4759850E+03  0.7818608E-02  0.9878611E-01
          4   -1    0    0  502    0 -0.00000000000E+00  0.00000000000E+00  0.68635284620E+03  0.68635284620E+03  0.00000000000E+00 0.  1.
         21   -1    0    0  501  502  0.00000000000E+00 -0.00000000000E+00 -0.77024289183E+03  0.77024289183E+03  0.00000000000E+00 0.  1.
        -13    1    1    2    0    0  0.46917113421E+03  0.19225208698E+03 -0.43937478083E+03  0.67091924053E+03  0.10566000000E+00 0.  1.
         13    1    1    2    0    0 -0.48213411203E+02 -0.13411773411E+03  0.33058115728E+03  0.35999446154E+03  0.10566000000E+00 0. -1.
          4    1    1    2  501    0 -0.42095772301E+03 -0.58134352871E+02  0.24903577920E+02  0.42568203596E+03  0.00000000000E+00 0.  1.
</event>
<event>
 5    1  0.1008363E-004  0.1802663E+03  0.7818608E-02  0.1074577E+00
         -4   -1    0    0    0  501 -0.00000000000E+00  0.00000000000E+00  0.39412111284E+03  0.39412111284E+03  0.00000000000E+00 0. -1.
         21   -1    0    0  501  502  0.00000000000E+00 -0.00000000000E+00 -0.22965038918E+03  0.22965038918E+03  0.00000000000E+00 0. -1.
        -13    1    1    2    0    0  0.15106834936E+02  0.17325128566E+03  0.15440942385E+03  0.23256505710E+03  0.10566000000E+00 0.  1.
         13    1    1    2    0    0 -0.36919643024E+02 -0.18440206390E+03  0.15531241292E+03  0.24390395237E+03  0.10566000000E+00 0. -1.
         -4    1    1    2    0  502  0.21812808088E+02  0.11150778235E+02 -0.14525111311E+03  0.14730249255E+03  0.00000000000E+00 0. -1.
</event>
<event>
 5    1  0.1008363E-004  0.5729191E+03  0.7818608E-02  0.9599612E-01
         21   -1    0    0  501  502  0.00000000000E+00  0.00000000000E+00  0.82618793233E+03  0.82618793233E+03  0.00000000000E+00 0. -1.
         -4   -1    0    0    0  501 -0.00000000000E+00 -0.00000000000E+00 -0.15614366276E+04  0.15614366276E+04  0.00000000000E+00 0. -1.
        -13    1    1    2    0    0 -0.36966998730E+03  0.47700732540E+03 -0.10229394121E+04  0.11876855392E+04  0.10566000000E+00 0.  1.
         13    1    1    2    0    0 -0.96687742713E+02 -0.14422098677E+03 -0.32042823580E+03  0.36444818298E+03  0.10566000000E+00 0. -1.
         -4    1    1    2    0  502  0.46635773001E+03 -0.33278633863E+03  0.60811895260E+03  0.83549083779E+03  0.00000000000E+00 0. -1.
</event>
<event>
 5    1  0.1008363E-004  0.4858623E+03  0.7818608E-02  0.9548407E-01
         21   -1    0    0  501  502  0.00000000000E+00  0.00000000000E+00  0.66238993602E+03  0.66238993602E+03  0.00000000000E+00 0.  1.
         -4   -1    0    0    0  501 -0.00000000000E+00 -0.00000000000E+00 -0.10537560439E+04  0.10537560439E+04  0.00000000000E+00 0. -1.
        -13    1    1    2    0    0  0.46110962520E+03  0.24298397379E+03 -0.21176579583E+03  0.56259049176E+03  0.10566000000E+00 0.  1.
         13    1    1    2    0    0  0.31099519851E+03  0.47392887508E+02 -0.49377310637E+02  0.31843716689E+03  0.10566000000E+00 0. -1.
         -4    1    1    2    0  502 -0.77210482371E+03 -0.29037686129E+03 -0.13022300138E+03  0.83511832124E+03  0.00000000000E+00 0. -1.
</event>
<event>
 5    1  0.1008363E-004  0.4552939E+03  0.7818608E-02  0.9917930E-01
         21   -1    0    0  501  502  0.00000000000E+00  0.00000000000E+00  0.23462018039E+03  0.23462018039E+03  0.00000000000E+00 0. -1.
         -4   -1    0    0    0  501 -0.00000000000E+00 -0.00000000000E+00 -0.16992864078E+04  0.16992864078E+04  0.00000000000E+00 0. -1.
        -13    1    1    2    0    0 -0.12617960378E+03  0.66795857198E+02  0.77546754175E+01  0.14297945693E+03  0.10566000000E+00 0.  1.
         13    1    1    2    0    0  0.49766235953E+03  0.15557191104E+03 -0.11097809739E+04  0.12261664915E+04  0.10566000000E+00 0. -1.
         -4    1    1    2    0  502 -0.37148275575E+03 -0.22236776824E+03 -0.36263992885E+03  0.56476063971E+03  0.00000000000E+00 0. -1.
</event>
<event>
 5    1  0.1008363E-004  0.4498731E+03  0.7818608E-02  0.9925595E-01
          4   -1    0    0  502    0 -0.00000000000E+00  0.00000000000E+00  0.53699189543E+03  0.53699189543E+03  0.00000000000E+00 0.  1.
         21   -1    0    0  501  502  0.00000000000E+00 -0.00000000000E+00 -0.64242687402E+03  0.64242687402E+03  0.00000000000E+00 0.  1.
        -13    1    1    2    0    0  0.32193194033E+03 -0.20157841009E+03  0.25493219902E+03  0.45745433311E+03  0.10566000000E+00 0.  1.
         13    1    1    2    0    0  0.12998234179E+02 -0.14367536860E+03 -0.92876976228E+02  0.17157420992E+03  0.10566000000E+00 0. -1.
          4    1    1    2  501    0 -0.33493017451E+03  0.34525377868E+03 -0.26749020138E+03  0.55039022641E+03  0.00000000000E+00 0.  1.
</event>
<event>
 5    1  0.1008363E-004  0.4641581E+03  0.7818608E-02  0.9560192E-01
         -4   -1    0    0    0  501 -0.00000000000E+00  0.00000000000E+00  0.33393245884E+03  0.33393245884E+03  0.00000000000E+00 0. -1.
         21   -1    0    0  501  502  0.00000000000E+00 -0.00000000000E+00 -0.20993670124E+04  0.20993670124E+04  0.00000000000E+00 0.  1.
        -13    1    1    2    0    0 -0.39290054752E+03 -0.23966759840E+03 -0.12647136467E+04  0.13458499237E+04  0.10566000000E+00 0.  1.
         13    1    1    2    0    0  0.39047397683E+03  0.25200070125E+03  0.10920937985E+03  0.47738975672E+03  0.10566000000E+00 0. -1.
         -4    1    1    2    0  502  0.24265706925E+01 -0.12333102851E+02 -0.60993028671E+03  0.61005979077E+03  0.00000000000E+00 0. -1.
</event>
<event>
 5    1  0.1008363E-004  0.4304832E+02  0.7818608E-02  0.1323008E+00
         21   -1    0    0  501  502  0.00000000000E+00  0.00000000000E+00  0.12828771213E+03  0.12828771213E+03  0.00000000000E+00 0.  1.
         -4   -1    0    0    0  501 -0.00000000000E+00 -0.00000000000E+00 -0.37771013771E+02  0.37771013771E+02  0.00000000000E+00 0. -1.
        -13    1    1    2    0    0  0.37077363825E+01 -0.30182744042E+02  0.57041867850E+02  0.64641559378E+02  0.10566000000E+00 0.  1.
         13    1    1    2    0    0  0.32232171434E+01  0.46556468963E+02 -0.15611374224E+02  0.49209959361E+02  0.10566000000E+00 0. -1.
         -4    1    1    2    0  502 -0.69309535259E+01 -0.16373724922E+02  0.49086204732E+02  0.52207207162E+02  0.00000000000E+00 0. -1.
</event>
<event>
 5    1  0.1008363E-004  0.1310152E+03  0.7818608E-02  0.1121505E+00
         -4   -1    0    0    0  501 -0.00000000000E+00  0.00000000000E+00  0.16462597706E+03  0.16462597706E+03  0.00000000000E+00 0. -1.
         21   -1    0    0  501  502  0.00000000000E+00 -0.00000000000E+00 -0.32440893396E+03  0.32440893396E+03  0.00000000000E+00 0.  1.
        -13    1    1    2    0    0  0.77516617412E+02 -0.93130185470E+02 -0.18872829683E+03  0.22427759275E+03  0.10566000000E+00 0.  1.
         13    1    1    2    0    0 -0.84324197136E+02  0.10212951283E+03  0.11655384076E+03  0.17642510188E+03  0.10566000000E+00 0. -1.
         -4    1    1    2    0  502  0.68075797231E+01 -0.89993273572E+01 -0.87608500834E+02  0.88332216393E+02  0.00000000000E+00 0. -1.
</event>
<event>
 5    1  0.1008363E-004  0.4112680E+03  0.7818608E-02  0.1003741E+00
         21   -1    0    0  501  502  0.00000000000E+00  0.00000000000E+00  0.58960130502E+03  0.58960130502E+03  0.00000000000E+00 0. -1.
          4   -1    0    0  502    0 -0.00000000000E+00 -0.00000000000E+00 -0.10910284043E+04  0.10910284043E+04  0.00000000000E+00 0.  1.
        -13    1    1    2    0    0 -0.77217597086E+02  0.94151634900E+02 -0.54565523221E+03  0.55907667744E+03  0.10566000000E+00 0.  1.
         13    1    1    2    0    0  0.46568709871E+03  0.40877205023E+02 -0.32460277358E+03  0.56912423211E+03  0.10566000000E+00 0. -1.
          4    1    1    2  501    0 -0.38846950162E+03 -0.13502883992E+03  0.36883090647E+03  0.55242879982E+03  0.00000000000E+00 0.  1.
</event>
<event>
 5    1  0.1008363E-004  0.6250691E+02  0.7818608E-02  0.1247877E+00
         -4   -1    0    0    0  501 -0.00000000000E+00  0.00000000000E+00  0.14026677895E+03  0.14026677895E+03  0.00000000000E+00 0. -1.
         21   -1    0    0  501  502  0.00000000000E+00 -0.00000000000E+00 -0.10259722063E+03  0.10259722063E+03  0.00000000000E+00 0. -1.
        -13    1    1    2    0    0 -0.31391849173E+02 -0.54839796227E+02 -0.40163772826E+02  0.74873167799E+02  0.10566000000E+00 0.  1.
         13    1    1    2    0    0  0.17343317339E+02  0.60183802895E+02  0.11330616699E+03  0.12946497375E+03  0.10566000000E+00 0. -1.
         -4    1    1    2    0  502  0.14048531834E+02 -0.53440066680E+01 -0.35472835844E+02  0.38525858028E+02  0.00000000000E+00 0. -1.
</event>
<event>
 5    1  0.1008363E-004  0.6191986E+03  0.7818608E-02  0.9249235E-01
         21   -1    0    0  501  502  0.00000000000E+00  0.00000000000E+00  0.27153280936E+03  0.27153280936E+03  0.00000000000E+00 0.  1.
          4   -1    0    0  502    0 -0.00000000000E+00 -0.00000000000E+00 -0.28044886597E+04  0.28044886597E+04  0.00000000000E+00 0.  1.
        -13    1    1    2    0    0  0.59291925592E+03  0.34176488557E+03 -0.15399989211E+04  0.16852160601E+04  0.10566000000E+00 0.  1.
         13    1    1    2    0    0 -0.58194291137E+03  0.47503516700E+02 -0.61834032663E+03  0.85044629865E+03  0.10566000000E+00 0. -1.
          4    1    1    2  501    0 -0.10976344546E+02 -0.38926840227E+03 -0.37461660262E+03  0.54035911032E+03  0.00000000000E+00 0.  1.
</event>
<event>
 5    1  0.1008363E-004  0.3948059E+03  0.7818608E-02  0.9744167E-01
         21   -1    0    0  501  502  0.00000000000E+00  0.00000000000E+00  0.18949910793E+03  0.18949910793E+03  0.00000000000E+00 0.  1.
         -4   -1    0    0    0  501 -0.00000000000E+00 -0.00000000000E+00 -0.28423356744E+04  0.28423356744E+04  0.00000000000E+00 0. -1.
        -13    1    1    2    0    0 -0.39768346122E+02  0.36577870033E+03 -0.92912984805E+03  0.99932870702E+03  0.10566000000E+00 0.  1.
         13    1    1    2    0    0  0.35317101216E+03 -0.31634816222E+03 -0.16360127625E+04  0.17033331130E+04  0.10566000000E+00 0. -1.
         -4    1    1    2    0  502 -0.31340266604E+03 -0.49430538110E+02 -0.87693955836E+02  0.32917296224E+03  0.00000000000E+00 0. -1.
</event>
<event>
 5    1  0.1008363E-004  0.2330345E+03  0.7818608E-02  0.1049299E+00
         21   -1    0    0  501  502  0.00000000000E+00  0.00000000000E+00  0.13039445870E+04  0.13039445870E+04  0.00000000000E+00 0. -1.
         -4   -1    0    0    0  501 -0.00000000000E+00 -0.00000000000E+00 -0.27223137647E+03  0.27223137647E+03  0.00000000000E+00 0. -1.
        -13    1    1    2    0    0  0.15191823621E+03  0.84858930058E+02  0.15201188941E+03  0.23105803208E+03  0.10566000000E+00 0.  1.
         13    1    1    2    0    0  0.26719611498E+02 -0.23945834313E+03 -0.15321240300E+03  0.28553158727E+03  0.10566000000E+00 0. -1.
         -4    1    1    2    0  502 -0.17863784771E+03  0.15459941307E+03  0.10329137242E+04  0.10595863442E+04  0.00000000000E+00 0. -1.
</event>
<event>
 5    1  0.1008363E-004  0.2380903E+03  0.7818608E-02  0.1050594E+00
          4   -1    0    0  502    0 -0.00000000000E+00  0.00000000000E+00  0.13608712848E+04  0.13608712848E+04  0.00000000000E+00 0.  1.
         21   -1    0    0  501  502  0.00000000000E+00 -0.00000000000E+00 -0.18397955972E+03  0.18397955972E+03  0.00000000000E+00 0.  1.
        -13    1    1    2    0    0 -0.43503830582E+02 -0.35476317116E+03  0.33104916645E+03  0.48717866605E+03  0.10566000000E+00 0.  1.
         13    1    1    2    0    0 -0.15853609586E+02  0.15619503793E+03  0.83554450787E+03  0.85016637348E+03  0.10566000000E+00 0. -1.
          4    1    1    2  501    0  0.59357440168E+02  0.19856813323E+03  0.10298050731E+02  0.20750580495E+03  0.00000000000E+00 0.  1.
</event>
<event>
 5    1  0.1008363E-004  0.1790061E+03  0.7818608E-02  0.1075567E+00
         21   -1    0    0  501  502  0.00000000000E+00  0.00000000000E+00  0.94484015070E+02  0.94484015070E+02  0.00000000000E+00 0.  1.
          4   -1    0    0  502    0 -0.00000000000E+00 -0.00000000000E+00 -0.15055447291E+04  0.15055447291E+04  0.00000000000E+00 0.  1.
        -13    1    1    2    0    0 -0.57699222329E+02  0.17969194694E+03 -0.87603182531E+03  0.89613066356E+03  0.10566000000E+00 0.  1.
         13    1    1    2    0    0 -0.83752325264E+02 -0.17747929437E+03 -0.52682641490E+03  0.56219163505E+03  0.10566000000E+00 0. -1.
          4    1    1    2  501    0  0.14145154759E+03 -0.22126525702E+01 -0.82024738601E+01  0.14170644560E+03  0.00000000000E+00 0.  1.
</event>
<event>
 5    1  0.1008363E-004  0.4220890E+03  0.7818608E-02  0.1021005E+00
         21   -1    0    0  501  502  0.00000000000E+00  0.00000000000E+00  0.90727038703E+02  0.90727038703E+02  0.00000000000E+00 0. -1.
         -4   -1    0    0    0  501 -0.00000000000E+00 -0.00000000000E+00 -0.31989096962E+04  0.31989096962E+04  0.00000000000E+00 0. -1.
        -13    1    1    2    0    0  0.69589530870E+02  0.12681368385E+01 -0.38481718649E+03  0.39106085097E+03  0.10566000000E+00 0.  1.
         13    1    1    2    0    0 -0.33080109424E+03  0.31679372888E+03 -0.21152681802E+04  0.21642890555E+04  0.10566000000E+00 0. -1.
         -4    1    1    2    0  502  0.26121156337E+03 -0.31806186572E+03 -0.60809729080E+03  0.73428682839E+03  0.00000000000E+00 0. -1.
</event>
<event>
 5    1  0.1008363E-004  0.3947212E+03  0.7818608E-02  0.9810838E-01
          4   -1    0    0  502    0 -0.00000000000E+00  0.00000000000E+00  0.73117509776E+03  0.73117509776E+03  0.00000000000E+00 0.  1.
         21   -1    0    0  501  502  0.00000000000E+00 -0.00000000000E+00 -0.66938512988E+03  0.66938512988E+03  0.00000000000E+00 0.  1.
        -13    1    1    2    0    0  0.29004795351E+03 -0.12665056780E+03  0.39885233957E+03  0.50916734146E+03  0.10566000000E+00 0.  1.
         13    1    1    2    0    0  0.10536444271E+03  0.29613006613E+03  0.43136863483E+02  0.31726248125E+03  0.10566000000E+00 0. -1.
          4    1    1    2  501    0 -0.39541239622E+03 -0.16947949834E+03 -0.38019923517E+03  0.57413040493E+03  0.00000000000E+00 0.  1.
</event>
<event>
 5    1  0.1008363E-004  0.3103146E+03  0.7818608E-02  0.1003136E+00
         21   -1    0    0  501  502  0.00000000000E+00  0.00000000000E+00  0.22737063834E+03  0.22737063834E+03  0.00000000000E+00 0.  1.
          4   -1    0    0  502    0 -0.00000000000E+00 -0.00000000000E+00 -0.80539136978E+03  0.80539136978E+03  0.00000000000E+00 0.  1.
        -13    1    1    2    0    0  0.16532246683E+03  0.27062208422E+03 -0.47152670121E+03  0.56824754432E+03  0.10566000000E+00 0.  1.
         13    1    1    2    0    0 -0.51842645477E+02 -0.30706376931E+03 -0.13892624000E+03  0.34099315189E+03  0.10566000000E+00 0. -1.
          4    1    1    2  501    0 -0.11347982135E+03  0.36441685090E+02  0.32432209775E+02  0.12352131192E+03  0.00000000000E+00 0.  1.
</event>
<event>
 5    1  0.1008363E-004  0.5051247E+03  0.7818608E-02  0.9850471E-01
         21   -1    0    0  501  502  0.00000000000E+00  0.00000000000E+00  0.45267160367E+03  0.45267160367E+03  0.00000000000E+00 0.  1.
          4   -1    0    0  502    0 -0.00000000000E+00 -0.00000000000E+00 -0.78109233605E+03  0.78109233605E+03  0.00000000000E+00 0.  1.
        -13    1    1    2    0    0  0.15028520862E+03  0.53432697453E+03 -0.45698896860E+02  0.55693748301E+03  0.10566000000E+00 0.  1.
         13    1    1    2    0    0  0.49283991790E+02 -0.12149640760E+03 -0.15051010880E+03  0.19960859932E+03  0.10566000000E+00 0. -1.
          4    1    1    2  501    0 -0.19956920041E+03 -0.41283056693E+03 -0.13221172672E+03  0.47721785740E+03  0.00000000000E+00 0.  1.
</event>
<event>
 5    1  0.1008363E-004  0.4292051E+03  0.7818608E-02  0.9987486E-01
          4   -1    0    0  502    0 -0.00000000000E+00  0.00000000000E+00  0.22185245669E+04  0.22185245669E+04  0.00000000000E+00 0.  1.
         21   -1    0    0  501  502  0.00000000000E+00 -0.00000000000E+00 -0.15960106790E+03  0.15960106790E+03  0.00000000000E+00 0.  1.
        -13    1    1    2    0    0  0.39217184276E+03  0.18990994781E+03  0.12454527468E+04  0.13194760696E+04  0.10566000000E+00 0.  1.
         13    1    1    2    0    0  0.35990436730E+02 -0.13050466658E+03  0.51713994536E+03  0.53456572448E+03  0.10566000000E+00 0. -1.
          4    1    1    2  501    0 -0.42816227949E+03 -0.59405281228E+02  0.29633080679E+03  0.52408384069E+03  0.00000000000E+00 0.  1.
</event>
<event>
 5    1  0.1008363E-004  0.1667679E+03  0.7818608E-02  0.1085658E+00
         -4   -1    0    0    0  501 -0.00000000000E+00  0.00000000000E+00  0.10764741640E+04  0.10764741640E+04  0.00000000000E+00 0. -1.
         21   -1    0    0  501  502  0.00000000000E+00 -0.00000000000E+00 -0.66687112063E+03  0.66687112063E+03  0.00000000000E+00 0. -1.
        -13    1    1    2    0    0 -0.20272216281E+03 -0.17878881963E+03  0.40394426462E+03  0.48603775307E+03  0.10566000000E+00 0.  1.
         13    1    1    2    0    0  0.82384122865E+02  0.12101371623E+03  0.61568321178E+03  0.63284855349E+03  0.10566000000E+00 0. -1.
         -4    1    1    2    0  502  0.12033803995E+03  0.57775103399E+02 -0.61002443302E+03  0.62445897809E+03  0.00000000000E+00 0. -1.
</event>
<event>
 5    1  0.1008363E-004  0.2057671E+03  0.7818608E-02  0.1056253E+00
         -4   -1    0    0    0  501 -0.00000000000E+00  0.00000000000E+00  0.10534746654E+04  0.10534746654E+04  0.00000000000E+00 0. -1.
         21   -1    0    0  501  502  0.00000000000E+00 -0.00000000000E+00 -0.41067533194E+03  0.41067533194E+03  0.00000000000E+00 0. -1.
        -13    1    1    2    0    0  0.68646901232E+02 -0.15372290661E+03  0.39287559420E+03  0.42742762281E+03  0.10566000000E+00 0.  1.
         13    1    1    2    0    0 -0.17878626780E+02  0.28469960728E+03  0.59735301675E+03  0.66196990072E+03  0.10566000000E+00 0. -1.
         -4    1    1    2    0  502 -0.50768274451E+02 -0.13097670067E+03 -0.34742927746E+03  0.37475247383E+03  0.00000000000E+00 0. -1.
</event>
<event>
 5    1  0.1008363E-004  0.4001121E+03  0.7818608E-02  0.1026232E+00
          4   -1    0    0  502    0 -0.00000000000E+00  0.00000000000E+00  0.34435117439E+03  0.34435117439E+03  0.00000000000E+00 0.  1.
         21   -1    0    0  501  502  0.00000000000E+00 -0.00000000000E+00 -0.89586771744E+03  0.89586771744E+03  0.00000000000E+00 0.  1.
        -13    1    1    2    0    0 -0.29210842530E+03 -0.26926321195E+03 -0.63293587770E+03  0.74728699031E+03  0.10566000000E+00 0.  1.
         13    1    1    2    0    0 -0.56299341134E+02  0.40545420825E+02  0.12631062131E+02  0.70520223033E+02  0.10566000000E+00 0. -1.
          4    1    1    2  501    0  0.34840776644E+03  0.22871779113E+03  0.68788272514E+02  0.42241167849E+03  0.00000000000E+00 0.  1.
</event>
<event>
 5    1  0.1008363E-004  0.4275937E+03  0.7818608E-02  0.9652578E-01
          4   -1    0    0  502    0 -0.00000000000E+00  0.00000000000E+00  0.50362162647E+03  0.50362162647E+03  0.00000000000E+00 0.  1.
         21   -1    0    0  501  502  0.00000000000E+00 -0.00000000000E+00 -0.44933143464E+03  0.44933143464E+03  0.00000000000E+00 0. -1.
        -13    1    1    2    0    0 -0.38158640133E+03  0.21817515483E+03 -0.87043630563E+02  0.44809059871E+03  0.10566000000E+00 0.  1.
         13    1    1    2    0    0  0.36564313716E+03 -0.20951240699E+03  0.18298717584E+03  0.45942863442E+03  0.10566000000E+00 0. -1.
          4    1    1    2  501    0  0.15943264169E+02 -0.86627478407E+01 -0.41653353444E+02  0.45433827988E+02  0.00000000000E+00 0.  1.
</event>
<event>
 5    1  0.1008363E-004  0.5399800E+02  0.7818608E-02  0.1276315E+00
         21   -1    0    0  501  502  0.00000000000E+00  0.00000000000E+00  0.51762013247E+03  0.51762013247E+03  0.00000000000E+00 0. -1.
         -4   -1    0    0    0  501 -0.00000000000E+00 -0.00000000000E+00 -0.29292376679E+02  0.29292376679E+02  0.00000000000E+00 0. -1.
        -13    1    1    2    0    0  0.42189500735E+01  0.41678502505E+02  0.60727139076E+02  0.73774614165E+02  0.10566000000E+00 0.  1.
         13    1    1    2    0    0  0.52094049781E+01 -0.61803626179E+02  0.20342282682E+02  0.65273622068E+02  0.10566000000E+00 0. -1.
         -4    1    1    2    0  502 -0.94283550516E+01  0.20125123674E+02  0.40725833404E+03  0.40786427292E+03  0.00000000000E+00 0. -1.
</event>
<event>
 5    1  0.1008363E-004  0.4365003E+03  0.7818608E-02  0.9916379E-01
         -4   -1    0    0    0  501 -0.00000000000E+00  0.00000000000E+00  0.81642423276E+03  0.81642423276E+03  0.00000000000E+00 0. -1.
         21   -1    0    0  501  502  0.00000000000E+00 -0.00000000000E+00 -0.45253117250E+03  0.45253117250E+03  0.00000000000E+00 0. -1.
        -13    1    1    2    0    0  0.13165788377E+03 -0.95853993325E+02  0.19946182971E+03  0.25750110499E+03  0.10566000000E+00 0.  1.
         13    1    1    2    0    0  0.37471098763E+03 -0.12374890988E+03 -0.88348678612E+02  0.40438548086E+03  0.10566000000E+00 0. -1.
         -4    1    1    2    0  502 -0.50636887141E+03  0.21960290321E+03  0.25277990917E+03  0.60706881941E+03  0.00000000000E+00 0. -1.
</event>
<event>
 5    1  0.1008363E-004  0.3635644E+03  0.7818608E-02  0.9970768E-01
          4   -1    0    0  502    0 -0.00000000000E+00  0.00000000000E+00  0.12384456924E+04  0.12384456924E+04  0.00000000000E+00 0.  1.
         21   -1    0    0  501  502  0.00000000000E+00 -0.00000000000E+00 -0.23969721896E+03  0.23969721896E+03  0.00000000000E+00 0.  1.
        -13    1    1    2    0    0  0.52377631060E+03 -0.49513207424E+02  0.49065199450E+03  0.71939736733E+03  0.10566000000E+00 0.  1.
         13    1    1    2    0    0 -0.23432518725E+03 -0.21811385707E+02  0.34873581357E+03  0.42071452168E+03  0.10566000000E+00 0. -1.
          4    1    1    2  501    0 -0.28945112335E+03  0.71324593131E+02  0.15936066534E+03  0.33803102232E+03  0.00000000000E+00 0.  1.
</event>
<event>
 5    1  0.1008363E-004  0.4344566E+03  0.7818608E-02  0.9949888E-01
         21   -1    0    0  501  502  0.00000000000E+00  0.00000000000E+00  0.11474392326E+03  0.11474392326E+03  0.00000000000E+00 0.  1.
          4   -1    0    0  502    0 -0.00000000000E+00 -0.00000000000E+00 -0.30993934224E+04  0.30993934224E+04  0.00000000000E+00 0.  1.
        -13    1    1    2    0    0 -0.50867527070E+03  0.19030798186E+03 -0.17328920478E+04  0.18160073016E+04  0.10566000000E+00 0.  1.
         13    1    1    2    0    0  0.12877432912E+03 -0.72460291798E+02 -0.71470833281E+03  0.72982280992E+03  0.10566000000E+00 0. -1.
          4    1    1    2  501    0  0.37990094158E+03 -0.11784769006E+03 -0.53704911846E+03  0.66830723407E+03  0.00000000000E+00 0.  1.
</event>
<event>
 5    1  0.1008363E-004  0.1086383E+03  0.7818608E-02  0.1151004E+00
         21   -1    0    0  501  502  0.00000000000E+00  0.00000000000E+00  0.15529664190E+03  0.15529664190E+03  0.00000000000E+00 0.  1.
          4   -1    0    0  502    0 -0.00000000000E+00 -0.00000000000E+00 -0.32208397093E+03  0.32208397093E+03  0.00000000000E+00 0.  1.
        -13    1    1    2    0    0 -0.24066267888E+02  0.10630363227E+03 -0.28341915920E+03  0.30365453800E+03  0.10566000000E+00 0.  1.
         13    1    1    2    0    0  0.25701969431E+01 -0.10607169673E+03  0.10504069252E+03  0.14930294374E+03  0.10566000000E+00 0. -1.
          4    1    1    2  501    0  0.21496070945E+02 -0.23193553459E+00  0.11591137659E+02  0.24423131093E+02  0.00000000000E+00 0.  1.
</event>
<event>
 5    1  0.1008363E-004  0.5057406E+03  0.7818608E-02  0.9645193E-01
         -4   -1    0    0    0  501 -0.00000000000E+00  0.00000000000E+00  0.12731962294E+04  0.12731962294E+04  0.00000000000E+00 0. -1.
         21   -1    0    0  501  502  0.00000000000E+00 -0.00000000000E+00 -0.36673727393E+03  0.36673727393E+03  0.00000000000E+00 0. -1.
        -13    1    1    2    0    0 -0.25295398298E+03 -0.79777129486E+02  0.28323664406E+03  0.38803751829E+03  0.10566000000E+00 0.  1.
         13    1    1    2    0    0  0.51061082493E+03  0.31168255455E+03  0.74493149141E+02  0.60284215992E+03  0.10566000000E+00 0. -1.
         -4    1    1    2    0  502 -0.25765684195E+03 -0.23190542506E+03  0.54872916222E+03  0.64905382508E+03  0.00000000000E+00 0. -1.
</event>
<event>
 5    1  0.1008363E-004  0.3902143E+03  0.7818608E-02  0.9757740E-01
         21   -1    0    0  501  502  0.00000000000E+00  0.00000000000E+00  0.46111745267E+03  0.46111745267E+03  0.00000000000E+00 0. -1.
         -4   -1    0    0    0  501 -0.00000000000E+00 -0.00000000000E+00 -0.15925941622E+04  0.15925941622E+04  0.00000000000E+00 0. -1.
        -13    1    1    2    0    0  0.40159490028E+03 -0.47221495812E+02 -0.85988613068E+03  0.95021708177E+03  0.10566000000E+00 0.  1.
         13    1    1    2    0    0 -0.27404003518E+03 -0.84280658011E+02  0.35174728836E+03  0.45379217295E+03  0.10566000000E+00 0. -1.
         -4    1    1    2    0  502 -0.12755486510E+03  0.13150215382E+03 -0.62333786726E+03  0.64970236018E+03  0.00000000000E+00 0. -1.
</event>
<event>
 5    1  0.1008363E-004  0.4983359E+03  0.7818608E-02  0.9665310E-01
         -4   -1    0    0    0  501 -0.00000000000E+00  0.00000000000E+00  0.21778553072E+04  0.21778553072E+04  0.00000000000E+00 0. -1.
         21   -1    0    0  501  502  0.00000000000E+00 -0.00000000000E+00 -0.22675574479E+03  0.22675574479E+03  0.00000000000E+00 0. -1.
        -13    1    1    2    0    0 -0.25670495604E+03  0.28713566804E+02  0.86902842665E+03  0.90660483170E+03  0.10566000000E+00 0.  1.
         13    1    1    2    0    0  0.70050541590E+01 -0.49949487766E+03  0.46235758392E+03  0.68067521636E+03  0.10566000000E+00 0. -1.
         -4    1    1    2    0  502  0.24969990188E+03  0.47078131086E+03  0.61971355187E+03  0.81733100396E+03  0.00000000000E+00 0. -1.
</event>
<event>
 5    1  0.1008363E-004  0.4164969E+03  0.7818608E-02  0.9905841E-01
         21   -1    0    0  501  502  0.00000000000E+00  0.00000000000E+00  0.24962426036E+03  0.24962426036E+03  0.00000000000E+00 0. -1.
         -4   -1    0    0    0  501 -0.00000000000E+00 -0.00000000000E+00 -0.12981776792E+04  0.12981776792E+04  0.00000000000E+00 0. -1.
        -13    1    1    2    0    0 -0.74768239479E+02  0.17920369869E+03 -0.15805663972E+03  0.25037205871E+03  0.10566000000E+00 0.  1.
         13    1    1    2    0    0 -0.20099548959E+03 -0.40318137089E+03 -0.14778708200E+03  0.47412597212E+03  0.10566000000E+00 0. -1.
         -4    1    1    2    0  502  0.27576372906E+03  0.22397767220E+03 -0.74270969709E+03  0.82330390869E+03  0.00000000000E+00 0. -1.
</event>
<event>
 5    1  0.1008363E-004  0.2178703E+02  0.7818608E-02  0.1486416E+00
         21   -1    0    0  501  502  0.00000000000E+00  0.00000000000E+00  0.59139586035E+01  0.59139586035E+01  0.00000000000E+00 0.  1.
         -4   -1    0    0    0  501 -0.00000000000E+00 -0.00000000000E+00 -0.19550427055E+03  0.19550427055E+03  0.00000000000E+00 0. -1.
        -13    1    1    2    0    0 -0.60890360943E+01  0.17008571415E+02 -0.79999980362E+02  0.82014485818E+02  0.10566000000E+00 0.  1.
         13    1    1    2    0    0  0.10837373334E+02 -0.28012919657E+02 -0.98842031715E+02  0.10330503727E+03  0.10566000000E+00 0. -1.
         -4    1    1    2    0  502 -0.47483372398E+01  0.11004348242E+02 -0.10748299869E+02  0.16098706061E+02  0.00000000000E+00 0. -1.
</event>
<event>
 5    1  0.1008363E-004  0.4147420E+03  0.7818608E-02  0.9687409E-01
         21   -1    0    0  501  502  0.00000000000E+00  0.00000000000E+00  0.17405323028E+03  0.17405323028E+03  0.00000000000E+00 0. -1.
          4   -1    0    0  502    0 -0.00000000000E+00 -0.00000000000E+00 -0.10491708705E+04  0.10491708705E+04  0.00000000000E+00 0.  1.
        -13    1    1    2    0    0  0.32916177023E+03  0.26110025561E+03 -0.44838030798E+03  0.61446377128E+03  0.10566000000E+00 0.  1.
         13    1    1    2    0    0 -0.32513661570E+03 -0.24888697139E+03 -0.43167953441E+03  0.59498384431E+03  0.10566000000E+00 0. -1.
          4    1    1    2  501    0 -0.40251545336E+01 -0.12213284225E+02  0.49422022102E+01  0.13776485157E+02  0.00000000000E+00 0.  1.
</event>
<event>
 5    1  0.1008363E-004  0.4941316E+03  0.7818608E-02  0.9846148E-01
          4   -1    0    0  502    0 -0.00000000000E+00  0.00000000000E+00  0.12720806275E+03  0.12720806275E+03  0.00000000000E+00 0.  1.
         21   -1    0    0  501  502  0.00000000000E+00 -0.00000000000E+00 -0.25638791154E+04  0.25638791154E+04  0.00000000000E+00 0.  1.
        -13    1    1    2    0    0  0.43617637515E+03  0.41290943400E+02 -0.75523884076E+03  0.87312111989E+03  0.10566000000E+00 0.  1.
         13    1    1    2    0    0  0.11072637956E+03 -0.89095032742E+02 -0.33269074633E+03  0.36177534445E+03  0.10566000000E+00 0. -1.
          4    1    1    2  501    0 -0.54690275471E+03  0.47804089342E+02 -0.13487414656E+04  0.14561907138E+04  0.00000000000E+00 0.  1.
</event>
<event>
 5    1  0.1008363E-004  0.1849723E+03  0.7818608E-02  0.1070957E+00
         -4   -1    0    0    0  501 -0.00000000000E+00  0.00000000000E+00  0.24225011995E+03  0.24225011995E+03  0.00000000000E+00 0. -1.
         21   -1    0    0  501  502  0.00000000000E+00 -0.00000000000E+00 -0.40086160020E+03  0.40086160020E+03  0.00000000000E+00 0. -1.
        -13    1    1    2    0    0 -0.18460182813E+03  0.25280539424E+02  0.19851998766E+02  0.18737943761E+03  0.10566000000E+00 0.  1.
         13    1    1    2    0    0  0.16507973613E+03 -0.94007741511E+02  0.65948378064E+02  0.20109195528E+03  0.10566000000E+00 0. -1.
         -4    1    1    2    0  502  0.19522091998E+02  0.68727202087E+02 -0.24441185708E+03  0.25464032725E+03  0.00000000000E+00 0. -1.
</event>
<event>
 5    1  0.1008363E-004  0.3082593E+03  0.7818608E-02  0.1003953E+00
          4   -1    0    0  502    0 -0.00000000000E+00  0.00000000000E+00  0.91329370781E+03  0.91329370781E+03  0.00000000000E+00 0.  1.
         21   -1    0    0  501  502  0.00000000000E+00 -0.00000000000E+00 -0.45934163409E+03  0.45934163409E+03  0.00000000000E+00 0.  1.
        -13    1    1    2    0    0 -0.33913277216E+03  0.22207009528E+03 -0.30468369799E+03  0.50710781039E+03  0.10566000000E+00 0.  1.
         13    1    1    2    0    0  0.25601105298E+03 -0.15215809452E+03  0.46238755757E+03  0.54999637229E+03  0.10566000000E+00 0. -1.
          4    1    1    2  501    0  0.83121719178E+02 -0.69912000769E+02  0.29624821414E+03  0.31553115921E+03  0.00000000000E+00 0.  1.
</event>
<event>
 5    1  0.1008363E-004  0.5879067E+03  0.7818608E-02  0.9303683E-01
         -4   -1    0    0    0  501 -0.00000000000E+00  0.00000000000E+00  0.19222287841E+04  0.19222287841E+04  0.00000000000E+00 0. -1.
         21   -1    0    0  501  502  0.00000000000E+00 -0.00000000000E+00 -0.35156103972E+03  0.35156103972E+03  0.00000000000E+00 0. -1.
        -13    1    1    2    0    0  0.45393164861E+03 -0.23687558550E+03  0.49672361254E+03  0.71337111172E+03  0.10566000000E+00 0.  1.
         13    1    1    2    0    0 -0.73764744219E+03 -0.26743444498E+02  0.78263289670E+03  0.10758035243E+04  0.10566000000E+00 0. -1.
         -4    1    1    2    0  502  0.28371579358E+03  0.26361902999E+03  0.29131123513E+03  0.48461518777E+03  0.00000000000E+00 0. -1.
</event>
<event>
 5    1  0.1008363E-004  0.3494062E+03  0.7818608E-02  0.9887757E-01
         21   -1    0    0  501  502  0.00000000000E+00  0.00000000000E+00  0.16382227618E+03  0.16382227618E+03  0.00000000000E+00 0. -1.
          4   -1    0    0  502    0 -0.00000000000E+00 -0.00000000000E+00 -0.15718647080E+04  0.15718647080E+04  0.00000000000E+00 0.  1.
        -13    1    1    2    0    0 -0.20000879900E+03  0.28377385092E+03 -0.96705921709E+03  0.10274894932E+04  0.10566000000E+00 0.  1.
         13    1    1    2    0    0  0.64931213626E+02 -0.37643346642E+03 -0.36228939884E+03  0.52647111679E+03  0.10566000000E+00 0. -1.
          4    1    1    2  501    0  0.13507758537E+03  0.92659615498E+02 -0.78693815913E+02  0.18172637419E+03  0.00000000000E+00 0.  1.
</event>
<event>
 5    1  0.1008363E-004  0.4231998E+03  0.7818608E-02  0.9664338E-01
         21   -1    0    0  501  502  0.00000000000E+00  0.00000000000E+00  0.75740434457E+03  0.75740434457E+03  0.00000000000E+00 0. -1.
         -4   -1    0    0    0  501 -0.00000000000E+00 -0.00000000000E+00 -0.74872116103E+03  0.74872116103E+03  0.00000000000E+00 0. -1.
        -13    1    1    2    0    0 -0.22135099370E+03 -0.30978968503E+03 -0.19580831004E+03  0.42814345354E+03  0.10566000000E+00 0.  1.
         13    1    1    2    0    0  0.31858893673E+03  0.34826544833E+03 -0.30230168695E+03  0.56051231406E+03  0.10566000000E+00 0. -1.
         -4    1    1    2    0  502 -0.97237943032E+02 -0.38475763305E+02  0.50679318053E+03  0.51746973801E+03  0.00000000000E+00 0. -1.
</event>
<event>
 5    1  0.1008363E-004  0.3878280E+03  0.7818608E-02  0.1021691E+00
         -4   -1    0    0    0  501 -0.00000000000E+00  0.00000000000E+00  0.33095720784E+03  0.33095720784E+03  0.00000000000E+00 0. -1.
         21   -1    0    0  501  502  0.00000000000E+00 -0.00000000000E+00 -0.96154424685E+03  0.96154424685E+03  0.00000000000E+00 0. -1.
        -13    1    1    2    0    0  0.56162564407E+02  0.67498264829E+02  0.11513448734E+01  0.87815637302E+02  0.10566000000E+00 0.  1.
         13    1    1    2    0    0  0.32524590121E+03  0.55249825211E+02  0.12145386696E+03  0.35155155013E+03  0.10566000000E+00 0. -1.
         -4    1    1    2    0  502 -0.38140846562E+03 -0.12274809004E+03 -0.75319225084E+03  0.85313426726E+03  0.00000000000E+00 0. -1.
</event>
<event>
 5    1  0.1008363E-004  0.8196428E+02  0.7818608E-02  0.1198425E+00
          4   -1    0    0  502    0 -0.00000000000E+00  0.00000000000E+00  0.82727824560E+02  0.82727824560E+02  0.00000000000E+00 0.  1.
         21   -1    0    0  501  502  0.00000000000E+00 -0.00000000000E+00 -0.14941286123E+03  0.14941286123E+03  0.00000000000E+00 0. -1.
        -13    1    1    2    0    0 -0.50783447847E+02 -0.67433518600E+02  0.34187032768E+01  0.84486310739E+02  0.10566000000E+00 0.  1.
         13    1    1    2    0    0  0.68520474306E+02  0.44671395880E+02 -0.11856600694E+02  0.82650947683E+02  0.10566000000E+00 0. -1.
          4    1    1    2  501    0 -0.17737026458E+02  0.22762122721E+02 -0.58247139253E+02  0.65003427367E+02  0.00000000000E+00 0.  1.
</event>
<event>
 5    1  0.1008363E-004  0.4747734E+03  0.7818608E-02  0.9877274E-01
         -4   -1    0    0    0  501 -0.00000000000E+00  0.00000000000E+00  0.11335375841E+04  0.11335375841E+04  0.00000000000E+00 0. -1.
         21   -1    0    0  501  502  0.00000000000E+00 -0.00000000000E+00 -0.29707207569E+03  0.29707207569E+03  0.00000000000E+00 0. -1.
        -13    1    1    2    0    0 -0.10775854039E+03  0.95913132887E+02  0.18026123876E+03  0.23087953017E+03  0.10566000000E+00 0.  1.
         13    1    1    2    0    0  0.53669892374E+03  0.23999756252E+02  0.48107964971E+03  0.72115141515E+03  0.10566000000E+00 0. -1.
         -4    1    1    2    0  502 -0.42894038335E+03 -0.11991288914E+03  0.17512461996E+03  0.47857871450E+03  0.00000000000E+00 0. -1.
</event>
<event>
 5    1  0.1008363E-004  0.4938793E+03  0.7818608E-02  0.1011095E+00
         21   -1    0    0  501  502  0.00000000000E+00  0.00000000000E+00  0.99738524520E+03  0.99738524520E+03  0.00000000000E+00 0. -1.
         -4   -1    0    0    0  501 -0.00000000000E+00 -0.00000000000E+00 -0.30935626131E+03  0.30935626131E+03  0.00000000000E+00 0. -1.
        -13    1    1    2    0    0 -0.58575411508E+02 -0.10556330252E+02 -0.43731249959E+02  0.73857622008E+02  0.10566000000E+00 0.  1.
         13    1    1    2    0    0  0.20437138090E+03 -0.45609026852E+03  0.42202628429E+03  0.65413468809E+03  0.10566000000E+00 0. -1.
         -4    1    1    2    0  502 -0.14579596939E+03  0.46664659877E+03  0.30973394955E+03  0.57874919641E+03  0.00000000000E+00 0. -1.
</event>
<event>
 5    1  0.1008363E-004  0.4411902E+03  0.7818608E-02  0.9815986E-01
         21   -1    0    0  501  502  0.00000000000E+00  0.00000000000E+00  0.13813286528E+03  0.13813286528E+03  0.00000000000E+00 0. -1.
         -4   -1    0    0    0  501 -0.00000000000E+00 -0.00000000000E+00 -0.33247762659E+04  0.33247762659E+04  0.00000000000E+00 0. -1.
        -13    1    1    2    0    0 -0.12364707349E+03  0.18339124343E+03 -0.10187052871E+04  0.10424401278E+04  0.10566000000E+00 0.  1.
         13    1    1    2    0    0 -0.14945714268E+03  0.36230255208E+03 -0.44666885057E+03  0.59423366614E+03  0.10566000000E+00 0. -1.
         -4    1    1    2    0  502  0.27310421617E+03 -0.54569379551E+03 -0.17212692629E+04  0.18262353372E+04  0.00000000000E+00 0. -1.
</event>
<event>
 5    1  0.1008363E-004  0.2883189E+03  0.7818608E-02  0.1063087E+00
         21   -1    0    0  501  502  0.00000000000E+00  0.00000000000E+00  0.82317735587E+03  0.82317735587E+03  0.00000000000E+00 0. -1.
         -4   -1    0    0    0  501 -0.00000000000E+00 -0.00000000000E+00 -0.14920697067E+03  0.14920697067E+03  0.00000000000E+00 0. -1.
        -13    1    1    2    0    0 -0.60635904559E+02 -0.87613615788E+01 -0.20920135277E+02  0.64738995995E+02  0.10566000000E+00 0.  1.
         13    1    1    2    0    0  0.12976706877E+03  0.27680771679E+03  0.33352682274E+03  0.45244022463E+03  0.10566000000E+00 0. -1.
         -4    1    1    2    0  502 -0.69131164211E+02 -0.26804635521E+03  0.36136369774E+03  0.45520510592E+03  0.00000000000E+00 0. -1.
</event>
<event>
 5    1  0.1008363E-004  0.1152141E+03  0.7818608E-02  0.1141579E+00
         21   -1    0    0  501  502  0.00000000000E+00  0.00000000000E+00  0.24107355236E+03  0.24107355236E+03  0.00000000000E+00 0.  1.
          4   -1    0    0  502    0 -0.00000000000E+00 -0.00000000000E+00 -0.34835256536E+03  0.34835256536E+03  0.00000000000E+00 0.  1.
        -13    1    1    2    0    0  0.22176789698E+02  0.12933164858E+03 -0.23507686900E+03  0.26922041310E+03  0.10566000000E+00 0.  1.
         13    1    1    2    0    0  0.26039206579E+02 -0.93761981314E+02 -0.65852079029E+02  0.11749832720E+03  0.10566000000E+00 0. -1.
          4    1    1    2  501    0 -0.48215996277E+02 -0.35569667266E+02  0.19364993503E+03  0.20270737743E+03  0.00000000000E+00 0.  1.
</event>
<event>
 5    1  0.1008363E-004  0.5755238E+03  0.7818608E-02  0.9496379E-01
         21   -1    0    0  501  502  0.00000000000E+00  0.00000000000E+00  0.95771035364E+03  0.95771035364E+03  0.00000000000E+00 0.  1.
          4   -1    0    0  502    0 -0.00000000000E+00 -0.00000000000E+00 -0.14082328295E+04  0.14082328295E+04  0.00000000000E+00 0.  1.
        -13    1    1    2    0    0  0.39189689995E+02 -0.22110014420E+03 -0.35559795590E+03  0.42056036781E+03  0.10566000000E+00 0.  1.
         13    1    1    2    0    0 -0.46962869592E+03  0.60313409708E+03 -0.75172381064E+03  0.10721056617E+04  0.10566000000E+00 0. -1.
          4    1    1    2  501    0  0.43043900593E+03 -0.38203395288E+03  0.65679929066E+03  0.87327715371E+03  0.00000000000E+00 0.  1.
</event>
<event>
 5    1  0.1008363E-004  0.4892800E+03  0.7818608E-02  0.9679277E-01
          4   -1    0    0  502    0 -0.00000000000E+00  0.00000000000E+00  0.19535699439E+04  0.19535699439E+04  0.00000000000E+00 0.  1.
         21   -1    0    0  501  502  0.00000000000E+00 -0.00000000000E+00 -0.20719501231E+03  0.20719501231E+03  0.00000000000E+00 0.  1.
        -13    1    1    2    0    0  0.34282001922E+03  0.11180600060E+03  0.74562762960E+03  0.82824315302E+03  0.10566000000E+00 0.  1.
         13    1    1    2    0    0  0.22250635140E+03  0.13427999851E+03  0.35172647113E+03  0.43732335414E+03  0.10566000000E+00 0. -1.
          4    1    1    2  501    0 -0.56532637062E+03 -0.24608599911E+03  0.64902083084E+03  0.89519844903E+03  0.00000000000E+00 0.  1.
</event>
<event>
 5    1  0.1008363E-004  0.4706429E+03  0.7818608E-02  0.9544747E-01
          4   -1    0    0  502    0 -0.00000000000E+00  0.00000000000E+00  0.38932449504E+03  0.38932449504E+03  0.00000000000E+00 0.  1.
         21   -1    0    0  501  502  0.00000000000E+00 -0.00000000000E+00 -0.13579154117E+04  0.13579154117E+04  0.00000000000E+00 0.  1.
        -13    1    1    2    0    0 -0.52351601243E+03 -0.32248447784E+03 -0.18030056811E+03  0.64076014214E+03  0.10566000000E+00 0.  1.
         13    1    1    2    0    0  0.29378230094E+03  0.24113670534E+03 -0.12542602772E+03  0.40023324525E+03  0.10566000000E+00 0. -1.
          4    1    1    2  501    0  0.22973371149E+03  0.81347772502E+02 -0.66286432086E+03  0.70624651940E+03  0.00000000000E+00 0.  1.
</event>
<event>
 5    1  0.1008363E-004  0.2140235E+03  0.7818608E-02  0.1056208E+00
         21   -1    0    0  501  502  0.00000000000E+00  0.00000000000E+00  0.27783391322E+03  0.27783391322E+03  0.00000000000E+00 0.  1.
          4   -1    0    0  502    0 -0.00000000000E+00 -0.00000000000E+00 -0.19417072451E+04  0.19417072451E+04  0.00000000000E+00 0.  1.
        -13    1    1    2    0    0 -0.20566148585E+03 -0.29468039342E+03 -0.89020995360E+03  0.96000362170E+03  0.10566000000E+00 0.  1.
         13    1    1    2    0    0  0.32010224002E+02  0.18027787647E+03 -0.96182399270E+03  0.97909660978E+03  0.10566000000E+00 0. -1.
          4    1    1    2  501    0  0.17365126185E+03  0.11440251695E+03  0.18816061443E+03  0.28044092684E+03  0.00000000000E+00 0.  1.
</event>
<event>
 5    1  0.1008363E-004  0.1287328E+03  0.7818608E-02  0.1124209E+00
         21   -1    0    0  501  502  0.00000000000E+00  0.00000000000E+00  0.52946097765E+02  0.52946097765E+02  0.00000000000E+00 0. -1.
         -4   -1    0    0    0  501 -0.00000000000E+00 -0.00000000000E+00 -0.12940928468E+04  0.12940928468E+04  0.00000000000E+00 0. -1.
        -13    1    1    2    0    0  0.64293263190E+02  0.83713323219E+02 -0.53904368268E+03  0.54928102750E+03  0.10566000000E+00 0.  1.
         13    1    1    2    0    0 -0.12911255685E+03 -0.13073172268E+03 -0.69325806331E+03  0.71719424786E+03  0.10566000000E+00 0. -1.
         -4    1    1    2    0  502  0.64819293657E+02  0.47018399464E+02 -0.88450030582E+01  0.80563669215E+02  0.00000000000E+00 0. -1.
</event>
<event>
 5    1  0.1008363E-004  0.6886530E+03  0.7818608E-02  0.9139603E-01
         21   -1    0    0  501  502  0.00000000000E+00  0.00000000000E+00  0.23471928100E+03  0.23471928100E+03  0.00000000000E+00 0. -1.
          4   -1    0    0  502    0 -0.00000000000E+00 -0.00000000000E+00 -0.22282760827E+04  0.22282760827E+04  0.00000000000E+00 0.  1.
        -13    1    1    2    0    0 -0.29139564039E+03  0.62814431541E+03 -0.70172470966E+03  0.98584698586E+03  0.10566000000E+00 0.  1.
         13    1    1    2    0    0  0.27620860822E+03 -0.62839906197E+03 -0.12907500093E+04  0.14619207140E+04  0.10566000000E+00 0. -1.
          4    1    1    2  501    0  0.15187032171E+02  0.25474655181E+00 -0.10820826983E+01  0.15227663804E+02  0.00000000000E+00 0.  1.
</event>
<event>
 5    1  0.1008363E-004  0.4424235E+03  0.7818608E-02  0.9791279E-01
         -4   -1    0    0    0  501 -0.00000000000E+00  0.00000000000E+00  0.17136537276E+04  0.17136537276E+04  0.00000000000E+00 0. -1.
         21   -1    0    0  501  502  0.00000000000E+00 -0.00000000000E+00 -0.28444671833E+03  0.28444671833E+03  0.00000000000E+00 0. -1.
        -13    1    1    2    0    0  0.99431054007E+02 -0.21692285076E+03  0.74077510460E+03  0.77826076893E+03  0.10566000000E+00 0.  1.
         13    1    1    2    0    0  0.22925785060E+03  0.47973679514E+03  0.57673057476E+03  0.78442636474E+03  0.10566000000E+00 0. -1.
         -4    1    1    2    0  502 -0.32868890460E+03 -0.26281394438E+03  0.11170132987E+03  0.43541331223E+03  0.00000000000E+00 0. -1.
</event>
<event>
 5    1  0.1008363E-004  0.3806574E+03  0.7818608E-02  0.9931983E-01
         21   -1    0    0  501  502  0.00000000000E+00  0.00000000000E+00  0.18677194484E+03  0.18677194484E+03  0.00000000000E+00 0.  1.
          4   -1    0    0  502    0 -0.00000000000E+00 -0.00000000000E+00 -0.21396503879E+04  0.21396503879E+04  0.00000000000E+00 0.  1.
        -13    1    1    2    0    0  0.21262877933E+02 -0.40352664142E+03 -0.15010736795E+04  0.15545121623E+04  0.10566000000E+00 0.  1.
         13    1    1    2    0    0 -0.22200466365E+03  0.71150649529E+02 -0.21482133334E+03  0.31701214808E+03  0.10566000000E+00 0. -1.
          4    1    1    2  501    0  0.20074178571E+03  0.33237599189E+03 -0.23698343018E+03  0.45489802230E+03  0.00000000000E+00 0.  1.
</event>
<event>
 5    1  0.1008363E-004  0.3283773E+03  0.7818608E-02  0.9990757E-01
         21   -1    0    0  501  502  0.00000000000E+00  0.00000000000E+00  0.27893323566E+03  0.27893323566E+03  0.00000000000E+00 0.  1.
          4   -1    0    0  502    0 -0.00000000000E+00 -0.00000000000E+00 -0.16303474202E+04  0.16303474202E+04  0.00000000000E+00 0.  1.
        -13    1    1    2    0    0  0.27583564605E+03 -0.83318334419E+02 -0.10355814332E+04  0.10749214690E+04  0.10566000000E+00 0.  1.
         13    1    1    2    0    0 -0.16607385864E+03 -0.24870442307E+03 -0.37505134228E+03  0.47968524794E+03  0.10566000000E+00 0. -1.
          4    1    1    2  501    0 -0.10976178740E+03  0.33202275749E+03  0.59218590941E+02  0.35467393896E+03  0.00000000000E+00 0.  1.
</event>
<event>
 5    1  0.1008363E-004  0.7433460E+02  0.7818608E-02  0.1215793E+00
         21   -1    0    0  501  502  0.00000000000E+00  0.00000000000E+00  0.25895022628E+03  0.25895022628E+03  0.00000000000E+00 0. -1.
         -4   -1    0    0    0  501 -0.00000000000E+00 -0.00000000000E+00 -0.10463578198E+03  0.10463578198E+03  0.00000000000E+00 0. -1.
        -13    1    1    2    0    0 -0.67458781769E+02 -0.62400117403E+02  0.52496649063E+01  0.92043642015E+02  0.10566000000E+00 0.  1.
         13    1    1    2    0    0  0.55877409027E+02  0.38261399397E+02 -0.41288391518E+02  0.79315584607E+02  0.10566000000E+00 0. -1.
         -4    1    1    2    0  502  0.11581372743E+02  0.24138718006E+02  0.19035317091E+03  0.19222678164E+03  0.00000000000E+00 0. -1.
</event>
<event>
 5    1  0.1008363E-004  0.5571432E+03  0.7818608E-02  0.9428139E-01
         21   -1    0    0  501  502  0.00000000000E+00  0.00000000000E+00  0.30942043112E+03  0.30942043112E+03  0.00000000000E+00 0. -1.
          4   -1    0    0  502    0 -0.00000000000E+00 -0.00000000000E+00 -0.26320440097E+04  0.26320440097E+04  0.00000000000E+00 0.  1.
        -13    1    1    2    0    0  0.28040196710E+03 -0.27347841571E+02 -0.80368953503E+03  0.85163962300E+03  0.10566000000E+00 0.  1.
         13    1    1    2    0    0  0.23522092842E+03 -0.58587674431E+03 -0.73473015385E+03  0.96871505348E+03  0.10566000000E+00 0. -1.
          4    1    1    2  501    0 -0.51562289552E+03  0.61322458588E+03 -0.78420388973E+03  0.11211097644E+04  0.00000000000E+00 0.  1.
</event>
<event>
 5    1  0.1008363E-004  0.3470744E+03  0.7818608E-02  0.9912659E-01
          4   -1    0    0  502    0 -0.00000000000E+00  0.00000000000E+00  0.12771117971E+04  0.12771117971E+04  0.00000000000E+00 0.  1.
         21   -1    0    0  501  502  0.00000000000E+00 -0.00000000000E+00 -0.72319957612E+03  0.72319957612E+03  0.00000000000E+00 0.  1.
        -13    1    1    2    0    0 -0.21551740185E+03  0.22078639151E+03  0.19093947421E+03  0.36283918635E+03  0.10566000000E+00 0.  1.
         13    1    1    2    0    0 -0.14291365815E+03 -0.32717054849E+03  0.90849056885E+03  0.97612499524E+03  0.10566000000E+00 0. -1.
          4    1    1    2  501    0  0.35843106000E+03  0.10638415697E+03 -0.54551782209E+03  0.66134719161E+03  0.00000000000E+00 0.  1.
</event>
<event>
 5    1  0.1008363E-004  0.1667320E+03  0.7818608E-02  0.1085689E+00
          4   -1    0    0  502    0 -0.00000000000E+00  0.00000000000E+00  0.13144417054E+04  0.13144417054E+04  0.00000000000E+00 0.  1.
         21   -1    0    0  501  502  0.00000000000E+00 -0.00000000000E+00 -0.38176643462E+02  0.38176643462E+02  0.00000000000E+00 0. -1.
        -13    1    1    2    0    0  0.12746007243E+03  0.13405752744E+03  0.84366301649E+03  0.86370410864E+03  0.10566000000E+00 0.  1.
         13    1    1    2    0    0 -0.13161851003E+03 -0.64216457634E+02  0.35718316211E+03  0.38604016381E+03  0.10566000000E+00 0. -1.
          4    1    1    2  501    0  0.41584376031E+01 -0.69841069810E+02  0.75418883374E+02  0.10287407645E+03  0.00000000000E+00 0.  1.
</event>
<event>
 5    1  0.1008363E-004  0.2517542E+03  0.7818608E-02  0.1065990E+00
         21   -1    0    0  501  502  0.00000000000E+00  0.00000000000E+00  0.81573850899E+02  0.81573850899E+02  0.00000000000E+00 0.  1.
          4   -1    0    0  502    0 -0.00000000000E+00 -0.00000000000E+00 -0.13276317439E+04  0.13276317439E+04  0.00000000000E+00 0.  1.
        -13    1    1    2    0    0 -0.41715233330E+02  0.25789926565E+03 -0.75987591117E+03  0.80353195547E+03  0.10566000000E+00 0.  1.
         13    1    1    2    0    0  0.83986385765E+02 -0.10255644729E+02 -0.39916287691E+02  0.93553259856E+02  0.10566000000E+00 0. -1.
          4    1    1    2  501    0 -0.42271152435E+02 -0.24764362092E+03 -0.44626569413E+03  0.51212037947E+03  0.00000000000E+00 0.  1.
</event>
<event>
 5    1  0.1008363E-004  0.4655958E+03  0.7818608E-02  0.1011617E+00
          4   -1    0    0  502    0 -0.00000000000E+00  0.00000000000E+00  0.18975518165E+03  0.18975518165E+03  0.00000000000E+00 0.  1.
         21   -1    0    0  501  502  0.00000000000E+00 -0.00000000000E+00 -0.20304410042E+04  0.20304410042E+04  0.00000000000E+00 0.  1.
        -13    1    1    2    0    0  0.44076589740E+03 -0.66907901940E+02 -0.12264281256E+04  0.13049433712E+04  0.10566000000E+00 0.  1.
         13    1    1    2    0    0  0.67129717918E+02  0.19335818949E+02  0.43932722899E+02  0.82524955181E+02  0.10566000000E+00 0. -1.
          4    1    1    2  501    0 -0.50789561531E+03  0.47572082991E+02 -0.65819041985E+03  0.83272785945E+03  0.00000000000E+00 0.  1.
</event>
<event>
 5    1  0.1008363E-004  0.2929278E+03  0.7818608E-02  0.1015484E+00
         21   -1    0    0  501  502  0.00000000000E+00  0.00000000000E+00  0.28029742979E+03  0.28029742979E+03  0.00000000000E+00 0. -1.
         -4   -1    0    0    0  501 -0.00000000000E+00 -0.00000000000E+00 -0.13382075930E+04  0.13382075930E+04  0.00000000000E+00 0. -1.
        -13    1    1    2    0    0 -0.20933857976E+03  0.13289027128E+03 -0.27672828773E+03  0.37156563562E+03  0.10566000000E+00 0.  1.
         13    1    1    2    0    0 -0.28978380786E+01 -0.34185194924E+03 -0.87113279370E+03  0.93581168410E+03  0.10566000000E+00 0. -1.
         -4    1    1    2    0  502  0.21223641784E+03  0.20896167796E+03  0.89950918245E+02  0.31112770305E+03  0.00000000000E+00 0. -1.
</event>
<event>
 5    1  0.1008363E-004  0.4760977E+03  0.7818608E-02  0.9635282E-01
         21   -1    0    0  501  502  0.00000000000E+00  0.00000000000E+00  0.75399074262E+03  0.75399074262E+03  0.00000000000E+00 0.  1.
         -4   -1    0    0    0  501 -0.00000000000E+00 -0.00000000000E+00 -0.12264379749E+04  0.12264379749E+04  0.00000000000E+00 0. -1.
        -13    1    1    2    0    0  0.50594989484E+03 -0.46907486238E+03 -0.96129850470E+02  0.69660425057E+03  0.10566000000E+00 0.  1.
         13    1    1    2    0    0 -0.63025286983E+02  0.29447012068E+03 -0.66292361680E+03  0.72811576803E+03  0.10566000000E+00 0. -1.
         -4    1    1    2    0  502 -0.44292460785E+03  0.17460474169E+03  0.28660623502E+03  0.55570869888E+03  0.00000000000E+00 0. -1.
</event>
<event>
 5    1  0.1008363E-004  0.8442115E+02  0.7818608E-02  0.1193271E+00
         -4   -1    0    0    0  501 -0.00000000000E+00  0.00000000000E+00  0.24310486342E+03  0.24310486342E+03  0.00000000000E+00 0. -1.
         21   -1    0    0  501  502  0.00000000000E+00 -0.00000000000E+00 -0.22161759665E+03  0.22161759665E+03  0.00000000000E+00 0.  1.
        -13    1    1    2    0    0  0.91484519628E+02 -0.20571939301E+01 -0.98477305496E+02  0.13443005706E+03  0.10566000000E+00 0.  1.
         13    1    1    2    0    0 -0.75804458393E+02 -0.37577713488E+02  0.21233023510E+03  0.22856627128E+03  0.10566000000E+00 0. -1.
         -4    1    1    2    0  502 -0.15680061235E+02  0.39634907418E+02 -0.92365662840E+02  0.10172613174E+03  0.00000000000E+00 0. -1.
</event>
<event>
 5    1  0.1008363E-004  0.1132440E+03  0.7818608E-02  0.1194682E+00
         -4   -1    0    0    0  501 -0.00000000000E+00  0.00000000000E+00  0.36352406946E+03  0.36352406946E+03  0.00000000000E+00 0. -1.
         21   -1    0    0  501  502  0.00000000000E+00 -0.00000000000E+00 -0.76564445578E+02  0.76564445578E+02  0.00000000000E+00 0. -1.
        -13    1    1    2    0    0 -0.19215292462E+02 -0.27877775763E+02  0.31307571921E+02  0.46114781464E+02  0.10566000000E+00 0.  1.
         13    1    1    2    0    0 -0.97391829481E+02  0.24057770524E+02  0.25848503324E+03  0.27726966719E+03  0.10566000000E+00 0. -1.
         -4    1    1    2    0  502  0.11660712194E+03  0.38200052396E+01 -0.28329812744E+01  0.11670406639E+03  0.00000000000E+00 0. -1.
</event>
<event>
 5    1  0.1008363E-004  0.2437496E+03  0.7818608E-02  0.1035021E+00
         -4   -1    0    0    0  501 -0.00000000000E+00  0.00000000000E+00  0.11495385562E+04  0.11495385562E+04  0.00000000000E+00 0. -1.
         21   -1    0    0  501  502  0.00000000000E+00 -0.00000000000E+00 -0.58450581987E+03  0.58450581987E+03  0.00000000000E+00 0. -1.
        -13    1    1    2    0    0  0.19523127717E+03  0.12892918162E+03  0.70154163243E+03  0.73952596888E+03  0.10566000000E+00 0.  1.
         13    1    1    2    0    0 -0.29846423806E+03  0.93979103292E+02  0.33774581691E+03  0.46041852836E+03  0.10566000000E+00 0. -1.
         -4    1    1    2    0  502  0.10323296088E+03 -0.22290828492E+03 -0.47425471304E+03  0.53409987880E+03  0.00000000000E+00 0. -1.
</event>
<event>
 5    1  0.1008363E-004  0.9886392E+03  0.7818608E-02  0.8785339E-01
         21   -1    0    0  501  502  0.00000000000E+00  0.00000000000E+00  0.63015544317E+03  0.63015544317E+03  0.00000000000E+00 0. -1.
          4   -1    0    0  502    0 -0.00000000000E+00 -0.00000000000E+00 -0.22477702802E+04  0.22477702802E+04  0.00000000000E+00 0.  1.
        -13    1    1    2    0    0  0.10997111687E+03  0.10946563529E+04 -0.41343277043E+03  0.11752841547E+04  0.10566000000E+00 0.  1.
         13    1    1    2    0    0 -0.36595141835E+01 -0.94203958346E+03 -0.11876639811E+04  0.15159148102E+04  0.10566000000E+00 0. -1.
          4    1    1    2  501    0 -0.10631160268E+03 -0.15261676942E+03 -0.16518085575E+02  0.18672675846E+03  0.00000000000E+00 0.  1.
</event>
<event>
 5    1  0.1008363E-004  0.1403419E+03  0.7818608E-02  0.1111048E+00
         -4   -1    0    0    0  501 -0.00000000000E+00  0.00000000000E+00  0.21434431304E+03  0.21434431304E+03  0.00000000000E+00 0. -1.
         21   -1    0    0  501  502  0.00000000000E+00 -0.00000000000E+00 -0.21938486241E+03  0.21938486241E+03  0.00000000000E+00 0. -1.
        -13    1    1    2    0    0 -0.10034306641E+03  0.20391764266E+02 -0.73144122750E+01  0.10265508666E+03  0.10566000000E+00 0.  1.
         13    1    1    2    0    0  0.18601833616E+03  0.32811882959E+02  0.78605814975E+02  0.20459307506E+03  0.10566000000E+00 0. -1.
         -4    1    1    2    0  502 -0.85675269752E+02 -0.53203647225E+02 -0.76331952078E+02  0.12648101373E+03  0.00000000000E+00 0. -1.
</event>
<event>
 5    1  0.1008363E-004  0.2529537E+03  0.7818608E-02  0.1028873E+00
         21   -1    0    0  501  502  0.00000000000E+00  0.00000000000E+00  0.27478006423E+03  0.27478006423E+03  0.00000000000E+00 0. -1.
          4   -1    0    0  502    0 -0.00000000000E+00 -0.00000000000E+00 -0.35406528250E+03  0.35406528250E+03  0.00000000000E+00 0.  1.
        -13    1    1    2    0    0 -0.59329456108E+01  0.24855722915E+03  0.67507948926E+02  0.25763002608E+03  0.10566000000E+00 0.  1.
         13    1    1    2    0    0  0.76892847778E+02 -0.24621463795E+03 -0.15306808848E+03  0.29994000876E+03  0.10566000000E+00 0. -1.
          4    1    1    2  501    0 -0.70959902167E+02 -0.23425912008E+01  0.62749212848E+01  0.71275311898E+02  0.00000000000E+00 0.  1.
</event>
<event>
 5    1  0.1008363E-004  0.2191242E+03  0.7818608E-02  0.1047761E+00
         -4   -1    0    0    0  501 -0.00000000000E+00  0.00000000000E+00  0.73878927314E+03  0.73878927314E+03  0.00000000000E+00 0. -1.
         21   -1    0    0  501  502  0.00000000000E+00 -0.00000000000E+00 -0.11501959590E+03  0.11501959590E+03  0.00000000000E+00 0.  1.
        -13    1    1    2    0    0  0.22311981161E+03 -0.45929805587E+02  0.62429819550E+02  0.23619799091E+03  0.10566000000E+00 0.  1.
         13    1    1    2    0    0 -0.21150607565E+03  0.49079412530E+02  0.56479405129E+03  0.60509167926E+03  0.10566000000E+00 0. -1.
         -4    1    1    2    0  502 -0.11613735964E+02 -0.31496069434E+01 -0.34541936006E+01  0.12519198871E+02  0.00000000000E+00 0. -1.
</event>
<event>
 5    1  0.1008363E-004  0.2467642E+03  0.7818608E-02  0.1032083E+00
         21   -1    0    0  501  502  0.00000000000E+00  0.00000000000E+00  0.15645777186E+03  0.15645777186E+03  0.00000000000E+00 0.  1.
         -4   -1    0    0    0  501 -0.00000000000E+00 -0.00000000000E+00 -0.59007637907E+03  0.59007637907E+03  0.00000000000E+00 0. -1.
        -13    1    1    2    0    0  0.10430546423E+03 -0.22412931206E+03 -0.15716243690E+02  0.24771069794E+03  0.10566000000E+00 0.  1.
         13    1    1    2    0    0 -0.93225177919E+02  0.22840596790E+03 -0.41967645800E+03  0.48681470863E+03  0.10566000000E+00 0. -1.
         -4    1    1    2    0  502 -0.11080286306E+02 -0.42766558373E+01  0.17740944844E+01  0.12008744356E+02  0.00000000000E+00 0. -1.
</event>
<event>
 5    1  0.1008363E-004  0.4528162E+03  0.7818608E-02  0.9587856E-01
         21   -1    0    0  501  502  0.00000000000E+00  0.00000000000E+00  0.24020956399E+03  0.24020956399E+03  0.00000000000E+00 0.  1.
          4   -1    0    0  502    0 -0.00000000000E+00 -0.00000000000E+00 -0.23825627330E+04  0.23825627330E+04  0.00000000000E+00 0.  1.
        -13    1    1    2    0    0  0.15198502213E+03  0.50248314270E+03 -0.14345487697E+04  0.15275859843E+04  0.10566000000E+00 0.  1.
         13    1    1    2    0    0  0.18362434588E+03 -0.37883220044E+03 -0.57721296395E+03  0.71442743047E+03  0.10566000000E+00 0. -1.
          4    1    1    2  501    0 -0.33560936800E+03 -0.12365094226E+03 -0.13059143539E+03  0.38075888224E+03  0.00000000000E+00 0.  1.
</event>
<event>
 5    1  0.1008363E-004  0.1086022E+03  0.7818608E-02  0.1151057E+00
         21   -1    0    0  501  502  0.00000000000E+00  0.00000000000E+00  0.57567998096E+03  0.57567998096E+03  0.00000000000E+00 0.  1.
         -4   -1    0    0    0  501 -0.00000000000E+00 -0.00000000000E+00 -0.53305016096E+03  0.53305016096E+03  0.00000000000E+00 0. -1.
        -13    1    1    2    0    0 -0.81056044526E+02 -0.90820729567E+02  0.23765294035E+03  0.26701576451E+03  0.10566000000E+00 0.  1.
         13    1    1    2    0    0  0.67719278871E+02  0.84530866314E+02 -0.51253793991E+03  0.52385734613E+03  0.10566000000E+00 0. -1.
         -4    1    1    2    0  502  0.13336765655E+02  0.62898632527E+01  0.31751481955E+03  0.31785703128E+03  0.00000000000E+00 0. -1.
</event>
<event>
 5    1  0.1008363E-004  0.4963400E+03  0.7818608E-02  0.9612074E-01
         21   -1    0    0  501  502  0.00000000000E+00  0.00000000000E+00  0.20969486210E+03  0.20969486210E+03  0.00000000000E+00 0.  1.
          4   -1    0    0  502    0 -0.00000000000E+00 -0.00000000000E+00 -0.22709862582E+04  0.22709862582E+04  0.00000000000E+00 0.  1.
        -13    1    1    2    0    0  0.23206692566E+03 -0.58512720246E+03 -0.63954881341E+03  0.89735812079E+03  0.10566000000E+00 0.  1.
         13    1    1    2    0    0  0.34128857796E+02  0.31360118085E+03 -0.68960981128E+03  0.75833513867E+03  0.10566000000E+00 0. -1.
          4    1    1    2  501    0 -0.26619578346E+03  0.27152602161E+03 -0.73213277137E+03  0.82498786079E+03  0.00000000000E+00 0.  1.
</event>
<event>
 5    1  0.1008363E-004  0.2080326E+03  0.7818608E-02  0.1111594E+00
         21   -1    0    0  501  502  0.00000000000E+00  0.00000000000E+00  0.18297303129E+03  0.18297303129E+03  0.00000000000E+00 0.  1.
          4   -1    0    0  502    0 -0.00000000000E+00 -0.00000000000E+00 -0.31928030135E+03  0.31928030135E+03  0.00000000000E+00 0.  1.
        -13    1    1    2    0    0  0.48517451397E+01  0.22050855946E+03 -0.13196421689E+03  0.25702554334E+03  0.10566000000E+00 0.  1.
         13    1    1    2    0    0 -0.37141573173E+02 -0.20591350440E+02  0.31201083722E+01  0.42582231165E+02  0.10566000000E+00 0. -1.
          4    1    1    2  501    0  0.32289828033E+02 -0.19991720902E+03 -0.74631615456E+01  0.20264555815E+03  0.00000000000E+00 0.  1.
</event>
<event>
 5    1  0.1008363E-004  0.4743677E+03  0.7818608E-02  0.9744207E-01
         21   -1    0    0  501  502  0.00000000000E+00  0.00000000000E+00  0.10922843993E+03  0.10922843993E+03  0.00000000000E+00 0.  1.
         -4   -1    0    0    0  501 -0.00000000000E+00 -0.00000000000E+00 -0.33735391529E+04  0.33735391529E+04  0.00000000000E+00 0. -1.
        -13    1    1    2    0    0 -0.82351908567E+02  0.21215464104E+03 -0.68211840265E+03  0.71908063175E+03  0.10566000000E+00 0.  1.
         13    1    1    2    0    0 -0.41061537731E+03 -0.24603570657E+03 -0.14878648018E+04  0.15629716046E+04  0.10566000000E+00 0. -1.
         -4    1    1    2    0  502  0.49296728588E+03  0.33881065536E+02 -0.10943275084E+04  0.12007153565E+04  0.00000000000E+00 0. -1.
</event>
<event>
 5    1  0.1008363E-004  0.1346138E+03  0.7818608E-02  0.1117362E+00
         -4   -1    0    0    0  501 -0.00000000000E+00  0.00000000000E+00  0.84454179264E+02  0.84454179264E+02  0.00000000000E+00 0. -1.
         21   -1    0    0  501  502  0.00000000000E+00 -0.00000000000E+00 -0.40842358127E+03  0.40842358127E+03  0.00000000000E+00 0. -1.
        -13    1    1    2    0    0 -0.53363216969E+02  0.12159992945E+03 -0.16733733346E+03  0.21362577115E+03  0.10566000000E+00 0.  1.
         13    1    1    2    0    0  0.90493255582E+02 -0.10320281714E+03 -0.22784250697E+02  0.13913656606E+03  0.10566000000E+00 0. -1.
         -4    1    1    2    0  502 -0.37130038613E+02 -0.18397112314E+02 -0.13384781785E+03  0.14011542332E+03  0.00000000000E+00 0. -1.
</event>
<event>
 5    1  0.1008363E-004  0.3634514E+02  0.7818608E-02  0.1416268E+00
         21   -1    0    0  501  502  0.00000000000E+00  0.00000000000E+00  0.25810607020E+03  0.25810607020E+03  0.00000000000E+00 0.  1.
          4   -1    0    0  502    0 -0.00000000000E+00 -0.00000000000E+00 -0.78253032366E+02  0.78253032366E+02  0.00000000000E+00 0.  1.
        -13    1    1    2    0    0  0.40113242088E+01  0.13463339121E+02 -0.68179880491E+02  0.69612207909E+02  0.10566000000E+00 0.  1.
         13    1    1    2    0    0 -0.37355617436E+02  0.99789913774E+00  0.36930773979E+02  0.52538854075E+02  0.10566000000E+00 0. -1.
          4    1    1    2  501    0  0.33344293228E+02 -0.14461238259E+02  0.21110214434E+03  0.21420804058E+03  0.00000000000E+00 0.  1.
</event>
<event>
 5    1  0.1008363E-004  0.1918230E+03  0.7818608E-02  0.1065891E+00
         21   -1    0    0  501  502  0.00000000000E+00  0.00000000000E+00  0.46075813283E+03  0.46075813283E+03  0.00000000000E+00 0. -1.
         -4   -1    0    0    0  501 -0.00000000000E+00 -0.00000000000E+00 -0.44747255781E+03  0.44747255781E+03  0.00000000000E+00 0. -1.
        -13    1    1    2    0    0 -0.10530492362E+03 -0.15347053551E+03 -0.11115614361E+03  0.21679029414E+03  0.10566000000E+00 0.  1.
         13    1    1    2    0    0  0.15491164987E+03  0.17905696021E+03  0.37019108349E+03  0.43943197850E+03  0.10566000000E+00 0. -1.
         -4    1    1    2    0  502 -0.49606726253E+02 -0.25586424704E+02 -0.24574936485E+03  0.25200841800E+03  0.00000000000E+00 0. -1.
</event>
<event>
 5    1  0.1008363E-004  0.4274825E+03  0.7818608E-02  0.1037300E+00
         21   -1    0    0  501  502  0.00000000000E+00  0.00000000000E+00  0.34916107832E+03  0.34916107832E+03  0.00000000000E+00 0. -1.
         -4   -1    0    0    0  501 -0.00000000000E+00 -0.00000000000E+00 -0.89177945447E+03  0.89177945447E+03  0.00000000000E+00 0. -1.
        -13    1    1    2    0    0  0.36388668390E+02  0.17685923033E+02 -0.17212668485E+03  0.17681779849E+03  0.10566000000E+00 0.  1.
         13    1    1    2    0    0  0.19921908223E+02 -0.43081092017E+03  0.92481744841E+02  0.44107574821E+03  0.10566000000E+00 0. -1.
         -4    1    1    2    0  502 -0.56310576613E+02  0.41312499714E+03 -0.46297343614E+03  0.62304698609E+03  0.00000000000E+00 0. -1.
</event>
<event>
 5    1  0.1008363E-004  0.2349162E+03  0.7818608E-02  0.1043647E+00
         21   -1    0    0  501  502  0.00000000000E+00  0.00000000000E+00  0.11847273379E+04  0.11847273379E+04  0.00000000000E+00 0.  1.
          4   -1    0    0  502    0 -0.00000000000E+00 -0.00000000000E+00 -0.33374482876E+03  0.33374482876E+03  0.00000000000E+00 0.  1.
        -13    1    1    2    0    0  0.20712669244E+03  0.33854676998E+02 -0.19354435140E+03  0.28549436597E+03  0.10566000000E+00 0.  1.
         13    1    1    2    0    0 -0.92847771030E+02  0.17847413937E+03  0.46834900186E+02  0.20656051425E+03  0.10566000000E+00 0. -1.
          4    1    1    2  501    0 -0.11427892141E+03 -0.21232881636E+03  0.99769196038E+03  0.10264172865E+04  0.00000000000E+00 0.  1.
</event>
<event>
 5    1  0.1008363E-004  0.3092966E+03  0.7818608E-02  0.1037089E+00
         -4   -1    0    0    0  501 -0.00000000000E+00  0.00000000000E+00  0.12796331757E+04  0.12796331757E+04  0.00000000000E+00 0. -1.
         21   -1    0    0  501  502  0.00000000000E+00 -0.00000000000E+00 -0.26247707891E+03  0.26247707891E+03  0.00000000000E+00 0. -1.
        -13    1    1    2    0    0 -0.92838622377E+02  0.54208725476E+02  0.27039656398E+03  0.29098437879E+03  0.10566000000E+00 0.  1.
         13    1    1    2    0    0  0.37843451649E+02  0.30220590236E+03 -0.10820316060E+03  0.32321582477E+03  0.10566000000E+00 0. -1.
         -4    1    1    2    0  502  0.54995170729E+02 -0.35641462783E+03  0.85496269344E+03  0.92791005109E+03  0.00000000000E+00 0. -1.
</event>
<event>
 5    1  0.1008363E-004  0.3624209E+03  0.7818608E-02  0.9844332E-01
          4   -1    0    0  502    0 -0.00000000000E+00  0.00000000000E+00  0.23716870960E+04  0.23716870960E+04  0.00000000000E+00 0.  1.
         21   -1    0    0  501  502  0.00000000000E+00 -0.00000000000E+00 -0.10812430555E+03  0.10812430555E+03  0.00000000000E+00 0. -1.
        -13    1    1    2    0    0 -0.32712077538E+03  0.13586389538E+03  0.45860719205E+03  0.57947180045E+03  0.10566000000E+00 0.  1.
         13    1    1    2    0    0  0.32901203089E+03 -0.15800958189E+03  0.18304688887E+04  0.18665026944E+04  0.10566000000E+00 0. -1.
          4    1    1    2  501    0 -0.18912555042E+01  0.22145686510E+02 -0.25513290274E+02  0.33836906758E+02  0.00000000000E+00 0.  1.
</event>
<event>
 5    1  0.1008363E-004  0.2910625E+03  0.7818608E-02  0.1011064E+00
         21   -1    0    0  501  502  0.00000000000E+00  0.00000000000E+00  0.40387302783E+03  0.40387302783E+03  0.00000000000E+00 0.  1.
         -4   -1    0    0    0  501 -0.00000000000E+00 -0.00000000000E+00 -0.39364308312E+03  0.39364308312E+03  0.00000000000E+00 0. -1.
        -13    1    1    2    0    0  0.23737352905E+03  0.11905874830E+03  0.26085200782E+03  0.37224314498E+03  0.10566000000E+00 0.  1.
         13    1    1    2    0    0 -0.24927100017E+03 -0.16186070142E+03 -0.23227394378E+03  0.37720831687E+03  0.10566000000E+00 0. -1.
         -4    1    1    2    0  502  0.11897471121E+02  0.42801953120E+02 -0.18348119329E+02  0.48064649097E+02  0.00000000000E+00 0. -1.
</event>
<event>
 5    1  0.1008363E-004  0.5153715E+03  0.7818608E-02  0.1009059E+00
         -4   -1    0    0    0  501 -0.00000000000E+00  0.00000000000E+00  0.67644861728E+03  0.67644861728E+03  0.00000000000E+00 0. -1.
         21   -1    0    0  501  502  0.00000000000E+00 -0.00000000000E+00 -0.46499565425E+03  0.46499565425E+03  0.00000000000E+00 0. -1.
        -13    1    1    2    0    0 -0.37366151002E+02 -0.41601793207E+02  0.77709562931E+02  0.95737796996E+02  0.10566000000E+00 0.  1.
         13    1    1    2    0    0 -0.19377536766E+03  0.49153382100E+03  0.10762872914E+03  0.53920158086E+03  0.10566000000E+00 0. -1.
         -4    1    1    2    0  502  0.23114151866E+03 -0.44993202779E+03  0.26114670958E+02  0.50650489368E+03  0.00000000000E+00 0. -1.
</event>
<event>
 5    1  0.1008363E-004  0.2491172E+03  0.7818608E-02  0.1030851E+00
         21   -1    0    0  501  502  0.00000000000E+00  0.00000000000E+00  0.64872339978E+03  0.64872339978E+03  0.00000000000E+00 0.  1.
         -4   -1    0    0    0  501 -0.00000000000E+00 -0.00000000000E+00 -0.60808836906E+03  0.60808836906E+03  0.00000000000E+00 0. -1.
        -13    1    1    2    0    0 -0.19866370836E+03 -0.14910081742E+03  0.34932559647E+03  0.42863353379E+03  0.10566000000E+00 0.  1.
         13    1    1    2    0    0  0.20559614447E+03  0.14079279285E+03 -0.54099390164E+03  0.59562303340E+03  0.10566000000E+00 0. -1.
         -4    1    1    2    0  502 -0.69324361072E+01  0.83080245734E+01  0.23230333590E+03  0.23255520165E+03  0.00000000000E+00 0. -1.
</event>
<event>
 5    1  0.1008363E-004  0.2438601E+03  0.7818608E-02  0.1033624E+00
          4   -1    0    0  502    0 -0.00000000000E+00  0.00000000000E+00  0.12020473036E+04  0.12020473036E+04  0.00000000000E+00 0.  1.
         21   -1    0    0  501  502  0.00000000000E+00 -0.00000000000E+00 -0.94168418272E+02  0.94168418272E+02  0.00000000000E+00 0.  1.
        -13    1    1    2    0    0 -0.19185233585E+03  0.14608855033E+03  0.87844929611E+03  0.91094586026E+03  0.10566000000E+00 0.  1.
         13    1    1    2    0    0  0.20435066688E+03 -0.14854932985E+03  0.25358934997E+03  0.35795763441E+03  0.10566000000E+00 0. -1.
          4    1    1    2  501    0 -0.12498331028E+02  0.24607795180E+01 -0.24159760760E+02  0.27312227194E+02  0.00000000000E+00 0.  1.
</event>
<event>
 5    1  0.1008363E-004  0.5215501E+03  0.7818608E-02  0.9431950E-01
          4   -1    0    0  502    0 -0.00000000000E+00  0.00000000000E+00  0.34606357071E+04  0.34606357071E+04  0.00000000000E+00 0.  1.
         21   -1    0    0  501  502  0.00000000000E+00 -0.00000000000E+00 -0.20492198229E+03  0.20492198229E+03  0.00000000000E+00 0. -1.
        -13    1    1    2    0    0  0.19659092087E+03 -0.59771986929E+03  0.14412104412E+04  0.15725789580E+04  0.10566000000E+00 0.  1.
         13    1    1    2    0    0  0.19406824709E+03  0.46960538280E+03  0.14740927435E+04  0.15592117008E+04  0.10566000000E+00 0. -1.
          4    1    1    2  501    0 -0.39065916796E+03  0.12811448648E+03  0.34041054015E+03  0.53376703065E+03  0.00000000000E+00 0.  1.
</event>
<event>
 5    1  0.1008363E-004  0.2901517E+03  0.7818608E-02  0.1011455E+00
         21   -1    0    0  501  502  0.00000000000E+00  0.00000000000E+00  0.11122933564E+03  0.11122933564E+03  0.00000000000E+00 0.  1.
         -4   -1    0    0    0  501 -0.00000000000E+00 -0.00000000000E+00 -0.18754839798E+04  0.18754839798E+04  0.00000000000E+00 0. -1.
        -13    1    1    2    0    0  0.22989576819E+03 -0.18723578572E+03 -0.10046193470E+04  0.10474585181E+04  0.10566000000E+00 0.  1.
         13    1    1    2    0    0 -0.21366474897E+03  0.15512174633E+03 -0.10582395368E+03  0.28445404105E+03  0.10566000000E+00 0. -1.
         -4    1    1    2    0  502 -0.16231019223E+02  0.32114039388E+02 -0.65381134355E+03  0.65480075632E+03  0.00000000000E+00 0. -1.
</event>
<event>
 5    1  0.1008363E-004  0.6503598E+03  0.7818608E-02  0.9198276E-01
         -4   -1    0    0    0  501 -0.00000000000E+00  0.00000000000E+00  0.17854295988E+04  0.17854295988E+04  0.00000000000E+00 0. -1.
         21   -1    0    0  501  502  0.00000000000E+00 -0.00000000000E+00 -0.50456986384E+03  0.50456986384E+03  0.00000000000E+00 0. -1.
        -13    1    1    2    0    0 -0.28920951702E+03  0.56729356626E+03  0.70138789249E+03  0.94731680127E+03  0.10566000000E+00 0.  1.
         13    1    1    2    0    0 -0.89022170652E+02 -0.76124159779E+03  0.25432715202E+03  0.80752463027E+03  0.10566000000E+00 0. -1.
         -4    1    1    2    0  502  0.37823168768E+03  0.19394803153E+03  0.32514469040E+03  0.53515803105E+03  0.00000000000E+00 0. -1.
</event>
<event>
 5    1  0.1008363E-004  0.4508828E+03  0.7818608E-02  0.1001370E+00
         -4   -1    0    0    0  501 -0.00000000000E+00  0.00000000000E+00  0.71357207962E+03  0.71357207962E+03  0.00000000000E+00 0. -1.
         21   -1    0    0  501  502  0.00000000000E+00 -0.00000000000E+00 -0.43275735916E+03  0.43275735916E+03  0.00000000000E+00 0. -1.
        -13    1    1    2    0    0 -0.21950473712E+02 -0.10488847478E+03  0.18159586337E+03  0.21085654885E+03  0.10566000000E+00 0.  1.
         13    1    1    2    0    0  0.59556316076E+02 -0.40698413728E+03 -0.68477309949E+01  0.41137567425E+03  0.10566000000E+00 0. -1.
         -4    1    1    2    0  502 -0.37605842364E+02  0.51187261206E+03  0.10606658809E+03  0.52409721567E+03  0.00000000000E+00 0. -1.
</event>
<event>
 5    1  0.1008363E-004  0.2367139E+03  0.7818608E-02  0.1037517E+00
         21   -1    0    0  501  502  0.00000000000E+00  0.00000000000E+00  0.55201880607E+02  0.55201880607E+02  0.00000000000E+00 0.  1.
         -4   -1    0    0    0  501 -0.00000000000E+00 -0.00000000000E+00 -0.21825077051E+04  0.21825077051E+04  0.00000000000E+00 0. -1.
        -13    1    1    2    0    0 -0.16616462632E+03 -0.24136704436E+03 -0.10993094292E+04  0.11376950231E+04  0.10566000000E+00 0.  1.
         13    1    1    2    0    0  0.74389907684E+02  0.19266271510E+03 -0.94423742711E+03  0.96655941880E+03  0.10566000000E+00 0. -1.
         -4    1    1    2    0  502  0.91774718632E+02  0.48704329261E+02 -0.83758968117E+02  0.13345514381E+03  0.00000000000E+00 0. -1.
</event>
<event>
 5    1  0.1008363E-004  0.5536961E+02  0.7818608E-02  0.1271347E+00
         21   -1    0    0  501  502  0.00000000000E+00  0.00000000000E+00  0.26837002697E+03  0.26837002697E+03  0.00000000000E+00 0. -1.
          4   -1    0    0  502    0 -0.00000000000E+00 -0.00000000000E+00 -0.40983987502E+02  0.40983987502E+02  0.00000000000E+00 0.  1.
        -13    1    1    2    0    0 -0.20601809490E+02 -0.52775837846E+02 -0.30082306918E+01  0.56734330265E+02  0.10566000000E+00 0.  1.
         13    1    1    2    0    0 -0.21041853144E+02  0.57889391127E+02  0.13282655585E+03  0.14641327225E+03  0.10566000000E+00 0. -1.
          4    1    1    2  501    0  0.41643662635E+02 -0.51135532804E+01  0.97567714311E+02  0.10620641196E+03  0.00000000000E+00 0.  1.
</event>
<event>
 5    1  0.1008363E-004  0.5017805E+03  0.7818608E-02  0.9491812E-01
         -4   -1    0    0    0  501 -0.00000000000E+00  0.00000000000E+00  0.89429275061E+03  0.89429275061E+03  0.00000000000E+00 0. -1.
         21   -1    0    0  501  502  0.00000000000E+00 -0.00000000000E+00 -0.72356634781E+03  0.72356634781E+03  0.00000000000E+00 0.  1.
        -13    1    1    2    0    0  0.35595826676E+03  0.30746385556E+03  0.18277384452E+03  0.50462520701E+03  0.10566000000E+00 0.  1.
         13    1    1    2    0    0  0.30107539271E+03 -0.10309785380E+03  0.22022185278E+03  0.38700547175E+03  0.10566000000E+00 0. -1.
         -4    1    1    2    0  502 -0.65703365947E+03 -0.20436600175E+03 -0.23226929450E+03  0.72622841966E+03  0.00000000000E+00 0. -1.
</event>
<event>
 5    1  0.1008363E-004  0.4929312E+03  0.7818608E-02  0.9751004E-01
         21   -1    0    0  501  502  0.00000000000E+00  0.00000000000E+00  0.58656146081E+03  0.58656146081E+03  0.00000000000E+00 0. -1.
         -4   -1    0    0    0  501 -0.00000000000E+00 -0.00000000000E+00 -0.67586478265E+03  0.67586478265E+03  0.00000000000E+00 0. -1.
        -13    1    1    2    0    0  0.44762838680E+02 -0.19299859576E+03 -0.15583733048E+03  0.25206636909E+03  0.10566000000E+00 0.  1.
         13    1    1    2    0    0 -0.36721971313E+03  0.44006587622E+03  0.15681443036E+03  0.59422139801E+03  0.10566000000E+00 0. -1.
         -4    1    1    2    0  502  0.32245687445E+03 -0.24706728045E+03 -0.90280421723E+02  0.41613847635E+03  0.00000000000E+00 0. -1.
</event>
<event>
 5    1  0.1008363E-004  0.4823428E+03  0.7818608E-02  0.9658095E-01
         21   -1    0    0  501  502  0.00000000000E+00  0.00000000000E+00  0.16555492435E+03  0.16555492435E+03  0.00000000000E+00 0. -1.
         -4   -1    0    0    0  501 -0.00000000000E+00 -0.00000000000E+00 -0.32770938648E+04  0.32770938648E+04  0.00000000000E+00 0. -1.
        -13    1    1    2    0    0  0.26572887287E+03 -0.12145484090E+03 -0.14419983488E+04  0.14712995485E+04  0.10566000000E+00 0.  1.
         13    1    1    2    0    0  0.90070590342E+02  0.48884034602E+03 -0.55490398034E+03  0.74498055928E+03  0.10566000000E+00 0. -1.
         -4    1    1    2    0  502 -0.35579946321E+03 -0.36738550512E+03 -0.11146366113E+04  0.12263686813E+04  0.00000000000E+00 0. -1.
</event>
<event>
 5    1  0.1008363E-004  0.4927340E+03  0.7818608E-02  0.9659734E-01
         21   -1    0    0  501  502  0.00000000000E+00  0.00000000000E+00  0.67659958805E+03  0.67659958805E+03  0.00000000000E+00 0. -1.
         -4   -1    0    0    0  501 -0.00000000000E+00 -0.00000000000E+00 -0.12043157692E+04  0.12043157692E+04  0.00000000000E+00 0. -1.
        -13    1    1    2    0    0 -0.24447403298E+03  0.12036542965E+03 -0.75388512901E+03  0.80162222297E+03  0.10566000000E+00 0.  1.
         13    1    1    2    0    0  0.92944660927E+02 -0.56460123873E+03  0.37509377501E+02  0.57342849017E+03  0.10566000000E+00 0. -1.
         -4    1    1    2    0  502  0.15152937205E+03  0.44423580908E+03  0.18865957037E+03  0.50586464410E+03  0.00000000000E+00 0. -1.
</event>
<event>
 5    1  0.1008363E-004  0.4126357E+03  0.7818608E-02  0.9726383E-01
         21   -1    0    0  501  502  0.00000000000E+00  0.00000000000E+00  0.86622544899E+03  0.86622544899E+03  0.00000000000E+00 0.  1.
          4   -1    0    0  502    0 -0.00000000000E+00 -0.00000000000E+00 -0.56277373177E+03  0.56277373177E+03  0.00000000000E+00 0.  1.
        -13    1    1    2    0    0  0.60718699396E+03 -0.20613986982E+02 -0.12189035184E+00  0.60753683684E+03  0.10566000000E+00 0.  1.
         13    1    1    2    0    0 -0.29346706210E+03  0.22161268214E+03  0.50828510835E+02  0.37123933803E+03  0.10566000000E+00 0. -1.
          4    1    1    2  501    0 -0.31371993186E+03 -0.20099869516E+03  0.25274509674E+03  0.45022300589E+03  0.00000000000E+00 0.  1.
</event>
<event>
 5    1  0.1008363E-004  0.8640299E+03  0.7818608E-02  0.8914050E-01
         -4   -1    0    0    0  501 -0.00000000000E+00  0.00000000000E+00  0.42097318914E+04  0.42097318914E+04  0.00000000000E+00 0. -1.
         21   -1    0    0  501  502  0.00000000000E+00 -0.00000000000E+00 -0.36700497284E+03  0.36700497284E+03  0.00000000000E+00 0.  1.
        -13    1    1    2    0    0  0.81653475987E+03 -0.61226061005E+03  0.12140810698E+04  0.15860595587E+04  0.10566000000E+00 0.  1.
         13    1    1    2    0    0 -0.32088866819E+03  0.77212312629E+03  0.20400739254E+04  0.22047778328E+04  0.10566000000E+00 0. -1.
         -4    1    1    2    0  502 -0.49564609168E+03 -0.15986251624E+03  0.58857192343E+03  0.78589947280E+03  0.00000000000E+00 0. -1.
</event>
<event>
 5    1  0.1008363E-004  0.9240386E+02  0.7818608E-02  0.1198984E+00
         -4   -1    0    0    0  501 -0.00000000000E+00  0.00000000000E+00  0.21519650645E+03  0.21519650645E+03  0.00000000000E+00 0. -1.
         21   -1    0    0  501  502  0.00000000000E+00 -0.00000000000E+00 -0.28832190623E+03  0.28832190623E+03  0.00000000000E+00 0. -1.
        -13    1    1    2    0    0 -0.30297632864E+02  0.47665715096E+02 -0.97789213334E+02  0.11292789010E+03  0.10566000000E+00 0.  1.
         13    1    1    2    0    0  0.11315979704E+03 -0.78473009948E+01  0.17843272767E+03  0.21143549670E+03  0.10566000000E+00 0. -1.
         -4    1    1    2    0  502 -0.82862164172E+02 -0.39818414101E+02 -0.15376891411E+03  0.17915502588E+03  0.00000000000E+00 0. -1.
</event>
<event>
 5    1  0.1008363E-004  0.7070816E+03  0.7818608E-02  0.9112768E-01
         21   -1    0    0  501  502  0.00000000000E+00  0.00000000000E+00  0.12257088281E+04  0.12257088281E+04  0.00000000000E+00 0.  1.
          4   -1    0    0  502    0 -0.00000000000E+00 -0.00000000000E+00 -0.93793886534E+03  0.93793886534E+03  0.00000000000E+00 0.  1.
        -13    1    1    2    0    0  0.38102570485E+03  0.59469436200E+03  0.31089201149E+03  0.77168376030E+03  0.10566000000E+00 0.  1.
         13    1    1    2    0    0 -0.76414900392E+03 -0.22925394499E+03  0.19182280948E+03  0.82053462626E+03  0.10566000000E+00 0. -1.
          4    1    1    2  501    0  0.38312329908E+03 -0.36544041701E+03 -0.21494485822E+03  0.57142930687E+03  0.00000000000E+00 0.  1.
</event>
<event>
 5    1  0.1008363E-004  0.4872532E+03  0.7818608E-02  0.9755821E-01
         21   -1    0    0  501  502  0.00000000000E+00  0.00000000000E+00  0.21950318120E+03  0.21950318120E+03  0.00000000000E+00 0. -1.
         -4   -1    0    0    0  501 -0.00000000000E+00 -0.00000000000E+00 -0.17595109576E+04  0.17595109576E+04  0.00000000000E+00 0. -1.
        -13    1    1    2    0    0 -0.61679321383E+02  0.19209281459E+03 -0.38645135610E+03  0.43594569604E+03  0.10566000000E+00 0.  1.
         13    1    1    2    0    0 -0.28900251931E+03 -0.48036327395E+03 -0.74479887419E+03  0.93219992775E+03  0.10566000000E+00 0. -1.
         -4    1    1    2    0  502  0.35068184070E+03  0.28827045937E+03 -0.40875754612E+03  0.61086851503E+03  0.00000000000E+00 0. -1.
</event>
<event>
 5    1  0.1008363E-004  0.4747097E+03  0.7818608E-02  0.9570519E-01
         21   -1    0    0  501  502  0.00000000000E+00  0.00000000000E+00  0.58013904167E+03  0.58013904167E+03  0.00000000000E+00 0.  1.
         -4   -1    0    0    0  501 -0.00000000000E+00 -0.00000000000E+00 -0.18799121365E+04  0.18799121365E+04  0.00000000000E+00 0. -1.
        -13    1    1    2    0    0  0.16450862010E+03  0.47831190099E+03 -0.12388007908E+04  0.13380854872E+04  0.10566000000E+00 0.  1.
         13    1    1    2    0    0 -0.34585117867E+02  0.89789751832E+02 -0.42439410002E+03  0.43516513326E+03  0.10566000000E+00 0. -1.
         -4    1    1    2    0  502 -0.12992350223E+03 -0.56810165282E+03  0.36342179591E+03  0.68680055774E+03  0.00000000000E+00 0. -1.
</event>
<event>
 5    1  0.1008363E-004  0.4898251E+03  0.7818608E-02  0.9576910E-01
         -4   -1    0    0    0  501 -0.00000000000E+00  0.00000000000E+00  0.64210333152E+03  0.64210333152E+03  0.00000000000E+00 0. -1.
         21   -1    0    0  501  502  0.00000000000E+00 -0.00000000000E+00 -0.13245575619E+04  0.13245575619E+04  0.00000000000E+00 0. -1.
        -13    1    1    2    0    0 -0.36364395791E+03 -0.78389050129E+02  0.33800753897E+03  0.50262399353E+03  0.10566000000E+00 0.  1.
         13    1    1    2    0    0 -0.15634157433E+03 -0.30114611541E+03 -0.12590004656E+03  0.36191505022E+03  0.10566000000E+00 0. -1.
         -4    1    1    2    0  502  0.51998553224E+03  0.37953516554E+03 -0.89456172278E+03  0.11021218496E+04  0.00000000000E+00 0. -1.
</event>
<event>
 5    1  0.1008363E-004  0.4952781E+03  0.7818608E-02  0.9819402E-01
          4   -1    0    0  502    0 -0.00000000000E+00  0.00000000000E+00  0.89341949603E+03  0.89341949603E+03  0.00000000000E+00 0.  1.
         21   -1    0    0  501  502  0.00000000000E+00 -0.00000000000E+00 -0.44139724369E+03  0.44139724369E+03  0.00000000000E+00 0.  1.
        -13    1    1    2    0    0 -0.39578151814E+03 -0.16541782851E+03  0.27034969741E+03  0.50704540048E+03  0.10566000000E+00 0.  1.
         13    1    1    2    0    0 -0.45835375084E+02 -0.14758304226E+03  0.23777482499E+03  0.28358158356E+03  0.10566000000E+00 0. -1.
          4    1    1    2  501    0  0.44161689323E+03  0.31300087077E+03 -0.56102270056E+02  0.54418975568E+03  0.00000000000E+00 0.  1.
</event>
<event>
 5    1  0.1008363E-004  0.3140953E+03  0.7818608E-02  0.1001651E+00
         21   -1    0    0  501  502  0.00000000000E+00  0.00000000000E+00  0.54672648804E+02  0.54672648804E+02  0.00000000000E+00 0. -1.
          4   -1    0    0  502    0 -0.00000000000E+00 -0.00000000000E+00 -0.22450256739E+04  0.22450256739E+04  0.00000000000E+00 0.  1.
        -13    1    1    2    0    0  0.16538251644E+03 -0.26767395750E+03 -0.15173652306E+04  0.15496444684E+04  0.10566000000E+00 0.  1.
         13    1    1    2    0    0 -0.15102157846E+03  0.27433976295E+03 -0.65549791996E+03  0.72646221989E+03  0.10566000000E+00 0. -1.
          4    1    1    2  501    0 -0.14360937981E+02 -0.66658054558E+01 -0.17489874498E+02  0.23591634365E+02  0.00000000000E+00 0.  1.
</event>
<event>
 5    1  0.1008363E-004  0.4926880E+03  0.7818608E-02  0.9700664E-01
         21   -1    0    0  501  502  0.00000000000E+00  0.00000000000E+00  0.90037391815E+03  0.90037391815E+03  0.00000000000E+00 0.  1.
          4   -1    0    0  502    0 -0.00000000000E+00 -0.00000000000E+00 -0.56445725306E+03  0.56445725306E+03  0.00000000000E+00 0.  1.
        -13    1    1    2    0    0  0.30238493166E+03  0.43857060181E+03  0.45930838357E+03  0.70338113569E+03  0.10566000000E+00 0.  1.
         13    1    1    2    0    0 -0.23576485377E+03  0.14718940458E+02 -0.18382640273E+03  0.29932235297E+03  0.10566000000E+00 0. -1.
          4    1    1    2  501    0 -0.66620077881E+02 -0.45328954227E+03  0.60434684250E+02  0.46212768254E+03  0.00000000000E+00 0.  1.
</event>
<event>
 5    1  0.1008363E-004  0.3969029E+03  0.7818608E-02  0.9738033E-01
         -4   -1    0    0    0  501 -0.00000000000E+00  0.00000000000E+00  0.62494796380E+03  0.62494796380E+03  0.00000000000E+00 0. -1.
         21   -1    0    0  501  502  0.00000000000E+00 -0.00000000000E+00 -0.38130080095E+03  0.38130080095E+03  0.00000000000E+00 0.  1.
        -13    1    1    2    0    0 -0.26190316860E+02  0.38424134528E+03  0.23911884353E+03  0.45332678788E+03  0.10566000000E+00 0.  1.
         13    1    1    2    0    0  0.36746338589E+02 -0.41232614036E+03  0.12209244289E+03  0.43158975335E+03  0.10566000000E+00 0. -1.
         -4    1    1    2    0  502 -0.10556021729E+02  0.28084795083E+02 -0.11756412358E+03  0.12133222352E+03  0.00000000000E+00 0. -1.
</event>
<event>
 5    1  0.1008363E-004  0.1071936E+03  0.7818608E-02  0.1153173E+00
         -4   -1    0    0    0  501 -0.00000000000E+00  0.00000000000E+00  0.56191686742E+02  0.56191686742E+02  0.00000000000E+00 0. -1.
         21   -1    0    0  501  502  0.00000000000E+00 -0.00000000000E+00 -0.30052185107E+03  0.30052185107E+03  0.00000000000E+00 0.  1.
        -13    1    1    2    0    0 -0.44605798920E+01  0.10530493150E+03 -0.10302683299E+03  0.14738916124E+03  0.10566000000E+00 0.  1.
         13    1    1    2    0    0 -0.10790456120E+02 -0.10837806836E+03 -0.55722039182E+02  0.12234049394E+03  0.10566000000E+00 0. -1.
         -4    1    1    2    0  502  0.15251036012E+02  0.30731368520E+01 -0.85581292158E+02  0.86983882628E+02  0.00000000000E+00 0. -1.
</event>
<event>
 5    1  0.1008363E-004  0.3741643E+03  0.7818608E-02  0.1016197E+00
         21   -1    0    0  501  502  0.00000000000E+00  0.00000000000E+00  0.53123102545E+03  0.53123102545E+03  0.00000000000E+00 0.  1.
          4   -1    0    0  502    0 -0.00000000000E+00 -0.00000000000E+00 -0.70975956440E+03  0.70975956440E+03  0.00000000000E+00 0.  1.
        -13    1    1    2    0    0  0.35924315792E+03  0.26522396453E+03 -0.20280189802E+03  0.49043655949E+03  0.10566000000E+00 0.  1.
         13    1    1    2    0    0 -0.36632214317E+02 -0.11039182041E+03 -0.26565456214E+03  0.29000108739E+03  0.10566000000E+00 0. -1.
          4    1    1    2  501    0 -0.32261094361E+03 -0.15483214412E+03  0.28992792121E+03  0.46055294298E+03  0.00000000000E+00 0.  1.
</event>
<event>
 5    1  0.1008363E-004  0.1295906E+03  0.7818608E-02  0.1123186E+00
          4   -1    0    0  502    0 -0.00000000000E+00  0.00000000000E+00  0.52563511785E+03  0.52563511785E+03  0.00000000000E+00 0.  1.
         21   -1    0    0  501  502  0.00000000000E+00 -0.00000000000E+00 -0.58344577507E+02  0.58344577507E+02  0.00000000000E+00 0.  1.
        -13    1    1    2    0    0 -0.14197515103E+03  0.43338589378E+02  0.37639342585E+03  0.40460746289E+03  0.10566000000E+00 0.  1.
         13    1    1    2    0    0  0.80469157807E+02 -0.43067632897E+02  0.40484001846E+02  0.99845239902E+02  0.10566000000E+00 0. -1.
          4    1    1    2  501    0  0.61505993222E+02 -0.27095648084E+00  0.50413112644E+02  0.79526992563E+02  0.00000000000E+00 0.  1.
</event>
<event>
 5    1  0.1008363E-004  0.5544672E+02  0.7818608E-02  0.1332096E+00
         21   -1    0    0  501  502  0.00000000000E+00  0.00000000000E+00  0.36147766130E+02  0.36147766130E+02  0.00000000000E+00 0. -1.
         -4   -1    0    0    0  501 -0.00000000000E+00 -0.00000000000E+00 -0.14683220435E+03  0.14683220435E+03  0.00000000000E+00 0. -1.
        -13    1    1    2    0    0 -0.62056729997E+01 -0.15840312664E+02 -0.11946128258E+02  0.20788146311E+02  0.10566000000E+00 0.  1.
         13    1    1    2    0    0  0.51961921771E+02  0.40721558496E+02 -0.86278895730E+02  0.10863860112E+03  0.10566000000E+00 0. -1.
         -4    1    1    2    0  502 -0.45756248771E+02 -0.24881245832E+02 -0.12459414228E+02  0.53553223046E+02  0.00000000000E+00 0. -1.
</event>
<event>
 5    1  0.1008363E-004  0.4704318E+03  0.7818608E-02  0.9762881E-01
         -4   -1    0    0    0  501 -0.00000000000E+00  0.00000000000E+00  0.19615020727E+04  0.19615020727E+04  0.00000000000E+00 0. -1.
         21   -1    0    0  501  502  0.00000000000E+00 -0.00000000000E+00 -0.18832942337E+03  0.18832942337E+03  0.00000000000E+00 0. -1.
        -13    1    1    2    0    0 -0.13715850577E+03 -0.17046732031E+03  0.17108595367E+03  0.27774444676E+03  0.10566000000E+00 0.  1.
         13    1    1    2    0    0 -0.36270001215E+03  0.26729079692E+03  0.87881448103E+03  0.98757813471E+03  0.10566000000E+00 0. -1.
         -4    1    1    2    0  502  0.49985851793E+03 -0.96823476615E+02  0.72327221467E+03  0.88450891465E+03  0.00000000000E+00 0. -1.
</event>
<event>
 5    1  0.1008363E-004  0.4171318E+02  0.7818608E-02  0.1329771E+00
         -4   -1    0    0    0  501 -0.00000000000E+00  0.00000000000E+00  0.39467486133E+02  0.39467486133E+02  0.00000000000E+00 0. -1.
         21   -1    0    0  501  502  0.00000000000E+00 -0.00000000000E+00 -0.93614082234E+02  0.93614082234E+02  0.00000000000E+00 0. -1.
        -13    1    1    2    0    0  0.43651485133E+01 -0.40229244052E+02 -0.46736002637E+01  0.40734509964E+02  0.10566000000E+00 0.  1.
         13    1    1    2    0    0 -0.31545642830E+02  0.37150831718E+02 -0.21650518397E+02  0.53329803954E+02  0.10566000000E+00 0. -1.
         -4    1    1    2    0  502  0.27180494317E+02  0.30784123343E+01 -0.27822477441E+02  0.39017254449E+02  0.00000000000E+00 0. -1.
</event>
<event>
 5    1  0.1008363E-004  0.4301250E+03  0.7818608E-02  0.9915789E-01
         -4   -1    0    0    0  501 -0.00000000000E+00  0.00000000000E+00  0.11009169844E+04  0.11009169844E+04  0.00000000000E+00 0. -1.
         21   -1    0    0  501  502  0.00000000000E+00 -0.00000000000E+00 -0.45210242588E+03  0.45210242588E+03  0.00000000000E+00 0. -1.
        -13    1    1    2    0    0  0.17053827454E+03 -0.74145639674E+00  0.41203047630E+03  0.44592934127E+03  0.10566000000E+00 0.  1.
         13    1    1    2    0    0  0.29327885544E+03 -0.27807546541E+03 -0.16142848876E+03  0.43519836817E+03  0.10566000000E+00 0. -1.
         -4    1    1    2    0  502 -0.46381712998E+03  0.27881692180E+03  0.39821257094E+03  0.67189170080E+03  0.00000000000E+00 0. -1.
</event>
<event>
 5    1  0.1008363E-004  0.4928278E+03  0.7818608E-02  0.9493832E-01
          4   -1    0    0  502    0 -0.00000000000E+00  0.00000000000E+00  0.27603466261E+04  0.27603466261E+04  0.00000000000E+00 0.  1.
         21   -1    0    0  501  502  0.00000000000E+00 -0.00000000000E+00 -0.23481554719E+03  0.23481554719E+03  0.00000000000E+00 0.  1.
        -13    1    1    2    0    0 -0.49476519719E+03  0.48417277391E+03  0.12143032107E+04  0.13977654217E+04  0.10566000000E+00 0.  1.
         13    1    1    2    0    0  0.25875197195E+03 -0.32967936957E+03  0.12364867705E+04  0.13055805661E+04  0.10566000000E+00 0. -1.
          4    1    1    2  501    0  0.23601322524E+03 -0.15449340434E+03  0.74741097727E+02  0.29181618558E+03  0.00000000000E+00 0.  1.
</event>
<event>
 5    1  0.1008363E-004  0.4444510E+03  0.7818608E-02  0.9712335E-01
         -4   -1    0    0    0  501 -0.00000000000E+00  0.00000000000E+00  0.92936694256E+03  0.92936694256E+03  0.00000000000E+00 0. -1.
         21   -1    0    0  501  502  0.00000000000E+00 -0.00000000000E+00 -0.64795024393E+03  0.64795024393E+03  0.00000000000E+00 0. -1.
        -13    1    1    2    0    0 -0.51540521150E+03  0.13600430229E+03  0.22327715071E+03  0.57792075536E+03  0.10566000000E+00 0.  1.
         13    1    1    2    0    0 -0.14261201614E+03 -0.28133601808E+03 -0.41711808938E+02  0.31816352460E+03  0.10566000000E+00 0. -1.
         -4    1    1    2    0  502  0.65801722764E+03  0.14533171579E+03  0.99851356859E+02  0.68123290653E+03  0.00000000000E+00 0. -1.
</event>
<event>
 5    1  0.1008363E-004  0.5040873E+03  0.7818608E-02  0.1023012E+00
          4   -1    0    0  502    0 -0.00000000000E+00  0.00000000000E+00  0.18662218961E+03  0.18662218961E+03  0.00000000000E+00 0.  1.
         21   -1    0    0  501  502  0.00000000000E+00 -0.00000000000E+00 -0.17317265820E+04  0.17317265820E+04  0.00000000000E+00 0.  1.
        -13    1    1    2    0    0 -0.45520610255E+03 -0.25121708225E+03 -0.97331199011E+03  0.11034758083E+04  0.10566000000E+00 0.  1.
         13    1    1    2    0    0  0.26728958090E+02  0.27522569760E+02  0.25827915411E+02  0.46249555946E+02  0.10566000000E+00 0. -1.
          4    1    1    2  501    0  0.42847714446E+03  0.22369451249E+03 -0.59762031772E+03  0.76862340740E+03  0.00000000000E+00 0.  1.
</event>
<event>
 5    1  0.1008363E-004  0.3545099E+03  0.7818608E-02  0.9870492E-01
          4   -1    0    0  502    0 -0.00000000000E+00  0.00000000000E+00  0.49106020590E+03  0.49106020590E+03  0.00000000000E+00 0.  1.
         21   -1    0    0  501  502  0.00000000000E+00 -0.00000000000E+00 -0.69561398491E+03  0.69561398491E+03  0.00000000000E+00 0.  1.
        -13    1    1    2    0    0  0.34036789810E+03 -0.83292375647E+02  0.33271047577E+03  0.48320202581E+03  0.10566000000E+00 0.  1.
         13    1    1    2    0    0 -0.36935730845E+03  0.82090271569E+02 -0.35473949544E+03  0.51865571893E+03  0.10566000000E+00 0. -1.
          4    1    1    2  501    0  0.28989410352E+02  0.12021040779E+01 -0.18252475934E+03  0.18481644607E+03  0.00000000000E+00 0.  1.
</event>
<event>
 5    1  0.1008363E-004  0.2521931E+03  0.7818608E-02  0.1029262E+00
          4   -1    0    0  502    0 -0.00000000000E+00  0.00000000000E+00  0.51697215577E+03  0.51697215577E+03  0.00000000000E+00 0.  1.
         21   -1    0    0  501  502  0.00000000000E+00 -0.00000000000E+00 -0.27443239388E+03  0.27443239388E+03  0.00000000000E+00 0.  1.
        -13    1    1    2    0    0  0.12723452144E+03 -0.23218323345E+03  0.15010685565E+03  0.30435137033E+03  0.10566000000E+00 0.  1.
         13    1    1    2    0    0 -0.11808894507E+03  0.21330851428E+03  0.23756380742E+03  0.34041459277E+03  0.10566000000E+00 0. -1.
          4    1    1    2  501    0 -0.91455763753E+01  0.18874719168E+02 -0.14513090117E+03  0.14663858655E+03  0.00000000000E+00 0.  1.
</event>
<event>
 5    1  0.1008363E-004  0.2789519E+03  0.7818608E-02  0.1016393E+00
         -4   -1    0    0    0  501 -0.00000000000E+00  0.00000000000E+00  0.15574547478E+04  0.15574547478E+04  0.00000000000E+00 0. -1.
         21   -1    0    0  501  502  0.00000000000E+00 -0.00000000000E+00 -0.34911781722E+03  0.34911781722E+03  0.00000000000E+00 0. -1.
        -13    1    1    2    0    0  0.19028126252E+02 -0.28197485062E+03  0.70201893901E+03  0.75677109344E+03  0.10566000000E+00 0.  1.
         13    1    1    2    0    0 -0.23659199655E+03  0.21550635523E+03 -0.22022128020E+03  0.38847932428E+03  0.10566000000E+00 0. -1.
         -4    1    1    2    0  502  0.21756387029E+03  0.66468495388E+02  0.72653927177E+03  0.76132214729E+03  0.00000000000E+00 0. -1.
</event>
<event>
 5    1  0.1008363E-004  0.6775643E+02  0.7818608E-02  0.1232740E+00
         21   -1    0    0  501  502  0.00000000000E+00  0.00000000000E+00  0.44811124841E+02  0.44811124841E+02  0.00000000000E+00 0. -1.
         -4   -1    0    0    0  501 -0.00000000000E+00 -0.00000000000E+00 -0.38565530748E+03  0.38565530748E+03  0.00000000000E+00 0. -1.
        -13    1    1    2    0    0  0.21323710173E+02 -0.67561624156E+02 -0.36474713304E+02  0.79684939285E+02  0.10566000000E+00 0.  1.
         13    1    1    2    0    0 -0.33113036678E+02  0.58780470378E+02 -0.32133050124E+03  0.32833659419E+03  0.10566000000E+00 0. -1.
         -4    1    1    2    0  502  0.11789326505E+02  0.87811537779E+01  0.16961031901E+02  0.22444898847E+02  0.00000000000E+00 0. -1.
</event>
<event>
 5    1  0.1008363E-004  0.5070818E+03  0.7818608E-02  0.9638002E-01
          4   -1    0    0  502    0 -0.00000000000E+00  0.00000000000E+00  0.78954290804E+03  0.78954290804E+03  0.00000000000E+00 0.  1.
         21   -1    0    0  501  502  0.00000000000E+00 -0.00000000000E+00 -0.66745163294E+03  0.66745163294E+03  0.00000000000E+00 0.  1.
        -13    1    1    2    0    0 -0.39924521951E+03  0.30256708326E+03 -0.47054920700E+02  0.50314785292E+03  0.10566000000E+00 0.  1.
         13    1    1    2    0    0 -0.14254452376E+03 -0.22918118226E+03  0.28761905775E+03  0.39442070065E+03  0.10566000000E+00 0. -1.
          4    1    1    2  501    0  0.54178974327E+03 -0.73385901003E+02 -0.11847286195E+03  0.55942598741E+03  0.00000000000E+00 0.  1.
</event>
<event>
 5    1  0.1008363E-004  0.9425978E+02  0.7818608E-02  0.1174419E+00
         -4   -1    0    0    0  501 -0.00000000000E+00  0.00000000000E+00  0.65456867577E+02  0.65456867577E+02  0.00000000000E+00 0. -1.
         21   -1    0    0  501  502  0.00000000000E+00 -0.00000000000E+00 -0.31988952395E+03  0.31988952395E+03  0.00000000000E+00 0.  1.
        -13    1    1    2    0    0 -0.99758893510E+02  0.51634491441E+01 -0.12677807923E+03  0.16140381216E+03  0.10566000000E+00 0.  1.
         13    1    1    2    0    0  0.88786566893E+02 -0.28488397291E+02  0.47450751257E+00  0.93246338063E+02  0.10566000000E+00 0. -1.
         -4    1    1    2    0  502  0.10972326617E+02  0.23324948147E+02 -0.12812908466E+03  0.13069624131E+03  0.00000000000E+00 0. -1.
</event>
<event>
 5    1  0.1008363E-004  0.4870761E+03  0.7818608E-02  0.1005026E+00
         21   -1    0    0  501  502  0.00000000000E+00  0.00000000000E+00  0.28099312284E+03  0.28099312284E+03  0.00000000000E+00 0.  1.
          4   -1    0    0  502    0 -0.00000000000E+00 -0.00000000000E+00 -0.10860573259E+04  0.10860573259E+04  0.00000000000E+00 0.  1.
        -13    1    1    2    0    0 -0.31434129094E+03 -0.42969188241E+03 -0.41787219056E+03  0.67680332432E+03  0.10566000000E+00 0.  1.
         13    1    1    2    0    0  0.44358966895E+02  0.61050330893E+02 -0.16651451796E+03  0.18281672981E+03  0.10566000000E+00 0. -1.
          4    1    1    2  501    0  0.26998232404E+03  0.36864155152E+03 -0.22067749458E+03  0.50743039465E+03  0.00000000000E+00 0.  1.
</event>
<event>
 5    1  0.1008363E-004  0.2844341E+03  0.7818608E-02  0.1013946E+00
         21   -1    0    0  501  502  0.00000000000E+00  0.00000000000E+00  0.84156116798E+02  0.84156116798E+02  0.00000000000E+00 0.  1.
         -4   -1    0    0    0  501 -0.00000000000E+00 -0.00000000000E+00 -0.12196904933E+04  0.12196904933E+04  0.00000000000E+00 0. -1.
        -13    1    1    2    0    0  0.81573176106E+02 -0.26898346700E+03 -0.58239739577E+03  0.64667845668E+03  0.10566000000E+00 0.  1.
         13    1    1    2    0    0 -0.93106089199E+02  0.27265389765E+03 -0.56866161095E+03  0.63748327875E+03  0.10566000000E+00 0. -1.
         -4    1    1    2    0  502  0.11532913093E+02 -0.36704306498E+01  0.15524630241E+02  0.19684874642E+02  0.00000000000E+00 0. -1.
</event>
<event>
 5    1  0.1008363E-004  0.1027570E+03  0.7818608E-02  0.1160073E+00
         21   -1    0    0  501  502  0.00000000000E+00  0.00000000000E+00  0.19192663390E+03  0.19192663390E+03  0.00000000000E+00 0.  1.
         -4   -1    0    0    0  501 -0.00000000000E+00 -0.00000000000E+00 -0.10115508195E+03  0.10115508195E+03  0.00000000000E+00 0. -1.
        -13    1    1    2    0    0 -0.25003669299E+02  0.90202563369E+02  0.70455080884E+02  0.11715637201E+03  0.10566000000E+00 0.  1.
         13    1    1    2    0    0 -0.30753052089E+02 -0.11102188506E+03  0.14911654947E+02  0.11616358204E+03  0.10566000000E+00 0. -1.
         -4    1    1    2    0  502  0.55756721388E+02  0.20819321689E+02  0.54048161169E+01  0.59761761794E+02  0.00000000000E+00 0. -1.
</event>
<event>
 5    1  0.1008363E-004  0.4820892E+03  0.7818608E-02  0.9740073E-01
         21   -1    0    0  501  502  0.00000000000E+00  0.00000000000E+00  0.13298921229E+03  0.13298921229E+03  0.00000000000E+00 0. -1.
         -4   -1    0    0    0  501 -0.00000000000E+00 -0.00000000000E+00 -0.29976932724E+04  0.29976932724E+04  0.00000000000E+00 0. -1.
        -13    1    1    2    0    0  0.93473913587E+02 -0.19908211945E+03 -0.44990496134E+03  0.50078493209E+03  0.10566000000E+00 0.  1.
         13    1    1    2    0    0 -0.45253435523E+03  0.30275274779E+03 -0.76922955700E+03  0.94242277747E+03  0.10566000000E+00 0. -1.
         -4    1    1    2    0  502  0.35906044164E+03 -0.10367062834E+03 -0.16455695418E+04  0.16874747751E+04  0.00000000000E+00 0. -1.
</event>
<event>
 5    1  0.1008363E-004  0.1392434E+04  0.7818608E-02  0.8474226E-01
         21   -1    0    0  501  502  0.00000000000E+00  0.00000000000E+00  0.11750092683E+04  0.11750092683E+04  0.00000000000E+00 0.  1.
         -4   -1    0    0    0  501 -0.00000000000E+00 -0.00000000000E+00 -0.27629576388E+04  0.27629576388E+04  0.00000000000E+00 0. -1.
        -13    1    1    2    0    0  0.16234600590E+04  0.22834208256E+03 -0.10806963177E+04  0.19635852953E+04  0.10566000000E+00 0.  1.
         13    1    1    2    0    0 -0.12068940639E+04  0.13008394193E+03 -0.68871836780E+03  0.13956532932E+04  0.10566000000E+00 0. -1.
         -4    1    1    2    0  502 -0.41656599502E+03 -0.35842602449E+03  0.18146631503E+03  0.57872831858E+03  0.00000000000E+00 0. -1.
</event>
<event>
 5    1  0.1008363E-004  0.1930412E+03  0.7818608E-02  0.1065014E+00
          4   -1    0    0  502    0 -0.00000000000E+00  0.00000000000E+00  0.33638834179E+03  0.33638834179E+03  0.00000000000E+00 0.  1.
         21   -1    0    0  501  502  0.00000000000E+00 -0.00000000000E+00 -0.15610786484E+03  0.15610786484E+03  0.00000000000E+00 0. -1.
        -13    1    1    2    0    0  0.14273771998E+02 -0.18282949307E+03  0.14953074308E+03  0.23662167778E+03  0.10566000000E+00 0.  1.
         13    1    1    2    0    0 -0.31341360910E+02  0.20949468208E+03  0.51530640693E+02  0.21800394680E+03  0.10566000000E+00 0. -1.
          4    1    1    2  501    0  0.17067588912E+02 -0.26665189009E+02 -0.20780906832E+02  0.37870582051E+02  0.00000000000E+00 0.  1.
</event>
<event>
 5    1  0.1008363E-004  0.1829615E+03  0.7818608E-02  0.1072489E+00
         -4   -1    0    0    0  501 -0.00000000000E+00  0.00000000000E+00  0.45932430058E+03  0.45932430058E+03  0.00000000000E+00 0. -1.
         21   -1    0    0  501  502  0.00000000000E+00 -0.00000000000E+00 -0.24712315076E+03  0.24712315076E+03  0.00000000000E+00 0. -1.
        -13    1    1    2    0    0 -0.10048015440E+03  0.17843790822E+03  0.28925208221E+02  0.20681640978E+03  0.10566000000E+00 0.  1.
         13    1    1    2    0    0  0.82927139006E+02 -0.15671603611E+03  0.31689516151E+03  0.36312447027E+03  0.10566000000E+00 0. -1.
         -4    1    1    2    0  502  0.17553015395E+02 -0.21721872106E+02 -0.13361921990E+03  0.13650657129E+03  0.00000000000E+00 0. -1.
</event>
<event>
 5    1  0.1008363E-004  0.5034815E+03  0.7818608E-02  0.9742652E-01
         21   -1    0    0  501  502  0.00000000000E+00  0.00000000000E+00  0.30812789463E+03  0.30812789463E+03  0.00000000000E+00 0. -1.
         -4   -1    0    0    0  501 -0.00000000000E+00 -0.00000000000E+00 -0.18132410651E+04  0.18132410651E+04  0.00000000000E+00 0. -1.
        -13    1    1    2    0    0 -0.51264717437E+02  0.18436784733E+03 -0.91821318567E+03  0.93794191712E+03  0.10566000000E+00 0.  1.
         13    1    1    2    0    0 -0.61904777065E+02  0.39655210993E+03 -0.39016342093E+03  0.55974394459E+03  0.10566000000E+00 0. -1.
         -4    1    1    2    0  502  0.11316949450E+03 -0.58091995726E+03 -0.19673656392E+03  0.62368309807E+03  0.00000000000E+00 0. -1.
</event>
<event>
 5    1  0.1008363E-004  0.4592941E+03  0.7818608E-02  0.9811884E-01
         21   -1    0    0  501  502  0.00000000000E+00  0.00000000000E+00  0.52749187238E+03  0.52749187238E+03  0.00000000000E+00 0.  1.
          4   -1    0    0  502    0 -0.00000000000E+00 -0.00000000000E+00 -0.75508017327E+03  0.75508017327E+03  0.00000000000E+00 0.  1.
        -13    1    1    2    0    0  0.25444567836E+03  0.46274261886E+03 -0.32228698560E+03  0.61866165778E+03  0.10566000000E+00 0.  1.
         13    1    1    2    0    0 -0.19662537190E+03 -0.29328421893E+02  0.10841565679E+03  0.22644129263E+03  0.10566000000E+00 0. -1.
          4    1    1    2  501    0 -0.57820306461E+02 -0.43341419697E+03 -0.13716972080E+02  0.43746909525E+03  0.00000000000E+00 0.  1.
</event>
<event>
 5    1  0.1008363E-004  0.4126315E+02  0.7818608E-02  0.1332115E+00
         21   -1    0    0  501  502  0.00000000000E+00  0.00000000000E+00  0.11689096821E+04  0.11689096821E+04  0.00000000000E+00 0. -1.
          4   -1    0    0  502    0 -0.00000000000E+00 -0.00000000000E+00 -0.15169309628E+03  0.15169309628E+03  0.00000000000E+00 0.  1.
        -13    1    1    2    0    0  0.40440165774E+02 -0.69055054936E+01 -0.14492606967E+03  0.15062094758E+03  0.10566000000E+00 0.  1.
         13    1    1    2    0    0 -0.62473015436E+02  0.14380731542E+02  0.26889483746E+03  0.27643105446E+03  0.10566000000E+00 0. -1.
          4    1    1    2  501    0  0.22032849662E+02 -0.74752260483E+01  0.89324781801E+03  0.89355077631E+03  0.00000000000E+00 0.  1.
</event>
<event>
 5    1  0.1008363E-004  0.5003101E+03  0.7818608E-02  0.9933409E-01
         21   -1    0    0  501  502  0.00000000000E+00  0.00000000000E+00  0.11157426093E+04  0.11157426093E+04  0.00000000000E+00 0.  1.
         -4   -1    0    0    0  501 -0.00000000000E+00 -0.00000000000E+00 -0.30070655095E+03  0.30070655095E+03  0.00000000000E+00 0. -1.
        -13    1    1    2    0    0  0.81303192018E+02  0.61912621184E+02  0.20286427015E+03  0.22715040164E+03  0.10566000000E+00 0.  1.
         13    1    1    2    0    0  0.46561750585E+03 -0.53145100274E+02  0.33521515850E+03  0.57618857771E+03  0.10566000000E+00 0. -1.
         -4    1    1    2    0  502 -0.54692069787E+03 -0.87675209098E+01  0.27695662969E+03  0.61311018089E+03  0.00000000000E+00 0. -1.
</event>
<event>
 5    1  0.1008363E-004  0.4771673E+03  0.7818608E-02  0.1019662E+00
         -4   -1    0    0    0  501 -0.00000000000E+00  0.00000000000E+00  0.17611494876E+04  0.17611494876E+04  0.00000000000E+00 0. -1.
         21   -1    0    0  501  502  0.00000000000E+00 -0.00000000000E+00 -0.14769209514E+03  0.14769209514E+03  0.00000000000E+00 0. -1.
        -13    1    1    2    0    0  0.47148689202E+02 -0.17395251152E+02  0.74189995729E+02  0.89608929725E+02  0.10566000000E+00 0.  1.
         13    1    1    2    0    0 -0.30517145447E+03 -0.37503848753E+03  0.61336587688E+03  0.78102573187E+03  0.10566000000E+00 0. -1.
         -4    1    1    2    0  502  0.25802276527E+03  0.39243373869E+03  0.92590151984E+03  0.10382069211E+04  0.00000000000E+00 0. -1.
</event>
<event>
 5    1  0.1008363E-004  0.4899326E+03  0.7818608E-02  0.9819644E-01
         21   -1    0    0  501  502  0.00000000000E+00  0.00000000000E+00  0.24069128457E+03  0.24069128457E+03  0.00000000000E+00 0.  1.
          4   -1    0    0  502    0 -0.00000000000E+00 -0.00000000000E+00 -0.13995551241E+04  0.13995551241E+04  0.00000000000E+00 0.  1.
        -13    1    1    2    0    0  0.71341030527E+02 -0.53219433937E+03 -0.53976974583E+03  0.76136177154E+03  0.10566000000E+00 0.  1.
         13    1    1    2    0    0  0.11510887836E+03  0.11043675587E+03 -0.19941312156E+03  0.25536627643E+03  0.10566000000E+00 0. -1.
          4    1    1    2  501    0 -0.18644990889E+03  0.42175758350E+03 -0.41968097218E+03  0.62351836073E+03  0.00000000000E+00 0.  1.
</event>
<event>
 5    1  0.1008363E-004  0.1442648E+02  0.7818608E-02  0.1606540E+00
          4   -1    0    0  502    0 -0.00000000000E+00  0.00000000000E+00  0.10154614608E+03  0.10154614608E+03  0.00000000000E+00 0.  1.
         21   -1    0    0  501  502  0.00000000000E+00 -0.00000000000E+00 -0.70217811493E+01  0.70217811493E+01  0.00000000000E+00 0.  1.
        -13    1    1    2    0    0 -0.13745296799E+02 -0.50847093232E+01  0.72591120146E+02  0.74055852848E+02  0.10566000000E+00 0.  1.
         13    1    1    2    0    0  0.15316211186E+02 -0.51233171492E+01  0.11464446759E+02  0.19806044714E+02  0.10566000000E+00 0. -1.
          4    1    1    2  501    0 -0.15709143872E+01  0.10208026472E+02  0.10468798028E+02  0.14706029669E+02  0.00000000000E+00 0.  1.
</event>
<event>
 5    1  0.1008363E-004  0.2190343E+03  0.7818608E-02  0.1142059E+00
         21   -1    0    0  501  502  0.00000000000E+00  0.00000000000E+00  0.30368857974E+02  0.30368857974E+02  0.00000000000E+00 0.  1.
          4   -1    0    0  502    0 -0.00000000000E+00 -0.00000000000E+00 -0.17054016065E+04  0.17054016065E+04  0.00000000000E+00 0.  1.
        -13    1    1    2    0    0 -0.80945761267E+02 -0.20518095715E+03 -0.78581709496E+03  0.81618622834E+03  0.10566000000E+00 0.  1.
         13    1    1    2    0    0 -0.13805884041E+02  0.91570589313E+01 -0.56864898641E+02  0.59229064014E+02  0.10566000000E+00 0. -1.
          4    1    1    2  501    0  0.94751645308E+02  0.19602389822E+03 -0.83235075490E+03  0.86035517209E+03  0.00000000000E+00 0.  1.
</event>
<event>
 5    1  0.1008363E-004  0.1498431E+03  0.7818608E-02  0.1101266E+00
          4   -1    0    0  502    0 -0.00000000000E+00  0.00000000000E+00  0.16037896624E+03  0.16037896624E+03  0.00000000000E+00 0.  1.
         21   -1    0    0  501  502  0.00000000000E+00 -0.00000000000E+00 -0.20563314509E+03  0.20563314509E+03  0.00000000000E+00 0. -1.
        -13    1    1    2    0    0  0.14779138559E+03  0.93697751791E+00  0.58184443108E+02  0.15883517295E+03  0.10566000000E+00 0.  1.
         13    1    1    2    0    0 -0.15444173011E+03 -0.18220673472E+02 -0.73579650107E+02  0.17204132357E+03  0.10566000000E+00 0. -1.
          4    1    1    2  501    0  0.66503445238E+01  0.17283695954E+02 -0.29858971851E+02  0.35135614811E+02  0.00000000000E+00 0.  1.
</event>
<event>
 5    1  0.1008363E-004  0.4067532E+03  0.7818608E-02  0.9709743E-01
          4   -1    0    0  502    0 -0.00000000000E+00  0.00000000000E+00  0.21579255511E+04  0.21579255511E+04  0.00000000000E+00 0.  1.
         21   -1    0    0  501  502  0.00000000000E+00 -0.00000000000E+00 -0.29952912188E+03  0.29952912188E+03  0.00000000000E+00 0.  1.
        -13    1    1    2    0    0  0.15239043270E+03  0.37428927567E+03  0.15206858589E+04  0.15734677622E+04  0.10566000000E+00 0.  1.
         13    1    1    2    0    0 -0.16180068304E+03 -0.38082546898E+03  0.54059904803E+03  0.68077517636E+03  0.10566000000E+00 0. -1.
          4    1    1    2  501    0  0.94102503385E+01  0.65361933104E+01 -0.20288847772E+03  0.20321173447E+03  0.00000000000E+00 0.  1.
</event>
<event>
 5    1  0.1008363E-004  0.5059460E+03  0.7818608E-02  0.9882251E-01
          4   -1    0    0  502    0 -0.00000000000E+00  0.00000000000E+00  0.94075932094E+03  0.94075932094E+03  0.00000000000E+00 0.  1.
         21   -1    0    0  501  502  0.00000000000E+00 -0.00000000000E+00 -0.35421231778E+03  0.35421231778E+03  0.00000000000E+00 0.  1.
        -13    1    1    2    0    0  0.41512681161E+03  0.38614025905E+03  0.20894685981E+03  0.60422956794E+03  0.10566000000E+00 0.  1.
         13    1    1    2    0    0 -0.83841488505E+02 -0.81933963735E+02  0.13821908131E+03  0.18123767602E+03  0.10566000000E+00 0. -1.
          4    1    1    2  501    0 -0.33128532311E+03 -0.30420629532E+03  0.23938106203E+03  0.50950439476E+03  0.00000000000E+00 0.  1.
</event>
<event>
 5    1  0.1008363E-004  0.3433030E+03  0.7818608E-02  0.1006634E+00
         21   -1    0    0  501  502  0.00000000000E+00  0.00000000000E+00  0.13200873131E+03  0.13200873131E+03  0.00000000000E+00 0.  1.
          4   -1    0    0  502    0 -0.00000000000E+00 -0.00000000000E+00 -0.29492522269E+04  0.29492522269E+04  0.00000000000E+00 0.  1.
        -13    1    1    2    0    0  0.44449188331E+03 -0.23402897205E+03 -0.18400857855E+04  0.19074218997E+04  0.10566000000E+00 0.  1.
         13    1    1    2    0    0 -0.20308116008E+03  0.24791508414E+02 -0.76122923762E+03  0.78824269095E+03  0.10566000000E+00 0. -1.
          4    1    1    2  501    0 -0.24141072323E+03  0.20923746364E+03 -0.21592847242E+03  0.38559636757E+03  0.00000000000E+00 0.  1.
</event>
<event>
 5    1  0.1008363E-004  0.7738272E+02  0.7818608E-02  0.1208589E+00
         -4   -1    0    0    0  501 -0.00000000000E+00  0.00000000000E+00  0.30037202238E+03  0.30037202238E+03  0.00000000000E+00 0. -1.
         21   -1    0    0  501  502  0.00000000000E+00 -0.00000000000E+00 -0.37681103913E+02  0.37681103913E+02  0.00000000000E+00 0.  1.
        -13    1    1    2    0    0 -0.28364077021E+02  0.58352211209E+02  0.71638880318E+02  0.96652168912E+02  0.10566000000E+00 0.  1.
         13    1    1    2    0    0  0.57959232140E+02 -0.66434571817E+02  0.19139003402E+03  0.21072014904E+03  0.10566000000E+00 0. -1.
         -4    1    1    2    0  502 -0.29595155119E+02  0.80823606084E+01 -0.33799587282E+00  0.30680808346E+02  0.00000000000E+00 0. -1.
</event>
<event>
 5    1  0.1008363E-004  0.4178381E+03  0.7818608E-02  0.9827627E-01
         -4   -1    0    0    0  501 -0.00000000000E+00  0.00000000000E+00  0.50576601268E+03  0.50576601268E+03  0.00000000000E+00 0. -1.
         21   -1    0    0  501  502  0.00000000000E+00 -0.00000000000E+00 -0.94737047315E+03  0.94737047315E+03  0.00000000000E+00 0. -1.
        -13    1    1    2    0    0  0.10724744445E+03  0.22613182686E+03  0.13053434907E+03  0.28227087153E+03  0.10566000000E+00 0.  1.
         13    1    1    2    0    0 -0.13541794002E+03  0.24070962264E+03  0.14711578370E+03  0.31292524010E+03  0.10566000000E+00 0. -1.
         -4    1    1    2    0  502  0.28170495572E+02 -0.46684144950E+03 -0.71925459324E+03  0.85794037421E+03  0.00000000000E+00 0. -1.
</event>
<event>
 5    1  0.1008363E-004  0.3169370E+03  0.7818608E-02  0.1000549E+00
         21   -1    0    0  501  502  0.00000000000E+00  0.00000000000E+00  0.11955019486E+04  0.11955019486E+04  0.00000000000E+00 0.  1.
          4   -1    0    0  502    0 -0.00000000000E+00 -0.00000000000E+00 -0.35935137634E+03  0.35935137634E+03  0.00000000000E+00 0.  1.
        -13    1    1    2    0    0 -0.34865654501E+03 -0.24902177483E+03 -0.57866856709E+02  0.43234455587E+03  0.10566000000E+00 0.  1.
         13    1    1    2    0    0  0.16439729327E+03  0.17145356381E+03  0.34475971024E+02  0.24002374532E+03  0.10566000000E+00 0. -1.
          4    1    1    2  501    0  0.18425925175E+03  0.77568211026E+02  0.85954145798E+03  0.88248502379E+03  0.00000000000E+00 0.  1.
</event>
<event>
 5    1  0.1008363E-004  0.1699960E+03  0.7818608E-02  0.1082908E+00
         21   -1    0    0  501  502  0.00000000000E+00  0.00000000000E+00  0.15427354137E+03  0.15427354137E+03  0.00000000000E+00 0. -1.
         -4   -1    0    0    0  501 -0.00000000000E+00 -0.00000000000E+00 -0.54031140910E+03  0.54031140910E+03  0.00000000000E+00 0. -1.
        -13    1    1    2    0    0 -0.42935420566E+02 -0.17725209684E+03 -0.24775633522E+03  0.30764422468E+03  0.10566000000E+00 0.  1.
         13    1    1    2    0    0  0.49683300564E+02  0.15217278169E+03 -0.23636865959E+03  0.28547353685E+03  0.10566000000E+00 0. -1.
         -4    1    1    2    0  502 -0.67478799986E+01  0.25079315156E+02  0.98087127084E+02  0.10146718895E+03  0.00000000000E+00 0. -1.
</event>
<event>
 5    1  0.1008363E-004  0.4965979E+03  0.7818608E-02  0.9485460E-01
         21   -1    0    0  501  502  0.00000000000E+00  0.00000000000E+00  0.38989118958E+03  0.38989118958E+03  0.00000000000E+00 0.  1.
          4   -1    0    0  502    0 -0.00000000000E+00 -0.00000000000E+00 -0.13698256822E+04  0.13698256822E+04  0.00000000000E+00 0.  1.
        -13    1    1    2    0    0 -0.62440534934E+03 -0.28384748212E+03 -0.23343611368E+03  0.72453009856E+03  0.10566000000E+00 0.  1.
         13    1    1    2    0    0  0.39515733221E+03  0.19767662530E+03 -0.61483319436E+03  0.75712960148E+03  0.10566000000E+00 0. -1.
          4    1    1    2  501    0  0.22924801713E+03  0.86170856821E+02 -0.13166518456E+03  0.27805717173E+03  0.00000000000E+00 0.  1.
</event>
<event>
 5    1  0.1008363E-004  0.3106653E+02  0.7818608E-02  0.1396544E+00
         -4   -1    0    0    0  501 -0.00000000000E+00  0.00000000000E+00  0.13322496614E+03  0.13322496614E+03  0.00000000000E+00 0. -1.
         21   -1    0    0  501  502  0.00000000000E+00 -0.00000000000E+00 -0.56086203163E+02  0.56086203163E+02  0.00000000000E+00 0.  1.
        -13    1    1    2    0    0  0.42603379414E+02  0.32628793021E+02  0.20931890933E+02  0.57600705669E+02  0.10566000000E+00 0.  1.
         13    1    1    2    0    0 -0.23606250504E+02 -0.15636275076E+02  0.87142535313E+02  0.91627401938E+02  0.10566000000E+00 0. -1.
         -4    1    1    2    0  502 -0.18997128910E+02 -0.16992517945E+02 -0.30935663270E+02  0.40083061696E+02  0.00000000000E+00 0. -1.
</event>
<event>
 5    1  0.1008363E-004  0.4158326E+03  0.7818608E-02  0.9772269E-01
         21   -1    0    0  501  502  0.00000000000E+00  0.00000000000E+00  0.24721738873E+03  0.24721738873E+03  0.00000000000E+00 0. -1.
         -4   -1    0    0    0  501 -0.00000000000E+00 -0.00000000000E+00 -0.18303253425E+04  0.18303253425E+04  0.00000000000E+00 0. -1.
        -13    1    1    2    0    0 -0.22289136246E+03  0.21072706566E+03 -0.41837315860E+03  0.51877024458E+03  0.10566000000E+00 0.  1.
         13    1    1    2    0    0  0.54546017124E+03  0.20075010916E+02 -0.97882876000E+03  0.11207299215E+04  0.10566000000E+00 0. -1.
         -4    1    1    2    0  502 -0.32256880877E+03 -0.23080207657E+03 -0.18590603519E+03  0.43804256513E+03  0.00000000000E+00 0. -1.
</event>
<event>
 5    1  0.1008363E-004  0.9737880E+02  0.7818608E-02  0.1168967E+00
          4   -1    0    0  502    0 -0.00000000000E+00  0.00000000000E+00  0.56576364408E+03  0.56576364408E+03  0.00000000000E+00 0.  1.
         21   -1    0    0  501  502  0.00000000000E+00 -0.00000000000E+00 -0.82164966149E+02  0.82164966149E+02  0.00000000000E+00 0.  1.
        -13    1    1    2    0    0  0.81768482189E+02  0.51563928952E+02  0.46907002946E+03  0.47892758028E+03  0.10566000000E+00 0.  1.
         13    1    1    2    0    0 -0.78259013644E+02 -0.65983370844E+02  0.61720195755E+02  0.11953105108E+03  0.10566000000E+00 0. -1.
          4    1    1    2  501    0 -0.35094685448E+01  0.14419441892E+02 -0.47191547286E+02  0.49469978868E+02  0.00000000000E+00 0.  1.
</event>
<event>
 5    1  0.1008363E-004  0.5160638E+03  0.7818608E-02  0.9562480E-01
          4   -1    0    0  502    0 -0.00000000000E+00  0.00000000000E+00  0.25761400367E+04  0.25761400367E+04  0.00000000000E+00 0.  1.
         21   -1    0    0  501  502  0.00000000000E+00 -0.00000000000E+00 -0.20988932673E+03  0.20988932673E+03  0.00000000000E+00 0.  1.
        -13    1    1    2    0    0  0.37808021132E+03 -0.58529583841E+03  0.90786085722E+03  0.11444331400E+04  0.10566000000E+00 0.  1.
         13    1    1    2    0    0 -0.27214210036E+03  0.19528184791E+03  0.82316876209E+03  0.88870869522E+03  0.10566000000E+00 0. -1.
          4    1    1    2  501    0 -0.10593811096E+03  0.39001399050E+03  0.63522109066E+03  0.75288752823E+03  0.00000000000E+00 0.  1.
</event>
<event>
 5    1  0.1008363E-004  0.4276920E+03  0.7818608E-02  0.9652317E-01
         21   -1    0    0  501  502  0.00000000000E+00  0.00000000000E+00  0.34926470409E+03  0.34926470409E+03  0.00000000000E+00 0. -1.
         -4   -1    0    0    0  501 -0.00000000000E+00 -0.00000000000E+00 -0.19418990790E+04  0.19418990790E+04  0.00000000000E+00 0. -1.
        -13    1    1    2    0    0  0.15681707529E+02 -0.49242978415E+03 -0.52459863836E+03  0.71967822727E+03  0.10566000000E+00 0.  1.
         13    1    1    2    0    0 -0.34243512302E+03  0.23327212339E+03  0.11179799873E+02  0.41449088785E+03  0.10566000000E+00 0. -1.
         -4    1    1    2    0  502  0.32675341549E+03  0.25915766076E+03 -0.10792155364E+04  0.11569946680E+04  0.00000000000E+00 0. -1.
</event>
<event>
 5    1  0.1008363E-004  0.1641983E+03  0.7818608E-02  0.1087895E+00
         21   -1    0    0  501  502  0.00000000000E+00  0.00000000000E+00  0.78759310490E+02  0.78759310490E+02  0.00000000000E+00 0.  1.
         -4   -1    0    0    0  501 -0.00000000000E+00 -0.00000000000E+00 -0.51335298559E+03  0.51335298559E+03  0.00000000000E+00 0. -1.
        -13    1    1    2    0    0 -0.13747915465E+03 -0.91136226395E+02 -0.30536355421E+03  0.34706374217E+03  0.10566000000E+00 0.  1.
         13    1    1    2    0    0  0.12303338551E+03  0.10725941086E+03 -0.62306809477E+02  0.17471103239E+03  0.10566000000E+00 0. -1.
         -4    1    1    2    0  502  0.14445769142E+02 -0.16123184461E+02 -0.66923311414E+02  0.70337521522E+02  0.00000000000E+00 0. -1.
</event>
<event>
 5    1  0.1008363E-004  0.4963179E+03  0.7818608E-02  0.9756521E-01
         -4   -1    0    0    0  501 -0.00000000000E+00  0.00000000000E+00  0.20566033936E+04  0.20566033936E+04  0.00000000000E+00 0. -1.
         21   -1    0    0  501  502  0.00000000000E+00 -0.00000000000E+00 -0.25109591350E+03  0.25109591350E+03  0.00000000000E+00 0. -1.
        -13    1    1    2    0    0  0.18828982306E+03 -0.28528724607E+02  0.99205493896E+03  0.10101682824E+04  0.10566000000E+00 0.  1.
         13    1    1    2    0    0 -0.57962261015E+03 -0.95969710152E+02  0.37602239776E+03  0.69754240749E+03  0.10566000000E+00 0. -1.
         -4    1    1    2    0  502  0.39133278709E+03  0.12449843476E+03  0.43743014339E+03  0.59998861727E+03  0.00000000000E+00 0. -1.
</event>
<event>
 5    1  0.1008363E-004  0.2807220E+03  0.7818608E-02  0.1015596E+00
         -4   -1    0    0    0  501 -0.00000000000E+00  0.00000000000E+00  0.18394038677E+03  0.18394038677E+03  0.00000000000E+00 0. -1.
         21   -1    0    0  501  502  0.00000000000E+00 -0.00000000000E+00 -0.10922855771E+04  0.10922855771E+04  0.00000000000E+00 0. -1.
        -13    1    1    2    0    0  0.26851337777E+03 -0.82932817978E+02 -0.59908440643E+03  0.66172458284E+03  0.10566000000E+00 0.  1.
         13    1    1    2    0    0 -0.27534326607E+03  0.55596002153E+02  0.22264317489E+02  0.28178101537E+03  0.10566000000E+00 0. -1.
         -4    1    1    2    0  502  0.68298882986E+01  0.27336815825E+02 -0.33152510135E+03  0.33272036562E+03  0.00000000000E+00 0. -1.
</event>
<event>
 5    1  0.1008363E-004  0.4329816E+03  0.7818608E-02  0.9994644E-01
          4   -1    0    0  502    0 -0.00000000000E+00  0.00000000000E+00  0.42557651150E+03  0.42557651150E+03  0.00000000000E+00 0.  1.
         21   -1    0    0  501  502  0.00000000000E+00 -0.00000000000E+00 -0.73164121652E+03  0.73164121652E+03  0.00000000000E+00 0.  1.
        -13    1    1    2    0    0 -0.39339613038E+03  0.94218154568E+01 -0.27932134612E+03  0.48256575880E+03  0.10566000000E+00 0.  1.
         13    1    1    2    0    0 -0.12260111517E+03 -0.39482883745E+02  0.73282829975E+02  0.14819013423E+03  0.10566000000E+00 0. -1.
          4    1    1    2  501    0  0.51599724555E+03  0.30061068288E+02 -0.10002618888E+03  0.52646183499E+03  0.00000000000E+00 0.  1.
</event>
<event>
 5    1  0.1008363E-004  0.5720392E+02  0.7818608E-02  0.1264950E+00
         -4   -1    0    0    0  501 -0.00000000000E+00  0.00000000000E+00  0.25073601290E+03  0.25073601290E+03  0.00000000000E+00 0. -1.
         21   -1    0    0  501  502  0.00000000000E+00 -0.00000000000E+00 -0.73915895716E+02  0.73915895716E+02  0.00000000000E+00 0.  1.
        -13    1    1    2    0    0  0.24812510511E+01 -0.37357242038E+02 -0.56749870216E+02  0.67987344948E+02  0.10566000000E+00 0.  1.
         13    1    1    2    0    0  0.20556103973E+02  0.54940567674E+02  0.21350160528E+03  0.22141356329E+03  0.10566000000E+00 0. -1.
         -4    1    1    2    0  502 -0.23037355024E+02 -0.17583325636E+02  0.20068382120E+02  0.35251000381E+02  0.00000000000E+00 0. -1.
</event>
<event>
 5    1  0.1008363E-004  0.4665918E+03  0.7818608E-02  0.9593274E-01
         21   -1    0    0  501  502  0.00000000000E+00  0.00000000000E+00  0.23567486655E+03  0.23567486655E+03  0.00000000000E+00 0. -1.
         -4   -1    0    0    0  501 -0.00000000000E+00 -0.00000000000E+00 -0.28242407854E+04  0.28242407854E+04  0.00000000000E+00 0. -1.
        -13    1    1    2    0    0 -0.42110124468E+03  0.26998784635E+03 -0.10136996455E+04  0.11304011137E+04  0.10566000000E+00 0.  1.
         13    1    1    2    0    0 -0.29536028593E+03  0.93847985473E+02 -0.39651123201E+03  0.50325571150E+03  0.10566000000E+00 0. -1.
         -4    1    1    2    0  502  0.71646153062E+03 -0.36383583183E+03 -0.11783550414E+04  0.14262588268E+04  0.00000000000E+00 0. -1.
</event>
<event>
 5    1  0.1008363E-004  0.3625471E+03  0.7818608E-02  0.9843921E-01
         21   -1    0    0  501  502  0.00000000000E+00  0.00000000000E+00  0.42037816224E+03  0.42037816224E+03  0.00000000000E+00 0. -1.
         -4   -1    0    0    0  501 -0.00000000000E+00 -0.00000000000E+00 -0.19481349039E+04  0.19481349039E+04  0.00000000000E+00 0. -1.
        -13    1    1    2    0    0  0.38856926796E+03 -0.35498479641E+02 -0.11704113587E+04  0.12337378076E+04  0.10566000000E+00 0.  1.
         13    1    1    2    0    0 -0.33135324127E+03 -0.59475000574E+01 -0.70553330754E+03  0.77949188737E+03  0.10566000000E+00 0. -1.
         -4    1    1    2    0  502 -0.57216026689E+02  0.41445979698E+02  0.34818792465E+03  0.35528337115E+03  0.00000000000E+00 0. -1.
</event>
<event>
 5    1  0.1008363E-004  0.4953025E+03  0.7818608E-02  0.9545796E-01
          4   -1    0    0  502    0 -0.00000000000E+00  0.00000000000E+00  0.30716761062E+04  0.30716761062E+04  0.00000000000E+00 0.  1.
         21   -1    0    0  501  502  0.00000000000E+00 -0.00000000000E+00 -0.21840450710E+03  0.21840450710E+03  0.00000000000E+00 0.  1.
        -13    1    1    2    0    0  0.25471814531E+03  0.23471797812E+03  0.56787279418E+03  0.66517169538E+03  0.10566000000E+00 0.  1.
         13    1    1    2    0    0  0.14165925144E+03  0.37650014933E+03  0.15028538529E+04  0.15557600780E+04  0.10566000000E+00 0. -1.
          4    1    1    2  501    0 -0.39637739674E+03 -0.61121812745E+03  0.78254495202E+03  0.10691488399E+04  0.00000000000E+00 0.  1.
</event>
<event>
 5    1  0.1008363E-004  0.4001207E+03  0.7818608E-02  0.9728697E-01
         21   -1    0    0  501  502  0.00000000000E+00  0.00000000000E+00  0.16995535506E+03  0.16995535506E+03  0.00000000000E+00 0. -1.
          4   -1    0    0  502    0 -0.00000000000E+00 -0.00000000000E+00 -0.11601866877E+04  0.11601866877E+04  0.00000000000E+00 0.  1.
        -13    1    1    2    0    0  0.26477459146E+02 -0.40648173715E+03 -0.43274686005E+03  0.59430490030E+03  0.10566000000E+00 0.  1.
         13    1    1    2    0    0 -0.20968787030E+02  0.39417642135E+03 -0.58469687385E+03  0.70546806209E+03  0.10566000000E+00 0. -1.
          4    1    1    2  501    0 -0.55086721162E+01  0.12305315802E+02  0.27212401209E+02  0.30369080412E+02  0.00000000000E+00 0.  1.
</event>
<event>
 5    1  0.1008363E-004  0.8186539E+02  0.7818608E-02  0.1198637E+00
         -4   -1    0    0    0  501 -0.00000000000E+00  0.00000000000E+00  0.19339317283E+02  0.19339317283E+02  0.00000000000E+00 0. -1.
         21   -1    0    0  501  502  0.00000000000E+00 -0.00000000000E+00 -0.72584412670E+03  0.72584412670E+03  0.00000000000E+00 0.  1.
        -13    1    1    2    0    0  0.86705239850E+02 -0.18363518833E+02 -0.51501875039E+03  0.52258907553E+03  0.10566000000E+00 0.  1.
         13    1    1    2    0    0 -0.80510014607E+02  0.43734967058E+01 -0.93685016990E+02  0.12360373578E+03  0.10566000000E+00 0. -1.
         -4    1    1    2    0  502 -0.61952252421E+01  0.13990022127E+02 -0.97801042031E+02  0.98990632675E+02  0.00000000000E+00 0. -1.
</event>
<event>
 5    1  0.1008363E-004  0.6922030E+02  0.7818608E-02  0.1228788E+00
          4   -1    0    0  502    0 -0.00000000000E+00  0.00000000000E+00  0.18229736821E+02  0.18229736821E+02  0.00000000000E+00 0.  1.
         21   -1    0    0  501  502  0.00000000000E+00 -0.00000000000E+00 -0.45979469918E+03  0.45979469918E+03  0.00000000000E+00 0. -1.
        -13    1    1    2    0    0  0.35324050452E+02  0.56224699961E+02 -0.81447807318E+02  0.10508454647E+03  0.10566000000E+00 0.  1.
         13    1    1    2    0    0 -0.32370719928E+02 -0.70068133058E+02 -0.24282690002E+03  0.25479858971E+03  0.10566000000E+00 0. -1.
          4    1    1    2  501    0 -0.29533305240E+01  0.13843433097E+02 -0.11729025502E+03  0.11814129982E+03  0.00000000000E+00 0.  1.
</event>
<event>
 5    1  0.1008363E-004  0.1581987E+03  0.7818608E-02  0.1093296E+00
         -4   -1    0    0    0  501 -0.00000000000E+00  0.00000000000E+00  0.38358660313E+02  0.38358660313E+02  0.00000000000E+00 0. -1.
         21   -1    0    0  501  502  0.00000000000E+00 -0.00000000000E+00 -0.11639747075E+04  0.11639747075E+04  0.00000000000E+00 0.  1.
        -13    1    1    2    0    0  0.18163824584E+03 -0.55806883004E+02 -0.52640843863E+03  0.55965410386E+03  0.10566000000E+00 0.  1.
         13    1    1    2    0    0 -0.14058039862E+03  0.28520346690E+02 -0.23624243015E+03  0.27638153994E+03  0.10566000000E+00 0. -1.
         -4    1    1    2    0  502 -0.41057847226E+02  0.27286536314E+02 -0.36296517845E+03  0.36629772405E+03  0.00000000000E+00 0. -1.
</event>
<event>
 5    1  0.1008363E-004  0.1259020E+03  0.7818608E-02  0.1127647E+00
         21   -1    0    0  501  502  0.00000000000E+00  0.00000000000E+00  0.38453627485E+03  0.38453627485E+03  0.00000000000E+00 0.  1.
          4   -1    0    0  502    0 -0.00000000000E+00 -0.00000000000E+00 -0.17486315483E+03  0.17486315483E+03  0.00000000000E+00 0.  1.
        -13    1    1    2    0    0  0.99646773635E+02 -0.65112782519E+02 -0.86895388089E+02  0.14737697778E+03  0.10566000000E+00 0.  1.
         13    1    1    2    0    0 -0.13435651247E+03  0.64735570539E+02  0.41780189317E+02  0.15488047624E+03  0.10566000000E+00 0. -1.
          4    1    1    2  501    0  0.34709738834E+02  0.37721197979E+00  0.25478831879E+03  0.25714197567E+03  0.00000000000E+00 0.  1.
</event>
<event>
 5    1  0.1008363E-004  0.4818209E+03  0.7818608E-02  0.9761559E-01
         21   -1    0    0  501  502  0.00000000000E+00  0.00000000000E+00  0.48822801302E+03  0.48822801302E+03  0.00000000000E+00 0. -1.
         -4   -1    0    0    0  501 -0.00000000000E+00 -0.00000000000E+00 -0.99657692376E+03  0.99657692376E+03  0.00000000000E+00 0. -1.
        -13    1    1    2    0    0 -0.16002411735E+03  0.12744487132E+03 -0.43507890523E+03  0.48077393679E+03  0.10566000000E+00 0.  1.
         13    1    1    2    0    0  0.43378686607E+03  0.25844764383E+03  0.69781447112E+02  0.50974080796E+03  0.10566000000E+00 0. -1.
         -4    1    1    2    0  502 -0.27376274872E+03 -0.38589251515E+03 -0.14305145263E+03  0.49429019203E+03  0.00000000000E+00 0. -1.
</event>
<event>
 5    1  0.1008363E-004  0.3005956E+03  0.7818608E-02  0.1007060E+00
         -4   -1    0    0    0  501 -0.00000000000E+00  0.00000000000E+00  0.92462116154E+03  0.92462116154E+03  0.00000000000E+00 0. -1.
         21   -1    0    0  501  502  0.00000000000E+00 -0.00000000000E+00 -0.82645060099E+03  0.82645060099E+03  0.00000000000E+00 0. -1.
        -13    1    1    2    0    0 -0.95283563523E+02 -0.28056065069E+03  0.54899234526E+03  0.62384761161E+03  0.10566000000E+00 0.  1.
         13    1    1    2    0    0  0.16668578049E+03  0.35522987770E+03 -0.73042062381E+03  0.82914818597E+03  0.10566000000E+00 0. -1.
         -4    1    1    2    0  502 -0.71402216971E+02 -0.74669227019E+02  0.27959883911E+03  0.29807596495E+03  0.00000000000E+00 0. -1.
</event>
<event>
 5    1  0.1008363E-004  0.4353051E+03  0.7818608E-02  0.9681560E-01
         21   -1    0    0  501  502  0.00000000000E+00  0.00000000000E+00  0.20249938754E+03  0.20249938754E+03  0.00000000000E+00 0.  1.
          4   -1    0    0  502    0 -0.00000000000E+00 -0.00000000000E+00 -0.22555657392E+04  0.22555657392E+04  0.00000000000E+00 0.  1.
        -13    1    1    2    0    0  0.10197086387E+03  0.46850656923E+03 -0.45101088091E+03  0.65826080573E+03  0.10566000000E+00 0.  1.
         13    1    1    2    0    0 -0.35317987841E+03 -0.96416881228E+02 -0.62058222890E+03  0.72052380633E+03  0.10566000000E+00 0. -1.
          4    1    1    2  501    0  0.25120901454E+03 -0.37208968800E+03 -0.98147324188E+03  0.10792805147E+04  0.00000000000E+00 0.  1.
</event>
<event>
 5    1  0.1008363E-004  0.5042520E+03  0.7818608E-02  0.9804689E-01
         21   -1    0    0  501  502  0.00000000000E+00  0.00000000000E+00  0.66731937265E+03  0.66731937265E+03  0.00000000000E+00 0.  1.
          4   -1    0    0  502    0 -0.00000000000E+00 -0.00000000000E+00 -0.79657747672E+03  0.79657747672E+03  0.00000000000E+00 0.  1.
        -13    1    1    2    0    0  0.10106164017E+03 -0.57067353865E+03  0.21273252324E+03  0.61736284342E+03  0.10566000000E+00 0.  1.
         13    1    1    2    0    0  0.11394787828E+02  0.15353397738E+03 -0.38277954468E+03  0.41258055503E+03  0.10566000000E+00 0. -1.
          4    1    1    2  501    0 -0.11245642799E+03  0.41713956127E+03  0.40788917369E+02  0.43395345091E+03  0.00000000000E+00 0.  1.
</event>
<event>
 5    1  0.1008363E-004  0.5191350E+03  0.7818608E-02  0.9436990E-01
         21   -1    0    0  501  502  0.00000000000E+00  0.00000000000E+00  0.10581146933E+04  0.10581146933E+04  0.00000000000E+00 0. -1.
          4   -1    0    0  502    0 -0.00000000000E+00 -0.00000000000E+00 -0.75771069949E+03  0.75771069949E+03  0.00000000000E+00 0.  1.
        -13    1    1    2    0    0  0.49041576695E+03  0.16226688696E+03 -0.48675850225E+03  0.70976898901E+03  0.10566000000E+00 0.  1.
         13    1    1    2    0    0 -0.50503991804E+03 -0.15848016807E+03  0.28027755914E+03  0.59894641147E+03  0.10566000000E+00 0. -1.
          4    1    1    2  501    0  0.14624151090E+02 -0.37867188875E+01  0.50688493697E+03  0.50710999237E+03  0.00000000000E+00 0.  1.
</event>
<event>
 5    1  0.1008363E-004  0.3399241E+02  0.7818608E-02  0.1419408E+00
          4   -1    0    0  502    0 -0.00000000000E+00  0.00000000000E+00  0.18110580982E+03  0.18110580982E+03  0.00000000000E+00 0.  1.
         21   -1    0    0  501  502  0.00000000000E+00 -0.00000000000E+00 -0.12667132159E+03  0.12667132159E+03  0.00000000000E+00 0.  1.
        -13    1    1    2    0    0 -0.26349281999E+01 -0.22388251739E+02  0.13361203445E+03  0.13550041910E+03  0.10566000000E+00 0.  1.
         13    1    1    2    0    0 -0.36544358209E+02  0.52090067468E+02  0.15591809057E+02  0.65513211793E+02  0.10566000000E+00 0. -1.
          4    1    1    2  501    0  0.39179286409E+02 -0.29701815729E+02 -0.94769355286E+02  0.10676350052E+03  0.00000000000E+00 0.  1.
</event>
<event>
 5    1  0.1008363E-004  0.2065970E+03  0.7818608E-02  0.1055705E+00
          4   -1    0    0  502    0 -0.00000000000E+00  0.00000000000E+00  0.29890777513E+03  0.29890777513E+03  0.00000000000E+00 0.  1.
         21   -1    0    0  501  502  0.00000000000E+00 -0.00000000000E+00 -0.58443377554E+03  0.58443377554E+03  0.00000000000E+00 0. -1.
        -13    1    1    2    0    0  0.15285606159E+03 -0.13684018209E+03  0.22457076543E+03  0.30417470449E+03  0.10566000000E+00 0.  1.
         13    1    1    2    0    0 -0.19092017291E+03  0.11766484568E+03 -0.36932056832E+03  0.43208011026E+03  0.10566000000E+00 0. -1.
          4    1    1    2  501    0  0.38064111321E+02  0.19175336407E+02 -0.14077619752E+03  0.14708673593E+03  0.00000000000E+00 0.  1.
</event>
<event>
 5    1  0.1008363E-004  0.4940319E+03  0.7818608E-02  0.9939397E-01
         21   -1    0    0  501  502  0.00000000000E+00  0.00000000000E+00  0.34059674425E+03  0.34059674425E+03  0.00000000000E+00 0. -1.
         -4   -1    0    0    0  501 -0.00000000000E+00 -0.00000000000E+00 -0.10218308376E+04  0.10218308376E+04  0.00000000000E+00 0. -1.
        -13    1    1    2    0    0  0.88350741962E+02 -0.54957780899E+02 -0.22403113304E+03  0.24701451581E+03  0.10566000000E+00 0.  1.
         13    1    1    2    0    0 -0.47841114524E+03 -0.19551573443E+03 -0.91247979534E+02  0.52481409207E+03  0.10566000000E+00 0. -1.
         -4    1    1    2    0  502  0.39006040328E+03  0.25047351533E+03 -0.36595498077E+03  0.59059897396E+03  0.00000000000E+00 0. -1.
</event>
<event>
 5    1  0.1008363E-004  0.3433130E+03  0.7818608E-02  0.1021550E+00
         21   -1    0    0  501  502  0.00000000000E+00  0.00000000000E+00  0.17365919041E+03  0.17365919041E+03  0.00000000000E+00 0. -1.
         -4   -1    0    0    0  501 -0.00000000000E+00 -0.00000000000E+00 -0.18399212160E+04  0.18399212160E+04  0.00000000000E+00 0. -1.
        -13    1    1    2    0    0  0.22988887295E+02 -0.12505240904E+03 -0.13391226740E+03  0.18465941750E+03  0.10566000000E+00 0.  1.
         13    1    1    2    0    0  0.93157887231E+02  0.43178837483E+03 -0.14121109884E+04  0.14795867826E+04  0.10566000000E+00 0. -1.
         -4    1    1    2    0  502 -0.11614677453E+03 -0.30673596579E+03 -0.12023876982E+03  0.34933420633E+03  0.00000000000E+00 0. -1.
</event>
<event>
 5    1  0.1008363E-004  0.4231853E+03  0.7818608E-02  0.9898708E-01
          4   -1    0    0  502    0 -0.00000000000E+00  0.00000000000E+00  0.25504432042E+04  0.25504432042E+04  0.00000000000E+00 0.  1.
         21   -1    0    0  501  502  0.00000000000E+00 -0.00000000000E+00 -0.14958180860E+03  0.14958180860E+03  0.00000000000E+00 0.  1.
        -13    1    1    2    0    0  0.15765997603E+03 -0.38032913300E+03  0.35253241334E+03  0.54202032348E+03  0.10566000000E+00 0.  1.
         13    1    1    2    0    0  0.18678548462E+03  0.32446523281E+02  0.55740606876E+03  0.58876407057E+03  0.10566000000E+00 0. -1.
          4    1    1    2  501    0 -0.34444546065E+03  0.34788260972E+03  0.14909229135E+04  0.15692406188E+04  0.00000000000E+00 0.  1.
</event>
<event>
 5    1  0.1008363E-004  0.1413101E+03  0.7818608E-02  0.1110013E+00
         -4   -1    0    0    0  501 -0.00000000000E+00  0.00000000000E+00  0.22859947475E+03  0.22859947475E+03  0.00000000000E+00 0. -1.
         21   -1    0    0  501  502  0.00000000000E+00 -0.00000000000E+00 -0.45569346313E+03  0.45569346313E+03  0.00000000000E+00 0.  1.
        -13    1    1    2    0    0 -0.14284474828E+03 -0.15136220480E+02 -0.34767394741E+03  0.37617936168E+03  0.10566000000E+00 0.  1.
         13    1    1    2    0    0  0.12190938052E+03  0.72835695735E+02  0.17549378024E+03  0.22575432155E+03  0.10566000000E+00 0. -1.
         -4    1    1    2    0  502  0.20935367757E+02 -0.57699475256E+02 -0.54913821201E+02  0.82359254652E+02  0.00000000000E+00 0. -1.
</event>
<event>
 5    1  0.1008363E-004  0.3705750E+03  0.7818608E-02  0.9819474E-01
         21   -1    0    0  501  502  0.00000000000E+00  0.00000000000E+00  0.32723516843E+03  0.32723516843E+03  0.00000000000E+00 0.  1.
          4   -1    0    0  502    0 -0.00000000000E+00 -0.00000000000E+00 -0.16605894293E+04  0.16605894293E+04  0.00000000000E+00 0.  1.
        -13    1    1    2    0    0  0.18183118045E+03  0.45642550175E+03 -0.35011919720E+02  0.49255726826E+03  0.10566000000E+00 0.  1.
         13    1    1    2    0    0 -0.34905242232E+03 -0.12572505938E+03 -0.63559855538E+03  0.73595510655E+03  0.10566000000E+00 0. -1.
          4    1    1    2  501    0  0.16722124187E+03 -0.33070044237E+03 -0.66274378580E+03  0.75931222296E+03  0.00000000000E+00 0.  1.
</event>
<event>
 5    1  0.1008363E-004  0.3413364E+03  0.7818608E-02  0.9992337E-01
          4   -1    0    0  502    0 -0.00000000000E+00  0.00000000000E+00  0.24118290558E+04  0.24118290558E+04  0.00000000000E+00 0.  1.
         21   -1    0    0  501  502  0.00000000000E+00 -0.00000000000E+00 -0.17658803820E+03  0.17658803820E+03  0.00000000000E+00 0.  1.
        -13    1    1    2    0    0  0.21769527134E+03 -0.35024230973E+03  0.17578477854E+04  0.18055718636E+04  0.10566000000E+00 0.  1.
         13    1    1    2    0    0  0.10772572338E+03  0.24199900307E+03  0.28711454607E+03  0.39064449656E+03  0.10566000000E+00 0. -1.
          4    1    1    2  501    0 -0.32542099472E+03  0.10824330666E+03  0.19027868608E+03  0.39220073383E+03  0.00000000000E+00 0.  1.
</event>
<event>
 5    1  0.1008363E-004  0.3812450E+03  0.7818608E-02  0.9784829E-01
         -4   -1    0    0    0  501 -0.00000000000E+00  0.00000000000E+00  0.50815218062E+03  0.50815218062E+03  0.00000000000E+00 0. -1.
         21   -1    0    0  501  502  0.00000000000E+00 -0.00000000000E+00 -0.12137923927E+04  0.12137923927E+04  0.00000000000E+00 0. -1.
        -13    1    1    2    0    0  0.38066990400E+03 -0.25354062468E+03 -0.13317377095E+03  0.47636927757E+03  0.10566000000E+00 0.  1.
         13    1    1    2    0    0 -0.26148850153E+03  0.24524753416E+03  0.23542961615E+03  0.42889358210E+03  0.10566000000E+00 0. -1.
         -4    1    1    2    0  502 -0.11918140247E+03  0.82930905196E+01 -0.80789605726E+03  0.81668171363E+03  0.00000000000E+00 0. -1.
</event>
<event>
 5    1  0.1008363E-004  0.4218378E+03  0.7818608E-02  0.1000934E+00
         21   -1    0    0  501  502  0.00000000000E+00  0.00000000000E+00  0.17275004521E+04  0.17275004521E+04  0.00000000000E+00 0.  1.
          4   -1    0    0  502    0 -0.00000000000E+00 -0.00000000000E+00 -0.22233095095E+03  0.22233095095E+03  0.00000000000E+00 0.  1.
        -13    1    1    2    0    0  0.33592561928E+03  0.18482634243E+03  0.18710160523E+03  0.42663077759E+03  0.10566000000E+00 0.  1.
         13    1    1    2    0    0  0.91991037777E+02 -0.95687182952E+02 -0.18944157901E+01  0.13274783609E+03  0.10566000000E+00 0. -1.
          4    1    1    2  501    0 -0.42791665705E+03 -0.89139159479E+02  0.13199623117E+04  0.13904527893E+04  0.00000000000E+00 0.  1.
</event>
<event>
 5    1  0.1008363E-004  0.2317504E+03  0.7818608E-02  0.1040309E+00
         -4   -1    0    0    0  501 -0.00000000000E+00  0.00000000000E+00  0.22207582689E+03  0.22207582689E+03  0.00000000000E+00 0. -1.
         21   -1    0    0  501  502  0.00000000000E+00 -0.00000000000E+00 -0.30171768610E+03  0.30171768610E+03  0.00000000000E+00 0.  1.
        -13    1    1    2    0    0  0.10237555079E+03  0.19760897355E+03 -0.84268083726E+01  0.22271300386E+03  0.10566000000E+00 0.  1.
         13    1    1    2    0    0 -0.12745262776E+03 -0.20640321064E+03 -0.20030436308E+02  0.24340847813E+03  0.10566000000E+00 0. -1.
         -4    1    1    2    0  502  0.25077076966E+02  0.87942370904E+01 -0.51184614525E+02  0.57672030996E+02  0.00000000000E+00 0. -1.
</event>
<event>
 5    1  0.1008363E-004  0.4143382E+03  0.7818608E-02  0.9731819E-01
          4   -1    0    0  502    0 -0.00000000000E+00  0.00000000000E+00  0.20675365030E+03  0.20675365030E+03  0.00000000000E+00 0.  1.
         21   -1    0    0  501  502  0.00000000000E+00 -0.00000000000E+00 -0.19274284022E+04  0.19274284022E+04  0.00000000000E+00 0.  1.
        -13    1    1    2    0    0  0.27232782316E+03  0.35432589108E+03 -0.57749647277E+03  0.73021330280E+03  0.10566000000E+00 0.  1.
         13    1    1    2    0    0  0.17960091232E+03 -0.30790358967E+03 -0.43211771754E+03  0.56016679767E+03  0.10566000000E+00 0. -1.
          4    1    1    2  501    0 -0.45192873547E+03 -0.46422301409E+02 -0.71106056153E+03  0.84380195199E+03  0.00000000000E+00 0.  1.
</event>
<event>
 5    1  0.1008363E-004  0.3579107E+03  0.7818608E-02  0.1008467E+00
         -4   -1    0    0    0  501 -0.00000000000E+00  0.00000000000E+00  0.67507426701E+03  0.67507426701E+03  0.00000000000E+00 0. -1.
         21   -1    0    0  501  502  0.00000000000E+00 -0.00000000000E+00 -0.70070590226E+03  0.70070590226E+03  0.00000000000E+00 0. -1.
        -13    1    1    2    0    0  0.73210160183E+02 -0.15361768753E+03  0.26693071916E+03  0.31655985448E+03  0.10566000000E+00 0.  1.
         13    1    1    2    0    0  0.23917497905E+03 -0.23303881224E+03 -0.42910326783E+03  0.54372914603E+03  0.10566000000E+00 0. -1.
         -4    1    1    2    0  502 -0.31238513923E+03  0.38665649977E+03  0.13654091341E+03  0.51549116875E+03  0.00000000000E+00 0. -1.
</event>
<event>
 5    1  0.1008363E-004  0.4422378E+03  0.7818608E-02  0.9807730E-01
         21   -1    0    0  501  502  0.00000000000E+00  0.00000000000E+00  0.39567906093E+03  0.39567906093E+03  0.00000000000E+00 0. -1.
         -4   -1    0    0    0  501 -0.00000000000E+00 -0.00000000000E+00 -0.10141003336E+04  0.10141003336E+04  0.00000000000E+00 0. -1.
        -13    1    1    2    0    0  0.17692945688E+03  0.14041269992E+03 -0.18571709082E+03  0.29242196907E+03  0.10566000000E+00 0.  1.
         13    1    1    2    0    0  0.21763894966E+03 -0.37628781808E+03 -0.48893992024E+03  0.65423351428E+03  0.10566000000E+00 0. -1.
         -4    1    1    2    0  502 -0.39456840654E+03  0.23587511816E+03  0.56235738407E+02  0.46312391115E+03  0.00000000000E+00 0. -1.
</event>
<event>
 5    1  0.1008363E-004  0.1806968E+03  0.7818608E-02  0.1074241E+00
         21   -1    0    0  501  502  0.00000000000E+00  0.00000000000E+00  0.16551037758E+03  0.16551037758E+03  0.00000000000E+00 0. -1.
          4   -1    0    0  502    0 -0.00000000000E+00 -0.00000000000E+00 -0.39289892182E+03  0.39289892182E+03  0.00000000000E+00 0.  1.
        -13    1    1    2    0    0  0.17713184516E+03  0.26969828514E+02 -0.25335423100E+03  0.31030862016E+03  0.10566000000E+00 0.  1.
         13    1    1    2    0    0 -0.17970200415E+03 -0.46447216650E+02 -0.30696876850E+02  0.18812884852E+03  0.10566000000E+00 0. -1.
          4    1    1    2  501    0  0.25701589994E+01  0.19477388136E+02  0.56662563601E+02  0.59971830719E+02  0.00000000000E+00 0.  1.
</event>
<event>
 5    1  0.1008363E-004  0.4703303E+03  0.7818608E-02  0.9597120E-01
         21   -1    0    0  501  502  0.00000000000E+00  0.00000000000E+00  0.42603403673E+03  0.42603403673E+03  0.00000000000E+00 0. -1.
         -4   -1    0    0    0  501 -0.00000000000E+00 -0.00000000000E+00 -0.12607495668E+04  0.12607495668E+04  0.00000000000E+00 0. -1.
        -13    1    1    2    0    0 -0.37755277944E+03 -0.10154676184E+03 -0.13356649815E+03  0.41315598349E+03  0.10566000000E+00 0.  1.
         13    1    1    2    0    0  0.20825369566E+03 -0.40231867532E+03 -0.56636481065E+03  0.72525790459E+03  0.10566000000E+00 0. -1.
         -4    1    1    2    0  502  0.16929908378E+03  0.50386543717E+03 -0.13478422129E+03  0.54836971547E+03  0.00000000000E+00 0. -1.
</event>
<event>
 5    1  0.1008363E-004  0.4787342E+03  0.7818608E-02  0.9579293E-01
         21   -1    0    0  501  502  0.00000000000E+00  0.00000000000E+00  0.36451787094E+03  0.36451787094E+03  0.00000000000E+00 0.  1.
         -4   -1    0    0    0  501 -0.00000000000E+00 -0.00000000000E+00 -0.23151699332E+04  0.23151699332E+04  0.00000000000E+00 0. -1.
        -13    1    1    2    0    0 -0.81662238427E+02  0.64128027245E+03 -0.56093867843E+03  0.85589796187E+03  0.10566000000E+00 0.  1.
         13    1    1    2    0    0 -0.31584197146E+03 -0.29529161160E+03 -0.11797940597E+04  0.12565298728E+04  0.10566000000E+00 0. -1.
         -4    1    1    2    0  502  0.39750420989E+03 -0.34598866084E+03 -0.20991932415E+03  0.56725996947E+03  0.00000000000E+00 0. -1.
</event>
<event>
 5    1  0.1008363E-004  0.1534384E+03  0.7818608E-02  0.1097769E+00
         21   -1    0    0  501  502  0.00000000000E+00  0.00000000000E+00  0.89294820063E+03  0.89294820063E+03  0.00000000000E+00 0.  1.
          4   -1    0    0  502    0 -0.00000000000E+00 -0.00000000000E+00 -0.98285017281E+02  0.98285017281E+02  0.00000000000E+00 0.  1.
        -13    1    1    2    0    0  0.19053205903E+02  0.14368551586E+03  0.69548132864E+02  0.16076537585E+03  0.10566000000E+00 0.  1.
         13    1    1    2    0    0  0.76580918558E+01 -0.16408554210E+03  0.76885110981E+02  0.18136714959E+03  0.10566000000E+00 0. -1.
          4    1    1    2  501    0 -0.26711297759E+02  0.20400026240E+02  0.64822993950E+03  0.64910069247E+03  0.00000000000E+00 0.  1.
</event>
<event>
 5    1  0.1008363E-004  0.5209829E+03  0.7818608E-02  0.9616347E-01
         21   -1    0    0  501  502  0.00000000000E+00  0.00000000000E+00  0.26924707965E+03  0.26924707965E+03  0.00000000000E+00 0.  1.
          4   -1    0    0  502    0 -0.00000000000E+00 -0.00000000000E+00 -0.17598171007E+04  0.17598171007E+04  0.00000000000E+00 0.  1.
        -13    1    1    2    0    0  0.13016605941E+03 -0.60240645966E+03 -0.52682024416E+03  0.81078747307E+03  0.10566000000E+00 0.  1.
         13    1    1    2    0    0  0.13965336000E+03  0.22952238048E+03 -0.48316149436E+03  0.55283688815E+03  0.10566000000E+00 0. -1.
          4    1    1    2  501    0 -0.26981941941E+03  0.37288407918E+03 -0.48058828256E+03  0.66543981917E+03  0.00000000000E+00 0.  1.
</event>
<event>
 5    1  0.1008363E-004  0.1168812E+03  0.7818608E-02  0.1139300E+00
          4   -1    0    0  502    0 -0.00000000000E+00  0.00000000000E+00  0.22951240512E+03  0.22951240512E+03  0.00000000000E+00 0.  1.
         21   -1    0    0  501  502  0.00000000000E+00 -0.00000000000E+00 -0.98670597434E+02  0.98670597434E+02  0.00000000000E+00 0.  1.
        -13    1    1    2    0    0  0.27632318343E+02  0.11883549533E+03  0.15315009708E+03  0.19580700541E+03  0.10566000000E+00 0.  1.
         13    1    1    2    0    0 -0.37993430878E+02 -0.96963860570E+02 -0.84417868225E+01  0.10448332870E+03  0.10566000000E+00 0. -1.
          4    1    1    2  501    0  0.10361112535E+02 -0.21871634757E+02 -0.13866502570E+02  0.27892668453E+02  0.00000000000E+00 0.  1.
</event>
<event>
 5    1  0.1008363E-004  0.2142537E+03  0.7818608E-02  0.1050780E+00
         21   -1    0    0  501  502  0.00000000000E+00  0.00000000000E+00  0.53598792256E+03  0.53598792256E+03  0.00000000000E+00 0.  1.
         -4   -1    0    0    0  501 -0.00000000000E+00 -0.00000000000E+00 -0.97326168448E+02  0.97326168448E+02  0.00000000000E+00 0. -1.
        -13    1    1    2    0    0  0.17467489301E+03 -0.10874625525E+03  0.18760428836E+03  0.27844648759E+03  0.10566000000E+00 0.  1.
         13    1    1    2    0    0 -0.19414560152E+03  0.11054306714E+03  0.19873752081E+03  0.29901320644E+03  0.10566000000E+00 0. -1.
         -4    1    1    2    0  502  0.19470708507E+02 -0.17968118943E+01  0.52319944944E+02  0.55854396977E+02  0.00000000000E+00 0. -1.
</event>
<event>
 5    1  0.1008363E-004  0.2567532E+02  0.7818608E-02  0.1443425E+00
         -4   -1    0    0    0  501 -0.00000000000E+00  0.00000000000E+00  0.13944951352E+03  0.13944951352E+03  0.00000000000E+00 0. -1.
         21   -1    0    0  501  502  0.00000000000E+00 -0.00000000000E+00 -0.25340385449E+02  0.25340385449E+02  0.00000000000E+00 0. -1.
        -13    1    1    2    0    0 -0.25426512312E+02  0.23525314904E+02  0.63712956612E+02  0.72521031252E+02  0.10566000000E+00 0.  1.
         13    1    1    2    0    0  0.16872570664E+02 -0.14267133410E+02  0.67498572031E+02  0.71023257647E+02  0.10566000000E+00 0. -1.
         -4    1    1    2    0  502  0.85539416478E+01 -0.92581814939E+01 -0.17102400567E+02  0.21245610075E+02  0.00000000000E+00 0. -1.
</event>
<event>
 5    1  0.1008363E-004  0.4961433E+03  0.7818608E-02  0.9583711E-01
          4   -1    0    0  502    0 -0.00000000000E+00  0.00000000000E+00  0.22313967547E+04  0.22313967547E+04  0.00000000000E+00 0.  1.
         21   -1    0    0  501  502  0.00000000000E+00 -0.00000000000E+00 -0.22604080654E+03  0.22604080654E+03  0.00000000000E+00 0.  1.
        -13    1    1    2    0    0 -0.34543184930E+02  0.39124581153E+03  0.81239910534E+03  0.90236291711E+03  0.10566000000E+00 0.  1.
         13    1    1    2    0    0 -0.31706086117E+03  0.14674518942E+03  0.34424753215E+03  0.49047743562E+03  0.10566000000E+00 0. -1.
          4    1    1    2  501    0  0.35160404610E+03 -0.53799100095E+03  0.84870931071E+03  0.10645972085E+04  0.00000000000E+00 0.  1.
</event>
<event>
 5    1  0.1008363E-004  0.4317798E+03  0.7818608E-02  0.9728022E-01
         21   -1    0    0  501  502  0.00000000000E+00  0.00000000000E+00  0.82278168869E+03  0.82278168869E+03  0.00000000000E+00 0. -1.
         -4   -1    0    0    0  501 -0.00000000000E+00 -0.00000000000E+00 -0.18068548967E+04  0.18068548967E+04  0.00000000000E+00 0. -1.
        -13    1    1    2    0    0  0.27872388626E+03 -0.15546280876E+03 -0.14467698396E+04  0.14815527900E+04  0.10566000000E+00 0.  1.
         13    1    1    2    0    0  0.64615489054E+02 -0.21626521208E+03 -0.20865721458E+03  0.30738192488E+03  0.10566000000E+00 0. -1.
         -4    1    1    2    0  502 -0.34333937532E+03  0.37172802085E+03  0.67135384622E+03  0.84070187044E+03  0.00000000000E+00 0. -1.
</event>
<event>
 5    1  0.1008363E-004  0.5402977E+02  0.7818608E-02  0.1295717E+00
         21   -1    0    0  501  502  0.00000000000E+00  0.00000000000E+00  0.87435600295E+03  0.87435600295E+03  0.00000000000E+00 0. -1.
         -4   -1    0    0    0  501 -0.00000000000E+00 -0.00000000000E+00 -0.36704650582E+02  0.36704650582E+02  0.00000000000E+00 0. -1.
        -13    1    1    2    0    0  0.56556857402E+02 -0.79934472617E+02  0.45086882832E+03  0.46137935535E+03  0.10566000000E+00 0.  1.
         13    1    1    2    0    0 -0.39830674231E+02  0.16539434121E+02 -0.12617155261E+02  0.44935946209E+02  0.10566000000E+00 0. -1.
         -4    1    1    2    0  502 -0.16726183171E+02  0.63395038496E+02  0.39939967931E+03  0.40474535197E+03  0.00000000000E+00 0. -1.
</event>
<event>
 5    1  0.1008363E-004  0.2064928E+03  0.7818608E-02  0.1055774E+00
         21   -1    0    0  501  502  0.00000000000E+00  0.00000000000E+00  0.50685462720E+03  0.50685462720E+03  0.00000000000E+00 0.  1.
         -4   -1    0    0    0  501 -0.00000000000E+00 -0.00000000000E+00 -0.36775989273E+03  0.36775989273E+03  0.00000000000E+00 0. -1.
        -13    1    1    2    0    0  0.18274637742E+03  0.36843083998E+02  0.40756287696E+03  0.44817536873E+03  0.10566000000E+00 0.  1.
         13    1    1    2    0    0 -0.19851660760E+03 -0.62238822216E+02 -0.31117100236E+03  0.37431259444E+03  0.10566000000E+00 0. -1.
         -4    1    1    2    0  502  0.15770230183E+02  0.25395738218E+02  0.42702859859E+02  0.52126556762E+02  0.00000000000E+00 0. -1.
</event>
<event>
 5    1  0.1008363E-004  0.3720675E+03  0.7818608E-02  0.1000098E+00
          4   -1    0    0  502    0 -0.00000000000E+00  0.00000000000E+00  0.36232589601E+03  0.36232589601E+03  0.00000000000E+00 0.  1.
         21   -1    0    0  501  502  0.00000000000E+00 -0.00000000000E+00 -0.16980509243E+04  0.16980509243E+04  0.00000000000E+00 0.  1.
        -13    1    1    2    0    0  0.32781018350E+03 -0.10905096750E+03 -0.11037605896E+04  0.11565634787E+04  0.10566000000E+00 0.  1.
         13    1    1    2    0    0  0.10013226775E+03 -0.17175513607E+03  0.16316596452E+03  0.25719533618E+03  0.10566000000E+00 0. -1.
          4    1    1    2  501    0 -0.42794245125E+03  0.28080610357E+03 -0.39513040313E+03  0.64661800537E+03  0.00000000000E+00 0.  1.
</event>
<event>
 5    1  0.1008363E-004  0.4536741E+03  0.7818608E-02  0.9585734E-01
          4   -1    0    0  502    0 -0.00000000000E+00  0.00000000000E+00  0.10135920375E+04  0.10135920375E+04  0.00000000000E+00 0.  1.
         21   -1    0    0  501  502  0.00000000000E+00 -0.00000000000E+00 -0.30959842084E+03  0.30959842084E+03  0.00000000000E+00 0. -1.
        -13    1    1    2    0    0 -0.45421670857E+03 -0.69536825546E+02  0.43285518381E+03  0.63127791800E+03  0.10566000000E+00 0.  1.
         13    1    1    2    0    0  0.42570602221E+03  0.15009656587E+03  0.35341533992E+03  0.57328615027E+03  0.10566000000E+00 0. -1.
          4    1    1    2  501    0  0.28510686353E+02 -0.80559740327E+02 -0.82276907033E+02  0.11862639010E+03  0.00000000000E+00 0.  1.
</event>
<event>
 5    1  0.1008363E-004  0.3943211E+03  0.7818608E-02  0.9817168E-01
         -4   -1    0    0    0  501 -0.00000000000E+00  0.00000000000E+00  0.34232163874E+03  0.34232163874E+03  0.00000000000E+00 0. -1.
         21   -1    0    0  501  502  0.00000000000E+00 -0.00000000000E+00 -0.14736522757E+04  0.14736522757E+04  0.00000000000E+00 0.  1.
        -13    1    1    2    0    0  0.15606584279E+03 -0.26617273488E+03 -0.52138735686E+03  0.60584590379E+03  0.10566000000E+00 0.  1.
         13    1    1    2    0    0  0.35436731198E+03 -0.35861025188E+02 -0.48876643040E+03  0.60477668571E+03  0.10566000000E+00 0. -1.
         -4    1    1    2    0  502 -0.51043315477E+03  0.30203376006E+03 -0.12117684969E+03  0.60535132494E+03  0.00000000000E+00 0. -1.
</event>
<event>
 5    1  0.1008363E-004  0.2722339E+03  0.7818608E-02  0.1019474E+00
         21   -1    0    0  501  502  0.00000000000E+00  0.00000000000E+00  0.34215166826E+03  0.34215166826E+03  0.00000000000E+00 0. -1.
          4   -1    0    0  502    0 -0.00000000000E+00 -0.00000000000E+00 -0.52004488950E+03  0.52004488950E+03  0.00000000000E+00 0.  1.
        -13    1    1    2    0    0 -0.25357325306E+03 -0.16582334863E+02 -0.25342455540E+03  0.35888491880E+03  0.10566000000E+00 0.  1.
         13    1    1    2    0    0  0.31124108732E+03  0.27024111181E+02 -0.92121226173E+02  0.32571098922E+03  0.10566000000E+00 0. -1.
          4    1    1    2  501    0 -0.57667834259E+02 -0.10441776318E+02  0.16765256034E+03  0.17760064974E+03  0.00000000000E+00 0.  1.
</event>
<event>
 5    1  0.1008363E-004  0.3081914E+03  0.7818608E-02  0.1003980E+00
         -4   -1    0    0    0  501 -0.00000000000E+00  0.00000000000E+00  0.14755725750E+04  0.14755725750E+04  0.00000000000E+00 0. -1.
         21   -1    0    0  501  502  0.00000000000E+00 -0.00000000000E+00 -0.14532879182E+03  0.14532879182E+03  0.00000000000E+00 0.  1.
        -13    1    1    2    0    0 -0.35257363167E+03 -0.19215081381E+03  0.49913737699E+03  0.64059990108E+03  0.10566000000E+00 0.  1.
         13    1    1    2    0    0  0.22138741980E+03  0.16823335589E+03  0.79489427792E+03  0.84212337334E+03  0.10566000000E+00 0. -1.
         -4    1    1    2    0  502  0.13118621187E+03  0.23917457920E+02  0.36212128226E+02  0.13817809236E+03  0.00000000000E+00 0. -1.
</event>
<event>
 5    1  0.1008363E-004  0.4923806E+03  0.7818608E-02  0.9951276E-01
         21   -1    0    0  501  502  0.00000000000E+00  0.00000000000E+00  0.63004973748E+03  0.63004973748E+03  0.00000000000E+00 0. -1.
         -4   -1    0    0    0  501 -0.00000000000E+00 -0.00000000000E+00 -0.54210014203E+03  0.54210014203E+03  0.00000000000E+00 0. -1.
        -13    1    1    2    0    0  0.46561953320E+02 -0.89673889163E+02 -0.10600113989E+03  0.14644341814E+03  0.10566000000E+00 0.  1.
         13    1    1    2    0    0  0.14977529492E+03  0.49909038197E+03  0.23131007409E+03  0.57011245371E+03  0.10566000000E+00 0. -1.
         -4    1    1    2    0  502 -0.19633724824E+03 -0.40941649280E+03 -0.37359338758E+02  0.45559400766E+03  0.00000000000E+00 0. -1.
</event>
<event>
 5    1  0.1008363E-004  0.4634108E+03  0.7818608E-02  0.9770782E-01
         21   -1    0    0  501  502  0.00000000000E+00  0.00000000000E+00  0.20851176501E+03  0.20851176501E+03  0.00000000000E+00 0. -1.
         -4   -1    0    0    0  501 -0.00000000000E+00 -0.00000000000E+00 -0.18497415869E+04  0.18497415869E+04  0.00000000000E+00 0. -1.
        -13    1    1    2    0    0  0.10254394371E+03  0.19775449331E+03 -0.30251823889E+03  0.37568523532E+03  0.10566000000E+00 0.  1.
         13    1    1    2    0    0 -0.52988416646E+03 -0.78691691478E+02 -0.95971544764E+03  0.10991011618E+04  0.10566000000E+00 0. -1.
         -4    1    1    2    0  502  0.42734022275E+03 -0.11906280183E+03 -0.37899613534E+03  0.58346695481E+03  0.00000000000E+00 0. -1.
</event>
<event>
 5    1  0.1008363E-004  0.4149595E+03  0.7818608E-02  0.9829470E-01
         21   -1    0    0  501  502  0.00000000000E+00  0.00000000000E+00  0.40748336072E+03  0.40748336072E+03  0.00000000000E+00 0. -1.
         -4   -1    0    0    0  501 -0.00000000000E+00 -0.00000000000E+00 -0.14251689299E+04  0.14251689299E+04  0.00000000000E+00 0. -1.
        -13    1    1    2    0    0  0.48921412116E+01 -0.25387898470E+03 -0.71792891320E+03  0.76151192210E+03  0.10566000000E+00 0.  1.
         13    1    1    2    0    0 -0.10295327686E+03  0.60014236537E+03 -0.35833574244E+03  0.70652300132E+03  0.10566000000E+00 0. -1.
         -4    1    1    2    0  502  0.98061135651E+02 -0.34626338066E+03  0.58579086437E+02  0.36461736722E+03  0.00000000000E+00 0. -1.
</event>
<event>
 5    1  0.1008363E-004  0.2978323E+03  0.7818608E-02  0.1008204E+00
         -4   -1    0    0    0  501 -0.00000000000E+00  0.00000000000E+00  0.35494500364E+03  0.35494500364E+03  0.00000000000E+00 0. -1.
         21   -1    0    0  501  502  0.00000000000E+00 -0.00000000000E+00 -0.30860914130E+03  0.30860914130E+03  0.00000000000E+00 0.  1.
        -13    1    1    2    0    0 -0.15331744149E+03  0.25435702738E+03  0.71458764176E+02  0.30546702176E+03  0.10566000000E+00 0.  1.
         13    1    1    2    0    0  0.16915606540E+03 -0.24664942056E+03  0.29653801614E+02  0.30054794999E+03  0.10566000000E+00 0. -1.
         -4    1    1    2    0  502 -0.15838623911E+02 -0.77076068134E+01 -0.54776703456E+02  0.57539173192E+02  0.00000000000E+00 0. -1.
</event>
<event>
 5    1  0.1008363E-004  0.3172453E+02  0.7818608E-02  0.1391573E+00
         21   -1    0    0  501  502  0.00000000000E+00  0.00000000000E+00  0.77625048000E+02  0.77625048000E+02  0.00000000000E+00 0. -1.
         -4   -1    0    0    0  501 -0.00000000000E+00 -0.00000000000E+00 -0.64502452293E+02  0.64502452293E+02  0.00000000000E+00 0. -1.
        -13    1    1    2    0    0 -0.93481180624E+01  0.42578839847E+02  0.26046930417E+01  0.43670819821E+02  0.10566000000E+00 0.  1.
         13    1    1    2    0    0  0.18527635275E+02 -0.23299936326E+02 -0.36332115250E+02  0.46970140135E+02  0.10566000000E+00 0. -1.
         -4    1    1    2    0  502 -0.91795172126E+01 -0.19278903520E+02  0.46850017916E+02  0.51486540337E+02  0.00000000000E+00 0. -1.
</event>
<event>
 5    1  0.1008363E-004  0.6509667E+02  0.7818608E-02  0.1240212E+00
          4   -1    0    0  502    0 -0.00000000000E+00  0.00000000000E+00  0.37297032485E+03  0.37297032485E+03  0.00000000000E+00 0.  1.
         21   -1    0    0  501  502  0.00000000000E+00 -0.00000000000E+00 -0.17381638988E+03  0.17381638988E+03  0.00000000000E+00 0.  1.
        -13    1    1    2    0    0 -0.24526196197E+02  0.61732400928E+02  0.36119536262E+03  0.36725267156E+03  0.10566000000E+00 0.  1.
         13    1    1    2    0    0  0.45952626761E+00 -0.39899630539E+02 -0.56980301185E+02  0.69562616172E+02  0.10566000000E+00 0. -1.
          4    1    1    2  501    0  0.24066669930E+02 -0.21832770389E+02 -0.10506112647E+03  0.10997142701E+03  0.00000000000E+00 0.  1.
</event>
<event>
 5    1  0.1008363E-004  0.5134684E+03  0.7818608E-02  0.9595662E-01
         21   -1    0    0  501  502  0.00000000000E+00  0.00000000000E+00  0.96823534680E+03  0.96823534680E+03  0.00000000000E+00 0. -1.
         -4   -1    0    0    0  501 -0.00000000000E+00 -0.00000000000E+00 -0.56408845825E+03  0.56408845825E+03  0.00000000000E+00 0. -1.
        -13    1    1    2    0    0 -0.29109251713E+03 -0.80583719023E+02 -0.13733444783E+03  0.33179715343E+03  0.10566000000E+00 0.  1.
         13    1    1    2    0    0 -0.76088368441E+02  0.50475414060E+03  0.25724533059E+03  0.57161294032E+03  0.10566000000E+00 0. -1.
         -4    1    1    2    0  502  0.36718088557E+03 -0.42417042158E+03  0.28423600578E+03  0.62891371129E+03  0.00000000000E+00 0. -1.
</event>
<event>
 5    1  0.1008363E-004  0.3329903E+03  0.7818608E-02  0.1008975E+00
         -4   -1    0    0    0  501 -0.00000000000E+00  0.00000000000E+00  0.12645937605E+04  0.12645937605E+04  0.00000000000E+00 0. -1.
         21   -1    0    0  501  502  0.00000000000E+00 -0.00000000000E+00 -0.24302642745E+03  0.24302642745E+03  0.00000000000E+00 0. -1.
        -13    1    1    2    0    0  0.12804077022E+03  0.16376508860E+03  0.61652765133E+03  0.65063030909E+03  0.10566000000E+00 0.  1.
         13    1    1    2    0    0 -0.22568208126E+03  0.22614588674E+03  0.55418395286E+02  0.32426158205E+03  0.10566000000E+00 0. -1.
         -4    1    1    2    0  502  0.97641311039E+02 -0.38991097534E+03  0.34962128647E+03  0.53272829685E+03  0.00000000000E+00 0. -1.
</event>
<event>
 5    1  0.1008363E-004  0.5370630E+02  0.7818608E-02  0.1277393E+00
         21   -1    0    0  501  502  0.00000000000E+00  0.00000000000E+00  0.23003185091E+03  0.23003185091E+03  0.00000000000E+00 0.  1.
         -4   -1    0    0    0  501 -0.00000000000E+00 -0.00000000000E+00 -0.29084771633E+02  0.29084771633E+02  0.00000000000E+00 0. -1.
        -13    1    1    2    0    0 -0.19260606370E+02 -0.53743503997E+02  0.47900577513E+02  0.74523899990E+02  0.10566000000E+00 0.  1.
         13    1    1    2    0    0 -0.12466413213E+02  0.53546127609E+02  0.42234162297E+02  0.69327735210E+02  0.10566000000E+00 0. -1.
         -4    1    1    2    0  502  0.31727019584E+02  0.19737638813E+00  0.11081233946E+03  0.11526498734E+03  0.00000000000E+00 0. -1.
</event>
<event>
 5    1  0.1008363E-004  0.7460111E+02  0.7818608E-02  0.1215148E+00
         21   -1    0    0  501  502  0.00000000000E+00  0.00000000000E+00  0.14827348971E+03  0.14827348971E+03  0.00000000000E+00 0.  1.
         -4   -1    0    0    0  501 -0.00000000000E+00 -0.00000000000E+00 -0.17066395464E+03  0.17066395464E+03  0.00000000000E+00 0. -1.
        -13    1    1    2    0    0  0.77094589749E+01 -0.59390859865E+02  0.94731019799E+02  0.11207447198E+03  0.10566000000E+00 0.  1.
         13    1    1    2    0    0 -0.30496790412E+02  0.69729212316E+02 -0.14841749548E+03  0.16679322949E+03  0.10566000000E+00 0. -1.
         -4    1    1    2    0  502  0.22787331437E+02 -0.10338352451E+02  0.31296010752E+02  0.40069742879E+02  0.00000000000E+00 0. -1.
</event>
<event>
 5    1  0.1008363E-004  0.2631354E+02  0.7818608E-02  0.1437210E+00
         21   -1    0    0  501  502  0.00000000000E+00  0.00000000000E+00  0.38947194026E+02  0.38947194026E+02  0.00000000000E+00 0. -1.
         -4   -1    0    0    0  501 -0.00000000000E+00 -0.00000000000E+00 -0.59760735900E+02  0.59760735900E+02  0.00000000000E+00 0. -1.
        -13    1    1    2    0    0 -0.14279616824E+02  0.12090218242E+02  0.70550243547E+01  0.19996633878E+02  0.10566000000E+00 0.  1.
         13    1    1    2    0    0  0.24063979268E+02 -0.15373686937E+02 -0.48135190719E+02  0.55968143598E+02  0.10566000000E+00 0. -1.
         -4    1    1    2    0  502 -0.97843624444E+01  0.32834686944E+01  0.20266624491E+02  0.22743152450E+02  0.00000000000E+00 0. -1.
</event>
<event>
 5    1  0.1008363E-004  0.1374884E+03  0.7818608E-02  0.1114152E+00
         21   -1    0    0  501  502  0.00000000000E+00  0.00000000000E+00  0.18074349305E+03  0.18074349305E+03  0.00000000000E+00 0. -1.
          4   -1    0    0  502    0 -0.00000000000E+00 -0.00000000000E+00 -0.16039978612E+03  0.16039978612E+03  0.00000000000E+00 0.  1.
        -13    1    1    2    0    0  0.12490788642E+03  0.36845079820E+02 -0.32317641075E+02  0.13417891446E+03  0.10566000000E+00 0.  1.
         13    1    1    2    0    0 -0.13200759045E+03 -0.74445537251E+02  0.13405099197E+02  0.15214417439E+03  0.10566000000E+00 0. -1.
          4    1    1    2  501    0  0.70997040284E+01  0.37600457431E+02  0.39256248814E+02  0.54820190324E+02  0.00000000000E+00 0.  1.
</event>
<event>
 5    1  0.1008363E-004  0.3972554E+03  0.7818608E-02  0.9873270E-01
         21   -1    0    0  501  502  0.00000000000E+00  0.00000000000E+00  0.57602202617E+03  0.57602202617E+03  0.00000000000E+00 0.  1.
          4   -1    0    0  502    0 -0.00000000000E+00 -0.00000000000E+00 -0.74670628980E+03  0.74670628980E+03  0.00000000000E+00 0.  1.
        -13    1    1    2    0    0  0.23994719504E+03 -0.43467329257E+03 -0.27830206514E+03  0.56918149856E+03  0.10566000000E+00 0.  1.
         13    1    1    2    0    0  0.88526233340E+02  0.23337401114E+03 -0.14896607714E+03  0.29067374557E+03  0.10566000000E+00 0. -1.
          4    1    1    2  501    0 -0.32847342838E+03  0.20129928143E+03  0.25658387864E+03  0.46287307184E+03  0.00000000000E+00 0.  1.
</event>
<event>
 5    1  0.1008363E-004  0.4349093E+03  0.7818608E-02  0.1016143E+00
          4   -1    0    0  502    0 -0.00000000000E+00  0.00000000000E+00  0.38719927220E+03  0.38719927220E+03  0.00000000000E+00 0.  1.
         21   -1    0    0  501  502  0.00000000000E+00 -0.00000000000E+00 -0.73907108959E+03  0.73907108959E+03  0.00000000000E+00 0.  1.
        -13    1    1    2    0    0 -0.38525884274E+03  0.18376377139E+03  0.88126883084E+02  0.43584384621E+03  0.10566000000E+00 0.  1.
         13    1    1    2    0    0  0.26196983701E+02  0.69414312219E+02 -0.85971898275E+01  0.74689701652E+02  0.10566000000E+00 0. -1.
          4    1    1    2  501    0  0.35906185904E+03 -0.25317808361E+03 -0.43140151064E+03  0.61573681393E+03  0.00000000000E+00 0.  1.
</event>
<event>
 5    1  0.1008363E-004  0.5315687E+03  0.7818608E-02  0.9440103E-01
         21   -1    0    0  501  502  0.00000000000E+00  0.00000000000E+00  0.28669343064E+03  0.28669343064E+03  0.00000000000E+00 0.  1.
         -4   -1    0    0    0  501 -0.00000000000E+00 -0.00000000000E+00 -0.30152075423E+04  0.30152075423E+04  0.00000000000E+00 0. -1.
        -13    1    1    2    0    0 -0.17447853603E+03 -0.53269139730E+03 -0.15623170680E+04  0.16598305686E+04  0.10566000000E+00 0.  1.
         13    1    1    2    0    0 -0.40795985505E+03  0.33509240528E+03 -0.66226340527E+03  0.84694214238E+03  0.10566000000E+00 0. -1.
         -4    1    1    2    0  502  0.58243839109E+03  0.19759899202E+03 -0.50393363831E+03  0.79512826191E+03  0.00000000000E+00 0. -1.
</event>
<event>
 5    1  0.1008363E-004  0.5753772E+02  0.7818608E-02  0.1263815E+00
         -4   -1    0    0    0  501 -0.00000000000E+00  0.00000000000E+00  0.14044344275E+03  0.14044344275E+03  0.00000000000E+00 0. -1.
         21   -1    0    0  501  502  0.00000000000E+00 -0.00000000000E+00 -0.50102992997E+03  0.50102992997E+03  0.00000000000E+00 0.  1.
        -13    1    1    2    0    0  0.15430688156E+02  0.66075041115E+02 -0.19356034994E+03  0.20510884288E+03  0.10566000000E+00 0.  1.
         13    1    1    2    0    0 -0.13713132556E+02 -0.55555550609E+02  0.12849002842E+03  0.14065620418E+03  0.10566000000E+00 0. -1.
         -4    1    1    2    0  502 -0.17175556002E+01 -0.10519490506E+02 -0.29551616569E+03  0.29570832566E+03  0.00000000000E+00 0. -1.
</event>
<event>
 5    1  0.1008363E-004  0.4744026E+03  0.7818608E-02  0.9736167E-01
         -4   -1    0    0    0  501 -0.00000000000E+00  0.00000000000E+00  0.16196759588E+04  0.16196759588E+04  0.00000000000E+00 0. -1.
         21   -1    0    0  501  502  0.00000000000E+00 -0.00000000000E+00 -0.26593553762E+03  0.26593553762E+03  0.00000000000E+00 0. -1.
        -13    1    1    2    0    0  0.14173071997E+02 -0.23350664881E+03  0.49960283357E+03  0.55166043313E+03  0.10566000000E+00 0.  1.
         13    1    1    2    0    0  0.43723355570E+03  0.31308507153E+03  0.61498107606E+03  0.81694380426E+03  0.10566000000E+00 0. -1.
         -4    1    1    2    0  502 -0.45140662770E+03 -0.79578422721E+02  0.23915651160E+03  0.51700725908E+03  0.00000000000E+00 0. -1.
</event>
<event>
 5    1  0.1008363E-004  0.3775913E+03  0.7818608E-02  0.9850903E-01
         21   -1    0    0  501  502  0.00000000000E+00  0.00000000000E+00  0.77174391621E+03  0.77174391621E+03  0.00000000000E+00 0.  1.
          4   -1    0    0  502    0 -0.00000000000E+00 -0.00000000000E+00 -0.17106625696E+04  0.17106625696E+04  0.00000000000E+00 0.  1.
        -13    1    1    2    0    0  0.14851240892E+03 -0.25350072449E+03 -0.11585793037E+04  0.11952508385E+04  0.10566000000E+00 0.  1.
         13    1    1    2    0    0  0.23962838653E+02  0.58939874153E+03 -0.28641141535E+03  0.65574126312E+03  0.10566000000E+00 0. -1.
          4    1    1    2  501    0 -0.17247524758E+03 -0.33589801704E+03  0.50607206565E+03  0.63141438415E+03  0.00000000000E+00 0.  1.
</event>
<event>
 5    1  0.1008363E-004  0.4579509E+03  0.7818608E-02  0.9731404E-01
          4   -1    0    0  502    0 -0.00000000000E+00  0.00000000000E+00  0.76041854993E+03  0.76041854993E+03  0.00000000000E+00 0.  1.
         21   -1    0    0  501  502  0.00000000000E+00 -0.00000000000E+00 -0.57168045460E+03  0.57168045460E+03  0.00000000000E+00 0.  1.
        -13    1    1    2    0    0  0.35428056583E+03 -0.13710569791E+03 -0.57783904931E+02  0.38425471052E+03  0.10566000000E+00 0.  1.
         13    1    1    2    0    0  0.25946249902E+03 -0.50782340360E+02  0.13325456410E+03  0.29606827676E+03  0.10566000000E+00 0. -1.
          4    1    1    2  501    0 -0.61374306484E+03  0.18788803827E+03  0.11326743616E+03  0.65177601725E+03  0.00000000000E+00 0.  1.
</event>
<event>
 5    1  0.1008363E-004  0.5801989E+03  0.7818608E-02  0.9449973E-01
         21   -1    0    0  501  502  0.00000000000E+00  0.00000000000E+00  0.75551876927E+03  0.75551876927E+03  0.00000000000E+00 0.  1.
         -4   -1    0    0    0  501 -0.00000000000E+00 -0.00000000000E+00 -0.14569655473E+04  0.14569655473E+04  0.00000000000E+00 0. -1.
        -13    1    1    2    0    0  0.26468426436E+03 -0.69342290976E+03 -0.63581534555E+03  0.97731993553E+03  0.10566000000E+00 0.  1.
         13    1    1    2    0    0 -0.97885060098E+02 -0.24173383464E+03 -0.11264155381E+03  0.28408601269E+03  0.10566000000E+00 0. -1.
         -4    1    1    2    0  502 -0.16679920426E+03  0.93515674440E+03  0.47010121382E+02  0.95107836830E+03  0.00000000000E+00 0. -1.
</event>
<event>
 5    1  0.1008363E-004  0.3513923E+03  0.7818608E-02  0.1015101E+00
         21   -1    0    0  501  502  0.00000000000E+00  0.00000000000E+00  0.34393333851E+03  0.34393333851E+03  0.00000000000E+00 0. -1.
         -4   -1    0    0    0  501 -0.00000000000E+00 -0.00000000000E+00 -0.13234517347E+04  0.13234517347E+04  0.00000000000E+00 0. -1.
        -13    1    1    2    0    0 -0.80851009326E+02  0.12084891854E+03 -0.72011377225E+03  0.73464631148E+03  0.10566000000E+00 0.  1.
         13    1    1    2    0    0 -0.33523250421E+02 -0.43439472618E+03 -0.37974384231E+03  0.57795154069E+03  0.10566000000E+00 0. -1.
         -4    1    1    2    0  502  0.11437425975E+03  0.31354580763E+03  0.12033921833E+03  0.35478722108E+03  0.00000000000E+00 0. -1.
</event>
<event>
 5    1  0.1008363E-004  0.1586644E+03  0.7818608E-02  0.1103550E+00
         -4   -1    0    0    0  501 -0.00000000000E+00  0.00000000000E+00  0.36020111192E+03  0.36020111192E+03  0.00000000000E+00 0. -1.
         21   -1    0    0  501  502  0.00000000000E+00 -0.00000000000E+00 -0.65798032654E+03  0.65798032654E+03  0.00000000000E+00 0. -1.
        -13    1    1    2    0    0 -0.56099136379E+02 -0.10457676487E+03  0.10000977930E+03  0.15519465188E+03  0.10566000000E+00 0.  1.
         13    1    1    2    0    0  0.15984880061E+03 -0.18002960688E+02  0.19271941631E+03  0.25103093482E+03  0.10566000000E+00 0. -1.
         -4    1    1    2    0  502 -0.10374966424E+03  0.12257972556E+03 -0.59050841023E+03  0.61195585175E+03  0.00000000000E+00 0. -1.
</event>
<event>
 5    1  0.1008363E-004  0.1756521E+03  0.7818608E-02  0.1082602E+00
         21   -1    0    0  501  502  0.00000000000E+00  0.00000000000E+00  0.83083613864E+03  0.83083613864E+03  0.00000000000E+00 0. -1.
          4   -1    0    0  502    0 -0.00000000000E+00 -0.00000000000E+00 -0.55912230411E+03  0.55912230411E+03  0.00000000000E+00 0.  1.
        -13    1    1    2    0    0  0.30789764541E+03  0.20667639753E+02 -0.23890628679E+03  0.39026188184E+03  0.10566000000E+00 0.  1.
         13    1    1    2    0    0 -0.14889662440E+03  0.44553996662E+02 -0.20865384759E+03  0.26017629149E+03  0.10566000000E+00 0. -1.
          4    1    1    2  501    0 -0.15900102101E+03 -0.65221636415E+02  0.71927396891E+03  0.73952026942E+03  0.00000000000E+00 0.  1.
</event>
<event>
 5    1  0.1008363E-004  0.4880889E+02  0.7818608E-02  0.1296716E+00
          4   -1    0    0  502    0 -0.00000000000E+00  0.00000000000E+00  0.26948860820E+02  0.26948860820E+02  0.00000000000E+00 0.  1.
         21   -1    0    0  501  502  0.00000000000E+00 -0.00000000000E+00 -0.34466875085E+03  0.34466875085E+03  0.00000000000E+00 0. -1.
        -13    1    1    2    0    0 -0.14738855343E+02 -0.46487367245E+02 -0.75960070129E+00  0.48773941069E+02  0.10566000000E+00 0.  1.
         13    1    1    2    0    0  0.43712046555E+01  0.50154596875E+02 -0.25773284287E+03  0.26260392319E+03  0.10566000000E+00 0. -1.
          4    1    1    2  501    0  0.10367650687E+02 -0.36672296306E+01 -0.59227446458E+02  0.60239747408E+02  0.00000000000E+00 0.  1.
</event>
<event>
 5    1  0.1008363E-004  0.1983196E+03  0.7818608E-02  0.1061294E+00
          4   -1    0    0  502    0 -0.00000000000E+00  0.00000000000E+00  0.12216553482E+04  0.12216553482E+04  0.00000000000E+00 0.  1.
         21   -1    0    0  501  502  0.00000000000E+00 -0.00000000000E+00 -0.59258725920E+02  0.59258725920E+02  0.00000000000E+00 0. -1.
        -13    1    1    2    0    0 -0.48296905930E+02  0.19630986317E+03  0.97072353587E+03  0.99155148518E+03  0.10566000000E+00 0.  1.
         13    1    1    2    0    0  0.34339014299E+02 -0.18171828508E+03  0.19516747599E+03  0.26886996464E+03  0.10566000000E+00 0. -1.
          4    1    1    2  501    0  0.13957891631E+02 -0.14591578084E+02 -0.34943896342E+01  0.20492624251E+02  0.00000000000E+00 0.  1.
</event>
<event>
 5    1  0.1008363E-004  0.6949893E+02  0.7818608E-02  0.1244288E+00
          4   -1    0    0  502    0 -0.00000000000E+00  0.00000000000E+00  0.90259087275E+02  0.90259087275E+02  0.00000000000E+00 0.  1.
         21   -1    0    0  501  502  0.00000000000E+00 -0.00000000000E+00 -0.43589236155E+03  0.43589236155E+03  0.00000000000E+00 0.  1.
        -13    1    1    2    0    0 -0.76542205983E+02 -0.58345574858E+02  0.52718671779E+02  0.10973688951E+03  0.10566000000E+00 0.  1.
         13    1    1    2    0    0  0.48845855320E+02 -0.45300848580E+01 -0.11850618356E+03  0.12825820035E+03  0.10566000000E+00 0. -1.
          4    1    1    2  501    0  0.27696350663E+02  0.62875659716E+02 -0.27984576250E+03  0.28815635897E+03  0.00000000000E+00 0.  1.
</event>
<event>
 5    1  0.1008363E-004  0.4547222E+03  0.7818608E-02  0.9603870E-01
         21   -1    0    0  501  502  0.00000000000E+00  0.00000000000E+00  0.47056580165E+03  0.47056580165E+03  0.00000000000E+00 0. -1.
         -4   -1    0    0    0  501 -0.00000000000E+00 -0.00000000000E+00 -0.22529891553E+04  0.22529891553E+04  0.00000000000E+00 0. -1.
        -13    1    1    2    0    0 -0.27352513100E+02 -0.42147798555E+03 -0.15714937828E+04  0.16272629084E+04  0.10566000000E+00 0.  1.
         13    1    1    2    0    0 -0.42763974056E+03  0.20872412183E+03 -0.33125582215E+03  0.57980336116E+03  0.10566000000E+00 0. -1.
         -4    1    1    2    0  502  0.45499225366E+03  0.21275386371E+03  0.12032625140E+03  0.51648868738E+03  0.00000000000E+00 0. -1.
</event>
<event>
 5    1  0.1008363E-004  0.4904935E+03  0.7818608E-02  0.9981289E-01
          4   -1    0    0  502    0 -0.00000000000E+00  0.00000000000E+00  0.13183847711E+04  0.13183847711E+04  0.00000000000E+00 0.  1.
         21   -1    0    0  501  502  0.00000000000E+00 -0.00000000000E+00 -0.29109117185E+03  0.29109117185E+03  0.00000000000E+00 0.  1.
        -13    1    1    2    0    0 -0.46888725621E+03  0.14077754040E+03  0.33530790431E+03  0.59338434153E+03  0.10566000000E+00 0.  1.
         13    1    1    2    0    0  0.29527687136E+02  0.87738087811E+02  0.45998700648E+03  0.46920988230E+03  0.10566000000E+00 0. -1.
          4    1    1    2  501    0  0.43935956907E+03 -0.22851562821E+03  0.23199868849E+03  0.54688171914E+03  0.00000000000E+00 0.  1.
</event>
<event>
 5    1  0.1008363E-004  0.4006431E+03  0.7818608E-02  0.9727191E-01
         -4   -1    0    0    0  501 -0.00000000000E+00  0.00000000000E+00  0.11931118623E+04  0.11931118623E+04  0.00000000000E+00 0. -1.
         21   -1    0    0  501  502  0.00000000000E+00 -0.00000000000E+00 -0.86120652536E+03  0.86120652536E+03  0.00000000000E+00 0. -1.
        -13    1    1    2    0    0 -0.37881927325E+03  0.40266091461E+01  0.80219321514E+03  0.88714949188E+03  0.10566000000E+00 0.  1.
         13    1    1    2    0    0  0.52597634097E+03 -0.24191031079E+03  0.45174926211E+02  0.58070000417E+03  0.10566000000E+00 0. -1.
         -4    1    1    2    0  502 -0.14715706772E+03  0.23788370164E+03 -0.51546280441E+03  0.58646889160E+03  0.00000000000E+00 0. -1.
</event>
<event>
 5    1  0.1008363E-004  0.1855253E+03  0.7818608E-02  0.1107721E+00
          4   -1    0    0  502    0 -0.00000000000E+00  0.00000000000E+00  0.20325165007E+04  0.20325165007E+04  0.00000000000E+00 0.  1.
         21   -1    0    0  501  502  0.00000000000E+00 -0.00000000000E+00 -0.42532384441E+03  0.42532384441E+03  0.00000000000E+00 0.  1.
        -13    1    1    2    0    0 -0.10648890315E+03 -0.13584520419E+02 -0.33394780599E+03  0.35077852553E+03  0.10566000000E+00 0.  1.
         13    1    1    2    0    0 -0.25569185313E+03 -0.17557704264E+03  0.13708422341E+04  0.14054942418E+04  0.10566000000E+00 0. -1.
          4    1    1    2  501    0  0.36218075628E+03  0.18916156306E+03  0.57029822814E+03  0.70156757778E+03  0.00000000000E+00 0.  1.
</event>
<event>
 5    1  0.1008363E-004  0.1465853E+03  0.7818608E-02  0.1125519E+00
         21   -1    0    0  501  502  0.00000000000E+00  0.00000000000E+00  0.53446564367E+02  0.53446564367E+02  0.00000000000E+00 0.  1.
          4   -1    0    0  502    0 -0.00000000000E+00 -0.00000000000E+00 -0.75637882541E+03  0.75637882541E+03  0.00000000000E+00 0.  1.
        -13    1    1    2    0    0 -0.44800040243E+02  0.14845646959E+03 -0.21317034814E+03  0.26360571970E+03  0.10566000000E+00 0.  1.
         13    1    1    2    0    0 -0.67860012924E+02 -0.49986197318E+02 -0.24768582472E+03  0.26163310228E+03  0.10566000000E+00 0. -1.
          4    1    1    2  501    0  0.11266005317E+03 -0.98470272273E+02 -0.24207608819E+03  0.28458656780E+03  0.00000000000E+00 0.  1.
</event>
<event>
 5    1  0.1008363E-004  0.6066441E+02  0.7818608E-02  0.1257004E+00
         21   -1    0    0  501  502  0.00000000000E+00  0.00000000000E+00  0.88737281220E+02  0.88737281220E+02  0.00000000000E+00 0. -1.
         -4   -1    0    0    0  501 -0.00000000000E+00 -0.00000000000E+00 -0.25670485578E+03  0.25670485578E+03  0.00000000000E+00 0. -1.
        -13    1    1    2    0    0  0.12879898394E+02  0.55011815676E+02 -0.62786243441E+01  0.56847374031E+02  0.10566000000E+00 0.  1.
         13    1    1    2    0    0 -0.28661144050E+02 -0.10927295334E+03 -0.19326609563E+03  0.22386119448E+03  0.10566000000E+00 0. -1.
         -4    1    1    2    0  502  0.15781245657E+02  0.54261137667E+02  0.31577145420E+02  0.64733568481E+02  0.00000000000E+00 0. -1.
</event>
<event>
 5    1  0.1008363E-004  0.4451792E+03  0.7818608E-02  0.9629885E-01
         21   -1    0    0  501  502  0.00000000000E+00  0.00000000000E+00  0.72757400121E+03  0.72757400121E+03  0.00000000000E+00 0.  1.
          4   -1    0    0  502    0 -0.00000000000E+00 -0.00000000000E+00 -0.10996266453E+04  0.10996266453E+04  0.00000000000E+00 0.  1.
        -13    1    1    2    0    0 -0.30532002815E+03 -0.30716573309E+03  0.11583699485E+01  0.43309636360E+03  0.10566000000E+00 0.  1.
         13    1    1    2    0    0 -0.21771200418E+03  0.34796700188E+03 -0.67416518165E+03  0.78928971517E+03  0.10566000000E+00 0. -1.
          4    1    1    2  501    0  0.52303203233E+03 -0.40801268787E+02  0.30095416759E+03  0.60481456776E+03  0.00000000000E+00 0.  1.
</event>
<event>
 5    1  0.1008363E-004  0.2073055E+02  0.7818608E-02  0.1514446E+00
         21   -1    0    0  501  502  0.00000000000E+00  0.00000000000E+00  0.23698042356E+03  0.23698042356E+03  0.00000000000E+00 0.  1.
          4   -1    0    0  502    0 -0.00000000000E+00 -0.00000000000E+00 -0.16221059306E+02  0.16221059306E+02  0.00000000000E+00 0.  1.
        -13    1    1    2    0    0  0.43274452915E+01 -0.20546194445E+02  0.91811931354E+02  0.94182348622E+02  0.10566000000E+00 0.  1.
         13    1    1    2    0    0  0.15085875979E+02  0.74268406433E+01 -0.90162384473E+01  0.19079972112E+02  0.10566000000E+00 0. -1.
          4    1    1    2  501    0 -0.19413321271E+02  0.13119353802E+02  0.13796367135E+03  0.13993916213E+03  0.00000000000E+00 0.  1.
</event>
<event>
 5    1  0.1008363E-004  0.8388249E+02  0.7818608E-02  0.1235082E+00
          4   -1    0    0  502    0 -0.00000000000E+00  0.00000000000E+00  0.36150789116E+03  0.36150789116E+03  0.00000000000E+00 0.  1.
         21   -1    0    0  501  502  0.00000000000E+00 -0.00000000000E+00 -0.42429288619E+02  0.42429288619E+02  0.00000000000E+00 0.  1.
        -13    1    1    2    0    0  0.16300404828E+02 -0.10327381731E+03  0.25094461308E+03  0.27185362704E+03  0.10566000000E+00 0.  1.
         13    1    1    2    0    0 -0.23059823228E+02  0.24922975470E+02  0.14664435243E+02  0.36986037617E+02  0.10566000000E+00 0. -1.
          4    1    1    2  501    0  0.67594183999E+01  0.78350841837E+02  0.53469554220E+02  0.95097515121E+02  0.00000000000E+00 0.  1.
</event>
<event>
 5    1  0.1008363E-004  0.3295744E+03  0.7818608E-02  0.9957951E-01
         21   -1    0    0  501  502  0.00000000000E+00  0.00000000000E+00  0.12372084660E+03  0.12372084660E+03  0.00000000000E+00 0.  1.
          4   -1    0    0  502    0 -0.00000000000E+00 -0.00000000000E+00 -0.33413941109E+04  0.33413941109E+04  0.00000000000E+00 0.  1.
        -13    1    1    2    0    0 -0.20909334242E+03  0.26294048761E+03 -0.15188845680E+04  0.15555925135E+04  0.10566000000E+00 0.  1.
         13    1    1    2    0    0  0.15459153706E+03 -0.28791261361E+03 -0.17793458186E+04  0.18091057929E+04  0.10566000000E+00 0. -1.
          4    1    1    2  501    0  0.54501805361E+02  0.24972126001E+02  0.80557122352E+02  0.10041665114E+03  0.00000000000E+00 0.  1.
</event>
<event>
 5    1  0.1008363E-004  0.9977175E+02  0.7818608E-02  0.1164934E+00
         -4   -1    0    0    0  501 -0.00000000000E+00  0.00000000000E+00  0.82859166371E+02  0.82859166371E+02  0.00000000000E+00 0. -1.
         21   -1    0    0  501  502  0.00000000000E+00 -0.00000000000E+00 -0.24156508990E+03  0.24156508990E+03  0.00000000000E+00 0.  1.
        -13    1    1    2    0    0  0.55788659896E+02  0.84300160216E+02  0.28797320001E+02  0.10511036290E+03  0.10566000000E+00 0.  1.
         13    1    1    2    0    0 -0.40063617401E+02 -0.86447581824E+02 -0.14097750814E+03  0.17015565464E+03  0.10566000000E+00 0. -1.
         -4    1    1    2    0  502 -0.15725042496E+02  0.21474216073E+01 -0.46525735390E+02  0.49158238726E+02  0.00000000000E+00 0. -1.
</event>
<event>
 5    1  0.1008363E-004  0.4554583E+03  0.7818608E-02  0.9862866E-01
          4   -1    0    0  502    0 -0.00000000000E+00  0.00000000000E+00  0.96200443442E+03  0.96200443442E+03  0.00000000000E+00 0.  1.
         21   -1    0    0  501  502  0.00000000000E+00 -0.00000000000E+00 -0.77043593436E+03  0.77043593436E+03  0.00000000000E+00 0.  1.
        -13    1    1    2    0    0  0.40307789924E+03 -0.29999768344E+03 -0.54195258241E+03  0.73904195799E+03  0.10566000000E+00 0.  1.
         13    1    1    2    0    0 -0.16035280069E+03  0.60887482637E+02  0.60565866491E+03  0.62947814559E+03  0.10566000000E+00 0. -1.
          4    1    1    2  501    0 -0.24272509856E+03  0.23911020081E+03  0.12786241756E+03  0.36392026520E+03  0.00000000000E+00 0.  1.
</event>
<event>
 5    1  0.1008363E-004  0.3083246E+03  0.7818608E-02  0.1015383E+00
         21   -1    0    0  501  502  0.00000000000E+00  0.00000000000E+00  0.26077072953E+03  0.26077072953E+03  0.00000000000E+00 0.  1.
          4   -1    0    0  502    0 -0.00000000000E+00 -0.00000000000E+00 -0.17489578663E+04  0.17489578663E+04  0.00000000000E+00 0.  1.
        -13    1    1    2    0    0 -0.32391118779E+03 -0.89691108729E+02  0.95147233697E+02  0.34930782958E+03  0.10566000000E+00 0.  1.
         13    1    1    2    0    0  0.18406512146E+03 -0.10781670998E+03 -0.10929471088E+04  0.11135698477E+04  0.10566000000E+00 0. -1.
          4    1    1    2  501    0  0.13984606633E+03  0.19750781871E+03 -0.49038726168E+03  0.54685091857E+03  0.00000000000E+00 0.  1.
</event>
<event>
 5    1  0.1008363E-004  0.4228166E+03  0.7818608E-02  0.9822389E-01
         21   -1    0    0  501  502  0.00000000000E+00  0.00000000000E+00  0.36065664617E+03  0.36065664617E+03  0.00000000000E+00 0.  1.
          4   -1    0    0  502    0 -0.00000000000E+00 -0.00000000000E+00 -0.11312674924E+04  0.11312674924E+04  0.00000000000E+00 0.  1.
        -13    1    1    2    0    0  0.27863458508E+03  0.39907794241E+03 -0.52784523327E+03  0.71799793703E+03  0.10566000000E+00 0.  1.
         13    1    1    2    0    0 -0.24524394736E+03  0.17591114945E+02 -0.25700846254E+03  0.35567879051E+03  0.10566000000E+00 0. -1.
          4    1    1    2  501    0 -0.33390637725E+02 -0.41666905736E+03  0.14242849611E+02  0.41824741101E+03  0.00000000000E+00 0.  1.
</event>
<event>
 5    1  0.1008363E-004  0.4717316E+03  0.7818608E-02  0.9642356E-01
         -4   -1    0    0    0  501 -0.00000000000E+00  0.00000000000E+00  0.18024342725E+04  0.18024342725E+04  0.00000000000E+00 0. -1.
         21   -1    0    0  501  502  0.00000000000E+00 -0.00000000000E+00 -0.43689190703E+03  0.43689190703E+03  0.00000000000E+00 0. -1.
        -13    1    1    2    0    0 -0.29821915089E+03  0.14158158148E+03  0.84633132325E+03  0.90843641828E+03  0.10566000000E+00 0.  1.
         13    1    1    2    0    0 -0.36961106518E+03  0.16760067210E+03 -0.38287028205E+02  0.40763737866E+03  0.10566000000E+00 0. -1.
         -4    1    1    2    0  502  0.66783021607E+03 -0.30918225358E+03  0.55749807038E+03  0.92325238256E+03  0.00000000000E+00 0. -1.
</event>
<event>
 5    1  0.1008363E-004  0.4027496E+03  0.7818608E-02  0.1002466E+00
         -4   -1    0    0    0  501 -0.00000000000E+00  0.00000000000E+00  0.10670009738E+04  0.10670009738E+04  0.00000000000E+00 0. -1.
         21   -1    0    0  501  502  0.00000000000E+00 -0.00000000000E+00 -0.40453686216E+03  0.40453686216E+03  0.00000000000E+00 0. -1.
        -13    1    1    2    0    0  0.11737527809E+03 -0.85261135185E+02  0.48719233774E+03  0.50833335735E+03  0.10566000000E+00 0.  1.
         13    1    1    2    0    0 -0.33292637746E+03  0.28495764611E+03 -0.20403683716E+03  0.48339618841E+03  0.10566000000E+00 0. -1.
         -4    1    1    2    0  502  0.21555109937E+03 -0.19969651093E+03  0.37930861111E+03  0.47980829023E+03  0.00000000000E+00 0. -1.
</event>
<event>
 5    1  0.1008363E-004  0.4126542E+03  0.7818608E-02  0.9735646E-01
         21   -1    0    0  501  502  0.00000000000E+00  0.00000000000E+00  0.38181337997E+03  0.38181337997E+03  0.00000000000E+00 0. -1.
         -4   -1    0    0    0  501 -0.00000000000E+00 -0.00000000000E+00 -0.14204982407E+04  0.14204982407E+04  0.00000000000E+00 0. -1.
        -13    1    1    2    0    0  0.24937708035E+03 -0.25419054527E+03 -0.50133944380E+03  0.61493333832E+03  0.10566000000E+00 0.  1.
         13    1    1    2    0    0 -0.57126416469E+03  0.29728793880E+02 -0.55164846930E+03  0.79469654075E+03  0.10566000000E+00 0. -1.
         -4    1    1    2    0  502  0.32188708434E+03  0.22446175139E+03  0.14303052328E+02  0.39268174163E+03  0.00000000000E+00 0. -1.
</event>
<event>
 5    1  0.1008363E-004  0.5052268E+03  0.7818608E-02  0.9466589E-01
         -4   -1    0    0    0  501 -0.00000000000E+00  0.00000000000E+00  0.20980118464E+04  0.20980118464E+04  0.00000000000E+00 0. -1.
         21   -1    0    0  501  502  0.00000000000E+00 -0.00000000000E+00 -0.85094964419E+03  0.85094964419E+03  0.00000000000E+00 0.  1.
        -13    1    1    2    0    0  0.47580026890E+03  0.18268981676E+03  0.16257427252E+04  0.17037608062E+04  0.10566000000E+00 0.  1.
         13    1    1    2    0    0 -0.45683001360E+03 -0.17578017273E+03  0.29481080052E+03  0.57140681631E+03  0.10566000000E+00 0. -1.
         -4    1    1    2    0  502 -0.18970255292E+02 -0.69096440328E+01 -0.67349132354E+03  0.67379386807E+03  0.00000000000E+00 0. -1.
</event>
<event>
 5    1  0.1008363E-004  0.5265615E+03  0.7818608E-02  0.9555329E-01
          4   -1    0    0  502    0 -0.00000000000E+00  0.00000000000E+00  0.24916634025E+04  0.24916634025E+04  0.00000000000E+00 0.  1.
         21   -1    0    0  501  502  0.00000000000E+00 -0.00000000000E+00 -0.30785077242E+03  0.30785077242E+03  0.00000000000E+00 0.  1.
        -13    1    1    2    0    0  0.31469552561E+03 -0.68763303767E+03  0.83562490229E+03  0.11270055265E+04  0.10566000000E+00 0.  1.
         13    1    1    2    0    0 -0.19397603135E+03  0.25891351938E+03  0.11321906789E+04  0.11775052678E+04  0.10566000000E+00 0. -1.
          4    1    1    2  501    0 -0.12071949427E+03  0.42871951829E+03  0.21599704894E+03  0.49500338060E+03  0.00000000000E+00 0.  1.
</event>
<event>
 5    1  0.1008363E-004  0.4684264E+03  0.7818608E-02  0.9649879E-01
         21   -1    0    0  501  502  0.00000000000E+00  0.00000000000E+00  0.21920495522E+03  0.21920495522E+03  0.00000000000E+00 0.  1.
          4   -1    0    0  502    0 -0.00000000000E+00 -0.00000000000E+00 -0.22370227395E+04  0.22370227395E+04  0.00000000000E+00 0.  1.
        -13    1    1    2    0    0  0.13528419610E+03 -0.22509260503E+03 -0.10656580436E+04  0.10975406924E+04  0.10566000000E+00 0.  1.
         13    1    1    2    0    0  0.29360849300E+03 -0.14697670766E+03 -0.61814829299E+03  0.69993958529E+03  0.10566000000E+00 0. -1.
          4    1    1    2  501    0 -0.42889268910E+03  0.37206931270E+03 -0.33401144773E+03  0.65874741702E+03  0.00000000000E+00 0.  1.
</event>
<event>
 5    1  0.1056637E-004  0.3385390E+03  0.7818608E-02  0.9925587E-01
         21   -1    0    0  501  502  0.00000000000E+00  0.00000000000E+00  0.61887840312E+03  0.61887840312E+03  0.00000000000E+00 0. -1.
         -4   -1    0    0    0  501 -0.00000000000E+00 -0.00000000000E+00 -0.12701313128E+04  0.12701313128E+04  0.00000000000E+00 0. -1.
        -13    1    1    2    0    0 -0.33360629417E+03  0.29181348302E+03 -0.65405161564E+03  0.79008341045E+03  0.10566000000E+00 0.  1.
         13    1    1    2    0    0  0.27919224422E+03 -0.79094864164E+02 -0.48432670950E+03  0.56460311678E+03  0.10566000000E+00 0. -1.
         -4    1    1    2    0  502  0.54414049949E+02 -0.21271861886E+03  0.48712541544E+03  0.53432318872E+03  0.00000000000E+00 0. -1.
</event>
<event>
 5    1  0.1008363E-004  0.6672973E+03  0.7818608E-02  0.9171817E-01
         -4   -1    0    0    0  501 -0.00000000000E+00  0.00000000000E+00  0.13067510997E+04  0.13067510997E+04  0.00000000000E+00 0. -1.
         21   -1    0    0  501  502  0.00000000000E+00 -0.00000000000E+00 -0.67255764292E+03  0.67255764292E+03  0.00000000000E+00 0. -1.
        -13    1    1    2    0    0  0.57388253570E+03 -0.24897714088E+03  0.48702370805E+03  0.79279435217E+03  0.10566000000E+00 0.  1.
         13    1    1    2    0    0 -0.67888618585E+03  0.24598606737E+03  0.46024678858E+03  0.85628424967E+03  0.10566000000E+00 0. -1.
         -4    1    1    2    0  502  0.10500365014E+03  0.29910735146E+01 -0.31307703980E+03  0.33023014083E+03  0.00000000000E+00 0. -1.
</event>
<event>
 5    1  0.1008363E-004  0.5028541E+03  0.7818608E-02  0.1012698E+00
         21   -1    0    0  501  502  0.00000000000E+00  0.00000000000E+00  0.12126193843E+04  0.12126193843E+04  0.00000000000E+00 0.  1.
          4   -1    0    0  502    0 -0.00000000000E+00 -0.00000000000E+00 -0.39083631770E+03  0.39083631770E+03  0.00000000000E+00 0.  1.
        -13    1    1    2    0    0  0.31958112968E+03  0.42260578512E+03  0.53990113012E+03  0.75645289974E+03  0.10566000000E+00 0.  1.
         13    1    1    2    0    0 -0.22734301169E+02 -0.48502925458E+02 -0.17686239575E+03  0.18479637557E+03  0.10566000000E+00 0. -1.
          4    1    1    2  501    0 -0.29684682851E+03 -0.37410285966E+03  0.45874433223E+03  0.66220642669E+03  0.00000000000E+00 0.  1.
</event>
<event>
 5    1  0.1008363E-004  0.1090190E+03  0.7818608E-02  0.1150438E+00
         21   -1    0    0  501  502  0.00000000000E+00  0.00000000000E+00  0.54605454119E+02  0.54605454119E+02  0.00000000000E+00 0.  1.
         -4   -1    0    0    0  501 -0.00000000000E+00 -0.00000000000E+00 -0.47382530958E+03  0.47382530958E+03  0.00000000000E+00 0. -1.
        -13    1    1    2    0    0 -0.37623166380E+02  0.77340560874E+02 -0.77072854261E+02  0.11548723320E+03  0.10566000000E+00 0.  1.
         13    1    1    2    0    0  0.75075237731E+02 -0.96387149909E+02 -0.34954370358E+03  0.37028041518E+03  0.10566000000E+00 0. -1.
         -4    1    1    2    0  502 -0.37452071350E+02  0.19046589035E+02  0.73967023828E+01  0.42663115316E+02  0.00000000000E+00 0. -1.
</event>
<event>
 5    1  0.1008363E-004  0.3241776E+03  0.7818608E-02  0.9977969E-01
          4   -1    0    0  502    0 -0.00000000000E+00  0.00000000000E+00  0.22963745094E+04  0.22963745094E+04  0.00000000000E+00 0.  1.
         21   -1    0    0  501  502  0.00000000000E+00 -0.00000000000E+00 -0.40306763395E+03  0.40306763395E+03  0.00000000000E+00 0.  1.
        -13    1    1    2    0    0 -0.15484942683E+03  0.20979200131E+03  0.72826892581E+03  0.77354163964E+03  0.10566000000E+00 0.  1.
         13    1    1    2    0    0  0.14035699282E+03 -0.38284438964E+03  0.14968479478E+04  0.15513941157E+04  0.10566000000E+00 0. -1.
          4    1    1    2  501    0  0.14492434012E+02  0.17305238833E+03 -0.33180999820E+03  0.37450638800E+03  0.00000000000E+00 0.  1.
</event>
<event>
 5    1  0.1008363E-004  0.1530536E+03  0.7818608E-02  0.1098139E+00
         21   -1    0    0  501  502  0.00000000000E+00  0.00000000000E+00  0.14752928596E+03  0.14752928596E+03  0.00000000000E+00 0. -1.
          4   -1    0    0  502    0 -0.00000000000E+00 -0.00000000000E+00 -0.22611350053E+03  0.22611350053E+03  0.00000000000E+00 0.  1.
        -13    1    1    2    0    0  0.15765574410E+03 -0.60030838456E+02 -0.10499587971E+03  0.19870375219E+03  0.10566000000E+00 0.  1.
         13    1    1    2    0    0 -0.11332568376E+03  0.56485047534E+02  0.30609185024E+02  0.13026973772E+03  0.10566000000E+00 0. -1.
          4    1    1    2  501    0 -0.44330060343E+02  0.35457909225E+01 -0.41975198838E+01  0.44669296574E+02  0.00000000000E+00 0.  1.
</event>
<event>
 5    1  0.1008363E-004  0.3095501E+03  0.7818608E-02  0.1008629E+00
         21   -1    0    0  501  502  0.00000000000E+00  0.00000000000E+00  0.15437997058E+03  0.15437997058E+03  0.00000000000E+00 0. -1.
         -4   -1    0    0    0  501 -0.00000000000E+00 -0.00000000000E+00 -0.27935427803E+04  0.27935427803E+04  0.00000000000E+00 0. -1.
        -13    1    1    2    0    0 -0.24283038895E+02 -0.26054154733E+03 -0.73721012861E+03  0.78227255400E+03  0.10566000000E+00 0.  1.
         13    1    1    2    0    0  0.31681120282E+03  0.13930333458E+03 -0.18000247059E+04  0.18329931016E+04  0.10566000000E+00 0. -1.
         -4    1    1    2    0  502 -0.29252816392E+03  0.12123821274E+03 -0.10192797514E+03  0.33265709527E+03  0.00000000000E+00 0. -1.
</event>
<event>
 5    1  0.1008363E-004  0.4181949E+03  0.7818608E-02  0.9680721E-01
         -4   -1    0    0    0  501 -0.00000000000E+00  0.00000000000E+00  0.14679655724E+04  0.14679655724E+04  0.00000000000E+00 0. -1.
         21   -1    0    0  501  502  0.00000000000E+00 -0.00000000000E+00 -0.70005657314E+03  0.70005657314E+03  0.00000000000E+00 0. -1.
        -13    1    1    2    0    0  0.58683379804E+02  0.41613086564E+03  0.97781176159E+03  0.10642953014E+04  0.10566000000E+00 0.  1.
         13    1    1    2    0    0  0.30565755591E+03 -0.99859444000E+02  0.27247905399E+03  0.42147751549E+03  0.10566000000E+00 0. -1.
         -4    1    1    2    0  502 -0.36434093571E+03 -0.31627142164E+03 -0.48238181636E+03  0.68224932857E+03  0.00000000000E+00 0. -1.
</event>
<event>
 5    1  0.1008363E-004  0.3296817E+03  0.7818608E-02  0.1018399E+00
         21   -1    0    0  501  502  0.00000000000E+00  0.00000000000E+00  0.15312635005E+04  0.15312635005E+04  0.00000000000E+00 0.  1.
          4   -1    0    0  502    0 -0.00000000000E+00 -0.00000000000E+00 -0.70200420384E+03  0.70200420384E+03  0.00000000000E+00 0.  1.
        -13    1    1    2    0    0  0.12352711192E+02 -0.26383743730E+03 -0.23770664185E+02  0.26519396379E+03  0.10566000000E+00 0.  1.
         13    1    1    2    0    0 -0.15050359076E+03 -0.49939794998E+02 -0.52479782035E+03  0.54823177340E+03  0.10566000000E+00 0. -1.
          4    1    1    2  501    0  0.13815087957E+03  0.31377723229E+03  0.13778277812E+04  0.14198419672E+04  0.00000000000E+00 0.  1.
</event>
<event>
 5    1  0.1008363E-004  0.2921458E+03  0.7818608E-02  0.1035247E+00
          4   -1    0    0  502    0 -0.00000000000E+00  0.00000000000E+00  0.68290141642E+03  0.68290141642E+03  0.00000000000E+00 0.  1.
         21   -1    0    0  501  502  0.00000000000E+00 -0.00000000000E+00 -0.51275675627E+03  0.51275675627E+03  0.00000000000E+00 0.  1.
        -13    1    1    2    0    0 -0.12515051953E+03 -0.12962331512E+03  0.50816587716E+03  0.53916363587E+03  0.10566000000E+00 0.  1.
         13    1    1    2    0    0 -0.28747468253E+02 -0.13185594967E+03  0.66809708519E+02  0.15058538013E+03  0.10566000000E+00 0. -1.
          4    1    1    2  501    0  0.15389798778E+03  0.26147926479E+03 -0.40483092553E+03  0.50590915669E+03  0.00000000000E+00 0.  1.
</event>
<event>
 5    1  0.1008363E-004  0.4999620E+03  0.7818608E-02  0.9478056E-01
         21   -1    0    0  501  502  0.00000000000E+00  0.00000000000E+00  0.31822261312E+03  0.31822261312E+03  0.00000000000E+00 0. -1.
          4   -1    0    0  502    0 -0.00000000000E+00 -0.00000000000E+00 -0.15930627702E+04  0.15930627702E+04  0.00000000000E+00 0.  1.
        -13    1    1    2    0    0  0.25155810375E+03 -0.45905976419E+03 -0.10966362228E+04  0.12151659817E+04  0.10566000000E+00 0.  1.
         13    1    1    2    0    0 -0.23408792297E+03  0.38748017418E+03 -0.30752955560E+03  0.54727733353E+03  0.10566000000E+00 0. -1.
          4    1    1    2  501    0 -0.17470180772E+02  0.71579590005E+02  0.12932562131E+03  0.14884206814E+03  0.00000000000E+00 0.  1.
</event>
<event>
 5    1  0.1008363E-004  0.5250809E+02  0.7818608E-02  0.1281901E+00
         21   -1    0    0  501  502  0.00000000000E+00  0.00000000000E+00  0.30929322654E+03  0.30929322654E+03  0.00000000000E+00 0.  1.
          4   -1    0    0  502    0 -0.00000000000E+00 -0.00000000000E+00 -0.26214566606E+03  0.26214566606E+03  0.00000000000E+00 0.  1.
        -13    1    1    2    0    0 -0.54619658152E+02  0.75916269451E+01 -0.23481069134E+03  0.24119911233E+03  0.10566000000E+00 0.  1.
         13    1    1    2    0    0  0.23416958456E+02 -0.42507125441E+02  0.43669811363E+01  0.48726700533E+02  0.10566000000E+00 0. -1.
          4    1    1    2  501    0  0.31202699696E+02  0.34915498496E+02  0.27759127069E+03  0.28151307974E+03  0.00000000000E+00 0.  1.
</event>
<event>
 5    1  0.1008363E-004  0.2131070E+03  0.7818608E-02  0.1051504E+00
         21   -1    0    0  501  502  0.00000000000E+00  0.00000000000E+00  0.10075342672E+04  0.10075342672E+04  0.00000000000E+00 0.  1.
         -4   -1    0    0    0  501 -0.00000000000E+00 -0.00000000000E+00 -0.10607689021E+03  0.10607689021E+03  0.00000000000E+00 0. -1.
        -13    1    1    2    0    0  0.97769161833E+02  0.17864962585E+03  0.91724213779E+02  0.22335586041E+03  0.10566000000E+00 0.  1.
         13    1    1    2    0    0 -0.11632996178E+03 -0.20272160950E+03  0.30329358308E+03  0.38290432182E+03  0.10566000000E+00 0. -1.
         -4    1    1    2    0  502  0.18560799950E+02  0.24071983649E+02  0.50643958010E+03  0.50735097514E+03  0.00000000000E+00 0. -1.
</event>
<event>
 5    1  0.1008363E-004  0.4446783E+03  0.7818608E-02  0.9635090E-01
          4   -1    0    0  502    0 -0.00000000000E+00  0.00000000000E+00  0.18064928889E+04  0.18064928889E+04  0.00000000000E+00 0.  1.
         21   -1    0    0  501  502  0.00000000000E+00 -0.00000000000E+00 -0.45154872664E+03  0.45154872664E+03  0.00000000000E+00 0.  1.
        -13    1    1    2    0    0 -0.34649557870E+03  0.12514638288E+03  0.10549200008E+02  0.36855406658E+03  0.10566000000E+00 0.  1.
         13    1    1    2    0    0 -0.34572940901E+03 -0.20968571151E+03  0.10633212988E+04  0.11376067499E+04  0.10566000000E+00 0. -1.
          4    1    1    2  501    0  0.69222498771E+03  0.84539328623E+02  0.28107366349E+03  0.75188079906E+03  0.00000000000E+00 0.  1.
</event>
<event>
 5    1  0.1008363E-004  0.7343537E+02  0.7818608E-02  0.1217992E+00
         21   -1    0    0  501  502  0.00000000000E+00  0.00000000000E+00  0.25142779270E+03  0.25142779270E+03  0.00000000000E+00 0. -1.
          4   -1    0    0  502    0 -0.00000000000E+00 -0.00000000000E+00 -0.71069951659E+02  0.71069951659E+02  0.00000000000E+00 0.  1.
        -13    1    1    2    0    0 -0.46359058291E+02 -0.50754961849E+02 -0.22360751806E+02  0.72285841098E+02  0.10566000000E+00 0.  1.
         13    1    1    2    0    0  0.77647926025E+02  0.53900946558E+02  0.80950550551E+02  0.12444884593E+03  0.10566000000E+00 0. -1.
          4    1    1    2  501    0 -0.31288867734E+02 -0.31459847092E+01  0.12176804230E+03  0.12576305733E+03  0.00000000000E+00 0.  1.
</event>
<event>
 5    1  0.1008363E-004  0.2644173E+03  0.7818608E-02  0.1023181E+00
         -4   -1    0    0    0  501 -0.00000000000E+00  0.00000000000E+00  0.23127398652E+03  0.23127398652E+03  0.00000000000E+00 0. -1.
         21   -1    0    0  501  502  0.00000000000E+00 -0.00000000000E+00 -0.56145285712E+03  0.56145285712E+03  0.00000000000E+00 0.  1.
        -13    1    1    2    0    0  0.96154645715E+02  0.18096074091E+03 -0.33904650501E+03  0.39616290761E+03  0.10566000000E+00 0.  1.
         13    1    1    2    0    0 -0.79622535033E+02 -0.27280698844E+03  0.59558827183E+02  0.29036299021E+03  0.10566000000E+00 0. -1.
         -4    1    1    2    0  502 -0.16532110683E+02  0.91846247524E+02 -0.50691192764E+02  0.10620094581E+03  0.00000000000E+00 0. -1.
</event>
<event>
 5    1  0.1008363E-004  0.3522265E+03  0.7818608E-02  0.9893152E-01
         21   -1    0    0  501  502  0.00000000000E+00  0.00000000000E+00  0.33662278875E+03  0.33662278875E+03  0.00000000000E+00 0. -1.
         -4   -1    0    0    0  501 -0.00000000000E+00 -0.00000000000E+00 -0.29261507425E+04  0.29261507425E+04  0.00000000000E+00 0. -1.
        -13    1    1    2    0    0 -0.16604389266E+03 -0.32075714789E+03 -0.20131058363E+04  0.20452508017E+04  0.10566000000E+00 0.  1.
         13    1    1    2    0    0 -0.14300522733E+03 -0.25832866035E+03  0.62169668106E+02  0.30174371675E+03  0.10566000000E+00 0. -1.
         -4    1    1    2    0  502  0.30904911999E+03  0.57908580823E+03 -0.63859178555E+03  0.91577901288E+03  0.00000000000E+00 0. -1.
</event>
<event>
 5    1  0.1008363E-004  0.4089333E+02  0.7818608E-02  0.1334067E+00
          4   -1    0    0  502    0 -0.00000000000E+00  0.00000000000E+00  0.14593051995E+03  0.14593051995E+03  0.00000000000E+00 0.  1.
         21   -1    0    0  501  502  0.00000000000E+00 -0.00000000000E+00 -0.18437417445E+02  0.18437417445E+02  0.00000000000E+00 0. -1.
        -13    1    1    2    0    0  0.17432596423E+02  0.40678047290E+02  0.91024448468E+02  0.10121294548E+03  0.10566000000E+00 0.  1.
         13    1    1    2    0    0 -0.27421148644E+01 -0.35569141311E+02  0.22004245878E+02  0.41915164419E+02  0.10566000000E+00 0. -1.
          4    1    1    2  501    0 -0.14690481558E+02 -0.51089059783E+01  0.14464408157E+02  0.21239827496E+02  0.00000000000E+00 0.  1.
</event>
<event>
 5    1  0.1008363E-004  0.1071648E+03  0.7818608E-02  0.1153216E+00
         21   -1    0    0  501  502  0.00000000000E+00  0.00000000000E+00  0.41478407549E+03  0.41478407549E+03  0.00000000000E+00 0.  1.
         -4   -1    0    0    0  501 -0.00000000000E+00 -0.00000000000E+00 -0.88715943722E+02  0.88715943722E+02  0.00000000000E+00 0. -1.
        -13    1    1    2    0    0 -0.18782411700E+02  0.11374439218E+03  0.24567843927E+03  0.27138252049E+03  0.10566000000E+00 0.  1.
         13    1    1    2    0    0  0.12504150264E+02 -0.10527266834E+03 -0.38480506781E+02  0.11278053484E+03  0.10566000000E+00 0. -1.
         -4    1    1    2    0  502  0.62782614355E+01 -0.84717238464E+01  0.11887019928E+03  0.11933696388E+03  0.00000000000E+00 0. -1.
</event>
<event>
 5    1  0.1008363E-004  0.3543136E+03  0.7818608E-02  0.9871151E-01
         -4   -1    0    0    0  501 -0.00000000000E+00  0.00000000000E+00  0.16828748611E+04  0.16828748611E+04  0.00000000000E+00 0. -1.
         21   -1    0    0  501  502  0.00000000000E+00 -0.00000000000E+00 -0.26503190874E+03  0.26503190874E+03  0.00000000000E+00 0.  1.
        -13    1    1    2    0    0  0.15561867804E+03 -0.15166794625E+03  0.19463906591E+02  0.21817239445E+03  0.10566000000E+00 0.  1.
         13    1    1    2    0    0 -0.31228194808E+03  0.23258664309E+03  0.14836330840E+04  0.15338786460E+04  0.10566000000E+00 0. -1.
         -4    1    1    2    0  502  0.15666327004E+03 -0.80918696836E+02 -0.85254038257E+02  0.19585572934E+03  0.00000000000E+00 0. -1.
</event>
<event>
 5    1  0.1008363E-004  0.1451270E+03  0.7818608E-02  0.1106019E+00
         21   -1    0    0  501  502  0.00000000000E+00  0.00000000000E+00  0.10771212369E+03  0.10771212369E+03  0.00000000000E+00 0.  1.
          4   -1    0    0  502    0 -0.00000000000E+00 -0.00000000000E+00 -0.39742970836E+03  0.39742970836E+03  0.00000000000E+00 0.  1.
        -13    1    1    2    0    0  0.55700675365E+02  0.13688557151E+03 -0.41768876073E+02  0.15357367970E+03  0.10566000000E+00 0.  1.
         13    1    1    2    0    0 -0.92181606838E+02 -0.11304732051E+03 -0.26681200126E+03  0.30408189768E+03  0.10566000000E+00 0. -1.
          4    1    1    2  501    0  0.36480931472E+02 -0.23838251001E+02  0.18863292668E+02  0.47486254666E+02  0.00000000000E+00 0.  1.
</event>
<event>
 5    1  0.1008363E-004  0.3224744E+03  0.7818608E-02  0.1059792E+00
         21   -1    0    0  501  502  0.00000000000E+00  0.00000000000E+00  0.64042649214E+03  0.64042649214E+03  0.00000000000E+00 0. -1.
         -4   -1    0    0    0  501 -0.00000000000E+00 -0.00000000000E+00 -0.30519946224E+03  0.30519946224E+03  0.00000000000E+00 0. -1.
        -13    1    1    2    0    0  0.20861667942E+00  0.48193406741E+02 -0.23379760428E+02  0.53565589103E+02  0.10566000000E+00 0.  1.
         13    1    1    2    0    0 -0.27083740460E+03 -0.18444934066E+03  0.46679839926E+03  0.57032904162E+03  0.10566000000E+00 0. -1.
         -4    1    1    2    0  502  0.27062878792E+03  0.13625593392E+03 -0.10819160893E+03  0.32173132366E+03  0.00000000000E+00 0. -1.
</event>
<event>
 5    1  0.1008363E-004  0.4130081E+03  0.7818608E-02  0.9794695E-01
         21   -1    0    0  501  502  0.00000000000E+00  0.00000000000E+00  0.31202828585E+03  0.31202828585E+03  0.00000000000E+00 0. -1.
          4   -1    0    0  502    0 -0.00000000000E+00 -0.00000000000E+00 -0.14550713932E+04  0.14550713932E+04  0.00000000000E+00 0.  1.
        -13    1    1    2    0    0  0.20379701819E+03  0.96649904117E+01 -0.94409069614E+03  0.96588502958E+03  0.10566000000E+00 0.  1.
         13    1    1    2    0    0  0.24999972067E+03 -0.14681906693E+03 -0.14476784078E+03  0.32405776898E+03  0.10566000000E+00 0. -1.
          4    1    1    2  501    0 -0.45379673886E+03  0.13715407652E+03 -0.54184570403E+02  0.47715688047E+03  0.00000000000E+00 0.  1.
</event>
<event>
 5    1  0.1008363E-004  0.3695565E+02  0.7818608E-02  0.1373894E+00
         21   -1    0    0  501  502  0.00000000000E+00  0.00000000000E+00  0.46658457102E+02  0.46658457102E+02  0.00000000000E+00 0.  1.
          4   -1    0    0  502    0 -0.00000000000E+00 -0.00000000000E+00 -0.87774698696E+02  0.87774698696E+02  0.00000000000E+00 0.  1.
        -13    1    1    2    0    0 -0.95964555269E+01  0.52180392214E+02  0.54178789494E+01  0.53331509136E+02  0.10566000000E+00 0.  1.
         13    1    1    2    0    0 -0.24587946170E+01 -0.27066022322E+02 -0.45772994232E+02  0.53233386143E+02  0.10566000000E+00 0. -1.
          4    1    1    2  501    0  0.12055250144E+02 -0.25114369892E+02 -0.76112631200E+00  0.27868260519E+02  0.00000000000E+00 0.  1.
</event>
<event>
 5    1  0.1008363E-004  0.5979645E+02  0.7818608E-02  0.1263404E+00
         21   -1    0    0  501  502  0.00000000000E+00  0.00000000000E+00  0.13694134879E+03  0.13694134879E+03  0.00000000000E+00 0.  1.
          4   -1    0    0  502    0 -0.00000000000E+00 -0.00000000000E+00 -0.15527195457E+03  0.15527195457E+03  0.00000000000E+00 0.  1.
        -13    1    1    2    0    0  0.88063053520E+02  0.53578850840E+01 -0.11247358389E+03  0.14294798552E+03  0.10566000000E+00 0.  1.
         13    1    1    2    0    0 -0.37714964515E+02 -0.35353989788E+02  0.21648974428E+02  0.56044735704E+02  0.10566000000E+00 0. -1.
          4    1    1    2  501    0 -0.50348089005E+02  0.29996104704E+02  0.72494003680E+02  0.93220582134E+02  0.00000000000E+00 0.  1.
</event>
<event>
 5    1  0.1008363E-004  0.4448472E+03  0.7818608E-02  0.9749775E-01
          4   -1    0    0  502    0 -0.00000000000E+00  0.00000000000E+00  0.24302276888E+04  0.24302276888E+04  0.00000000000E+00 0.  1.
         21   -1    0    0  501  502  0.00000000000E+00 -0.00000000000E+00 -0.17010335470E+03  0.17010335470E+03  0.00000000000E+00 0.  1.
        -13    1    1    2    0    0 -0.26754462432E+03  0.18553861154E+03  0.11136377943E+04  0.11602559418E+04  0.10566000000E+00 0.  1.
         13    1    1    2    0    0 -0.24322752761E+03 -0.11883912542E+03  0.72700468817E+03  0.77576942174E+03  0.10566000000E+00 0. -1.
          4    1    1    2  501    0  0.51077215192E+03 -0.66699486121E+02  0.41948185163E+03  0.66430568000E+03  0.00000000000E+00 0.  1.
</event>
<event>
 5    1  0.1008363E-004  0.8566498E+02  0.7818608E-02  0.1190735E+00
         -4   -1    0    0    0  501 -0.00000000000E+00  0.00000000000E+00  0.47513334997E+02  0.47513334997E+02  0.00000000000E+00 0. -1.
         21   -1    0    0  501  502  0.00000000000E+00 -0.00000000000E+00 -0.47048774808E+03  0.47048774808E+03  0.00000000000E+00 0. -1.
        -13    1    1    2    0    0  0.47138014954E+02  0.62449917866E+02 -0.76665336239E+02  0.10954254717E+03  0.10566000000E+00 0.  1.
         13    1    1    2    0    0 -0.47997701945E+02 -0.77519754835E+02 -0.36386546888E+02  0.98168649477E+02  0.10566000000E+00 0. -1.
         -4    1    1    2    0  502  0.85968699171E+00  0.15069836969E+02 -0.30992252995E+03  0.31028988643E+03  0.00000000000E+00 0. -1.
</event>
<event>
 5    1  0.1080985E-004  0.4207006E+03  0.7818608E-02  0.9901039E-01
         21   -1    0    0  501  502  0.00000000000E+00  0.00000000000E+00  0.93509259009E+03  0.93509259009E+03  0.00000000000E+00 0. -1.
         -4   -1    0    0    0  501 -0.00000000000E+00 -0.00000000000E+00 -0.46806075711E+03  0.46806075711E+03  0.00000000000E+00 0. -1.
        -13    1    1    2    0    0 -0.10911795762E+03  0.15732495657E+03 -0.12373046415E+03  0.22796295655E+03  0.10566000000E+00 0.  1.
         13    1    1    2    0    0  0.60633049462E+02  0.29912332514E+03 -0.12094770546E+03  0.32829786620E+03  0.10566000000E+00 0. -1.
         -4    1    1    2    0  502  0.48484908154E+02 -0.45644828171E+03  0.71171000259E+03  0.84689252446E+03  0.00000000000E+00 0. -1.
</event>
<event>
 5    1  0.1008363E-004  0.5641609E+02  0.7818608E-02  0.1267664E+00
         21   -1    0    0  501  502  0.00000000000E+00  0.00000000000E+00  0.38330304072E+03  0.38330304072E+03  0.00000000000E+00 0.  1.
          4   -1    0    0  502    0 -0.00000000000E+00 -0.00000000000E+00 -0.18590713901E+02  0.18590713901E+02  0.00000000000E+00 0.  1.
        -13    1    1    2    0    0 -0.74766426625E+02 -0.67439914479E+01  0.18066073821E+03  0.19563694300E+03  0.10566000000E+00 0.  1.
         13    1    1    2    0    0  0.38090249130E+02  0.27865162086E+02  0.12493459935E+03  0.13355148676E+03  0.10566000000E+00 0. -1.
          4    1    1    2  501    0  0.36676177494E+02 -0.21121170638E+02  0.59116989263E+02  0.72705324868E+02  0.00000000000E+00 0.  1.
</event>
<event>
 5    1  0.1008363E-004  0.4318936E+03  0.7818608E-02  0.9819159E-01
         -4   -1    0    0    0  501 -0.00000000000E+00  0.00000000000E+00  0.11120711150E+04  0.11120711150E+04  0.00000000000E+00 0. -1.
         21   -1    0    0  501  502  0.00000000000E+00 -0.00000000000E+00 -0.53273862438E+03  0.53273862438E+03  0.00000000000E+00 0. -1.
        -13    1    1    2    0    0 -0.21655548496E+03 -0.86634780446E+02  0.57804551101E+03  0.62332855479E+03  0.10566000000E+00 0.  1.
         13    1    1    2    0    0 -0.20467927962E+03  0.29309253324E+03  0.29885694313E+03  0.46595313516E+03  0.10566000000E+00 0. -1.
         -4    1    1    2    0  502  0.42123476458E+03 -0.20645775280E+03 -0.29756996348E+03  0.55552804946E+03  0.00000000000E+00 0. -1.
</event>
<event>
 5    1  0.1008363E-004  0.8048107E+02  0.7818608E-02  0.1201634E+00
          4   -1    0    0  502    0 -0.00000000000E+00  0.00000000000E+00  0.43956221212E+02  0.43956221212E+02  0.00000000000E+00 0.  1.
         21   -1    0    0  501  502  0.00000000000E+00 -0.00000000000E+00 -0.26593626904E+03  0.26593626904E+03  0.00000000000E+00 0.  1.
        -13    1    1    2    0    0 -0.81799136087E+02  0.24520936652E+02 -0.26156446667E+02  0.89311510261E+02  0.10566000000E+00 0.  1.
         13    1    1    2    0    0  0.67007917106E+02 -0.24672214059E+02 -0.95877290958E+02  0.11954599611E+03  0.10566000000E+00 0. -1.
          4    1    1    2  501    0  0.14791218981E+02  0.15127740704E+00 -0.99946310206E+02  0.10103498388E+03  0.00000000000E+00 0.  1.
</event>
<event>
 5    1  0.1008363E-004  0.5043995E+03  0.7818608E-02  0.9485933E-01
         21   -1    0    0  501  502  0.00000000000E+00  0.00000000000E+00  0.26841225576E+03  0.26841225576E+03  0.00000000000E+00 0.  1.
          4   -1    0    0  502    0 -0.00000000000E+00 -0.00000000000E+00 -0.39933388763E+04  0.39933388763E+04  0.00000000000E+00 0.  1.
        -13    1    1    2    0    0  0.25351313669E+03 -0.45281260944E+03 -0.39318084939E+03  0.65107554188E+03  0.10566000000E+00 0.  1.
         13    1    1    2    0    0  0.33965137768E+03  0.39483037362E+03 -0.26690929757E+04  0.27194321845E+04  0.10566000000E+00 0. -1.
          4    1    1    2  501    0 -0.59316451437E+03  0.57982235815E+02 -0.66265279551E+03  0.89124340568E+03  0.00000000000E+00 0.  1.
</event>
<event>
 5    1  0.1008363E-004  0.5137235E+03  0.7818608E-02  0.9629916E-01
         -4   -1    0    0    0  501 -0.00000000000E+00  0.00000000000E+00  0.38372572222E+04  0.38372572222E+04  0.00000000000E+00 0. -1.
         21   -1    0    0  501  502  0.00000000000E+00 -0.00000000000E+00 -0.12154298708E+03  0.12154298708E+03  0.00000000000E+00 0. -1.
        -13    1    1    2    0    0 -0.19538112492E+03 -0.18209424281E+03  0.89284907987E+03  0.93193969109E+03  0.10566000000E+00 0.  1.
         13    1    1    2    0    0 -0.31150915118E+03 -0.16333333775E+03  0.18010187571E+04  0.18350434068E+04  0.10566000000E+00 0. -1.
         -4    1    1    2    0  502  0.50689027610E+03  0.34542758056E+03  0.10218463981E+04  0.11918171113E+04  0.00000000000E+00 0. -1.
</event>
<event>
 5    1  0.1008363E-004  0.3148737E+02  0.7818608E-02  0.1404369E+00
         -4   -1    0    0    0  501 -0.00000000000E+00  0.00000000000E+00  0.95037460835E+01  0.95037460835E+01  0.00000000000E+00 0. -1.
         21   -1    0    0  501  502  0.00000000000E+00 -0.00000000000E+00 -0.63162874978E+03  0.63162874978E+03  0.00000000000E+00 0.  1.
        -13    1    1    2    0    0  0.41474211616E+02  0.42514202354E+02 -0.24095747997E+03  0.24816947022E+03  0.10566000000E+00 0.  1.
         13    1    1    2    0    0 -0.17860979389E+02 -0.17317778296E+02 -0.25508883146E+02  0.35631928284E+02  0.10566000000E+00 0. -1.
         -4    1    1    2    0  502 -0.23613232227E+02 -0.25196424058E+02 -0.35565864058E+03  0.35733109736E+03  0.00000000000E+00 0. -1.
</event>
<event>
 5    1  0.1008363E-004  0.2479696E+03  0.7818608E-02  0.1031450E+00
          4   -1    0    0  502    0 -0.00000000000E+00  0.00000000000E+00  0.12515672985E+04  0.12515672985E+04  0.00000000000E+00 0.  1.
         21   -1    0    0  501  502  0.00000000000E+00 -0.00000000000E+00 -0.14060534667E+03  0.14060534667E+03  0.00000000000E+00 0. -1.
        -13    1    1    2    0    0 -0.10299528427E+03  0.22696363997E+03  0.10681616077E+04  0.10968544816E+04  0.10566000000E+00 0.  1.
         13    1    1    2    0    0  0.10833877445E+03 -0.21473877042E+03  0.81839263969E+02  0.25406240544E+03  0.10566000000E+00 0. -1.
          4    1    1    2  501    0 -0.53434901751E+01 -0.12224869552E+02 -0.39038919805E+02  0.41255758172E+02  0.00000000000E+00 0.  1.
</event>
<event>
 5    1  0.1008363E-004  0.4858134E+03  0.7818608E-02  0.9807221E-01
         21   -1    0    0  501  502  0.00000000000E+00  0.00000000000E+00  0.33779741024E+03  0.33779741024E+03  0.00000000000E+00 0. -1.
         -4   -1    0    0    0  501 -0.00000000000E+00 -0.00000000000E+00 -0.13207494106E+04  0.13207494106E+04  0.00000000000E+00 0. -1.
        -13    1    1    2    0    0 -0.47204645043E+02  0.16402221860E+03 -0.54398077389E+03  0.57012863482E+03  0.10566000000E+00 0.  1.
         13    1    1    2    0    0 -0.42949287630E+03  0.73039240209E+02 -0.32611973180E+03  0.54419936791E+03  0.10566000000E+00 0. -1.
         -4    1    1    2    0  502  0.47669752134E+03 -0.23706145881E+03 -0.11285149464E+03  0.54421881808E+03  0.00000000000E+00 0. -1.
</event>
<event>
 5    1  0.1008363E-004  0.4747746E+03  0.7818608E-02  0.9671408E-01
         21   -1    0    0  501  502  0.00000000000E+00  0.00000000000E+00  0.22700515507E+03  0.22700515507E+03  0.00000000000E+00 0.  1.
          4   -1    0    0  502    0 -0.00000000000E+00 -0.00000000000E+00 -0.23896804842E+04  0.23896804842E+04  0.00000000000E+00 0.  1.
        -13    1    1    2    0    0 -0.27547926504E+03 -0.32327967116E+03 -0.39870047999E+03  0.58254669784E+03  0.10566000000E+00 0.  1.
         13    1    1    2    0    0 -0.27111979197E+03  0.10946520739E+03 -0.11424948723E+04  0.11793146813E+04  0.10566000000E+00 0. -1.
          4    1    1    2  501    0  0.54659905701E+03  0.21381446377E+03 -0.62147997686E+03  0.85482426012E+03  0.00000000000E+00 0.  1.
</event>
<event>
 5    1  0.1008363E-004  0.3549076E+03  0.7818608E-02  0.9869160E-01
          4   -1    0    0  502    0 -0.00000000000E+00  0.00000000000E+00  0.88306570149E+03  0.88306570149E+03  0.00000000000E+00 0.  1.
         21   -1    0    0  501  502  0.00000000000E+00 -0.00000000000E+00 -0.19622864587E+03  0.19622864587E+03  0.00000000000E+00 0. -1.
        -13    1    1    2    0    0 -0.51359908101E+02 -0.34940130693E+03  0.39898480966E+03  0.53283018209E+03  0.10566000000E+00 0.  1.
         13    1    1    2    0    0  0.11104871027E+03  0.34222043351E+03  0.31712348667E+03  0.47959770447E+03  0.10566000000E+00 0. -1.
          4    1    1    2  501    0 -0.59688802168E+02  0.71808734123E+01 -0.29271240713E+02  0.66866460801E+02  0.00000000000E+00 0.  1.
</event>
<event>
 5    1  0.1008363E-004  0.4836214E+02  0.7818608E-02  0.1298605E+00
         21   -1    0    0  501  502  0.00000000000E+00  0.00000000000E+00  0.67803497904E+02  0.67803497904E+02  0.00000000000E+00 0.  1.
         -4   -1    0    0    0  501 -0.00000000000E+00 -0.00000000000E+00 -0.68692647787E+02  0.68692647787E+02  0.00000000000E+00 0. -1.
        -13    1    1    2    0    0  0.33607043086E+02  0.17608835558E+02  0.37001622346E+02  0.52996562671E+02  0.10566000000E+00 0.  1.
         13    1    1    2    0    0 -0.48581517822E+02 -0.16171705673E+02 -0.43757362390E+02  0.67352846010E+02  0.10566000000E+00 0. -1.
         -4    1    1    2    0  502  0.14974474737E+02 -0.14371298842E+01  0.58665901610E+01  0.16146737010E+02  0.00000000000E+00 0. -1.
</event>
<event>
 5    1  0.1008363E-004  0.3936307E+03  0.7818608E-02  0.1007069E+00
         21   -1    0    0  501  502  0.00000000000E+00  0.00000000000E+00  0.30245098026E+03  0.30245098026E+03  0.00000000000E+00 0.  1.
          4   -1    0    0  502    0 -0.00000000000E+00 -0.00000000000E+00 -0.11963226866E+04  0.11963226866E+04  0.00000000000E+00 0.  1.
        -13    1    1    2    0    0  0.23086826950E+03  0.29606903488E+03  0.36121860350E+02  0.37717612761E+03  0.10566000000E+00 0.  1.
         13    1    1    2    0    0  0.12904004083E+03  0.35471201056E+02 -0.15211217011E+03  0.20260222531E+03  0.10566000000E+00 0. -1.
          4    1    1    2  501    0 -0.35990831033E+03 -0.33154023594E+03 -0.77788139659E+03  0.91899531395E+03  0.00000000000E+00 0.  1.
</event>
<event>
 5    1  0.1008363E-004  0.6491074E+02  0.7818608E-02  0.1240749E+00
         21   -1    0    0  501  502  0.00000000000E+00  0.00000000000E+00  0.45262249606E+03  0.45262249606E+03  0.00000000000E+00 0.  1.
          4   -1    0    0  502    0 -0.00000000000E+00 -0.00000000000E+00 -0.17787021237E+02  0.17787021237E+02  0.00000000000E+00 0.  1.
        -13    1    1    2    0    0  0.34437926276E+02 -0.76622449935E+02  0.21777774807E+03  0.23341835686E+03  0.10566000000E+00 0.  1.
         13    1    1    2    0    0 -0.39611069944E+02  0.40586103286E+02  0.10748892351E+03  0.12153249970E+03  0.10566000000E+00 0. -1.
          4    1    1    2  501    0  0.51731436676E+01  0.36036346649E+02  0.10956880324E+03  0.11545866073E+03  0.00000000000E+00 0.  1.
</event>
<event>
 5    1  0.1008363E-004  0.5986848E+02  0.7818608E-02  0.1256123E+00
         21   -1    0    0  501  502  0.00000000000E+00  0.00000000000E+00  0.14551163781E+03  0.14551163781E+03  0.00000000000E+00 0.  1.
         -4   -1    0    0    0  501 -0.00000000000E+00 -0.00000000000E+00 -0.36120364259E+03  0.36120364259E+03  0.00000000000E+00 0. -1.
        -13    1    1    2    0    0 -0.20406349965E+02  0.31597553275E+02  0.92452004330E+02  0.99810864942E+02  0.10566000000E+00 0.  1.
         13    1    1    2    0    0  0.94081784704E+01 -0.59820898278E+02 -0.35002102289E+03  0.35522075013E+03  0.10566000000E+00 0. -1.
         -4    1    1    2    0  502  0.10998171494E+02  0.28223345003E+02  0.41877013775E+02  0.51683665332E+02  0.00000000000E+00 0. -1.
</event>
<event>
 5    1  0.1008363E-004  0.1443583E+03  0.7818608E-02  0.1106813E+00
          4   -1    0    0  502    0 -0.00000000000E+00  0.00000000000E+00  0.87047976305E+03  0.87047976305E+03  0.00000000000E+00 0.  1.
         21   -1    0    0  501  502  0.00000000000E+00 -0.00000000000E+00 -0.30123875991E+02  0.30123875991E+02  0.00000000000E+00 0. -1.
        -13    1    1    2    0    0 -0.14396656662E+03  0.40964961930E+00  0.44529848848E+03  0.46799283662E+03  0.10566000000E+00 0.  1.
         13    1    1    2    0    0  0.14385105308E+03  0.25974462765E+02  0.36140895240E+03  0.38985156179E+03  0.10566000000E+00 0. -1.
          4    1    1    2  501    0  0.11551353976E+00 -0.26384112384E+02  0.33648446180E+02  0.42759240639E+02  0.00000000000E+00 0.  1.
</event>
<event>
 5    1  0.1008363E-004  0.4490817E+02  0.7818608E-02  0.1314034E+00
         21   -1    0    0  501  502  0.00000000000E+00  0.00000000000E+00  0.26452388552E+03  0.26452388552E+03  0.00000000000E+00 0.  1.
          4   -1    0    0  502    0 -0.00000000000E+00 -0.00000000000E+00 -0.71114085992E+02  0.71114085992E+02  0.00000000000E+00 0.  1.
        -13    1    1    2    0    0  0.30766067858E+02  0.32783796897E+02 -0.59036824060E+02  0.74207048382E+02  0.10566000000E+00 0.  1.
         13    1    1    2    0    0 -0.37669085753E+02 -0.25037106821E+02  0.11472999498E+03  0.12332396220E+03  0.10566000000E+00 0. -1.
          4    1    1    2  501    0  0.69030178954E+01 -0.77466900759E+01  0.13771662861E+03  0.13810696093E+03  0.00000000000E+00 0.  1.
</event>
<event>
 5    1  0.1008363E-004  0.8384150E+02  0.7818608E-02  0.1194470E+00
         21   -1    0    0  501  502  0.00000000000E+00  0.00000000000E+00  0.45074253040E+02  0.45074253040E+02  0.00000000000E+00 0. -1.
         -4   -1    0    0    0  501 -0.00000000000E+00 -0.00000000000E+00 -0.32074426719E+03  0.32074426719E+03  0.00000000000E+00 0. -1.
        -13    1    1    2    0    0  0.81177838219E+02  0.40024257776E+02 -0.12352122158E+03  0.15313159691E+03  0.10566000000E+00 0.  1.
         13    1    1    2    0    0 -0.62566999527E+02 -0.50708958592E+02 -0.16779996794E+03  0.18612594746E+03  0.10566000000E+00 0. -1.
         -4    1    1    2    0  502 -0.18610838692E+02  0.10684700816E+02  0.15651175368E+02  0.26560975862E+02  0.00000000000E+00 0. -1.
</event>
<event>
 5    1  0.1008363E-004  0.8099512E+02  0.7818608E-02  0.1200513E+00
         21   -1    0    0  501  502  0.00000000000E+00  0.00000000000E+00  0.44765080490E+02  0.44765080490E+02  0.00000000000E+00 0. -1.
         -4   -1    0    0    0  501 -0.00000000000E+00 -0.00000000000E+00 -0.44547839596E+03  0.44547839596E+03  0.00000000000E+00 0. -1.
        -13    1    1    2    0    0 -0.72942083686E+02 -0.22118736056E+02 -0.91987731498E+02  0.11946355079E+03  0.10566000000E+00 0.  1.
         13    1    1    2    0    0  0.84149906410E+02 -0.71408935384E+01 -0.32477516642E+03  0.33557580217E+03  0.10566000000E+00 0. -1.
         -4    1    1    2    0  502 -0.11207822723E+02  0.29259629594E+02  0.16049582451E+02  0.35204123495E+02  0.00000000000E+00 0. -1.
</event>
<event>
 5    1  0.1008363E-004  0.1339874E+03  0.7818608E-02  0.1118073E+00
         21   -1    0    0  501  502  0.00000000000E+00  0.00000000000E+00  0.19176145772E+03  0.19176145772E+03  0.00000000000E+00 0. -1.
          4   -1    0    0  502    0 -0.00000000000E+00 -0.00000000000E+00 -0.18639893830E+03  0.18639893830E+03  0.00000000000E+00 0.  1.
        -13    1    1    2    0    0  0.12535625238E+03 -0.58901222652E+02 -0.10480238339E+03  0.17368677200E+03  0.10566000000E+00 0.  1.
         13    1    1    2    0    0 -0.11495636734E+03  0.44789680072E+02  0.36366753396E+02  0.12862205779E+03  0.10566000000E+00 0. -1.
          4    1    1    2  501    0 -0.10399885045E+02  0.14111542580E+02  0.73798149416E+02  0.75851566234E+02  0.00000000000E+00 0.  1.
</event>
<event>
 5    1  0.1008363E-004  0.5265670E+03  0.7818608E-02  0.9787230E-01
         21   -1    0    0  501  502  0.00000000000E+00  0.00000000000E+00  0.84607026826E+03  0.84607026826E+03  0.00000000000E+00 0.  1.
          4   -1    0    0  502    0 -0.00000000000E+00 -0.00000000000E+00 -0.58946512852E+03  0.58946512852E+03  0.00000000000E+00 0.  1.
        -13    1    1    2    0    0  0.51360669220E+03 -0.36887432646E+02  0.28504768743E+03  0.58856156198E+03  0.10566000000E+00 0.  1.
         13    1    1    2    0    0  0.80248788589E+01 -0.14328680067E+03 -0.22011342908E+03  0.26276498768E+03  0.10566000000E+00 0. -1.
          4    1    1    2  501    0 -0.52163157106E+03  0.18017423332E+03  0.19167088139E+03  0.58420884712E+03  0.00000000000E+00 0.  1.
</event>
<event>
 5    1  0.1008363E-004  0.5006940E+03  0.7818608E-02  0.9606314E-01
         21   -1    0    0  501  502  0.00000000000E+00  0.00000000000E+00  0.63597540182E+03  0.63597540182E+03  0.00000000000E+00 0.  1.
          4   -1    0    0  502    0 -0.00000000000E+00 -0.00000000000E+00 -0.16602361707E+04  0.16602361707E+04  0.00000000000E+00 0.  1.
        -13    1    1    2    0    0  0.89884914520E+02 -0.24134533798E+03 -0.44908899546E+03  0.51769470446E+03  0.10566000000E+00 0.  1.
         13    1    1    2    0    0 -0.57967669609E+03  0.13742966227E+03 -0.97172529291E+03  0.11398078961E+04  0.10566000000E+00 0. -1.
          4    1    1    2  501    0  0.48979178157E+03  0.10391567571E+03  0.39655351950E+03  0.63870897190E+03  0.00000000000E+00 0.  1.
</event>
<event>
 5    1  0.1008363E-004  0.8345037E+02  0.7818608E-02  0.1195285E+00
          4   -1    0    0  502    0 -0.00000000000E+00  0.00000000000E+00  0.32697249423E+03  0.32697249423E+03  0.00000000000E+00 0.  1.
         21   -1    0    0  501  502  0.00000000000E+00 -0.00000000000E+00 -0.25439059840E+03  0.25439059840E+03  0.00000000000E+00 0. -1.
        -13    1    1    2    0    0 -0.27505501789E+02 -0.78201452879E+02  0.30510798069E+03  0.31616911757E+03  0.10566000000E+00 0.  1.
         13    1    1    2    0    0  0.33919939119E+02  0.93242293413E+02 -0.14216576616E+03  0.17336609756E+03  0.10566000000E+00 0. -1.
          4    1    1    2  501    0 -0.64144373300E+01 -0.15040840534E+02 -0.90360318694E+02  0.91827877492E+02  0.00000000000E+00 0.  1.
</event>
<event>
 5    1  0.1008363E-004  0.1174151E+03  0.7818608E-02  0.1138578E+00
          4   -1    0    0  502    0 -0.00000000000E+00  0.00000000000E+00  0.15341687939E+03  0.15341687939E+03  0.00000000000E+00 0.  1.
         21   -1    0    0  501  502  0.00000000000E+00 -0.00000000000E+00 -0.34310292549E+03  0.34310292549E+03  0.00000000000E+00 0.  1.
        -13    1    1    2    0    0  0.21987063430E+01  0.12028156470E+03  0.91913940542E+02  0.15139574877E+03  0.10566000000E+00 0.  1.
         13    1    1    2    0    0  0.29537716668E+02 -0.10714632859E+03 -0.71321812804E+02  0.13205917076E+03  0.10566000000E+00 0. -1.
          4    1    1    2  501    0 -0.31736423011E+02 -0.13135236113E+02 -0.21027817384E+03  0.21306488534E+03  0.00000000000E+00 0.  1.
</event>
<event>
 5    1  0.1008363E-004  0.2850165E+03  0.7818608E-02  0.1013689E+00
          4   -1    0    0  502    0 -0.00000000000E+00  0.00000000000E+00  0.15064760528E+04  0.15064760528E+04  0.00000000000E+00 0.  1.
         21   -1    0    0  501  502  0.00000000000E+00 -0.00000000000E+00 -0.20458777486E+03  0.20458777486E+03  0.00000000000E+00 0. -1.
        -13    1    1    2    0    0  0.18816263863E+02  0.27294334803E+03  0.11423721271E+04  0.11746770667E+04  0.10566000000E+00 0.  1.
         13    1    1    2    0    0 -0.99395558047E+02 -0.36280185447E+03  0.17466435493E+03  0.41474366856E+03  0.10566000000E+00 0. -1.
          4    1    1    2  501    0  0.80579294184E+02  0.89858506433E+02 -0.15148204155E+02  0.12164309236E+03  0.00000000000E+00 0.  1.
</event>
<event>
 5    1  0.1008363E-004  0.4883809E+03  0.7818608E-02  0.9796769E-01
          4   -1    0    0  502    0 -0.00000000000E+00  0.00000000000E+00  0.11574967147E+04  0.11574967147E+04  0.00000000000E+00 0.  1.
         21   -1    0    0  501  502  0.00000000000E+00 -0.00000000000E+00 -0.31690661072E+03  0.31690661072E+03  0.00000000000E+00 0.  1.
        -13    1    1    2    0    0  0.22083761505E+02 -0.43796670558E+03  0.28030589288E+03  0.52045550479E+03  0.10566000000E+00 0.  1.
         13    1    1    2    0    0 -0.14133661333E+03 -0.10166475406E+03  0.29118056742E+03  0.33926080601E+03  0.10566000000E+00 0. -1.
          4    1    1    2  501    0  0.11925285183E+03  0.53963145965E+03  0.26910364370E+03  0.61468701463E+03  0.00000000000E+00 0.  1.
</event>
<event>
 5    1  0.1008363E-004  0.4567002E+03  0.7818608E-02  0.9578287E-01
         -4   -1    0    0    0  501 -0.00000000000E+00  0.00000000000E+00  0.79569079388E+03  0.79569079388E+03  0.00000000000E+00 0. -1.
         21   -1    0    0  501  502  0.00000000000E+00 -0.00000000000E+00 -0.10344068646E+04  0.10344068646E+04  0.00000000000E+00 0. -1.
        -13    1    1    2    0    0 -0.15126800747E+03  0.40221447258E+03  0.33896073702E+03  0.54731424652E+03  0.10566000000E+00 0.  1.
         13    1    1    2    0    0 -0.73460332746E+02 -0.55809390032E+03  0.81821332635E+02  0.56882331501E+03  0.10566000000E+00 0. -1.
         -4    1    1    2    0  502  0.22472834021E+03  0.15587942774E+03 -0.65949814039E+03  0.71396009697E+03  0.00000000000E+00 0. -1.
</event>
<event>
 5    1  0.1008363E-004  0.1759282E+03  0.7818608E-02  0.1078021E+00
         21   -1    0    0  501  502  0.00000000000E+00  0.00000000000E+00  0.15565832332E+03  0.15565832332E+03  0.00000000000E+00 0.  1.
         -4   -1    0    0    0  501 -0.00000000000E+00 -0.00000000000E+00 -0.53053707302E+03  0.53053707302E+03  0.00000000000E+00 0. -1.
        -13    1    1    2    0    0 -0.24127716326E+02  0.14851352898E+03  0.32107501944E+02  0.15384835986E+03  0.10566000000E+00 0.  1.
         13    1    1    2    0    0 -0.25788403633E+01 -0.18118251091E+03 -0.44188184249E+03  0.47759117095E+03  0.10566000000E+00 0. -1.
         -4    1    1    2    0  502  0.26706556689E+02  0.32668981932E+02  0.34895590850E+02  0.54755865544E+02  0.00000000000E+00 0. -1.
</event>
<event>
 5    1  0.1008363E-004  0.2460412E+03  0.7818608E-02  0.1032465E+00
         21   -1    0    0  501  502  0.00000000000E+00  0.00000000000E+00  0.80406677453E+02  0.80406677453E+02  0.00000000000E+00 0. -1.
          4   -1    0    0  502    0 -0.00000000000E+00 -0.00000000000E+00 -0.11981145207E+04  0.11981145207E+04  0.00000000000E+00 0.  1.
        -13    1    1    2    0    0 -0.95924405044E+02  0.25360529408E+03 -0.84609609444E+03  0.88847945888E+03  0.10566000000E+00 0.  1.
         13    1    1    2    0    0  0.62731372701E+02 -0.19231781416E+03 -0.23892191984E+03  0.31305760127E+03  0.10566000000E+00 0. -1.
          4    1    1    2  501    0  0.33193032342E+02 -0.61287479915E+02 -0.32689829012E+02  0.76984138050E+02  0.00000000000E+00 0.  1.
</event>
<event>
 5    1  0.1008363E-004  0.5081488E+03  0.7818608E-02  0.9488220E-01
         21   -1    0    0  501  502  0.00000000000E+00  0.00000000000E+00  0.65188935604E+03  0.65188935604E+03  0.00000000000E+00 0. -1.
          4   -1    0    0  502    0 -0.00000000000E+00 -0.00000000000E+00 -0.95458721416E+03  0.95458721416E+03  0.00000000000E+00 0.  1.
        -13    1    1    2    0    0 -0.61839010694E+03  0.65144881827E+02 -0.49197083874E+02  0.62375519574E+03  0.10566000000E+00 0.  1.
         13    1    1    2    0    0  0.33170094138E+03  0.31705794974E+03 -0.43777679361E+02  0.46094224625E+03  0.10566000000E+00 0. -1.
          4    1    1    2  501    0  0.28668916556E+03 -0.38220283157E+03 -0.20972309489E+03  0.52177912821E+03  0.00000000000E+00 0.  1.
</event>
<event>
 5    1  0.1008363E-004  0.2567128E+03  0.7818608E-02  0.1078369E+00
         21   -1    0    0  501  502  0.00000000000E+00  0.00000000000E+00  0.15683520694E+03  0.15683520694E+03  0.00000000000E+00 0.  1.
          4   -1    0    0  502    0 -0.00000000000E+00 -0.00000000000E+00 -0.18906680015E+04  0.18906680015E+04  0.00000000000E+00 0.  1.
        -13    1    1    2    0    0  0.15905310254E+03  0.21016165788E+03 -0.14261337398E+04  0.14502838573E+04  0.10566000000E+00 0.  1.
         13    1    1    2    0    0  0.35784500175E+02 -0.43167054120E+02 -0.33454245882E+03  0.33920877484E+03  0.10566000000E+00 0. -1.
          4    1    1    2  501    0 -0.19483760271E+03 -0.16699460376E+03  0.26843404082E+02  0.25801057625E+03  0.00000000000E+00 0.  1.
</event>
<event>
 5    1  0.1008363E-004  0.4266344E+03  0.7818608E-02  0.9942973E-01
         21   -1    0    0  501  502  0.00000000000E+00  0.00000000000E+00  0.88236843120E+03  0.88236843120E+03  0.00000000000E+00 0.  1.
          4   -1    0    0  502    0 -0.00000000000E+00 -0.00000000000E+00 -0.59269516298E+03  0.59269516298E+03  0.00000000000E+00 0.  1.
        -13    1    1    2    0    0  0.76423190296E+02  0.40667037254E+03  0.52171726784E+03  0.66589054255E+03  0.10566000000E+00 0.  1.
         13    1    1    2    0    0  0.15886059159E+03  0.15910172621E+02 -0.28084248739E+03  0.32305159811E+03  0.10566000000E+00 0. -1.
          4    1    1    2  501    0 -0.23528378189E+03 -0.42258054517E+03  0.48798487771E+02  0.48612145353E+03  0.00000000000E+00 0.  1.
</event>
<event>
 5    1  0.1008363E-004  0.4218569E+03  0.7818608E-02  0.9667963E-01
         21   -1    0    0  501  502  0.00000000000E+00  0.00000000000E+00  0.22850341233E+03  0.22850341233E+03  0.00000000000E+00 0. -1.
         -4   -1    0    0    0  501 -0.00000000000E+00 -0.00000000000E+00 -0.23202831145E+04  0.23202831145E+04  0.00000000000E+00 0. -1.
        -13    1    1    2    0    0 -0.72306338253E+02 -0.37862373290E+03 -0.65697913942E+03  0.76171237253E+03  0.10566000000E+00 0.  1.
         13    1    1    2    0    0  0.30013285388E+03  0.35990326920E+03 -0.14814199279E+04  0.15537744711E+04  0.10566000000E+00 0. -1.
         -4    1    1    2    0  502 -0.22782651562E+03  0.18720463699E+02  0.46619365110E+02  0.23329968321E+03  0.00000000000E+00 0. -1.
</event>
<event>
 5    1  0.1380178E-004  0.2210206E+03  0.7818608E-02  0.1050371E+00
         21   -1    0    0  501  502  0.00000000000E+00  0.00000000000E+00  0.49745742374E+03  0.49745742374E+03  0.00000000000E+00 0.  1.
          4   -1    0    0  502    0 -0.00000000000E+00 -0.00000000000E+00 -0.13169800472E+04  0.13169800472E+04  0.00000000000E+00 0.  1.
        -13    1    1    2    0    0 -0.24372417677E+02 -0.18753502287E+03 -0.54270689400E+03  0.57471226149E+03  0.10566000000E+00 0.  1.
         13    1    1    2    0    0  0.25780657957E+03  0.17489172101E+03 -0.69444289073E+03  0.76111910119E+03  0.10566000000E+00 0. -1.
          4    1    1    2  501    0 -0.23343416190E+03  0.12643301858E+02  0.41762716127E+03  0.47860610825E+03  0.00000000000E+00 0.  1.
</event>
<event>
 5    1  0.1008363E-004  0.4942025E+03  0.7818608E-02  0.9572020E-01
         21   -1    0    0  501  502  0.00000000000E+00  0.00000000000E+00  0.14239962967E+04  0.14239962967E+04  0.00000000000E+00 0.  1.
         -4   -1    0    0    0  501 -0.00000000000E+00 -0.00000000000E+00 -0.41853341057E+03  0.41853341057E+03  0.00000000000E+00 0. -1.
        -13    1    1    2    0    0 -0.14619577507E+03 -0.33835639835E+03  0.14785397766E+03  0.39713859902E+03  0.10566000000E+00 0.  1.
         13    1    1    2    0    0  0.52735112999E+03  0.17937252822E+03  0.86905943265E+03  0.10322490140E+04  0.10566000000E+00 0. -1.
         -4    1    1    2    0  502 -0.38115535492E+03  0.15898387013E+03 -0.11450524211E+02  0.41314209426E+03  0.00000000000E+00 0. -1.
</event>
<event>
 5    1  0.1008363E-004  0.4574352E+03  0.7818608E-02  0.9576487E-01
         -4   -1    0    0    0  501 -0.00000000000E+00  0.00000000000E+00  0.12098055939E+04  0.12098055939E+04  0.00000000000E+00 0. -1.
         21   -1    0    0  501  502  0.00000000000E+00 -0.00000000000E+00 -0.77087356657E+03  0.77087356657E+03  0.00000000000E+00 0. -1.
        -13    1    1    2    0    0 -0.42995085593E+03  0.18307165120E+03  0.98743680605E+03  0.10924305127E+04  0.10566000000E+00 0.  1.
         13    1    1    2    0    0  0.41662983590E+03  0.74254051310E+02 -0.43433868837E+03  0.60641915510E+03  0.10566000000E+00 0. -1.
         -4    1    1    2    0  502  0.13321020029E+02 -0.25732570251E+03 -0.11416609035E+03  0.28182949266E+03  0.00000000000E+00 0. -1.
</event>
<event>
 5    1  0.1008363E-004  0.3308987E+03  0.7818608E-02  0.1025061E+00
         21   -1    0    0  501  502  0.00000000000E+00  0.00000000000E+00  0.88560723218E+03  0.88560723218E+03  0.00000000000E+00 0. -1.
         -4   -1    0    0    0  501 -0.00000000000E+00 -0.00000000000E+00 -0.43148505058E+03  0.43148505058E+03  0.00000000000E+00 0. -1.
        -13    1    1    2    0    0  0.10234450752E+03 -0.75563060197E+02 -0.14350265437E+03  0.19177381798E+03  0.10566000000E+00 0.  1.
         13    1    1    2    0    0  0.26468653487E+02  0.37533005183E+03 -0.69551013035E+02  0.38263637047E+03  0.10566000000E+00 0. -1.
         -4    1    1    2    0  502 -0.12881316101E+03 -0.29976699164E+03  0.66717584900E+03  0.74268209432E+03  0.00000000000E+00 0. -1.
</event>
<event>
 5    1  0.1008363E-004  0.3659415E+03  0.7818608E-02  0.9882327E-01
         -4   -1    0    0    0  501 -0.00000000000E+00  0.00000000000E+00  0.43086581857E+03  0.43086581857E+03  0.00000000000E+00 0. -1.
         21   -1    0    0  501  502  0.00000000000E+00 -0.00000000000E+00 -0.11174440336E+04  0.11174440336E+04  0.00000000000E+00 0. -1.
        -13    1    1    2    0    0 -0.30773865114E+03 -0.35174502107E+02 -0.26049212578E+02  0.31083580174E+03  0.10566000000E+00 0.  1.
         13    1    1    2    0    0 -0.28593424128E+03 -0.14164469440E+03 -0.50737636586E+03  0.59937667421E+03  0.10566000000E+00 0. -1.
         -4    1    1    2    0  502  0.59367289241E+03  0.17681919650E+03 -0.15315263659E+03  0.63809737622E+03  0.00000000000E+00 0. -1.
</event>
<event>
 5    1  0.1008363E-004  0.3080784E+03  0.7818608E-02  0.1004025E+00
         21   -1    0    0  501  502  0.00000000000E+00  0.00000000000E+00  0.22894168674E+03  0.22894168674E+03  0.00000000000E+00 0. -1.
         -4   -1    0    0    0  501 -0.00000000000E+00 -0.00000000000E+00 -0.28466782681E+04  0.28466782681E+04  0.00000000000E+00 0. -1.
        -13    1    1    2    0    0 -0.29726065541E+03  0.55679091854E+02 -0.15705436566E+04  0.15993972136E+04  0.10566000000E+00 0.  1.
         13    1    1    2    0    0  0.36034392159E+03 -0.18723872045E+03  0.12748763781E+02  0.40628637979E+03  0.10566000000E+00 0. -1.
         -4    1    1    2    0  502 -0.63083266181E+02  0.13155962860E+03 -0.10599416886E+04  0.10699363614E+04  0.00000000000E+00 0. -1.
</event>
<event>
 5    1  0.1008363E-004  0.1336775E+03  0.7818608E-02  0.1118426E+00
         21   -1    0    0  501  502  0.00000000000E+00  0.00000000000E+00  0.40192142245E+02  0.40192142245E+02  0.00000000000E+00 0.  1.
          4   -1    0    0  502    0 -0.00000000000E+00 -0.00000000000E+00 -0.11701014760E+04  0.11701014760E+04  0.00000000000E+00 0.  1.
        -13    1    1    2    0    0 -0.57901338674E+02 -0.14069395076E+03 -0.69979749168E+03  0.71614516219E+03  0.10566000000E+00 0.  1.
         13    1    1    2    0    0  0.42787395129E+02  0.10845734039E+03 -0.44160384037E+03  0.45673593997E+03  0.10566000000E+00 0. -1.
          4    1    1    2  501    0  0.15113943545E+02  0.32236610361E+02  0.11491998275E+02  0.37412516106E+02  0.00000000000E+00 0.  1.
</event>
<event>
 5    1  0.2202465E-004  0.2632185E+03  0.7818608E-02  0.1063002E+00
         21   -1    0    0  501  502  0.00000000000E+00  0.00000000000E+00  0.33188295113E+03  0.33188295113E+03  0.00000000000E+00 0. -1.
         -4   -1    0    0    0  501 -0.00000000000E+00 -0.00000000000E+00 -0.90247132677E+03  0.90247132677E+03  0.00000000000E+00 0. -1.
        -13    1    1    2    0    0 -0.27397845944E+02 -0.75924017009E+02 -0.11033780133E+03  0.13670969200E+03  0.10566000000E+00 0.  1.
         13    1    1    2    0    0 -0.23162266105E+03  0.12996435218E+02 -0.70104508740E+03  0.73843225158E+03  0.10566000000E+00 0. -1.
         -4    1    1    2    0  502  0.25902050699E+03  0.62927581791E+02  0.24079451309E+03  0.35921233432E+03  0.00000000000E+00 0. -1.
</event>
<event>
 5    1  0.1008363E-004  0.4429428E+03  0.7818608E-02  0.9775992E-01
          4   -1    0    0  502    0 -0.00000000000E+00  0.00000000000E+00  0.97040584616E+03  0.97040584616E+03  0.00000000000E+00 0.  1.
         21   -1    0    0  501  502  0.00000000000E+00 -0.00000000000E+00 -0.61795402658E+03  0.61795402658E+03  0.00000000000E+00 0.  1.
        -13    1    1    2    0    0  0.37006639307E+03 -0.94862363332E+02 -0.19258524730E+03  0.42782834396E+03  0.10566000000E+00 0.  1.
         13    1    1    2    0    0  0.22845233211E+03 -0.10292913804E+03  0.46087194483E+03  0.52458348830E+03  0.10566000000E+00 0. -1.
          4    1    1    2  501    0 -0.59851872519E+03  0.19779150137E+03  0.84165122041E+02  0.63594804047E+03  0.00000000000E+00 0.  1.
</event>
<event>
 5    1  0.1008363E-004  0.4694250E+03  0.7818608E-02  0.1013174E+00
         -4   -1    0    0    0  501 -0.00000000000E+00  0.00000000000E+00  0.40661830626E+03  0.40661830626E+03  0.00000000000E+00 0. -1.
         21   -1    0    0  501  502  0.00000000000E+00 -0.00000000000E+00 -0.76517702862E+03  0.76517702862E+03  0.00000000000E+00 0. -1.
        -13    1    1    2    0    0 -0.64349157861E+02  0.80536379905E+01  0.45094789515E+02  0.78988773935E+02  0.10566000000E+00 0.  1.
         13    1    1    2    0    0 -0.82878117224E+02 -0.45741480676E+03  0.93764319710E+01  0.46495700489E+03  0.10566000000E+00 0. -1.
         -4    1    1    2    0  502  0.14722727509E+03  0.44936116877E+03 -0.41302994384E+03  0.62784955605E+03  0.00000000000E+00 0. -1.
</event>
<event>
 5    1  0.1008363E-004  0.2428390E+03  0.7818608E-02  0.1041707E+00
          4   -1    0    0  502    0 -0.00000000000E+00  0.00000000000E+00  0.13138181465E+04  0.13138181465E+04  0.00000000000E+00 0.  1.
         21   -1    0    0  501  502  0.00000000000E+00 -0.00000000000E+00 -0.28487887253E+03  0.28487887253E+03  0.00000000000E+00 0.  1.
        -13    1    1    2    0    0  0.16990940400E+03  0.17948184890E+03  0.95047314663E+03  0.98208052281E+03  0.10566000000E+00 0.  1.
         13    1    1    2    0    0 -0.18087513238E+03  0.67603670151E+02  0.24980638888E+03  0.31573614430E+03  0.10566000000E+00 0. -1.
          4    1    1    2  501    0  0.10965728384E+02 -0.24708551905E+03 -0.17134026156E+03  0.30088035189E+03  0.00000000000E+00 0.  1.
</event>
<event>
 5    1  0.1008363E-004  0.3910236E+02  0.7818608E-02  0.1343862E+00
         -4   -1    0    0    0  501 -0.00000000000E+00  0.00000000000E+00  0.11390222667E+03  0.11390222667E+03  0.00000000000E+00 0. -1.
         21   -1    0    0  501  502  0.00000000000E+00 -0.00000000000E+00 -0.65563743929E+02  0.65563743929E+02  0.00000000000E+00 0. -1.
        -13    1    1    2    0    0  0.31489865667E+02  0.30496552061E+02  0.58382278702E+02  0.73007896544E+02  0.10566000000E+00 0.  1.
         13    1    1    2    0    0 -0.16423702774E+02 -0.31710742065E+02  0.40328143871E+02  0.53867239833E+02  0.10566000000E+00 0. -1.
         -4    1    1    2    0  502 -0.15066162893E+02  0.12141900036E+01 -0.50371939832E+02  0.52590834222E+02  0.00000000000E+00 0. -1.
</event>
<event>
 5    1  0.1008363E-004  0.7188148E+03  0.7818608E-02  0.9096123E-01
         21   -1    0    0  501  502  0.00000000000E+00  0.00000000000E+00  0.44213340855E+03  0.44213340855E+03  0.00000000000E+00 0. -1.
          4   -1    0    0  502    0 -0.00000000000E+00 -0.00000000000E+00 -0.22425343067E+04  0.22425343067E+04  0.00000000000E+00 0.  1.
        -13    1    1    2    0    0 -0.68917241520E+03 -0.24994984370E+03 -0.11945784619E+04  0.14015888324E+04  0.10566000000E+00 0.  1.
         13    1    1    2    0    0  0.51678322260E+03  0.53208586880E+03 -0.59729537978E+03  0.95233505281E+03  0.10566000000E+00 0. -1.
          4    1    1    2  501    0  0.17238919260E+03 -0.28213602511E+03 -0.85270563997E+01  0.33074382999E+03  0.00000000000E+00 0.  1.
</event>
<event>
 5    1  0.1008363E-004  0.3881890E+03  0.7818608E-02  0.9986852E-01
         21   -1    0    0  501  502  0.00000000000E+00  0.00000000000E+00  0.15128743420E+03  0.15128743420E+03  0.00000000000E+00 0. -1.
         -4   -1    0    0    0  501 -0.00000000000E+00 -0.00000000000E+00 -0.24972249384E+04  0.24972249384E+04  0.00000000000E+00 0. -1.
        -13    1    1    2    0    0 -0.62787896800E+02 -0.17227817249E+03 -0.57136166733E+03  0.60006354227E+03  0.10566000000E+00 0.  1.
         13    1    1    2    0    0 -0.25216909494E+03  0.38294240005E+03 -0.15305500253E+04  0.15977539001E+04  0.10566000000E+00 0. -1.
         -4    1    1    2    0  502  0.31495699174E+03 -0.21066422755E+03 -0.24402581155E+03  0.45069493021E+03  0.00000000000E+00 0. -1.
</event>
<event>
 5    1  0.1008363E-004  0.4711421E+03  0.7818608E-02  0.1007452E+00
         21   -1    0    0  501  502  0.00000000000E+00  0.00000000000E+00  0.11551341029E+03  0.11551341029E+03  0.00000000000E+00 0.  1.
          4   -1    0    0  502    0 -0.00000000000E+00 -0.00000000000E+00 -0.24327779930E+04  0.24327779930E+04  0.00000000000E+00 0.  1.
        -13    1    1    2    0    0 -0.45060968515E+02 -0.50151896667E+03 -0.79209029488E+03  0.93859406093E+03  0.10566000000E+00 0.  1.
         13    1    1    2    0    0  0.85512034304E+00  0.77080773135E+02 -0.37668087135E+03  0.38448753793E+03  0.10566000000E+00 0. -1.
          4    1    1    2  501    0  0.44205848172E+02  0.42443819354E+03 -0.11484934165E+04  0.12252098045E+04  0.00000000000E+00 0.  1.
</event>
<event>
 5    1  0.1008363E-004  0.3415493E+02  0.7818608E-02  0.1390638E+00
         -4   -1    0    0    0  501 -0.00000000000E+00  0.00000000000E+00  0.11408997759E+03  0.11408997759E+03  0.00000000000E+00 0. -1.
         21   -1    0    0  501  502  0.00000000000E+00 -0.00000000000E+00 -0.15932174326E+03  0.15932174326E+03  0.00000000000E+00 0. -1.
        -13    1    1    2    0    0  0.13211527729E+02 -0.22193690350E+02 -0.94576836520E+01  0.27505695781E+02  0.10566000000E+00 0.  1.
         13    1    1    2    0    0 -0.41113422113E+02  0.41054266535E+02  0.94728819264E+02  0.11112752423E+03  0.10566000000E+00 0. -1.
         -4    1    1    2    0  502  0.27901894384E+02 -0.18860576185E+02 -0.13050290129E+03  0.13477850084E+03  0.00000000000E+00 0. -1.
</event>
<event>
 5    1  0.1008363E-004  0.4074421E+02  0.7818608E-02  0.1334860E+00
         21   -1    0    0  501  502  0.00000000000E+00  0.00000000000E+00  0.53332416124E+02  0.53332416124E+02  0.00000000000E+00 0.  1.
         -4   -1    0    0    0  501 -0.00000000000E+00 -0.00000000000E+00 -0.12745033761E+03  0.12745033761E+03  0.00000000000E+00 0. -1.
        -13    1    1    2    0    0  0.30734071133E+02  0.66004744952E+01  0.39789058545E+02  0.50708280743E+02  0.10566000000E+00 0.  1.
         13    1    1    2    0    0 -0.41526266720E+02 -0.16944957709E+01 -0.11000434386E+03  0.11759366044E+03  0.10566000000E+00 0. -1.
         -4    1    1    2    0  502  0.10792195587E+02 -0.49059787242E+01 -0.39026361700E+01  0.12480812550E+02  0.00000000000E+00 0. -1.
</event>
<event>
 5    1  0.1008363E-004  0.4596023E+03  0.7818608E-02  0.9808151E-01
          4   -1    0    0  502    0 -0.00000000000E+00  0.00000000000E+00  0.13296357389E+04  0.13296357389E+04  0.00000000000E+00 0.  1.
         21   -1    0    0  501  502  0.00000000000E+00 -0.00000000000E+00 -0.37537175787E+03  0.37537175787E+03  0.00000000000E+00 0.  1.
        -13    1    1    2    0    0  0.21204469591E+03  0.51992463212E+03  0.37703298354E+03  0.67634196823E+03  0.10566000000E+00 0.  1.
         13    1    1    2    0    0 -0.17605662835E+03 -0.96856849688E+02  0.56959659299E+03  0.60400122155E+03  0.10566000000E+00 0. -1.
          4    1    1    2  501    0 -0.35988067560E+02 -0.42306778244E+03  0.76344045434E+01  0.42466430704E+03  0.00000000000E+00 0.  1.
</event>
<event>
 5    1  0.1008363E-004  0.4091859E+03  0.7818608E-02  0.9818142E-01
         -4   -1    0    0    0  501 -0.00000000000E+00  0.00000000000E+00  0.19964969438E+04  0.19964969438E+04  0.00000000000E+00 0. -1.
         21   -1    0    0  501  502  0.00000000000E+00 -0.00000000000E+00 -0.22527987816E+03  0.22527987816E+03  0.00000000000E+00 0. -1.
        -13    1    1    2    0    0  0.23253619170E+03  0.14721427261E+03  0.21257417761E+03  0.34775410085E+03  0.10566000000E+00 0.  1.
         13    1    1    2    0    0 -0.41384631895E+03 -0.45442169011E+03  0.12850225062E+04  0.14244475072E+04  0.10566000000E+00 0. -1.
         -4    1    1    2    0  502  0.18131012725E+03  0.30720741750E+03  0.27362038181E+03  0.44957521390E+03  0.00000000000E+00 0. -1.
</event>
<event>
 5    1  0.1008363E-004  0.3302070E+03  0.7818608E-02  0.1029715E+00
         -4   -1    0    0    0  501 -0.00000000000E+00  0.00000000000E+00  0.10690406843E+04  0.10690406843E+04  0.00000000000E+00 0. -1.
         21   -1    0    0  501  502  0.00000000000E+00 -0.00000000000E+00 -0.36520021144E+03  0.36520021144E+03  0.00000000000E+00 0. -1.
        -13    1    1    2    0    0  0.56663410679E+02  0.95200559603E+02  0.33583280941E+03  0.35363480556E+03  0.10566000000E+00 0.  1.
         13    1    1    2    0    0  0.32304141241E+03 -0.24908608461E+02 -0.20954137238E+03  0.38585462393E+03  0.10566000000E+00 0. -1.
         -4    1    1    2    0  502 -0.37970482309E+03 -0.70291951142E+02  0.57754903588E+03  0.69475146629E+03  0.00000000000E+00 0. -1.
</event>
<event>
 5    1  0.1008363E-004  0.2080136E+03  0.7818608E-02  0.1054777E+00
          4   -1    0    0  502    0 -0.00000000000E+00  0.00000000000E+00  0.13142428949E+04  0.13142428949E+04  0.00000000000E+00 0.  1.
         21   -1    0    0  501  502  0.00000000000E+00 -0.00000000000E+00 -0.40831274586E+03  0.40831274586E+03  0.00000000000E+00 0.  1.
        -13    1    1    2    0    0  0.15871546529E+03 -0.22936555962E+03  0.61851269831E+03  0.67849622549E+03  0.10566000000E+00 0.  1.
         13    1    1    2    0    0  0.17273741010E+02  0.19200699865E+03  0.62906193469E+03  0.65793920578E+03  0.10566000000E+00 0. -1.
          4    1    1    2  501    0 -0.17598920630E+03  0.37358560977E+02 -0.34164448392E+03  0.38612020953E+03  0.00000000000E+00 0.  1.
</event>
<event>
 5    1  0.1008363E-004  0.1896266E+02  0.7818608E-02  0.1570221E+00
         21   -1    0    0  501  502  0.00000000000E+00  0.00000000000E+00  0.34972437426E+03  0.34972437426E+03  0.00000000000E+00 0. -1.
         -4   -1    0    0    0  501 -0.00000000000E+00 -0.00000000000E+00 -0.92638454240E+01  0.92638454240E+01  0.00000000000E+00 0. -1.
        -13    1    1    2    0    0 -0.82952180414E+01 -0.59065161122E+01  0.18266821905E+02  0.20913763924E+02  0.10566000000E+00 0.  1.
         13    1    1    2    0    0  0.24822657220E+02  0.14439360098E+02  0.19276899571E+02  0.34587128423E+02  0.10566000000E+00 0. -1.
         -4    1    1    2    0  502 -0.16527439178E+02 -0.85328439860E+01  0.30291680736E+03  0.30348732733E+03  0.00000000000E+00 0. -1.
</event>
<event>
 5    1  0.1008363E-004  0.1089075E+03  0.7818608E-02  0.1191151E+00
         21   -1    0    0  501  502  0.00000000000E+00  0.00000000000E+00  0.29542941639E+03  0.29542941639E+03  0.00000000000E+00 0. -1.
         -4   -1    0    0    0  501 -0.00000000000E+00 -0.00000000000E+00 -0.17479924225E+03  0.17479924225E+03  0.00000000000E+00 0. -1.
        -13    1    1    2    0    0  0.36496189704E+02  0.19313718713E+02  0.95846227897E+02  0.10436235988E+03  0.10566000000E+00 0.  1.
         13    1    1    2    0    0 -0.14149249815E+03 -0.24808839936E+02 -0.11983159392E+03  0.18707011423E+03  0.10566000000E+00 0. -1.
         -4    1    1    2    0  502  0.10499630845E+03  0.54951212224E+01  0.14461554016E+03  0.17879618452E+03  0.00000000000E+00 0. -1.
</event>
<event>
 5    1  0.1008363E-004  0.1779322E+03  0.7818608E-02  0.1090660E+00
         21   -1    0    0  501  502  0.00000000000E+00  0.00000000000E+00  0.94567153058E+03  0.94567153058E+03  0.00000000000E+00 0. -1.
         -4   -1    0    0    0  501 -0.00000000000E+00 -0.00000000000E+00 -0.32348858683E+03  0.32348858683E+03  0.00000000000E+00 0. -1.
        -13    1    1    2    0    0  0.86496963413E+02  0.82517860847E+02  0.83097730696E+02  0.14558903135E+03  0.10566000000E+00 0.  1.
         13    1    1    2    0    0 -0.94273141863E+02  0.97915186988E+02 -0.26587280138E+03  0.29860202076E+03  0.10566000000E+00 0. -1.
         -4    1    1    2    0  502  0.77761784497E+01 -0.18043304783E+03  0.80495801444E+03  0.82496906531E+03  0.00000000000E+00 0. -1.
</event>
<event>
 5    1  0.1008363E-004  0.4117223E+03  0.7818608E-02  0.9695788E-01
         21   -1    0    0  501  502  0.00000000000E+00  0.00000000000E+00  0.22125552466E+03  0.22125552466E+03  0.00000000000E+00 0. -1.
          4   -1    0    0  502    0 -0.00000000000E+00 -0.00000000000E+00 -0.21654286844E+04  0.21654286844E+04  0.00000000000E+00 0.  1.
        -13    1    1    2    0    0  0.29869595890E+03  0.39653155403E+03 -0.14927815357E+03  0.51840189766E+03  0.10566000000E+00 0.  1.
         13    1    1    2    0    0 -0.19038852775E+03 -0.35049291086E+03 -0.13145242794E+04  0.13737056323E+04  0.10566000000E+00 0. -1.
          4    1    1    2  501    0 -0.10830743116E+03 -0.46038643164E+02 -0.48037072685E+03  0.49457667911E+03  0.00000000000E+00 0.  1.
</event>
<event>
 5    1  0.1008363E-004  0.4822864E+03  0.7818608E-02  0.9863596E-01
         21   -1    0    0  501  502  0.00000000000E+00  0.00000000000E+00  0.38419862286E+03  0.38419862286E+03  0.00000000000E+00 0. -1.
         -4   -1    0    0    0  501 -0.00000000000E+00 -0.00000000000E+00 -0.12511809436E+04  0.12511809436E+04  0.00000000000E+00 0. -1.
        -13    1    1    2    0    0 -0.15387400684E+02  0.14328349004E+03 -0.58872734448E+03  0.60610793422E+03  0.10566000000E+00 0.  1.
         13    1    1    2    0    0 -0.45906837366E+03  0.67742638743E+02 -0.67760985499E+02  0.46896097824E+03  0.10566000000E+00 0. -1.
         -4    1    1    2    0  502  0.47445577434E+03 -0.21102612878E+03 -0.21049399076E+03  0.56031065400E+03  0.00000000000E+00 0. -1.
</event>
<event>
 5    1  0.1008363E-004  0.2638452E+03  0.7818608E-02  0.1023458E+00
         -4   -1    0    0    0  501 -0.00000000000E+00  0.00000000000E+00  0.69011689319E+03  0.69011689319E+03  0.00000000000E+00 0. -1.
         21   -1    0    0  501  502  0.00000000000E+00 -0.00000000000E+00 -0.90801617279E+03  0.90801617279E+03  0.00000000000E+00 0. -1.
        -13    1    1    2    0    0  0.21226679034E+03 -0.14090233205E+03  0.32959117144E+03  0.41658253554E+03  0.10566000000E+00 0.  1.
         13    1    1    2    0    0 -0.44987660026E+03  0.98577262579E+02 -0.74082546447E+03  0.87231233634E+03  0.10566000000E+00 0. -1.
         -4    1    1    2    0  502  0.23760980992E+03  0.42325069467E+02  0.19333501342E+03  0.30923819410E+03  0.00000000000E+00 0. -1.
</event>
<event>
 5    1  0.1008363E-004  0.4233801E+02  0.7818608E-02  0.1326571E+00
         21   -1    0    0  501  502  0.00000000000E+00  0.00000000000E+00  0.47411488698E+02  0.47411488698E+02  0.00000000000E+00 0.  1.
          4   -1    0    0  502    0 -0.00000000000E+00 -0.00000000000E+00 -0.11150316493E+03  0.11150316493E+03  0.00000000000E+00 0.  1.
        -13    1    1    2    0    0  0.12536736751E+02 -0.35700172909E+02 -0.36703190293E+02  0.52714395148E+02  0.10566000000E+00 0.  1.
         13    1    1    2    0    0 -0.10385628714E+02  0.46089566861E+02 -0.57414901377E+02  0.74354498999E+02  0.10566000000E+00 0. -1.
          4    1    1    2  501    0 -0.21511080377E+01 -0.10389393952E+02  0.30026415441E+02  0.31845759477E+02  0.00000000000E+00 0.  1.
</event>
<event>
 5    1  0.1008363E-004  0.5057530E+03  0.7818608E-02  0.1004665E+00
          4   -1    0    0  502    0 -0.00000000000E+00  0.00000000000E+00  0.80665223198E+03  0.80665223198E+03  0.00000000000E+00 0.  1.
         21   -1    0    0  501  502  0.00000000000E+00 -0.00000000000E+00 -0.43382326514E+03  0.43382326514E+03  0.00000000000E+00 0.  1.
        -13    1    1    2    0    0 -0.21703169069E+03  0.48159205865E+03  0.16101757695E+03  0.55223214047E+03  0.10566000000E+00 0.  1.
         13    1    1    2    0    0 -0.20218706478E+02 -0.65137623442E+02 -0.96633432521E+02  0.11827822084E+03  0.10566000000E+00 0. -1.
          4    1    1    2  501    0  0.23725039717E+03 -0.41645443521E+03  0.30844482241E+03  0.56996513581E+03  0.00000000000E+00 0.  1.
</event>
<event>
 5    1  0.1008363E-004  0.5155181E+02  0.7818608E-02  0.1285596E+00
          4   -1    0    0  502    0 -0.00000000000E+00  0.00000000000E+00  0.16483359727E+03  0.16483359727E+03  0.00000000000E+00 0.  1.
         21   -1    0    0  501  502  0.00000000000E+00 -0.00000000000E+00 -0.47087189142E+02  0.47087189142E+02  0.00000000000E+00 0. -1.
        -13    1    1    2    0    0 -0.39372549818E+02  0.33923965253E+02  0.13112334073E+03  0.14104742020E+03  0.10566000000E+00 0.  1.
         13    1    1    2    0    0  0.25200211386E+02 -0.44911721901E+02 -0.12061384866E+02  0.52892358493E+02  0.10566000000E+00 0. -1.
          4    1    1    2  501    0  0.14172338433E+02  0.10987756648E+02 -0.13155477312E+01  0.17981007721E+02  0.00000000000E+00 0.  1.
</event>
<event>
 5    1  0.1008363E-004  0.2105758E+03  0.7818608E-02  0.1053118E+00
         -4   -1    0    0    0  501 -0.00000000000E+00  0.00000000000E+00  0.25739422070E+03  0.25739422070E+03  0.00000000000E+00 0. -1.
         21   -1    0    0  501  502  0.00000000000E+00 -0.00000000000E+00 -0.42884903238E+03  0.42884903238E+03  0.00000000000E+00 0.  1.
        -13    1    1    2    0    0  0.21094193460E+03  0.65959616580E+02 -0.30543890273E+03  0.37701472817E+03  0.10566000000E+00 0.  1.
         13    1    1    2    0    0 -0.20211250912E+03 -0.53539904748E+02  0.17041724273E+03  0.26973697471E+03  0.10566000000E+00 0. -1.
         -4    1    1    2    0  502 -0.88294254759E+01 -0.12419711831E+02 -0.36433151681E+02  0.39491550205E+02  0.00000000000E+00 0. -1.
</event>
<event>
 5    1  0.1008363E-004  0.2114901E+03  0.7818608E-02  0.1052532E+00
         -4   -1    0    0    0  501 -0.00000000000E+00  0.00000000000E+00  0.16079319336E+04  0.16079319336E+04  0.00000000000E+00 0. -1.
         21   -1    0    0  501  502  0.00000000000E+00 -0.00000000000E+00 -0.37590881487E+02  0.37590881487E+02  0.00000000000E+00 0.  1.
        -13    1    1    2    0    0 -0.20063537876E+03  0.76664920309E+02  0.11537893382E+04  0.11736106311E+04  0.10566000000E+00 0.  1.
         13    1    1    2    0    0  0.19074734187E+03 -0.71183378465E+02  0.41230760088E+03  0.45983604764E+03  0.10566000000E+00 0. -1.
         -4    1    1    2    0  502  0.98880368826E+01 -0.54815418449E+01  0.42441130121E+01  0.12076136371E+02  0.00000000000E+00 0. -1.
</event>
<event>
 5    1  0.1008363E-004  0.1395737E+04  0.7818608E-02  0.8778399E-01
          4   -1    0    0  502    0 -0.00000000000E+00  0.00000000000E+00  0.16853446173E+04  0.16853446173E+04  0.00000000000E+00 0.  1.
         21   -1    0    0  501  502  0.00000000000E+00 -0.00000000000E+00 -0.16684666695E+04  0.16684666695E+04  0.00000000000E+00 0. -1.
        -13    1    1    2    0    0 -0.26034444647E+03  0.81938501666E+02  0.95462354801E+02  0.28914740395E+03  0.10566000000E+00 0.  1.
         13    1    1    2    0    0  0.71471779159E+03  0.12377680255E+04  0.55317006666E+03  0.15326083454E+04  0.10566000000E+00 0. -1.
          4    1    1    2  501    0 -0.45437334512E+03 -0.13197065272E+04 -0.63175447366E+03  0.15320555374E+04  0.00000000000E+00 0.  1.
</event>
<event>
 5    1  0.1008363E-004  0.4019116E+03  0.7818608E-02  0.9723541E-01
         -4   -1    0    0    0  501 -0.00000000000E+00  0.00000000000E+00  0.92964882617E+03  0.92964882617E+03  0.00000000000E+00 0. -1.
         21   -1    0    0  501  502  0.00000000000E+00 -0.00000000000E+00 -0.25106269569E+03  0.25106269569E+03  0.00000000000E+00 0.  1.
        -13    1    1    2    0    0  0.18754605554E+03 -0.34581431203E+03  0.19661500578E+03  0.43979373917E+03  0.10566000000E+00 0.  1.
         13    1    1    2    0    0 -0.18944157899E+03  0.35984338245E+03  0.54292680418E+03  0.67833980984E+03  0.10566000000E+00 0. -1.
         -4    1    1    2    0  502  0.18955234531E+01 -0.14029070418E+02 -0.60955679477E+02  0.62577972854E+02  0.00000000000E+00 0. -1.
</event>
<event>
 5    1  0.1008363E-004  0.4655982E+03  0.7818608E-02  0.9938015E-01
          4   -1    0    0  502    0 -0.00000000000E+00  0.00000000000E+00  0.18842434170E+04  0.18842434170E+04  0.00000000000E+00 0.  1.
         21   -1    0    0  501  502  0.00000000000E+00 -0.00000000000E+00 -0.18218270680E+03  0.18218270680E+03  0.00000000000E+00 0.  1.
        -13    1    1    2    0    0 -0.46914136852E+03 -0.17556095023E+03  0.90283572159E+03  0.10324861366E+04  0.10566000000E+00 0.  1.
         13    1    1    2    0    0  0.19132340391E+02  0.12339629463E+03  0.43526820315E+03  0.45282569695E+03  0.10566000000E+00 0. -1.
          4    1    1    2  501    0  0.45000902813E+03  0.52164655599E+02  0.36395678550E+03  0.58111429031E+03  0.00000000000E+00 0.  1.
</event>
<event>
 5    1  0.1008363E-004  0.3805262E+03  0.7818608E-02  0.1036775E+00
          4   -1    0    0  502    0 -0.00000000000E+00  0.00000000000E+00  0.41555357264E+03  0.41555357264E+03  0.00000000000E+00 0.  1.
         21   -1    0    0  501  502  0.00000000000E+00 -0.00000000000E+00 -0.14622958429E+04  0.14622958429E+04  0.00000000000E+00 0.  1.
        -13    1    1    2    0    0  0.20270044316E+03 -0.33476906723E+03 -0.12199019693E+04  0.12811395802E+04  0.10566000000E+00 0.  1.
         13    1    1    2    0    0 -0.35021122446E+02  0.46591663327E+02  0.24820590154E+03  0.25495772754E+03  0.10566000000E+00 0. -1.
          4    1    1    2  501    0 -0.16767932071E+03  0.28817740391E+03 -0.75046202525E+02  0.34175210786E+03  0.00000000000E+00 0.  1.
</event>
<event>
 5    1  0.1008363E-004  0.5376275E+03  0.7818608E-02  0.9399106E-01
         21   -1    0    0  501  502  0.00000000000E+00  0.00000000000E+00  0.25099628338E+03  0.25099628338E+03  0.00000000000E+00 0. -1.
         -4   -1    0    0    0  501 -0.00000000000E+00 -0.00000000000E+00 -0.28952187933E+04  0.28952187933E+04  0.00000000000E+00 0. -1.
        -13    1    1    2    0    0  0.52993944691E+03 -0.16427984805E+03 -0.91751529897E+03  0.10722210690E+04  0.10566000000E+00 0.  1.
         13    1    1    2    0    0 -0.30095314484E+03  0.50604528794E+03 -0.14835672238E+04  0.15961285498E+04  0.10566000000E+00 0. -1.
         -4    1    1    2    0  502 -0.22898630207E+03 -0.34176543989E+03 -0.24313998718E+03  0.47786545785E+03  0.00000000000E+00 0. -1.
</event>
<event>
 5    1  0.1008363E-004  0.1579331E+03  0.7818608E-02  0.1119430E+00
          4   -1    0    0  502    0 -0.00000000000E+00  0.00000000000E+00  0.34746844203E+03  0.34746844203E+03  0.00000000000E+00 0.  1.
         21   -1    0    0  501  502  0.00000000000E+00 -0.00000000000E+00 -0.26150598290E+03  0.26150598290E+03  0.00000000000E+00 0.  1.
        -13    1    1    2    0    0 -0.54655154271E+02 -0.10001428486E+03  0.27578614847E+03  0.29840920548E+03  0.10566000000E+00 0.  1.
         13    1    1    2    0    0  0.43895121338E+02 -0.65634386019E+02 -0.73432158727E+02  0.10782832376E+03  0.10566000000E+00 0. -1.
          4    1    1    2  501    0  0.10760032933E+02  0.16564867088E+03 -0.11639153061E+03  0.20273689568E+03  0.00000000000E+00 0.  1.
</event>
<event>
 5    1  0.1008363E-004  0.4708160E+03  0.7818608E-02  0.9670573E-01
         21   -1    0    0  501  502  0.00000000000E+00  0.00000000000E+00  0.22373604188E+04  0.22373604188E+04  0.00000000000E+00 0.  1.
          4   -1    0    0  502    0 -0.00000000000E+00 -0.00000000000E+00 -0.21662178559E+03  0.21662178559E+03  0.00000000000E+00 0.  1.
        -13    1    1    2    0    0 -0.74868374491E+02 -0.53283627245E+03  0.63815025232E+03  0.83471882837E+03  0.10566000000E+00 0.  1.
         13    1    1    2    0    0 -0.23735035444E+03  0.18462157902E+03  0.24024140539E+03  0.38488473888E+03  0.10566000000E+00 0. -1.
          4    1    1    2  501    0  0.31221872894E+03  0.34821469343E+03  0.11423469755E+04  0.12343786372E+04  0.00000000000E+00 0.  1.
</event>
<event>
 5    1  0.1008363E-004  0.7201927E+02  0.7818608E-02  0.1221527E+00
         -4   -1    0    0    0  501 -0.00000000000E+00  0.00000000000E+00  0.73102279096E+01  0.73102279096E+01  0.00000000000E+00 0. -1.
         21   -1    0    0  501  502  0.00000000000E+00 -0.00000000000E+00 -0.13289380842E+04  0.13289380842E+04  0.00000000000E+00 0. -1.
        -13    1    1    2    0    0 -0.12025266010E+02  0.65188811526E+02 -0.38505308874E+03  0.39071739210E+03  0.10566000000E+00 0.  1.
         13    1    1    2    0    0  0.22497912488E+02 -0.73888091707E+02 -0.33446771673E+03  0.34326996789E+03  0.10566000000E+00 0. -1.
         -4    1    1    2    0  502 -0.10472646478E+02  0.86992801817E+01 -0.60210705079E+03  0.60226095209E+03  0.00000000000E+00 0. -1.
</event>
<event>
 5    1  0.1008363E-004  0.7018933E+02  0.7818608E-02  0.1261549E+00
         21   -1    0    0  501  502  0.00000000000E+00  0.00000000000E+00  0.82111883104E+02  0.82111883104E+02  0.00000000000E+00 0. -1.
         -4   -1    0    0    0  501 -0.00000000000E+00 -0.00000000000E+00 -0.10469776816E+03  0.10469776816E+03  0.00000000000E+00 0. -1.
        -13    1    1    2    0    0 -0.64184468016E+01 -0.32580451632E+02 -0.16389795765E+02  0.37031322649E+02  0.10566000000E+00 0.  1.
         13    1    1    2    0    0  0.25824770814E+02  0.87474360618E+02 -0.77392230934E+01  0.91534634381E+02  0.10566000000E+00 0. -1.
         -4    1    1    2    0  502 -0.19406324013E+02 -0.54893908987E+02  0.15431338068E+01  0.58243694229E+02  0.00000000000E+00 0. -1.
</event>
<event>
 5    1  0.1008363E-004  0.8571276E+02  0.7818608E-02  0.1190638E+00
          4   -1    0    0  502    0 -0.00000000000E+00  0.00000000000E+00  0.63807291705E+03  0.63807291705E+03  0.00000000000E+00 0.  1.
         21   -1    0    0  501  502  0.00000000000E+00 -0.00000000000E+00 -0.65398804466E+02  0.65398804466E+02  0.00000000000E+00 0.  1.
        -13    1    1    2    0    0  0.83176359095E+02  0.55997538132E+01  0.45790545163E+03  0.46543214086E+03  0.10566000000E+00 0.  1.
         13    1    1    2    0    0 -0.93237682052E+02 -0.64247114562E+01  0.16347145363E+03  0.18830153899E+03  0.10566000000E+00 0. -1.
          4    1    1    2  501    0  0.10061322957E+02  0.82495764300E+00 -0.48702792668E+02  0.49738041662E+02  0.00000000000E+00 0.  1.
</event>
<event>
 5    1  0.1008363E-004  0.1924677E+03  0.7818608E-02  0.1065426E+00
         21   -1    0    0  501  502  0.00000000000E+00  0.00000000000E+00  0.97358174251E+02  0.97358174251E+02  0.00000000000E+00 0.  1.
          4   -1    0    0  502    0 -0.00000000000E+00 -0.00000000000E+00 -0.78607899462E+03  0.78607899462E+03  0.00000000000E+00 0.  1.
        -13    1    1    2    0    0 -0.19076119653E+03 -0.12649930906E+03 -0.51343677488E+03  0.56214699346E+03  0.10566000000E+00 0.  1.
         13    1    1    2    0    0  0.11325583384E+03  0.10214566166E+03 -0.18467136365E+03  0.23950812891E+03  0.10566000000E+00 0. -1.
          4    1    1    2  501    0  0.77505362693E+02  0.24353647400E+02  0.93873181646E+01  0.81782046503E+02  0.00000000000E+00 0.  1.
</event>
<event>
 5    1  0.1008363E-004  0.1067380E+03  0.7818608E-02  0.1153864E+00
         21   -1    0    0  501  502  0.00000000000E+00  0.00000000000E+00  0.14284036149E+04  0.14284036149E+04  0.00000000000E+00 0. -1.
          4   -1    0    0  502    0 -0.00000000000E+00 -0.00000000000E+00 -0.15016997970E+03  0.15016997970E+03  0.00000000000E+00 0.  1.
        -13    1    1    2    0    0 -0.86827023808E+02 -0.61055642756E+02 -0.12295830435E+03  0.16243607773E+03  0.10566000000E+00 0.  1.
         13    1    1    2    0    0  0.11654428920E+03  0.48678159331E+02  0.54913311561E+03  0.56347078395E+03  0.10566000000E+00 0. -1.
          4    1    1    2  501    0 -0.29717265395E+02  0.12377483425E+02  0.85205882397E+03  0.85266673294E+03  0.00000000000E+00 0.  1.
</event>
<event>
 5    1  0.1008363E-004  0.4244561E+03  0.7818608E-02  0.9809226E-01
         21   -1    0    0  501  502  0.00000000000E+00  0.00000000000E+00  0.73708777904E+03  0.73708777904E+03  0.00000000000E+00 0. -1.
         -4   -1    0    0    0  501 -0.00000000000E+00 -0.00000000000E+00 -0.53859633312E+03  0.53859633312E+03  0.00000000000E+00 0. -1.
        -13    1    1    2    0    0 -0.22659905815E+03 -0.11513107290E+03 -0.38902694593E+02  0.25712978807E+03  0.10566000000E+00 0.  1.
         13    1    1    2    0    0  0.54129632823E+03  0.28183875644E+03  0.40485128264E+02  0.61161577510E+03  0.10566000000E+00 0. -1.
         -4    1    1    2    0  502 -0.31469727007E+03 -0.16670768353E+03  0.19690901225E+03  0.40693854898E+03  0.00000000000E+00 0. -1.
</event>
<event>
 5    1  0.1008363E-004  0.4949949E+02  0.7818608E-02  0.1293840E+00
         21   -1    0    0  501  502  0.00000000000E+00  0.00000000000E+00  0.43013711758E+03  0.43013711758E+03  0.00000000000E+00 0. -1.
          4   -1    0    0  502    0 -0.00000000000E+00 -0.00000000000E+00 -0.17500382711E+02  0.17500382711E+02  0.00000000000E+00 0.  1.
        -13    1    1    2    0    0  0.14156837665E+02  0.46927894604E+02  0.28719113998E+02  0.56810580155E+02  0.10566000000E+00 0.  1.
         13    1    1    2    0    0 -0.31738955728E+02 -0.45329660217E+02  0.30208681430E+03  0.30711332427E+03  0.10566000000E+00 0. -1.
          4    1    1    2  501    0  0.17582118064E+02 -0.15982343871E+01  0.81830806577E+02  0.83713595872E+02  0.00000000000E+00 0.  1.
</event>
<event>
 5    1  0.1008363E-004  0.3882698E+03  0.7818608E-02  0.9763547E-01
         -4   -1    0    0    0  501 -0.00000000000E+00  0.00000000000E+00  0.10772649155E+04  0.10772649155E+04  0.00000000000E+00 0. -1.
         21   -1    0    0  501  502  0.00000000000E+00 -0.00000000000E+00 -0.29588392476E+03  0.29588392476E+03  0.00000000000E+00 0. -1.
        -13    1    1    2    0    0 -0.37181773141E+03  0.13138115149E+03  0.31526049635E+03  0.50487485982E+03  0.10566000000E+00 0.  1.
         13    1    1    2    0    0  0.36444930134E+03 -0.12325313773E+03  0.61151204047E+03  0.72246911077E+03  0.10566000000E+00 0. -1.
         -4    1    1    2    0  502  0.73684300628E+01 -0.81280137549E+01 -0.14539154604E+03  0.14580486971E+03  0.00000000000E+00 0. -1.
</event>
<event>
 5    1  0.1008363E-004  0.4967584E+02  0.7818608E-02  0.1293114E+00
         -4   -1    0    0    0  501 -0.00000000000E+00  0.00000000000E+00  0.21066234265E+03  0.21066234265E+03  0.00000000000E+00 0. -1.
         21   -1    0    0  501  502  0.00000000000E+00 -0.00000000000E+00 -0.12798292593E+03  0.12798292593E+03  0.00000000000E+00 0.  1.
        -13    1    1    2    0    0 -0.15792240160E+02 -0.35812803613E+02 -0.10356163230E+03  0.11071122166E+03  0.10566000000E+00 0.  1.
         13    1    1    2    0    0  0.93802007075E+01  0.49117355888E+02  0.20095692704E+03  0.20708500792E+03  0.10566000000E+00 0. -1.
         -4    1    1    2    0  502  0.64120394528E+01 -0.13304552275E+02 -0.14715878015E+02  0.20849038993E+02  0.00000000000E+00 0. -1.
</event>
<event>
 5    1  0.1008363E-004  0.1719213E+03  0.7818608E-02  0.1150430E+00
         21   -1    0    0  501  502  0.00000000000E+00  0.00000000000E+00  0.73939035621E+03  0.73939035621E+03  0.00000000000E+00 0. -1.
         -4   -1    0    0    0  501 -0.00000000000E+00 -0.00000000000E+00 -0.47839550905E+03  0.47839550905E+03  0.00000000000E+00 0. -1.
        -13    1    1    2    0    0 -0.67749366045E+01 -0.26966079909E+02 -0.15518870478E+03  0.15765980618E+03  0.10566000000E+00 0.  1.
         13    1    1    2    0    0 -0.13783154197E+03  0.11942034551E+03 -0.28493774131E+03  0.33830205508E+03  0.10566000000E+00 0. -1.
         -4    1    1    2    0  502  0.14460647857E+03 -0.92454265605E+02  0.70112129326E+03  0.72182400399E+03  0.00000000000E+00 0. -1.
</event>
<event>
 5    1  0.1008363E-004  0.4620177E+03  0.7818608E-02  0.9565348E-01
          4   -1    0    0  502    0 -0.00000000000E+00  0.00000000000E+00  0.60111821087E+03  0.60111821087E+03  0.00000000000E+00 0.  1.
         21   -1    0    0  501  502  0.00000000000E+00 -0.00000000000E+00 -0.12666767039E+04  0.12666767039E+04  0.00000000000E+00 0. -1.
        -13    1    1    2    0    0 -0.41351761359E+03 -0.13361402262E+03  0.26958605391E+03  0.51139629977E+03  0.10566000000E+00 0.  1.
         13    1    1    2    0    0  0.49579192225E+03  0.23452133175E+03 -0.16131498202E+03  0.57169259205E+03  0.10566000000E+00 0. -1.
          4    1    1    2  501    0 -0.82274308658E+02 -0.10090730914E+03 -0.77382956492E+03  0.78470602295E+03  0.00000000000E+00 0.  1.
</event>
<event>
 5    1  0.1008363E-004  0.4547797E+03  0.7818608E-02  0.9583006E-01
         21   -1    0    0  501  502  0.00000000000E+00  0.00000000000E+00  0.37933865238E+03  0.37933865238E+03  0.00000000000E+00 0. -1.
         -4   -1    0    0    0  501 -0.00000000000E+00 -0.00000000000E+00 -0.29007267604E+04  0.29007267604E+04  0.00000000000E+00 0. -1.
        -13    1    1    2    0    0  0.63706509506E+02  0.43629272850E+03 -0.21460852701E+04  0.21909111944E+04  0.10566000000E+00 0.  1.
         13    1    1    2    0    0 -0.39281675811E+03 -0.49796436445E+03 -0.40575332677E+03  0.75293378664E+03  0.10566000000E+00 0. -1.
         -4    1    1    2    0  502  0.32911024860E+03  0.61671635948E+02  0.30450488848E+02  0.33622043169E+03  0.00000000000E+00 0. -1.
</event>
<event>
 5    1  0.1418250E-004  0.4268146E+03  0.7818608E-02  0.1008602E+00
          4   -1    0    0  502    0 -0.00000000000E+00  0.00000000000E+00  0.86437980103E+03  0.86437980103E+03  0.00000000000E+00 0.  1.
         21   -1    0    0  501  502  0.00000000000E+00 -0.00000000000E+00 -0.39499333042E+03  0.39499333042E+03  0.00000000000E+00 0.  1.
        -13    1    1    2    0    0  0.72582380340E+02  0.46283820813E+03  0.38531006935E+03  0.60658986931E+03  0.10566000000E+00 0.  1.
         13    1    1    2    0    0  0.69064291030E+02 -0.72193810594E+02  0.19811973865E+03  0.22188570164E+03  0.10566000000E+00 0. -1.
          4    1    1    2  501    0 -0.14164667137E+03 -0.39064439754E+03 -0.11404333739E+03  0.43089756050E+03  0.00000000000E+00 0.  1.
</event>
<event>
 5    1  0.1008363E-004  0.5111369E+02  0.7818608E-02  0.1291918E+00
         -4   -1    0    0    0  501 -0.00000000000E+00  0.00000000000E+00  0.25826516028E+02  0.25826516028E+02  0.00000000000E+00 0. -1.
         21   -1    0    0  501  502  0.00000000000E+00 -0.00000000000E+00 -0.40903670081E+03  0.40903670081E+03  0.00000000000E+00 0.  1.
        -13    1    1    2    0    0  0.42883263077E+02 -0.18448713759E+02 -0.17558963317E+03  0.18168945961E+03  0.10566000000E+00 0.  1.
         13    1    1    2    0    0 -0.41261352622E+02  0.66188148022E+02 -0.61145411581E+02  0.99106723688E+02  0.10566000000E+00 0. -1.
         -4    1    1    2    0  502 -0.16219104553E+01 -0.47739434263E+02 -0.14647514003E+03  0.15406703354E+03  0.00000000000E+00 0. -1.
</event>
<event>
 5    1  0.1008363E-004  0.7035505E+03  0.7818608E-02  0.9117844E-01
         21   -1    0    0  501  502  0.00000000000E+00  0.00000000000E+00  0.26628755179E+03  0.26628755179E+03  0.00000000000E+00 0.  1.
          4   -1    0    0  502    0 -0.00000000000E+00 -0.00000000000E+00 -0.34088751425E+04  0.34088751425E+04  0.00000000000E+00 0.  1.
        -13    1    1    2    0    0 -0.22764694514E+03  0.68629117468E+03 -0.20131167004E+04  0.21390319232E+04  0.10566000000E+00 0.  1.
         13    1    1    2    0    0  0.14065909866E+02 -0.69230683959E+03 -0.11266669823E+04  0.13224466379E+04  0.10566000000E+00 0. -1.
          4    1    1    2  501    0  0.21358103528E+03  0.60156649120E+01 -0.28039080190E+01  0.21368413314E+03  0.00000000000E+00 0.  1.
</event>
<event>
 5    1  0.1008363E-004  0.4145950E+03  0.7818608E-02  0.9687815E-01
         -4   -1    0    0    0  501 -0.00000000000E+00  0.00000000000E+00  0.10226020646E+04  0.10226020646E+04  0.00000000000E+00 0. -1.
         21   -1    0    0  501  502  0.00000000000E+00 -0.00000000000E+00 -0.26109476432E+03  0.26109476432E+03  0.00000000000E+00 0.  1.
        -13    1    1    2    0    0 -0.30588766729E+03  0.27496718906E+03  0.57840826926E+03  0.70973964041E+03  0.10566000000E+00 0.  1.
         13    1    1    2    0    0  0.31800452897E+03 -0.27511811684E+03  0.26113683346E+03  0.49498415693E+03  0.10566000000E+00 0. -1.
         -4    1    1    2    0  502 -0.12116861686E+02  0.15092778603E+00 -0.78037802410E+02  0.78973031607E+02  0.00000000000E+00 0. -1.
</event>
<event>
 5    1  0.1008363E-004  0.5140058E+03  0.7818608E-02  0.9447792E-01
         21   -1    0    0  501  502  0.00000000000E+00  0.00000000000E+00  0.34241821146E+03  0.34241821146E+03  0.00000000000E+00 0. -1.
         -4   -1    0    0    0  501 -0.00000000000E+00 -0.00000000000E+00 -0.23531973612E+04  0.23531973612E+04  0.00000000000E+00 0. -1.
        -13    1    1    2    0    0 -0.51010462018E+02 -0.50825943490E+03 -0.11572711434E+04  0.12649925814E+04  0.10566000000E+00 0.  1.
         13    1    1    2    0    0  0.50390824951E+03  0.41330091162E+03 -0.66453664312E+03  0.93077931256E+03  0.10566000000E+00 0. -1.
         -4    1    1    2    0  502 -0.45289778749E+03  0.94958523277E+02 -0.18897136322E+03  0.49984367874E+03  0.00000000000E+00 0. -1.
</event>
<event>
 5    1  0.1008363E-004  0.4033618E+03  0.7818608E-02  0.9960164E-01
         -4   -1    0    0    0  501 -0.00000000000E+00  0.00000000000E+00  0.10708400719E+04  0.10708400719E+04  0.00000000000E+00 0. -1.
         21   -1    0    0  501  502  0.00000000000E+00 -0.00000000000E+00 -0.36190478593E+03  0.36190478593E+03  0.00000000000E+00 0. -1.
        -13    1    1    2    0    0  0.15662756805E+03  0.85542015145E+02  0.66742630603E+02  0.19053666664E+03  0.10566000000E+00 0.  1.
         13    1    1    2    0    0 -0.52286050469E+03 -0.15397689161E+03  0.67569436574E+03  0.86813298380E+03  0.10566000000E+00 0. -1.
         -4    1    1    2    0  502  0.36623293664E+03  0.68434876462E+02 -0.33501710354E+02  0.37407520740E+03  0.00000000000E+00 0. -1.
</event>
<event>
 5    1  0.1008363E-004  0.2481443E+03  0.7818608E-02  0.1031359E+00
         21   -1    0    0  501  502  0.00000000000E+00  0.00000000000E+00  0.16287407262E+04  0.16287407262E+04  0.00000000000E+00 0.  1.
          4   -1    0    0  502    0 -0.00000000000E+00 -0.00000000000E+00 -0.50346080751E+03  0.50346080751E+03  0.00000000000E+00 0.  1.
        -13    1    1    2    0    0  0.13325003531E+03 -0.16747462364E+03 -0.10881090636E+03  0.24008987063E+03  0.10566000000E+00 0.  1.
         13    1    1    2    0    0 -0.31783357246E+03  0.68487908516E+02 -0.23943176326E+03  0.40377760441E+03  0.10566000000E+00 0. -1.
          4    1    1    2  501    0  0.18458353715E+03  0.98986715127E+02  0.14735225883E+04  0.14883340587E+04  0.00000000000E+00 0.  1.
</event>
<event>
 5    1  0.1008363E-004  0.2282582E+02  0.7818608E-02  0.1504065E+00
         21   -1    0    0  501  502  0.00000000000E+00  0.00000000000E+00  0.65002986025E+02  0.65002986025E+02  0.00000000000E+00 0. -1.
          4   -1    0    0  502    0 -0.00000000000E+00 -0.00000000000E+00 -0.65016379850E+02  0.65016379850E+02  0.00000000000E+00 0.  1.
        -13    1    1    2    0    0 -0.45430464218E+00 -0.18849015605E+02 -0.45783276879E+02  0.49513749482E+02  0.10566000000E+00 0.  1.
         13    1    1    2    0    0 -0.27128826937E+02  0.11620432894E+02  0.37872721557E+01  0.29755038331E+02  0.10566000000E+00 0. -1.
          4    1    1    2  501    0  0.27583131580E+02  0.72285827111E+01  0.41982610899E+02  0.50750578062E+02  0.00000000000E+00 0.  1.
</event>
<event>
 5    1  0.1008363E-004  0.4198775E+02  0.7818608E-02  0.1328357E+00
          4   -1    0    0  502    0 -0.00000000000E+00  0.00000000000E+00  0.10210880088E+03  0.10210880088E+03  0.00000000000E+00 0.  1.
         21   -1    0    0  501  502  0.00000000000E+00 -0.00000000000E+00 -0.67785666185E+02  0.67785666185E+02  0.00000000000E+00 0. -1.
        -13    1    1    2    0    0  0.93667713777E+01 -0.42188482123E+02  0.85400313380E+02  0.95712220324E+02  0.10566000000E+00 0.  1.
         13    1    1    2    0    0 -0.20029580047E+02  0.29682837216E+02 -0.26213539928E+02  0.44378099797E+02  0.10566000000E+00 0. -1.
          4    1    1    2  501    0  0.10662808669E+02  0.12505644908E+02 -0.24863638753E+02  0.29804146948E+02  0.00000000000E+00 0.  1.
</event>
<event>
 5    1  0.1008363E-004  0.4668147E+02  0.7818608E-02  0.1305923E+00
         21   -1    0    0  501  502  0.00000000000E+00  0.00000000000E+00  0.86434007249E+03  0.86434007249E+03  0.00000000000E+00 0.  1.
          4   -1    0    0  502    0 -0.00000000000E+00 -0.00000000000E+00 -0.60831203544E+02  0.60831203544E+02  0.00000000000E+00 0.  1.
        -13    1    1    2    0    0 -0.29819414773E+02 -0.46939985838E+02 -0.17606777496E+02  0.58331548460E+02  0.10566000000E+00 0.  1.
         13    1    1    2    0    0  0.39733066577E+02  0.15442382705E+02 -0.23680044503E+01  0.42694289692E+02  0.10566000000E+00 0. -1.
          4    1    1    2  501    0 -0.99136518032E+01  0.31497603134E+02  0.82348365090E+03  0.82414543789E+03  0.00000000000E+00 0.  1.
</event>
<event>
 5    1  0.1008363E-004  0.5041254E+03  0.7818608E-02  0.9689916E-01
         -4   -1    0    0    0  501 -0.00000000000E+00  0.00000000000E+00  0.17119423544E+04  0.17119423544E+04  0.00000000000E+00 0. -1.
         21   -1    0    0  501  502  0.00000000000E+00 -0.00000000000E+00 -0.35542004950E+03  0.35542004950E+03  0.00000000000E+00 0.  1.
        -13    1    1    2    0    0  0.12138561204E+03 -0.19409502104E+03 -0.12464585152E+03  0.26066059056E+03  0.10566000000E+00 0.  1.
         13    1    1    2    0    0 -0.56150605458E+03  0.26229047766E+02  0.75899279576E+03  0.94448244423E+03  0.10566000000E+00 0. -1.
         -4    1    1    2    0  502  0.44012044254E+03  0.16786597327E+03  0.72217536068E+03  0.86221936913E+03  0.00000000000E+00 0. -1.
</event>
<event>
 5    1  0.1008363E-004  0.4413236E+03  0.7818608E-02  0.9616777E-01
         -4   -1    0    0    0  501 -0.00000000000E+00  0.00000000000E+00  0.32384413001E+03  0.32384413001E+03  0.00000000000E+00 0. -1.
         21   -1    0    0  501  502  0.00000000000E+00 -0.00000000000E+00 -0.90091430255E+03  0.90091430255E+03  0.00000000000E+00 0.  1.
        -13    1    1    2    0    0  0.40200145908E+03  0.19080820866E+03 -0.41816985636E+03  0.61063817889E+03  0.10566000000E+00 0.  1.
         13    1    1    2    0    0 -0.40675317276E+03 -0.16773293417E+03  0.13431910020E+02  0.44018508395E+03  0.10566000000E+00 0. -1.
         -4    1    1    2    0  502  0.47517136891E+01 -0.23075274487E+02 -0.17233222621E+03  0.17393516972E+03  0.00000000000E+00 0. -1.
</event>
<event>
 5    1  0.1008363E-004  0.3853582E+03  0.7818608E-02  0.9772310E-01
         -4   -1    0    0    0  501 -0.00000000000E+00  0.00000000000E+00  0.19536065754E+04  0.19536065754E+04  0.00000000000E+00 0. -1.
         21   -1    0    0  501  502  0.00000000000E+00 -0.00000000000E+00 -0.14109947589E+03  0.14109947589E+03  0.00000000000E+00 0.  1.
        -13    1    1    2    0    0  0.33881858887E+03  0.16223295413E+03  0.41980967602E+03  0.56334513650E+03  0.10566000000E+00 0.  1.
         13    1    1    2    0    0 -0.34724033543E+03 -0.17507214499E+03  0.14347896085E+04  0.14865555281E+04  0.10566000000E+00 0. -1.
         -4    1    1    2    0  502  0.84217465560E+01  0.12839190856E+02 -0.42092184975E+02  0.44805386650E+02  0.00000000000E+00 0. -1.
</event>
<event>
 5    1  0.1008363E-004  0.9945192E+02  0.7818608E-02  0.1188163E+00
         21   -1    0    0  501  502  0.00000000000E+00  0.00000000000E+00  0.50985414962E+02  0.50985414962E+02  0.00000000000E+00 0. -1.
         -4   -1    0    0    0  501 -0.00000000000E+00 -0.00000000000E+00 -0.36221603778E+03  0.36221603778E+03  0.00000000000E+00 0. -1.
        -13    1    1    2    0    0  0.32077477139E+02 -0.48453146857E+02 -0.57358709111E+02  0.81649890722E+02  0.10566000000E+00 0.  1.
         13    1    1    2    0    0  0.22100587213E+02  0.12028545027E+03 -0.16176369624E+03  0.20279183930E+03  0.10566000000E+00 0. -1.
         -4    1    1    2    0  502 -0.54178064351E+02 -0.71832303410E+02 -0.92108217463E+02  0.12875972272E+03  0.00000000000E+00 0. -1.
</event>
<event>
 5    1  0.1008363E-004  0.1414657E+03  0.7818608E-02  0.1109847E+00
          4   -1    0    0  502    0 -0.00000000000E+00  0.00000000000E+00  0.23568184483E+03  0.23568184483E+03  0.00000000000E+00 0.  1.
         21   -1    0    0  501  502  0.00000000000E+00 -0.00000000000E+00 -0.69026471902E+03  0.69026471902E+03  0.00000000000E+00 0. -1.
        -13    1    1    2    0    0 -0.13596985852E+03 -0.23522277538E+02  0.16494263766E+03  0.21505158648E+03  0.10566000000E+00 0.  1.
         13    1    1    2    0    0  0.22272839045E+03 -0.46530532137E+02 -0.48815147320E+03  0.53857673389E+03  0.10566000000E+00 0. -1.
          4    1    1    2  501    0 -0.86758531932E+02  0.70052809675E+02 -0.13137403865E+03  0.17231824349E+03  0.00000000000E+00 0.  1.
</event>
<event>
 5    1  0.1008363E-004  0.1203896E+03  0.7818608E-02  0.1134635E+00
         21   -1    0    0  501  502  0.00000000000E+00  0.00000000000E+00  0.56751439382E+03  0.56751439382E+03  0.00000000000E+00 0.  1.
          4   -1    0    0  502    0 -0.00000000000E+00 -0.00000000000E+00 -0.12437501845E+03  0.12437501845E+03  0.00000000000E+00 0.  1.
        -13    1    1    2    0    0 -0.37706980524E+02 -0.11951434084E+03 -0.46236171490E+02  0.13357877363E+03  0.10566000000E+00 0.  1.
         13    1    1    2    0    0 -0.72209889710E+02  0.11782130299E+03  0.16179215867E+03  0.21277415582E+03  0.10566000000E+00 0. -1.
          4    1    1    2  501    0  0.10991687023E+03  0.16930378499E+01  0.32758338819E+03  0.34553648281E+03  0.00000000000E+00 0.  1.
</event>
<event>
 5    1  0.1008363E-004  0.3327908E+03  0.7818608E-02  0.1016169E+00
          4   -1    0    0  502    0 -0.00000000000E+00  0.00000000000E+00  0.89696417943E+03  0.89696417943E+03  0.00000000000E+00 0.  1.
         21   -1    0    0  501  502  0.00000000000E+00 -0.00000000000E+00 -0.63956895572E+03  0.63956895572E+03  0.00000000000E+00 0.  1.
        -13    1    1    2    0    0 -0.16372399112E+03  0.78419179100E+01  0.46120877768E+03  0.48946970153E+03  0.10566000000E+00 0.  1.
         13    1    1    2    0    0  0.11044665869E+03 -0.33634034786E+03  0.28585459858E+03  0.45501225995E+03  0.10566000000E+00 0. -1.
          4    1    1    2  501    0  0.53277332425E+02  0.32849842995E+03 -0.48966815255E+03  0.59205117367E+03  0.00000000000E+00 0.  1.
</event>
<event>
 5    1  0.1008363E-004  0.1041163E+03  0.7818608E-02  0.1157919E+00
          4   -1    0    0  502    0 -0.00000000000E+00  0.00000000000E+00  0.65114537555E+02  0.65114537555E+02  0.00000000000E+00 0.  1.
         21   -1    0    0  501  502  0.00000000000E+00 -0.00000000000E+00 -0.33601873647E+03  0.33601873647E+03  0.00000000000E+00 0. -1.
        -13    1    1    2    0    0 -0.85864181451E+00  0.11642010021E+03 -0.63199234155E+02  0.13247086986E+03  0.10566000000E+00 0.  1.
         13    1    1    2    0    0 -0.58959557245E+02 -0.78574795752E+02 -0.13731723350E+03  0.16883797469E+03  0.10566000000E+00 0. -1.
          4    1    1    2  501    0  0.59818199060E+02 -0.37845304459E+02 -0.70387731260E+02  0.99824429476E+02  0.00000000000E+00 0.  1.
</event>
<event>
 5    1  0.1008363E-004  0.2552457E+03  0.7818608E-02  0.1027710E+00
         21   -1    0    0  501  502  0.00000000000E+00  0.00000000000E+00  0.66916580340E+02  0.66916580340E+02  0.00000000000E+00 0. -1.
         -4   -1    0    0    0  501 -0.00000000000E+00 -0.00000000000E+00 -0.23963496813E+04  0.23963496813E+04  0.00000000000E+00 0. -1.
        -13    1    1    2    0    0  0.15546924916E+03  0.11947653877E+03 -0.65383558453E+03  0.68260260292E+03  0.10566000000E+00 0.  1.
         13    1    1    2    0    0 -0.24622723067E+03 -0.20509044015E+03 -0.16062820898E+04  0.16379353165E+04  0.10566000000E+00 0. -1.
         -4    1    1    2    0  502  0.90757981505E+02  0.85613901380E+02 -0.69315426650E+02  0.14272834227E+03  0.00000000000E+00 0. -1.
</event>
<event>
 5    1  0.1008363E-004  0.4824224E+03  0.7818608E-02  0.9820418E-01
         -4   -1    0    0    0  501 -0.00000000000E+00  0.00000000000E+00  0.21558671910E+04  0.21558671910E+04  0.00000000000E+00 0. -1.
         21   -1    0    0  501  502  0.00000000000E+00 -0.00000000000E+00 -0.20053492278E+03  0.20053492278E+03  0.00000000000E+00 0. -1.
        -13    1    1    2    0    0  0.12957715613E+03  0.10478960772E+03  0.88605002396E+03  0.90158513597E+03  0.10566000000E+00 0.  1.
         13    1    1    2    0    0 -0.43938105967E+03 -0.33977506275E+03  0.41360335795E+03  0.69251033042E+03  0.10566000000E+00 0. -1.
         -4    1    1    2    0  502  0.30980390354E+03  0.23498545503E+03  0.65567888634E+03  0.76230664743E+03  0.00000000000E+00 0. -1.
</event>
<event>
 5    1  0.1008363E-004  0.3885427E+02  0.7818608E-02  0.1351062E+00
         21   -1    0    0  501  502  0.00000000000E+00  0.00000000000E+00  0.27970658466E+03  0.27970658466E+03  0.00000000000E+00 0. -1.
         -4   -1    0    0    0  501 -0.00000000000E+00 -0.00000000000E+00 -0.21906093727E+02  0.21906093727E+02  0.00000000000E+00 0. -1.
        -13    1    1    2    0    0 -0.34628494990E+02 -0.50672416531E+01  0.44390439997E+02  0.56527267141E+02  0.10566000000E+00 0.  1.
         13    1    1    2    0    0  0.58969022264E+02 -0.21606456663E+02  0.57840152109E+02  0.85379616515E+02  0.10566000000E+00 0. -1.
         -4    1    1    2    0  502 -0.24340527274E+02  0.26673698316E+02  0.15556989883E+03  0.15970579473E+03  0.00000000000E+00 0. -1.
</event>
<event>
 5    1  0.1008363E-004  0.3536183E+03  0.7818608E-02  0.9873486E-01
          4   -1    0    0  502    0 -0.00000000000E+00  0.00000000000E+00  0.10727057611E+04  0.10727057611E+04  0.00000000000E+00 0.  1.
         21   -1    0    0  501  502  0.00000000000E+00 -0.00000000000E+00 -0.62258213470E+03  0.62258213470E+03  0.00000000000E+00 0.  1.
        -13    1    1    2    0    0 -0.45791119046E+03 -0.26834224291E+03  0.27429550577E+03  0.59743472725E+03  0.10566000000E+00 0.  1.
         13    1    1    2    0    0  0.30009707393E+03  0.86058031565E+02  0.56182741805E+03  0.64273968091E+03  0.10566000000E+00 0. -1.
          4    1    1    2  501    0  0.15781411653E+03  0.18228421135E+03 -0.38599929738E+03  0.45511348767E+03  0.00000000000E+00 0.  1.
</event>
<event>
 5    1  0.1008363E-004  0.4295081E+03  0.7818608E-02  0.9830949E-01
         -4   -1    0    0    0  501 -0.00000000000E+00  0.00000000000E+00  0.28766506236E+04  0.28766506236E+04  0.00000000000E+00 0. -1.
         21   -1    0    0  501  502  0.00000000000E+00 -0.00000000000E+00 -0.15021723127E+03  0.15021723127E+03  0.00000000000E+00 0. -1.
        -13    1    1    2    0    0  0.50120553915E+02 -0.22225956341E+03  0.89883356926E+03  0.92726111740E+03  0.10566000000E+00 0.  1.
         13    1    1    2    0    0 -0.20774787346E+03  0.56391131133E+03  0.14353003545E+04  0.15560341464E+04  0.10566000000E+00 0. -1.
         -4    1    1    2    0  502  0.15762731954E+03 -0.34165174792E+03  0.39229946856E+03  0.54357259106E+03  0.00000000000E+00 0. -1.
</event>
<event>
 5    1  0.1008363E-004  0.4293561E+03  0.7818608E-02  0.1005149E+00
         21   -1    0    0  501  502  0.00000000000E+00  0.00000000000E+00  0.19033199005E+03  0.19033199005E+03  0.00000000000E+00 0.  1.
          4   -1    0    0  502    0 -0.00000000000E+00 -0.00000000000E+00 -0.17248366483E+04  0.17248366483E+04  0.00000000000E+00 0.  1.
        -13    1    1    2    0    0 -0.10463104103E+03  0.37888319136E+03 -0.12138851171E+04  0.12759377791E+04  0.10566000000E+00 0.  1.
         13    1    1    2    0    0  0.89273918126E+02  0.63812141696E+02 -0.72337966159E+02  0.13143292737E+03  0.10566000000E+00 0. -1.
          4    1    1    2  501    0  0.15357122904E+02 -0.44269533306E+03 -0.24828157497E+03  0.50779793187E+03  0.00000000000E+00 0.  1.
</event>
<event>
 5    1  0.1008363E-004  0.4762147E+03  0.7818608E-02  0.9545095E-01
         -4   -1    0    0    0  501 -0.00000000000E+00  0.00000000000E+00  0.20562730491E+04  0.20562730491E+04  0.00000000000E+00 0. -1.
         21   -1    0    0  501  502  0.00000000000E+00 -0.00000000000E+00 -0.33176098019E+03  0.33176098019E+03  0.00000000000E+00 0. -1.
        -13    1    1    2    0    0 -0.46840543807E+03  0.13640188623E+03  0.68578475053E+03  0.84161146868E+03  0.10566000000E+00 0.  1.
         13    1    1    2    0    0 -0.31150563567E+03 -0.18155768173E+03  0.27031850645E+03  0.45063406323E+03  0.10566000000E+00 0. -1.
         -4    1    1    2    0  502  0.77991107374E+03  0.45155795497E+02  0.76840881196E+03  0.10957884974E+04  0.00000000000E+00 0. -1.
</event>
<event>
 5    1  0.1008363E-004  0.4866338E+03  0.7818608E-02  0.9846598E-01
         21   -1    0    0  501  502  0.00000000000E+00  0.00000000000E+00  0.15887247306E+03  0.15887247306E+03  0.00000000000E+00 0.  1.
          4   -1    0    0  502    0 -0.00000000000E+00 -0.00000000000E+00 -0.22911781914E+04  0.22911781914E+04  0.00000000000E+00 0.  1.
        -13    1    1    2    0    0  0.16605939710E+03 -0.47785351598E+03 -0.56259241717E+03  0.75659100254E+03  0.10566000000E+00 0.  1.
         13    1    1    2    0    0 -0.14828050472E+03  0.91907106889E+01 -0.57251840643E+03  0.59148027364E+03  0.10566000000E+00 0. -1.
          4    1    1    2  501    0 -0.17778892373E+02  0.46866280530E+03 -0.99719489479E+03  0.11019793883E+04  0.00000000000E+00 0.  1.
</event>
<event>
 5    1  0.1008363E-004  0.4782217E+03  0.7818608E-02  0.9663157E-01
          4   -1    0    0  502    0 -0.00000000000E+00  0.00000000000E+00  0.16333256551E+04  0.16333256551E+04  0.00000000000E+00 0.  1.
         21   -1    0    0  501  502  0.00000000000E+00 -0.00000000000E+00 -0.33366294341E+03  0.33366294341E+03  0.00000000000E+00 0.  1.
        -13    1    1    2    0    0 -0.31733643620E+03  0.26881041918E+03  0.17424042523E+03  0.45091151255E+03  0.10566000000E+00 0.  1.
         13    1    1    2    0    0 -0.28089071372E+03 -0.88510802606E+02  0.70210623506E+03  0.76137174344E+03  0.10566000000E+00 0. -1.
          4    1    1    2  501    0  0.59822714991E+03 -0.18029961658E+03  0.42331605137E+03  0.75470534249E+03  0.00000000000E+00 0.  1.
</event>
<event>
 5    1  0.1008363E-004  0.5973352E+03  0.7818608E-02  0.9286908E-01
         21   -1    0    0  501  502  0.00000000000E+00  0.00000000000E+00  0.11547181598E+04  0.11547181598E+04  0.00000000000E+00 0.  1.
          4   -1    0    0  502    0 -0.00000000000E+00 -0.00000000000E+00 -0.21744837525E+04  0.21744837525E+04  0.00000000000E+00 0.  1.
        -13    1    1    2    0    0 -0.43379781212E+03  0.22977648925E+00  0.73470988971E+03  0.85321698753E+03  0.10566000000E+00 0.  1.
         13    1    1    2    0    0  0.28471484052E+03  0.55442938681E+03 -0.17950842888E+04  0.19002058048E+04  0.10566000000E+00 0. -1.
          4    1    1    2  501    0  0.14908297160E+03 -0.55465916330E+03  0.40608806443E+02  0.57577911999E+03  0.00000000000E+00 0.  1.
</event>
<event>
 5    1  0.1008363E-004  0.2396949E+03  0.7818608E-02  0.1035876E+00
         -4   -1    0    0    0  501 -0.00000000000E+00  0.00000000000E+00  0.16616084243E+04  0.16616084243E+04  0.00000000000E+00 0. -1.
         21   -1    0    0  501  502  0.00000000000E+00 -0.00000000000E+00 -0.14047694246E+03  0.14047694246E+03  0.00000000000E+00 0.  1.
        -13    1    1    2    0    0 -0.15163419883E+03  0.54731797666E+02 -0.54998286399E+02  0.17033297567E+03  0.10566000000E+00 0.  1.
         13    1    1    2    0    0  0.24082352085E+03 -0.54541752754E+02  0.14806412047E+04  0.15010893242E+04  0.10566000000E+00 0. -1.
         -4    1    1    2    0  502 -0.89189322014E+02 -0.19004491229E+00  0.95488563499E+02  0.13066306685E+03  0.00000000000E+00 0. -1.
</event>
<event>
 5    1  0.1008363E-004  0.5362794E+03  0.7818608E-02  0.9401813E-01
         21   -1    0    0  501  502  0.00000000000E+00  0.00000000000E+00  0.23830050705E+03  0.23830050705E+03  0.00000000000E+00 0. -1.
         -4   -1    0    0    0  501 -0.00000000000E+00 -0.00000000000E+00 -0.29678531789E+04  0.29678531789E+04  0.00000000000E+00 0. -1.
        -13    1    1    2    0    0  0.20378764371E+02  0.48012148046E+03 -0.13648709455E+04  0.14469984931E+04  0.10566000000E+00 0.  1.
         13    1    1    2    0    0  0.22262362423E+03 -0.72675061727E+03 -0.86873250584E+03  0.11543066818E+04  0.10566000000E+00 0. -1.
         -4    1    1    2    0  502 -0.24300238860E+03  0.24662913680E+03 -0.49594922049E+03  0.60484851103E+03  0.00000000000E+00 0. -1.
</event>
<event>
 5    1  0.1008363E-004  0.5280468E+02  0.7818608E-02  0.1280773E+00
         -4   -1    0    0    0  501 -0.00000000000E+00  0.00000000000E+00  0.17918515155E+02  0.17918515155E+02  0.00000000000E+00 0. -1.
         21   -1    0    0  501  502  0.00000000000E+00 -0.00000000000E+00 -0.47225587460E+03  0.47225587460E+03  0.00000000000E+00 0. -1.
        -13    1    1    2    0    0  0.54507796931E+02 -0.18162860475E+02 -0.20926531588E+03  0.21700915423E+03  0.10566000000E+00 0.  1.
         13    1    1    2    0    0 -0.52149013192E+02  0.15712648384E+01 -0.35918640316E+02  0.63341521424E+02  0.10566000000E+00 0. -1.
         -4    1    1    2    0  502 -0.23587837387E+01  0.16591595636E+02 -0.20915340325E+03  0.20982371410E+03  0.00000000000E+00 0. -1.
</event>
<event>
 5    1  0.1008363E-004  0.5501419E+03  0.7818608E-02  0.9374360E-01
         21   -1    0    0  501  502  0.00000000000E+00  0.00000000000E+00  0.40452223653E+03  0.40452223653E+03  0.00000000000E+00 0. -1.
         -4   -1    0    0    0  501 -0.00000000000E+00 -0.00000000000E+00 -0.26740359651E+04  0.26740359651E+04  0.00000000000E+00 0. -1.
        -13    1    1    2    0    0  0.46165813273E+03 -0.35125393416E+03 -0.17229580038E+04  0.18179911583E+04  0.10566000000E+00 0.  1.
         13    1    1    2    0    0 -0.37487948101E+02  0.61502143564E+03 -0.41872839036E+03  0.74497663628E+03  0.10566000000E+00 0. -1.
         -4    1    1    2    0  502 -0.42417018463E+03 -0.26376750148E+03 -0.12782733441E+03  0.51559040699E+03  0.00000000000E+00 0. -1.
</event>
<event>
 5    1  0.1008363E-004  0.4969337E+03  0.7818608E-02  0.9985788E-01
         21   -1    0    0  501  502  0.00000000000E+00  0.00000000000E+00  0.18308629993E+04  0.18308629993E+04  0.00000000000E+00 0.  1.
          4   -1    0    0  502    0 -0.00000000000E+00 -0.00000000000E+00 -0.17455805545E+03  0.17455805545E+03  0.00000000000E+00 0.  1.
        -13    1    1    2    0    0 -0.44823368392E+03  0.28576964533E+03  0.63673723346E+03  0.82946491260E+03  0.10566000000E+00 0.  1.
         13    1    1    2    0    0  0.20019308932E+02 -0.85398295163E+02  0.31861098719E+03  0.33046423993E+03  0.10566000000E+00 0. -1.
          4    1    1    2  501    0  0.42821437499E+03 -0.20037135017E+03  0.70095672316E+03  0.84549190218E+03  0.00000000000E+00 0.  1.
</event>
<event>
 5    1  0.1008363E-004  0.1810538E+03  0.7818608E-02  0.1073963E+00
         -4   -1    0    0    0  501 -0.00000000000E+00  0.00000000000E+00  0.30673973224E+03  0.30673973224E+03  0.00000000000E+00 0. -1.
         21   -1    0    0  501  502  0.00000000000E+00 -0.00000000000E+00 -0.13710942027E+03  0.13710942027E+03  0.00000000000E+00 0.  1.
        -13    1    1    2    0    0  0.94294386795E+02  0.14527875622E+03  0.61431277592E+02  0.18376931577E+03  0.10566000000E+00 0.  1.
         13    1    1    2    0    0 -0.97485946786E+02 -0.15989282610E+03  0.13398904406E+03  0.23026571771E+03  0.10566000000E+00 0. -1.
         -4    1    1    2    0  502  0.31915599911E+01  0.14614069879E+02 -0.25790009687E+02  0.29814119025E+02  0.00000000000E+00 0. -1.
</event>
<event>
 5    1  0.1008363E-004  0.4945435E+03  0.7818608E-02  0.9490012E-01
         21   -1    0    0  501  502  0.00000000000E+00  0.00000000000E+00  0.50948379302E+03  0.50948379302E+03  0.00000000000E+00 0. -1.
          4   -1    0    0  502    0 -0.00000000000E+00 -0.00000000000E+00 -0.11032953468E+04  0.11032953468E+04  0.00000000000E+00 0.  1.
        -13    1    1    2    0    0 -0.56148512624E+03 -0.96033045248E+02 -0.61290159918E+03  0.83674146199E+03  0.10566000000E+00 0.  1.
         13    1    1    2    0    0  0.40923476466E+03  0.62404388833E+02 -0.23641345428E+03  0.47671661695E+03  0.10566000000E+00 0. -1.
          4    1    1    2  501    0  0.15225036158E+03  0.33628656415E+02  0.25550349968E+03  0.29932106087E+03  0.00000000000E+00 0.  1.
</event>
<event>
 5    1  0.1008363E-004  0.3082762E+03  0.7818608E-02  0.1003946E+00
         21   -1    0    0  501  502  0.00000000000E+00  0.00000000000E+00  0.90700787067E+02  0.90700787067E+02  0.00000000000E+00 0. -1.
         -4   -1    0    0    0  501 -0.00000000000E+00 -0.00000000000E+00 -0.18223770525E+04  0.18223770525E+04  0.00000000000E+00 0. -1.
        -13    1    1    2    0    0  0.22414902319E+03 -0.14239480766E+03 -0.57025723951E+03  0.62905675119E+03  0.10566000000E+00 0.  1.
         13    1    1    2    0    0 -0.21837949303E+03  0.29843433269E+03 -0.96277837134E+03  0.10313558345E+04  0.10566000000E+00 0. -1.
         -4    1    1    2    0  502 -0.57695301603E+01 -0.15603952503E+03 -0.19864065454E+03  0.25266525382E+03  0.00000000000E+00 0. -1.
</event>
<event>
 5    1  0.1008363E-004  0.1146777E+03  0.7818608E-02  0.1142322E+00
         21   -1    0    0  501  502  0.00000000000E+00  0.00000000000E+00  0.18829706418E+03  0.18829706418E+03  0.00000000000E+00 0.  1.
         -4   -1    0    0    0  501 -0.00000000000E+00 -0.00000000000E+00 -0.19785238281E+03  0.19785238281E+03  0.00000000000E+00 0. -1.
        -13    1    1    2    0    0  0.59623057638E+01  0.14409566777E+03  0.67059902894E+01  0.14437483170E+03  0.10566000000E+00 0.  1.
         13    1    1    2    0    0 -0.23023282799E+02 -0.10371455712E+03 -0.10086123409E+03  0.14649157182E+03  0.10566000000E+00 0. -1.
         -4    1    1    2    0  502  0.17060977035E+02 -0.40381110649E+02  0.84599925167E+02  0.95283043470E+02  0.00000000000E+00 0. -1.
</event>
<event>
 5    1  0.1008363E-004  0.2135064E+03  0.7818608E-02  0.1058909E+00
          4   -1    0    0  502    0 -0.00000000000E+00  0.00000000000E+00  0.21238369862E+04  0.21238369862E+04  0.00000000000E+00 0.  1.
         21   -1    0    0  501  502  0.00000000000E+00 -0.00000000000E+00 -0.20145668231E+03  0.20145668231E+03  0.00000000000E+00 0.  1.
        -13    1    1    2    0    0 -0.14106448235E+03 -0.33987214034E+03  0.12307929676E+04  0.12846258600E+04  0.10566000000E+00 0.  1.
         13    1    1    2    0    0  0.27300011352E+02  0.16819306804E+03  0.79300121475E+03  0.81110118759E+03  0.10566000000E+00 0. -1.
          4    1    1    2  501    0  0.11376447100E+03  0.17167907231E+03 -0.10141387839E+03  0.22956662096E+03  0.00000000000E+00 0.  1.
</event>
<event>
 5    1  0.1008363E-004  0.1480443E+03  0.7818608E-02  0.1103056E+00
         21   -1    0    0  501  502  0.00000000000E+00  0.00000000000E+00  0.12006388478E+03  0.12006388478E+03  0.00000000000E+00 0.  1.
         -4   -1    0    0    0  501 -0.00000000000E+00 -0.00000000000E+00 -0.50849751474E+03  0.50849751474E+03  0.00000000000E+00 0. -1.
        -13    1    1    2    0    0  0.83919388264E+02 -0.18388677724E+03 -0.13340887295E+03  0.24218742559E+03  0.10566000000E+00 0.  1.
         13    1    1    2    0    0  0.52896861088E+02  0.12976191522E+03 -0.15212208419E+03  0.20682691366E+03  0.10566000000E+00 0. -1.
         -4    1    1    2    0  502 -0.13681624935E+03  0.54124862021E+02 -0.10290267282E+03  0.17954706026E+03  0.00000000000E+00 0. -1.
</event>
<event>
 5    1  0.1008363E-004  0.3084712E+03  0.7818608E-02  0.1003869E+00
         -4   -1    0    0    0  501 -0.00000000000E+00  0.00000000000E+00  0.65435056995E+03  0.65435056995E+03  0.00000000000E+00 0. -1.
         21   -1    0    0  501  502  0.00000000000E+00 -0.00000000000E+00 -0.20220139211E+03  0.20220139211E+03  0.00000000000E+00 0.  1.
        -13    1    1    2    0    0  0.14274156275E+02 -0.31286904088E+03  0.18831812609E+03  0.36545111309E+03  0.10566000000E+00 0.  1.
         13    1    1    2    0    0  0.78848737257E+01  0.30537596150E+03  0.31256056116E+03  0.43704778304E+03  0.10566000000E+00 0. -1.
         -4    1    1    2    0  502 -0.22159030001E+02  0.74930793762E+01 -0.48729509416E+02  0.54053065935E+02  0.00000000000E+00 0. -1.
</event>
<event>
 5    1  0.1008363E-004  0.2639303E+03  0.7818608E-02  0.1023417E+00
         -4   -1    0    0    0  501 -0.00000000000E+00  0.00000000000E+00  0.13213862415E+04  0.13213862415E+04  0.00000000000E+00 0. -1.
         21   -1    0    0  501  502  0.00000000000E+00 -0.00000000000E+00 -0.47198935927E+03  0.47198935927E+03  0.00000000000E+00 0. -1.
        -13    1    1    2    0    0 -0.32762252737E+03  0.54844450918E+02  0.62216212139E+03  0.70528728239E+03  0.10566000000E+00 0.  1.
         13    1    1    2    0    0  0.22345725542E+03  0.94748220491E+02  0.61415627477E+03  0.66037740065E+03  0.10566000000E+00 0. -1.
         -4    1    1    2    0  502  0.10416527196E+03 -0.14959267141E+03 -0.38692151392E+03  0.42771091775E+03  0.00000000000E+00 0. -1.
</event>
<event>
 5    1  0.1008363E-004  0.1195339E+03  0.7818608E-02  0.1135757E+00
          4   -1    0    0  502    0 -0.00000000000E+00  0.00000000000E+00  0.21667939126E+03  0.21667939126E+03  0.00000000000E+00 0.  1.
         21   -1    0    0  501  502  0.00000000000E+00 -0.00000000000E+00 -0.53366345066E+03  0.53366345066E+03  0.00000000000E+00 0.  1.
        -13    1    1    2    0    0 -0.12274509931E+03 -0.36975238068E+02  0.14079914229E+03  0.19041517079E+03  0.10566000000E+00 0.  1.
         13    1    1    2    0    0  0.98967650736E+02  0.23850701183E+02 -0.46343121757E+00  0.10180215013E+03  0.10566000000E+00 0. -1.
          4    1    1    2  501    0  0.23777448570E+02  0.13124536885E+02 -0.45731977047E+03  0.45812552100E+03  0.00000000000E+00 0.  1.
</event>
<event>
 5    1  0.1008363E-004  0.1185555E+02  0.7818608E-02  0.1674756E+00
          4   -1    0    0  502    0 -0.00000000000E+00  0.00000000000E+00  0.45043384854E+02  0.45043384854E+02  0.00000000000E+00 0.  1.
         21   -1    0    0  501  502  0.00000000000E+00 -0.00000000000E+00 -0.99324859354E+02  0.99324859354E+02  0.00000000000E+00 0. -1.
        -13    1    1    2    0    0 -0.29599446912E+01 -0.18861979718E+02  0.41423021533E+02  0.45611549288E+02  0.10566000000E+00 0.  1.
         13    1    1    2    0    0  0.78409577223E+01  0.81660537259E+01 -0.62858561703E+02  0.63869985085E+02  0.10566000000E+00 0. -1.
          4    1    1    2  501    0 -0.48810130311E+01  0.10695925992E+02 -0.32845934331E+02  0.34886709835E+02  0.00000000000E+00 0.  1.
</event>
<event>
 5    1  0.1008363E-004  0.5422260E+03  0.7818608E-02  0.9423931E-01
         -4   -1    0    0    0  501 -0.00000000000E+00  0.00000000000E+00  0.10160796587E+04  0.10160796587E+04  0.00000000000E+00 0. -1.
         21   -1    0    0  501  502  0.00000000000E+00 -0.00000000000E+00 -0.70877390638E+03  0.70877390638E+03  0.00000000000E+00 0. -1.
        -13    1    1    2    0    0  0.23305431107E+02  0.47749578876E+03  0.21851746014E+03  0.52563795806E+03  0.10566000000E+00 0.  1.
         13    1    1    2    0    0 -0.42997151615E+03  0.73413540775E+02  0.24015898332E+03  0.49793714574E+03  0.10566000000E+00 0. -1.
         -4    1    1    2    0  502  0.40666608505E+03 -0.55090932953E+03 -0.15137069116E+03  0.70127846126E+03  0.00000000000E+00 0. -1.
</event>
<event>
 5    1  0.1008363E-004  0.2150355E+03  0.7818608E-02  0.1050290E+00
          4   -1    0    0  502    0 -0.00000000000E+00  0.00000000000E+00  0.29713373534E+03  0.29713373534E+03  0.00000000000E+00 0.  1.
         21   -1    0    0  501  502  0.00000000000E+00 -0.00000000000E+00 -0.78721042357E+03  0.78721042357E+03  0.00000000000E+00 0. -1.
        -13    1    1    2    0    0  0.14951905680E+03 -0.12027795044E+03  0.46471111430E+02  0.19743938075E+03  0.10566000000E+00 0.  1.
         13    1    1    2    0    0 -0.98988478830E+02  0.24451297410E+03  0.64099093020E+02  0.27146642211E+03  0.10566000000E+00 0. -1.
          4    1    1    2  501    0 -0.50530577968E+02 -0.12423502366E+03 -0.60064689268E+03  0.61543835605E+03  0.00000000000E+00 0.  1.
</event>
<event>
 5    1  0.1008363E-004  0.4032607E+03  0.7818608E-02  0.1018841E+00
          4   -1    0    0  502    0 -0.00000000000E+00  0.00000000000E+00  0.22848920805E+04  0.22848920805E+04  0.00000000000E+00 0.  1.
         21   -1    0    0  501  502  0.00000000000E+00 -0.00000000000E+00 -0.11901173395E+03  0.11901173395E+03  0.00000000000E+00 0.  1.
        -13    1    1    2    0    0 -0.14969551619E+03 -0.36204544248E+03  0.12481583674E+04  0.13081991329E+04  0.10566000000E+00 0.  1.
         13    1    1    2    0    0 -0.82077792706E+02  0.23747693810E+02  0.51114333930E+03  0.51823570071E+03  0.10566000000E+00 0. -1.
          4    1    1    2  501    0  0.23177330890E+03  0.33829774867E+03  0.40657863981E+03  0.57746898083E+03  0.00000000000E+00 0.  1.
</event>
<event>
 5    1  0.1008363E-004  0.4142983E+03  0.7818608E-02  0.9922389E-01
         -4   -1    0    0    0  501 -0.00000000000E+00  0.00000000000E+00  0.24277487506E+04  0.24277487506E+04  0.00000000000E+00 0. -1.
         21   -1    0    0  501  502  0.00000000000E+00 -0.00000000000E+00 -0.14898125987E+03  0.14898125987E+03  0.00000000000E+00 0. -1.
        -13    1    1    2    0    0 -0.60922192043E+02  0.17646881531E+03  0.26001958946E+03  0.32009835102E+03  0.10566000000E+00 0.  1.
         13    1    1    2    0    0  0.31456085138E+03 -0.32470569913E+03  0.37655331825E+03  0.58836615548E+03  0.10566000000E+00 0. -1.
         -4    1    1    2    0  502 -0.25363865933E+03  0.14823688383E+03  0.16421945830E+04  0.16682655040E+04  0.00000000000E+00 0. -1.
</event>
<event>
 5    1  0.1008363E-004  0.6005356E+03  0.7818608E-02  0.9696047E-01
          4   -1    0    0  502    0 -0.00000000000E+00  0.00000000000E+00  0.16401677727E+04  0.16401677727E+04  0.00000000000E+00 0.  1.
         21   -1    0    0  501  502  0.00000000000E+00 -0.00000000000E+00 -0.43272395589E+03  0.43272395589E+03  0.00000000000E+00 0.  1.
        -13    1    1    2    0    0 -0.15971914516E+03  0.49734375889E+03  0.48623030748E+03  0.71363922462E+03  0.10566000000E+00 0.  1.
         13    1    1    2    0    0  0.17618265619E+02  0.13138279655E+03  0.70197411012E+03  0.71438050432E+03  0.10566000000E+00 0. -1.
          4    1    1    2  501    0  0.14210087955E+03 -0.62872655544E+03  0.19239399229E+02  0.64487199968E+03  0.00000000000E+00 0.  1.
</event>
<event>
 5    1  0.1008363E-004  0.2893300E+03  0.7818608E-02  0.1011810E+00
         21   -1    0    0  501  502  0.00000000000E+00  0.00000000000E+00  0.11019588647E+04  0.11019588647E+04  0.00000000000E+00 0. -1.
          4   -1    0    0  502    0 -0.00000000000E+00 -0.00000000000E+00 -0.11628636952E+03  0.11628636952E+03  0.00000000000E+00 0.  1.
        -13    1    1    2    0    0 -0.17937603683E+03  0.22225463529E+03  0.19968860971E+03  0.34849453010E+03  0.10566000000E+00 0.  1.
         13    1    1    2    0    0  0.19712394872E+03 -0.22178504825E+03  0.48725318848E+03  0.57049289183E+03  0.10566000000E+00 0. -1.
          4    1    1    2  501    0 -0.17747911886E+02 -0.46958703460E+00  0.29873069698E+03  0.29925781227E+03  0.00000000000E+00 0.  1.
</event>
<event>
 5    1  0.1008363E-004  0.4821621E+03  0.7818608E-02  0.9849672E-01
         -4   -1    0    0    0  501 -0.00000000000E+00  0.00000000000E+00  0.52605681009E+03  0.52605681009E+03  0.00000000000E+00 0. -1.
         21   -1    0    0  501  502  0.00000000000E+00 -0.00000000000E+00 -0.65339036612E+03  0.65339036612E+03  0.00000000000E+00 0. -1.
        -13    1    1    2    0    0  0.49991499118E+02 -0.14265178760E+03  0.69976983466E+00  0.15115946326E+03  0.10566000000E+00 0.  1.
         13    1    1    2    0    0  0.44266018612E+03  0.96011817411E+01  0.12307153884E+03  0.45955069133E+03  0.10566000000E+00 0. -1.
         -4    1    1    2    0  502 -0.49265168524E+03  0.13305060586E+03 -0.25110486471E+03  0.56873702163E+03  0.00000000000E+00 0. -1.
</event>
<event>
 5    1  0.1008363E-004  0.2329862E+03  0.7818608E-02  0.1039607E+00
          4   -1    0    0  502    0 -0.00000000000E+00  0.00000000000E+00  0.96376416419E+03  0.96376416419E+03  0.00000000000E+00 0.  1.
         21   -1    0    0  501  502  0.00000000000E+00 -0.00000000000E+00 -0.12338619081E+03  0.12338619081E+03  0.00000000000E+00 0. -1.
        -13    1    1    2    0    0 -0.15692267699E+03 -0.17380542964E+03  0.69216021833E+03  0.73069749755E+03  0.10566000000E+00 0.  1.
         13    1    1    2    0    0  0.16100382322E+03  0.16413809347E+03  0.19931693466E+03  0.30428735830E+03  0.10566000000E+00 0. -1.
          4    1    1    2  501    0 -0.40811462338E+01  0.96673361729E+01 -0.51099179612E+02  0.52165499138E+02  0.00000000000E+00 0.  1.
</event>
<event>
 5    1  0.1008363E-004  0.5908436E+03  0.7818608E-02  0.9298422E-01
         -4   -1    0    0    0  501 -0.00000000000E+00  0.00000000000E+00  0.16549822370E+04  0.16549822370E+04  0.00000000000E+00 0. -1.
         21   -1    0    0  501  502  0.00000000000E+00 -0.00000000000E+00 -0.37834738326E+03  0.37834738326E+03  0.00000000000E+00 0. -1.
        -13    1    1    2    0    0  0.99284980467E+02 -0.53960446826E+03  0.34351793551E+03  0.64732918418E+03  0.10566000000E+00 0.  1.
         13    1    1    2    0    0 -0.13126785430E+03  0.59945219913E+03  0.10698526773E+04  0.12333527277E+04  0.10566000000E+00 0. -1.
         -4    1    1    2    0  502  0.31982873833E+02 -0.59847730874E+02 -0.13673575899E+03  0.15264770846E+03  0.00000000000E+00 0. -1.
</event>
<event>
 5    1  0.1008363E-004  0.1203659E+03  0.7818608E-02  0.1134666E+00
         -4   -1    0    0    0  501 -0.00000000000E+00  0.00000000000E+00  0.13258119376E+03  0.13258119376E+03  0.00000000000E+00 0. -1.
         21   -1    0    0  501  502  0.00000000000E+00 -0.00000000000E+00 -0.34083631583E+03  0.34083631583E+03  0.00000000000E+00 0. -1.
        -13    1    1    2    0    0 -0.80430911577E+02 -0.90592251516E+02  0.14674726129E+02  0.12203051390E+03  0.10566000000E+00 0.  1.
         13    1    1    2    0    0  0.12350805957E+03  0.39277281746E+02 -0.12099125951E+02  0.13016660729E+03  0.10566000000E+00 0. -1.
         -4    1    1    2    0  502 -0.43077147997E+02  0.51314969770E+02 -0.21083072225E+03  0.22122038841E+03  0.00000000000E+00 0. -1.
</event>
<event>
 5    1  0.1008363E-004  0.4170610E+03  0.7818608E-02  0.9908633E-01
         21   -1    0    0  501  502  0.00000000000E+00  0.00000000000E+00  0.23339954239E+03  0.23339954239E+03  0.00000000000E+00 0.  1.
          4   -1    0    0  502    0 -0.00000000000E+00 -0.00000000000E+00 -0.20697706276E+04  0.20697706276E+04  0.00000000000E+00 0.  1.
        -13    1    1    2    0    0  0.40776282665E+02 -0.45736311042E+03 -0.57049584490E+02  0.46270766825E+03  0.10566000000E+00 0.  1.
         13    1    1    2    0    0  0.14298113914E+02  0.19105985567E+03 -0.89479712297E+03  0.91507934461E+03  0.10566000000E+00 0. -1.
          4    1    1    2  501    0 -0.55074396579E+02  0.26630325475E+03 -0.88452437774E+03  0.92538315712E+03  0.00000000000E+00 0.  1.
</event>
<event>
 5    1  0.1008363E-004  0.4995829E+03  0.7818608E-02  0.9627237E-01
         -4   -1    0    0    0  501 -0.00000000000E+00  0.00000000000E+00  0.22056433144E+04  0.22056433144E+04  0.00000000000E+00 0. -1.
         21   -1    0    0  501  502  0.00000000000E+00 -0.00000000000E+00 -0.21532022811E+03  0.21532022811E+03  0.00000000000E+00 0. -1.
        -13    1    1    2    0    0 -0.90598967041E+02 -0.27882074059E+03  0.23831568742E+03  0.37781418217E+03  0.10566000000E+00 0.  1.
         13    1    1    2    0    0 -0.45903643765E+03  0.78443936846E+02  0.74709843319E+03  0.88035446404E+03  0.10566000000E+00 0. -1.
         -4    1    1    2    0  502  0.54963540470E+03  0.20037680374E+03  0.10049089657E+04  0.11627948963E+04  0.00000000000E+00 0. -1.
</event>
<event>
 5    1  0.1008363E-004  0.4310684E+03  0.7818608E-02  0.9643384E-01
         -4   -1    0    0    0  501 -0.00000000000E+00  0.00000000000E+00  0.26796632693E+04  0.26796632693E+04  0.00000000000E+00 0. -1.
         21   -1    0    0  501  502  0.00000000000E+00 -0.00000000000E+00 -0.16668989587E+03  0.16668989587E+03  0.00000000000E+00 0. -1.
        -13    1    1    2    0    0 -0.41908773810E+03  0.71760891035E+02  0.58594933256E+03  0.72396186999E+03  0.10566000000E+00 0.  1.
         13    1    1    2    0    0  0.42794547746E+03 -0.66330830088E+02  0.20011853338E+04  0.20475057661E+04  0.10566000000E+00 0. -1.
         -4    1    1    2    0  502 -0.88577393620E+01 -0.54300609466E+01 -0.74161292905E+02  0.74885529135E+02  0.00000000000E+00 0. -1.
</event>
<event>
 5    1  0.1008363E-004  0.5301578E+03  0.7818608E-02  0.9457330E-01
         -4   -1    0    0    0  501 -0.00000000000E+00  0.00000000000E+00  0.13939035292E+04  0.13939035292E+04  0.00000000000E+00 0. -1.
         21   -1    0    0  501  502  0.00000000000E+00 -0.00000000000E+00 -0.54008793342E+03  0.54008793342E+03  0.00000000000E+00 0.  1.
        -13    1    1    2    0    0 -0.60151783345E+02 -0.57079628335E+03  0.39574397060E+03  0.69716564428E+03  0.10566000000E+00 0.  1.
         13    1    1    2    0    0  0.14312386926E+03 -0.24047353939E+03  0.29226948835E+03  0.40463987703E+03  0.10566000000E+00 0. -1.
         -4    1    1    2    0  502 -0.82972085915E+02  0.81126982274E+03  0.16580213683E+03  0.83218594131E+03  0.00000000000E+00 0. -1.
</event>
<event>
 5    1  0.1008363E-004  0.2974603E+03  0.7818608E-02  0.1008359E+00
          4   -1    0    0  502    0 -0.00000000000E+00  0.00000000000E+00  0.12472088719E+04  0.12472088719E+04  0.00000000000E+00 0.  1.
         21   -1    0    0  501  502  0.00000000000E+00 -0.00000000000E+00 -0.14659921835E+03  0.14659921835E+03  0.00000000000E+00 0. -1.
        -13    1    1    2    0    0 -0.27781486405E+02 -0.28330086955E+03  0.68790492890E+03  0.74447592039E+03  0.10566000000E+00 0.  1.
         13    1    1    2    0    0 -0.15569040324E+02  0.32182197115E+03  0.46867041625E+03  0.56873873296E+03  0.10566000000E+00 0. -1.
          4    1    1    2  501    0  0.43350526730E+02 -0.38521101609E+02 -0.55965691590E+02  0.80593436904E+02  0.00000000000E+00 0.  1.
</event>
<event>
 5    1  0.1008363E-004  0.8412722E+03  0.7818608E-02  0.8940000E-01
          4   -1    0    0  502    0 -0.00000000000E+00  0.00000000000E+00  0.19133075084E+04  0.19133075084E+04  0.00000000000E+00 0.  1.
         21   -1    0    0  501  502  0.00000000000E+00 -0.00000000000E+00 -0.64559451145E+03  0.64559451145E+03  0.00000000000E+00 0. -1.
        -13    1    1    2    0    0 -0.40448016850E+03  0.80259266278E+03 -0.41517445175E+02  0.89971267551E+03  0.10566000000E+00 0.  1.
         13    1    1    2    0    0  0.25177157844E+03 -0.78492498756E+03  0.89210798905E+03  0.12146410330E+04  0.10566000000E+00 0. -1.
          4    1    1    2  501    0  0.15270859007E+03 -0.17667675214E+02  0.41712245306E+03  0.44454831129E+03  0.00000000000E+00 0.  1.
</event>
<event>
 5    1  0.1008363E-004  0.3842490E+03  0.7818608E-02  0.1023860E+00
         21   -1    0    0  501  502  0.00000000000E+00  0.00000000000E+00  0.90154117238E+03  0.90154117238E+03  0.00000000000E+00 0.  1.
          4   -1    0    0  502    0 -0.00000000000E+00 -0.00000000000E+00 -0.32913909419E+03  0.32913909419E+03  0.00000000000E+00 0.  1.
        -13    1    1    2    0    0  0.21233645977E+03  0.32823039498E+03  0.62693330030E+03  0.73882835525E+03  0.10566000000E+00 0.  1.
         13    1    1    2    0    0  0.42341789383E+02 -0.72954976049E+02  0.70772503024E+02  0.11010910047E+03  0.10566000000E+00 0. -1.
          4    1    1    2  501    0 -0.25467824916E+03 -0.25527541893E+03 -0.12530372513E+03  0.38174281085E+03  0.00000000000E+00 0.  1.
</event>
<event>
 5    1  0.1008363E-004  0.5037392E+03  0.7818608E-02  0.9594621E-01
          4   -1    0    0  502    0 -0.00000000000E+00  0.00000000000E+00  0.14996350064E+04  0.14996350064E+04  0.00000000000E+00 0.  1.
         21   -1    0    0  501  502  0.00000000000E+00 -0.00000000000E+00 -0.10767507747E+04  0.10767507747E+04  0.00000000000E+00 0.  1.
        -13    1    1    2    0    0 -0.29290401014E+03  0.25337608049E+03 -0.25020547926E+03  0.46108024284E+03  0.10566000000E+00 0.  1.
         13    1    1    2    0    0 -0.16934740525E+03  0.27277683775E+03  0.11978645893E+04  0.12401473027E+04  0.10566000000E+00 0. -1.
          4    1    1    2  501    0  0.46225141539E+03 -0.52615291824E+03 -0.52477487833E+03  0.87515823559E+03  0.00000000000E+00 0.  1.
</event>
<event>
 5    1  0.1008363E-004  0.3304465E+03  0.7818608E-02  0.9954754E-01
         21   -1    0    0  501  502  0.00000000000E+00  0.00000000000E+00  0.13571760573E+04  0.13571760573E+04  0.00000000000E+00 0. -1.
          4   -1    0    0  502    0 -0.00000000000E+00 -0.00000000000E+00 -0.38887420046E+03  0.38887420046E+03  0.00000000000E+00 0.  1.
        -13    1    1    2    0    0  0.13805950512E+03  0.28698172370E+03 -0.58909688648E+02  0.32386617494E+03  0.10566000000E+00 0.  1.
         13    1    1    2    0    0 -0.37110007494E+02 -0.35433695459E+03 -0.30458498353E+02  0.35757455353E+03  0.10566000000E+00 0. -1.
          4    1    1    2  501    0 -0.10094949763E+03  0.67355230894E+02  0.10576700438E+04  0.10646095293E+04  0.00000000000E+00 0.  1.
</event>
<event>
 5    1  0.1008363E-004  0.2163922E+03  0.7818608E-02  0.1061998E+00
         -4   -1    0    0    0  501 -0.00000000000E+00  0.00000000000E+00  0.16273913769E+04  0.16273913769E+04  0.00000000000E+00 0. -1.
         21   -1    0    0  501  502  0.00000000000E+00 -0.00000000000E+00 -0.31727016059E+03  0.31727016059E+03  0.00000000000E+00 0.  1.
        -13    1    1    2    0    0  0.76863388398E+02  0.12830948291E+03  0.84856283459E+03  0.86164389355E+03  0.10566000000E+00 0.  1.
         13    1    1    2    0    0  0.13590914187E+03 -0.17865473364E+03  0.71434867958E+03  0.74878759063E+03  0.10566000000E+00 0. -1.
         -4    1    1    2    0  502 -0.21277253027E+03  0.50345250729E+02 -0.25279029781E+03  0.33423005337E+03  0.00000000000E+00 0. -1.
</event>
<event>
 5    1  0.1008363E-004  0.3821989E+03  0.7818608E-02  0.1014212E+00
         -4   -1    0    0    0  501 -0.00000000000E+00  0.00000000000E+00  0.34206896891E+04  0.34206896891E+04  0.00000000000E+00 0. -1.
         21   -1    0    0  501  502  0.00000000000E+00 -0.00000000000E+00 -0.91137170021E+02  0.91137170021E+02  0.00000000000E+00 0. -1.
        -13    1    1    2    0    0 -0.79545681528E+02  0.84767245051E+02  0.37441395787E+03  0.39204441623E+03  0.10566000000E+00 0.  1.
         13    1    1    2    0    0  0.43201920458E+03  0.37783597530E+02  0.24696999222E+04  0.25074859741E+04  0.10566000000E+00 0. -1.
         -4    1    1    2    0  502 -0.35247352305E+03 -0.12255084258E+03  0.48543863901E+03  0.61229646881E+03  0.00000000000E+00 0. -1.
</event>
<event>
 5    1  0.1008363E-004  0.2336092E+03  0.7818608E-02  0.1080985E+00
         21   -1    0    0  501  502  0.00000000000E+00  0.00000000000E+00  0.11245624264E+03  0.11245624264E+03  0.00000000000E+00 0. -1.
         -4   -1    0    0    0  501 -0.00000000000E+00 -0.00000000000E+00 -0.67834918716E+03  0.67834918716E+03  0.00000000000E+00 0. -1.
        -13    1    1    2    0    0 -0.62985908659E+02  0.28493107563E+02 -0.64252591862E+02  0.94379492440E+02  0.10566000000E+00 0.  1.
         13    1    1    2    0    0 -0.53499848344E+02 -0.23131594001E+03 -0.17623094050E+03  0.29567998483E+03  0.10566000000E+00 0. -1.
         -4    1    1    2    0  502  0.11648575700E+03  0.20282283245E+03 -0.32540941216E+03  0.40074595253E+03  0.00000000000E+00 0. -1.
</event>
<event>
 5    1  0.1008363E-004  0.4175018E+02  0.7818608E-02  0.1329580E+00
         -4   -1    0    0    0  501 -0.00000000000E+00  0.00000000000E+00  0.15740052845E+03  0.15740052845E+03  0.00000000000E+00 0. -1.
         21   -1    0    0  501  502  0.00000000000E+00 -0.00000000000E+00 -0.33803076202E+03  0.33803076202E+03  0.00000000000E+00 0. -1.
        -13    1    1    2    0    0  0.44516997638E+02 -0.63367697901E+01 -0.17997953271E+03  0.18551161982E+03  0.10566000000E+00 0.  1.
         13    1    1    2    0    0 -0.38413605623E+02  0.16285854184E+02  0.15159257529E+03  0.15722962249E+03  0.10566000000E+00 0. -1.
         -4    1    1    2    0  502 -0.61033920143E+01 -0.99490843939E+01 -0.15224327614E+03  0.15269004815E+03  0.00000000000E+00 0. -1.
</event>
<event>
 5    1  0.1008363E-004  0.6175472E+03  0.7818608E-02  0.9252023E-01
         21   -1    0    0  501  502  0.00000000000E+00  0.00000000000E+00  0.28985485908E+03  0.28985485908E+03  0.00000000000E+00 0. -1.
         -4   -1    0    0    0  501 -0.00000000000E+00 -0.00000000000E+00 -0.30463553804E+04  0.30463553804E+04  0.00000000000E+00 0. -1.
        -13    1    1    2    0    0  0.25860905879E+03 -0.50958623717E+03 -0.35843017758E+03  0.67455836054E+03  0.10566000000E+00 0.  1.
         13    1    1    2    0    0  0.15533344404E+03  0.65859988301E+03 -0.17690198512E+04  0.18940204671E+04  0.10566000000E+00 0. -1.
         -4    1    1    2    0  502 -0.41394250283E+03 -0.14901364584E+03 -0.62905049262E+03  0.76763141192E+03  0.00000000000E+00 0. -1.
</event>
<event>
 5    1  0.1008363E-004  0.4961885E+03  0.7818608E-02  0.9818932E-01
          4   -1    0    0  502    0 -0.00000000000E+00  0.00000000000E+00  0.25975514092E+03  0.25975514092E+03  0.00000000000E+00 0.  1.
         21   -1    0    0  501  502  0.00000000000E+00 -0.00000000000E+00 -0.18029712760E+04  0.18029712760E+04  0.00000000000E+00 0.  1.
        -13    1    1    2    0    0  0.17578771368E+03 -0.50724475876E+03 -0.85731557596E+03  0.10115278412E+04  0.10566000000E+00 0.  1.
         13    1    1    2    0    0  0.93325869998E+02  0.12241627252E+03  0.63751142793E+02  0.16661236797E+03  0.10566000000E+00 0. -1.
          4    1    1    2  501    0 -0.26911358368E+03  0.38482848624E+03 -0.74965170189E+03  0.88458620772E+03  0.00000000000E+00 0.  1.
</event>
<event>
 5    1  0.1008363E-004  0.5232787E+02  0.7818608E-02  0.1282591E+00
         -4   -1    0    0    0  501 -0.00000000000E+00  0.00000000000E+00  0.18122025077E+03  0.18122025077E+03  0.00000000000E+00 0. -1.
         21   -1    0    0  501  502  0.00000000000E+00 -0.00000000000E+00 -0.11911165337E+03  0.11911165337E+03  0.00000000000E+00 0.  1.
        -13    1    1    2    0    0  0.51581848952E+02 -0.17252913587E+02 -0.90196725517E+02  0.10532715997E+03  0.10566000000E+00 0.  1.
         13    1    1    2    0    0 -0.49268160040E+02 -0.18941722593E+02  0.14959601875E+03  0.15863518033E+03  0.10566000000E+00 0. -1.
         -4    1    1    2    0  502 -0.23136889117E+01  0.36194636180E+02  0.27093041640E+01  0.36369563836E+02  0.00000000000E+00 0. -1.
</event>
<event>
 5    1  0.1008363E-004  0.2024022E+03  0.7818608E-02  0.1058501E+00
         21   -1    0    0  501  502  0.00000000000E+00  0.00000000000E+00  0.64252018865E+02  0.64252018865E+02  0.00000000000E+00 0.  1.
         -4   -1    0    0    0  501 -0.00000000000E+00 -0.00000000000E+00 -0.77164043532E+03  0.77164043532E+03  0.00000000000E+00 0. -1.
        -13    1    1    2    0    0 -0.93625915562E+02  0.18356979465E+03 -0.26169103664E+03  0.33308541155E+03  0.10566000000E+00 0.  1.
         13    1    1    2    0    0  0.98833995082E+02 -0.17420411282E+03 -0.44895594193E+03  0.49160622501E+03  0.10566000000E+00 0. -1.
         -4    1    1    2    0  502 -0.52080795197E+01 -0.93656818305E+01  0.32585621110E+01  0.11200817625E+02  0.00000000000E+00 0. -1.
</event>
<event>
 5    1  0.1008363E-004  0.8972350E+03  0.7818608E-02  0.8877646E-01
         21   -1    0    0  501  502  0.00000000000E+00  0.00000000000E+00  0.62828009559E+03  0.62828009559E+03  0.00000000000E+00 0. -1.
         -4   -1    0    0    0  501 -0.00000000000E+00 -0.00000000000E+00 -0.22910861334E+04  0.22910861334E+04  0.00000000000E+00 0. -1.
        -13    1    1    2    0    0 -0.30753986417E+02 -0.84431129939E+03 -0.13077128785E+04  0.15568944607E+04  0.10566000000E+00 0.  1.
         13    1    1    2    0    0  0.14275987181E+03  0.10425887885E+04 -0.40806300396E+03  0.11286661107E+04  0.10566000000E+00 0. -1.
         -4    1    1    2    0  502 -0.11200588540E+03 -0.19827748914E+03  0.52969844722E+02  0.23380565758E+03  0.00000000000E+00 0. -1.
</event>
<event>
 5    1  0.1008363E-004  0.4907731E+03  0.7818608E-02  0.9719467E-01
         -4   -1    0    0    0  501 -0.00000000000E+00  0.00000000000E+00  0.25026616163E+04  0.25026616163E+04  0.00000000000E+00 0. -1.
         21   -1    0    0  501  502  0.00000000000E+00 -0.00000000000E+00 -0.21443849517E+03  0.21443849517E+03  0.00000000000E+00 0. -1.
        -13    1    1    2    0    0  0.21282057013E+03 -0.69497307198E+02  0.11733462075E+04  0.11945140454E+04  0.10566000000E+00 0.  1.
         13    1    1    2    0    0 -0.55230460317E+03 -0.10817552560E+03  0.33836578925E+03  0.65668389467E+03  0.10566000000E+00 0. -1.
         -4    1    1    2    0  502  0.33948403304E+03  0.17767283280E+03  0.77651112439E+03  0.86590217144E+03  0.00000000000E+00 0. -1.
</event>
<event>
 5    1  0.1008363E-004  0.1425053E+03  0.7818608E-02  0.1108748E+00
         21   -1    0    0  501  502  0.00000000000E+00  0.00000000000E+00  0.21650401437E+03  0.21650401437E+03  0.00000000000E+00 0. -1.
          4   -1    0    0  502    0 -0.00000000000E+00 -0.00000000000E+00 -0.15963624587E+03  0.15963624587E+03  0.00000000000E+00 0.  1.
        -13    1    1    2    0    0  0.94937301642E+02 -0.14870293656E+03  0.71629234828E+02  0.19041116835E+03  0.10566000000E+00 0.  1.
         13    1    1    2    0    0 -0.89236293171E+02  0.92060352693E+02 -0.10519090329E+02  0.12864247736E+03  0.10566000000E+00 0. -1.
          4    1    1    2  501    0 -0.57010084719E+01  0.56642583866E+02 -0.42423759976E+01  0.57086614532E+02  0.00000000000E+00 0.  1.
</event>
<event>
 5    1  0.1008363E-004  0.4548619E+03  0.7818608E-02  0.9690069E-01
         -4   -1    0    0    0  501 -0.00000000000E+00  0.00000000000E+00  0.27660972188E+04  0.27660972188E+04  0.00000000000E+00 0. -1.
         21   -1    0    0  501  502  0.00000000000E+00 -0.00000000000E+00 -0.19430701767E+03  0.19430701767E+03  0.00000000000E+00 0. -1.
        -13    1    1    2    0    0  0.29410250383E+03  0.10260872699E+03  0.99771272915E+03  0.10452059772E+04  0.10566000000E+00 0.  1.
         13    1    1    2    0    0  0.54231277552E+02 -0.43984291324E+03  0.12646140308E+04  0.13400192080E+04  0.10566000000E+00 0. -1.
         -4    1    1    2    0  502 -0.34833378138E+03  0.33723418624E+03  0.30946344120E+03  0.57517905131E+03  0.00000000000E+00 0. -1.
</event>
<event>
 5    1  0.1008363E-004  0.2930776E+03  0.7818608E-02  0.1055313E+00
          4   -1    0    0  502    0 -0.00000000000E+00  0.00000000000E+00  0.21689482896E+03  0.21689482896E+03  0.00000000000E+00 0.  1.
         21   -1    0    0  501  502  0.00000000000E+00 -0.00000000000E+00 -0.55895360208E+03  0.55895360208E+03  0.00000000000E+00 0.  1.
        -13    1    1    2    0    0 -0.53880584712E+02  0.33045612618E+03 -0.99275282314E+02  0.34922766440E+03  0.10566000000E+00 0.  1.
         13    1    1    2    0    0  0.35079017677E+02 -0.64255362273E+02 -0.10008191378E+03  0.12399874875E+03  0.10566000000E+00 0. -1.
          4    1    1    2  501    0  0.18801567035E+02 -0.26620076390E+03 -0.14270157703E+03  0.30262201789E+03  0.00000000000E+00 0.  1.
</event>
<event>
 5    1  0.1008363E-004  0.3788099E+03  0.7818608E-02  0.1014248E+00
         -4   -1    0    0    0  501 -0.00000000000E+00  0.00000000000E+00  0.47643794995E+03  0.47643794995E+03  0.00000000000E+00 0. -1.
         21   -1    0    0  501  502  0.00000000000E+00 -0.00000000000E+00 -0.80260665579E+03  0.80260665579E+03  0.00000000000E+00 0. -1.
        -13    1    1    2    0    0 -0.11817335872E+03 -0.16022421831E+02  0.12974555805E+03  0.17622593938E+03  0.10566000000E+00 0.  1.
         13    1    1    2    0    0 -0.24751369973E+03 -0.26472588374E+03 -0.52366206863E+03  0.63683969597E+03  0.10566000000E+00 0. -1.
         -4    1    1    2    0  502  0.36568705845E+03  0.28074830557E+03  0.67747804743E+02  0.46597897039E+03  0.00000000000E+00 0. -1.
</event>
<event>
 5    1  0.1008363E-004  0.5052025E+03  0.7818608E-02  0.9692754E-01
         21   -1    0    0  501  502  0.00000000000E+00  0.00000000000E+00  0.50333594416E+03  0.50333594416E+03  0.00000000000E+00 0.  1.
          4   -1    0    0  502    0 -0.00000000000E+00 -0.00000000000E+00 -0.11456420724E+04  0.11456420724E+04  0.00000000000E+00 0.  1.
        -13    1    1    2    0    0 -0.53924564103E+03  0.32624043720E+03 -0.27929341061E+02  0.63087141597E+03  0.10566000000E+00 0.  1.
         13    1    1    2    0    0  0.15762440185E+03 -0.16087374757E+03 -0.55375165034E+03  0.59780156920E+03  0.10566000000E+00 0. -1.
          4    1    1    2  501    0  0.38162123918E+03 -0.16536668963E+03 -0.60625136893E+02  0.42030503144E+03  0.00000000000E+00 0.  1.
</event>
<event>
 5    1  0.1008363E-004  0.4581471E+03  0.7818608E-02  0.9708995E-01
         -4   -1    0    0    0  501 -0.00000000000E+00  0.00000000000E+00  0.28550974495E+04  0.28550974495E+04  0.00000000000E+00 0. -1.
         21   -1    0    0  501  502  0.00000000000E+00 -0.00000000000E+00 -0.16301382147E+03  0.16301382147E+03  0.00000000000E+00 0. -1.
        -13    1    1    2    0    0 -0.14157699499E+03  0.24779575573E+03  0.93569198304E+03  0.97824653353E+03  0.10566000000E+00 0.  1.
         13    1    1    2    0    0  0.47311769814E+03  0.82367269036E+02  0.47391282183E+03  0.67469852316E+03  0.10566000000E+00 0. -1.
         -4    1    1    2    0  502 -0.33154070315E+03 -0.33016302477E+03  0.12824788232E+04  0.13651662143E+04  0.00000000000E+00 0. -1.
</event>
<event>
 5    1  0.1008363E-004  0.5261109E+03  0.7818608E-02  0.9516497E-01
          4   -1    0    0  502    0 -0.00000000000E+00  0.00000000000E+00  0.11910245916E+04  0.11910245916E+04  0.00000000000E+00 0.  1.
         21   -1    0    0  501  502  0.00000000000E+00 -0.00000000000E+00 -0.49120747344E+03  0.49120747344E+03  0.00000000000E+00 0.  1.
        -13    1    1    2    0    0  0.20399401657E+03  0.58410332442E+03  0.25429184570E+03  0.66892047835E+03  0.10566000000E+00 0.  1.
         13    1    1    2    0    0  0.21956777396E+03 -0.30165107647E+03  0.31361474497E+03  0.48739880871E+03  0.10566000000E+00 0. -1.
          4    1    1    2  501    0 -0.42356179054E+03 -0.28245224796E+03  0.13191052746E+03  0.52591277797E+03  0.00000000000E+00 0.  1.
</event>
<event>
 5    1  0.1008363E-004  0.3686185E+03  0.7818608E-02  0.9912712E-01
         21   -1    0    0  501  502  0.00000000000E+00  0.00000000000E+00  0.12595245057E+04  0.12595245057E+04  0.00000000000E+00 0. -1.
         -4   -1    0    0    0  501 -0.00000000000E+00 -0.00000000000E+00 -0.49900925392E+03  0.49900925392E+03  0.00000000000E+00 0. -1.
        -13    1    1    2    0    0  0.61200428082E+02 -0.26680918013E+03 -0.23822414229E+03  0.36288205265E+03  0.10566000000E+00 0.  1.
         13    1    1    2    0    0 -0.37810811572E+03  0.92093578330E+02  0.95486561981E+03  0.10311233376E+04  0.10566000000E+00 0. -1.
         -4    1    1    2    0  502  0.31690768763E+03  0.17471560180E+03  0.43873774252E+02  0.36452836935E+03  0.00000000000E+00 0. -1.
</event>
<event>
 5    1  0.1008363E-004  0.4927969E+03  0.7818608E-02  0.9601587E-01
         21   -1    0    0  501  502  0.00000000000E+00  0.00000000000E+00  0.93009619312E+03  0.93009619312E+03  0.00000000000E+00 0. -1.
         -4   -1    0    0    0  501 -0.00000000000E+00 -0.00000000000E+00 -0.55993430174E+03  0.55993430174E+03  0.00000000000E+00 0. -1.
        -13    1    1    2    0    0  0.20154923144E+03 -0.26700948493E+03 -0.94516085876E+02  0.34763408837E+03  0.10566000000E+00 0.  1.
         13    1    1    2    0    0 -0.54669709686E+03 -0.81757622361E+02  0.23601450929E+03  0.60105314598E+03  0.10566000000E+00 0. -1.
         -4    1    1    2    0  502  0.34514786541E+03  0.34876710730E+03  0.22866346796E+03  0.54134326052E+03  0.00000000000E+00 0. -1.
</event>
<event>
 5    1  0.1008363E-004  0.5581170E+03  0.7818608E-02  0.9358945E-01
         21   -1    0    0  501  502  0.00000000000E+00  0.00000000000E+00  0.27692848523E+03  0.27692848523E+03  0.00000000000E+00 0.  1.
         -4   -1    0    0    0  501 -0.00000000000E+00 -0.00000000000E+00 -0.26377154288E+04  0.26377154288E+04  0.00000000000E+00 0. -1.
        -13    1    1    2    0    0  0.35805808562E+03  0.39448997031E+03 -0.11015918595E+04  0.12236554112E+04  0.10566000000E+00 0.  1.
         13    1    1    2    0    0 -0.44865692050E+03 -0.37541420386E+03 -0.14029310701E+04  0.15200146234E+04  0.10566000000E+00 0. -1.
         -4    1    1    2    0  502  0.90598834880E+02 -0.19075766449E+02  0.14373598604E+03  0.17097387938E+03  0.00000000000E+00 0. -1.
</event>
<event>
 5    1  0.1008363E-004  0.4797264E+03  0.7818608E-02  0.9754260E-01
         21   -1    0    0  501  502  0.00000000000E+00  0.00000000000E+00  0.34142627408E+03  0.34142627408E+03  0.00000000000E+00 0.  1.
          4   -1    0    0  502    0 -0.00000000000E+00 -0.00000000000E+00 -0.12195964613E+04  0.12195964613E+04  0.00000000000E+00 0.  1.
        -13    1    1    2    0    0  0.37829248153E+03 -0.22665372139E+03 -0.13502366462E+03  0.46120333062E+03  0.10566000000E+00 0.  1.
         13    1    1    2    0    0  0.18033624434E+03  0.11247832267E+03 -0.34202116192E+03  0.40267979892E+03  0.10566000000E+00 0. -1.
          4    1    1    2  501    0 -0.55862872587E+03  0.11417539872E+03 -0.40112536064E+03  0.69713960581E+03  0.00000000000E+00 0.  1.
</event>
<event>
 5    1  0.1008363E-004  0.3633112E+02  0.7818608E-02  0.1360260E+00
         21   -1    0    0  501  502  0.00000000000E+00  0.00000000000E+00  0.16659790388E+03  0.16659790388E+03  0.00000000000E+00 0.  1.
          4   -1    0    0  502    0 -0.00000000000E+00 -0.00000000000E+00 -0.96716607236E+02  0.96716607236E+02  0.00000000000E+00 0.  1.
        -13    1    1    2    0    0 -0.36663930805E+02  0.54267644847E+01 -0.88696221824E+02  0.96128687314E+02  0.10566000000E+00 0.  1.
         13    1    1    2    0    0  0.22240309916E+02  0.15806504071E+02  0.81158294230E+02  0.85622174946E+02  0.10566000000E+00 0. -1.
          4    1    1    2  501    0  0.14423620889E+02 -0.21233268556E+02  0.77419224234E+02  0.81563648852E+02  0.00000000000E+00 0.  1.
</event>
<event>
 5    1  0.1008363E-004  0.5846351E+03  0.7818608E-02  0.9309581E-01
         21   -1    0    0  501  502  0.00000000000E+00  0.00000000000E+00  0.27077586018E+03  0.27077586018E+03  0.00000000000E+00 0.  1.
         -4   -1    0    0    0  501 -0.00000000000E+00 -0.00000000000E+00 -0.24976588502E+04  0.24976588502E+04  0.00000000000E+00 0. -1.
        -13    1    1    2    0    0 -0.10007198533E+03 -0.49549673769E+03 -0.10115175341E+04  0.11307958049E+04  0.10566000000E+00 0.  1.
         13    1    1    2    0    0  0.62898943831E+01  0.73068756683E+03 -0.11714403140E+04  0.13806579241E+04  0.10566000000E+00 0. -1.
         -4    1    1    2    0  502  0.93782090945E+02 -0.23519082913E+03 -0.43925141885E+02  0.25698098136E+03  0.00000000000E+00 0. -1.
</event>
<event>
 5    1  0.1008363E-004  0.8000343E+02  0.7818608E-02  0.1202683E+00
         21   -1    0    0  501  502  0.00000000000E+00  0.00000000000E+00  0.44429100850E+03  0.44429100850E+03  0.00000000000E+00 0. -1.
          4   -1    0    0  502    0 -0.00000000000E+00 -0.00000000000E+00 -0.51811192806E+02  0.51811192806E+02  0.00000000000E+00 0.  1.
        -13    1    1    2    0    0 -0.59074821315E+02 -0.58886911570E+02  0.23093459235E+02  0.86549534320E+02  0.10566000000E+00 0.  1.
         13    1    1    2    0    0  0.65348348210E+02  0.40033977915E+02  0.54498158294E+02  0.94038217885E+02  0.10566000000E+00 0. -1.
          4    1    1    2  501    0 -0.62735268953E+01  0.18852933655E+02  0.31488819817E+03  0.31551444910E+03  0.00000000000E+00 0.  1.
</event>
<event>
 5    1  0.1008363E-004  0.9119207E+02  0.7818608E-02  0.1180013E+00
         21   -1    0    0  501  502  0.00000000000E+00  0.00000000000E+00  0.11751594818E+03  0.11751594818E+03  0.00000000000E+00 0.  1.
         -4   -1    0    0    0  501 -0.00000000000E+00 -0.00000000000E+00 -0.29359324792E+03  0.29359324792E+03  0.00000000000E+00 0. -1.
        -13    1    1    2    0    0 -0.65741788847E+02  0.38248721300E+02  0.66244547394E+02  0.10086277165E+03  0.10566000000E+00 0.  1.
         13    1    1    2    0    0  0.70264491474E+02 -0.60528672702E+02 -0.26339660002E+03  0.27924648440E+03  0.10566000000E+00 0. -1.
         -4    1    1    2    0  502 -0.45227026273E+01  0.22279951402E+02  0.21074752886E+02  0.30999940045E+02  0.00000000000E+00 0. -1.
</event>
<event>
 5    1  0.1008363E-004  0.5068735E+03  0.7818608E-02  0.1002713E+00
          4   -1    0    0  502    0 -0.00000000000E+00  0.00000000000E+00  0.14956398337E+03  0.14956398337E+03  0.00000000000E+00 0.  1.
         21   -1    0    0  501  502  0.00000000000E+00 -0.00000000000E+00 -0.19871176799E+04  0.19871176799E+04  0.00000000000E+00 0.  1.
        -13    1    1    2    0    0  0.34639222140E+03  0.32867723233E+03 -0.76214883973E+03  0.89938154260E+03  0.10566000000E+00 0.  1.
         13    1    1    2    0    0  0.12188366247E+02  0.71156295957E+02 -0.93688183227E+02  0.11827620879E+03  0.10566000000E+00 0. -1.
          4    1    1    2  501    0 -0.35858058765E+03 -0.39983352829E+03 -0.98171667357E+03  0.11190239119E+04  0.00000000000E+00 0.  1.
</event>
<event>
 5    1  0.1008363E-004  0.1645161E+03  0.7818608E-02  0.1087616E+00
          4   -1    0    0  502    0 -0.00000000000E+00  0.00000000000E+00  0.12566742312E+03  0.12566742312E+03  0.00000000000E+00 0.  1.
         21   -1    0    0  501  502  0.00000000000E+00 -0.00000000000E+00 -0.29591473214E+03  0.29591473214E+03  0.00000000000E+00 0. -1.
        -13    1    1    2    0    0 -0.13381305961E+03  0.96007780579E+02 -0.89932175720E+01  0.16493731531E+03  0.10566000000E+00 0.  1.
         13    1    1    2    0    0  0.12342219865E+03 -0.10913770447E+03 -0.99072747004E+02  0.19224853191E+03  0.10566000000E+00 0. -1.
          4    1    1    2  501    0  0.10390860958E+02  0.13129923896E+02 -0.62181344439E+02  0.64396308040E+02  0.00000000000E+00 0.  1.
</event>
<event>
 5    1  0.1008363E-004  0.5023624E+03  0.7818608E-02  0.9990944E-01
         -4   -1    0    0    0  501 -0.00000000000E+00  0.00000000000E+00  0.93246935915E+03  0.93246935915E+03  0.00000000000E+00 0. -1.
         21   -1    0    0  501  502  0.00000000000E+00 -0.00000000000E+00 -0.35702806640E+03  0.35702806640E+03  0.00000000000E+00 0. -1.
        -13    1    1    2    0    0  0.82430344162E+02 -0.13160996192E+02  0.19027676554E+03  0.20778169343E+03  0.10566000000E+00 0.  1.
         13    1    1    2    0    0 -0.13639135772E+03  0.50088726606E+03  0.22194930508E+03  0.56458140330E+03  0.10566000000E+00 0. -1.
         -4    1    1    2    0  502  0.53961013553E+02 -0.48772626987E+03  0.16321522213E+03  0.51713432882E+03  0.00000000000E+00 0. -1.
</event>
<event>
 5    1  0.1008363E-004  0.4915771E+03  0.7818608E-02  0.9621387E-01
         21   -1    0    0  501  502  0.00000000000E+00  0.00000000000E+00  0.50662941873E+03  0.50662941873E+03  0.00000000000E+00 0.  1.
          4   -1    0    0  502    0 -0.00000000000E+00 -0.00000000000E+00 -0.93869253055E+03  0.93869253055E+03  0.00000000000E+00 0.  1.
        -13    1    1    2    0    0 -0.15741190314E+03  0.63192452924E+03 -0.14447164765E+03  0.66706760231E+03  0.10566000000E+00 0.  1.
         13    1    1    2    0    0 -0.76900345502E+02 -0.30460936030E+03 -0.17789595724E+03  0.36103671322E+03  0.10566000000E+00 0. -1.
          4    1    1    2  501    0  0.23431224864E+03 -0.32731516894E+03 -0.10969550693E+03  0.41721763376E+03  0.00000000000E+00 0.  1.
</event>
<event>
 5    1  0.1008363E-004  0.1158042E+03  0.7818608E-02  0.1148947E+00
         21   -1    0    0  501  502  0.00000000000E+00  0.00000000000E+00  0.54592938328E+03  0.54592938328E+03  0.00000000000E+00 0. -1.
         -4   -1    0    0    0  501 -0.00000000000E+00 -0.00000000000E+00 -0.63465335319E+03  0.63465335319E+03  0.00000000000E+00 0. -1.
        -13    1    1    2    0    0 -0.12711876055E+03  0.17177456224E+02 -0.75647417487E+02  0.14891872690E+03  0.10566000000E+00 0.  1.
         13    1    1    2    0    0 -0.39274438710E+01  0.10423260164E+03  0.48834996830E+03  0.49936515974E+03  0.10566000000E+00 0. -1.
         -4    1    1    2    0  502  0.13104620442E+03 -0.12141005786E+03 -0.50142652072E+03  0.53229884983E+03  0.00000000000E+00 0. -1.
</event>
<event>
 5    1  0.1008363E-004  0.9894265E+02  0.7818608E-02  0.1166317E+00
         -4   -1    0    0    0  501 -0.00000000000E+00  0.00000000000E+00  0.18565215050E+02  0.18565215050E+02  0.00000000000E+00 0. -1.
         21   -1    0    0  501  502  0.00000000000E+00 -0.00000000000E+00 -0.10887294514E+04  0.10887294514E+04  0.00000000000E+00 0. -1.
        -13    1    1    2    0    0  0.36065153703E+02 -0.71784085634E+02 -0.23628962571E+03  0.24957253183E+03  0.10566000000E+00 0.  1.
         13    1    1    2    0    0 -0.70546483232E+02  0.11027208334E+03 -0.40224795002E+03  0.42301319497E+03  0.10566000000E+00 0. -1.
         -4    1    1    2    0  502  0.34481329529E+02 -0.38487997703E+02 -0.43162666059E+03  0.43470893962E+03  0.00000000000E+00 0. -1.
</event>
<event>
 5    1  0.1008363E-004  0.3032036E+02  0.7818608E-02  0.1402354E+00
         -4   -1    0    0    0  501 -0.00000000000E+00  0.00000000000E+00  0.70303302655E+02  0.70303302655E+02  0.00000000000E+00 0. -1.
         21   -1    0    0  501  502  0.00000000000E+00 -0.00000000000E+00 -0.23230488104E+03  0.23230488104E+03  0.00000000000E+00 0.  1.
        -13    1    1    2    0    0 -0.32753239839E+02 -0.21893634757E+02 -0.65313744703E+02  0.76275830863E+02  0.10566000000E+00 0.  1.
         13    1    1    2    0    0  0.28005126815E+02  0.10540960979E+02  0.61116588858E+02  0.68048861739E+02  0.10566000000E+00 0. -1.
         -4    1    1    2    0  502  0.47481130237E+01  0.11352673777E+02 -0.15780442254E+03  0.15828349109E+03  0.00000000000E+00 0. -1.
</event>
<event>
 5    1  0.1008363E-004  0.4162476E+02  0.7818608E-02  0.1330229E+00
         21   -1    0    0  501  502  0.00000000000E+00  0.00000000000E+00  0.21303169185E+02  0.21303169185E+02  0.00000000000E+00 0. -1.
          4   -1    0    0  502    0 -0.00000000000E+00 -0.00000000000E+00 -0.23405950439E+03  0.23405950439E+03  0.00000000000E+00 0.  1.
        -13    1    1    2    0    0  0.34402315684E+02  0.25967979041E+02 -0.16415919853E+03  0.16972362501E+03  0.10566000000E+00 0.  1.
         13    1    1    2    0    0 -0.39310764620E+02 -0.95802047735E+01 -0.54200714270E+02  0.67637601451E+02  0.10566000000E+00 0. -1.
          4    1    1    2  501    0  0.49084489359E+01 -0.16387774267E+02  0.56035775953E+01  0.18001447116E+02  0.00000000000E+00 0.  1.
</event>
<event>
 5    1  0.1008363E-004  0.3454809E+03  0.7818608E-02  0.9902769E-01
          4   -1    0    0  502    0 -0.00000000000E+00  0.00000000000E+00  0.16067529902E+04  0.16067529902E+04  0.00000000000E+00 0.  1.
         21   -1    0    0  501  502  0.00000000000E+00 -0.00000000000E+00 -0.31026507693E+03  0.31026507693E+03  0.00000000000E+00 0.  1.
        -13    1    1    2    0    0 -0.30069681279E+03  0.22796361799E+01  0.94760734498E+01  0.30085474418E+03  0.10566000000E+00 0.  1.
         13    1    1    2    0    0 -0.31242406119E+03 -0.14951959584E+03  0.42884113332E+03  0.55124371411E+03  0.10566000000E+00 0. -1.
          4    1    1    2  501    0  0.61312087398E+03  0.14723995966E+03  0.85817070653E+03  0.10649196089E+04  0.00000000000E+00 0.  1.
</event>
<event>
 5    1  0.1008363E-004  0.9077886E+02  0.7818608E-02  0.1180785E+00
          4   -1    0    0  502    0 -0.00000000000E+00  0.00000000000E+00  0.35701488708E+02  0.35701488708E+02  0.00000000000E+00 0.  1.
         21   -1    0    0  501  502  0.00000000000E+00 -0.00000000000E+00 -0.49019028378E+03  0.49019028378E+03  0.00000000000E+00 0.  1.
        -13    1    1    2    0    0  0.60753782812E+01 -0.10360928235E+03 -0.18566711101E+03  0.21270656051E+03  0.10566000000E+00 0.  1.
         13    1    1    2    0    0 -0.34942711845E+02  0.79361392787E+02 -0.71776595997E+02  0.11256604583E+03  0.10566000000E+00 0. -1.
          4    1    1    2  501    0  0.28867333563E+02  0.24247889564E+02 -0.19704508807E+03  0.20061916615E+03  0.00000000000E+00 0.  1.
</event>
<event>
 5    1  0.1008363E-004  0.5957154E+03  0.7818608E-02  0.9289767E-01
         21   -1    0    0  501  502  0.00000000000E+00  0.00000000000E+00  0.24380983593E+03  0.24380983593E+03  0.00000000000E+00 0.  1.
          4   -1    0    0  502    0 -0.00000000000E+00 -0.00000000000E+00 -0.32695228369E+04  0.32695228369E+04  0.00000000000E+00 0.  1.
        -13    1    1    2    0    0 -0.50432818246E+03 -0.39328328819E+03 -0.20693795690E+04  0.21659525553E+04  0.10566000000E+00 0.  1.
         13    1    1    2    0    0  0.42856641961E+03  0.32485665863E+03 -0.10682009929E+04  0.11959324383E+04  0.10566000000E+00 0. -1.
          4    1    1    2  501    0  0.75761762847E+02  0.68426629555E+02  0.11186756089E+03  0.15144767916E+03  0.00000000000E+00 0.  1.
</event>
<event>
 5    1  0.1008363E-004  0.1142457E+03  0.7818608E-02  0.1142923E+00
         -4   -1    0    0    0  501 -0.00000000000E+00  0.00000000000E+00  0.11311525618E+03  0.11311525618E+03  0.00000000000E+00 0. -1.
         21   -1    0    0  501  502  0.00000000000E+00 -0.00000000000E+00 -0.44572013232E+03  0.44572013232E+03  0.00000000000E+00 0.  1.
        -13    1    1    2    0    0  0.95297707129E+02  0.15659593527E+02 -0.70780720432E+02  0.11973636625E+03  0.10566000000E+00 0.  1.
         13    1    1    2    0    0 -0.16134776665E+03 -0.74586421989E+02 -0.29512934756E+03  0.34452515018E+03  0.10566000000E+00 0. -1.
         -4    1    1    2    0  502  0.66050059525E+02  0.58926828463E+02  0.33305191844E+02  0.94573872077E+02  0.00000000000E+00 0. -1.
</event>
<event>
 5    1  0.1008363E-004  0.7507253E+02  0.7818608E-02  0.1214014E+00
          4   -1    0    0  502    0 -0.00000000000E+00  0.00000000000E+00  0.41944292853E+03  0.41944292853E+03  0.00000000000E+00 0.  1.
         21   -1    0    0  501  502  0.00000000000E+00 -0.00000000000E+00 -0.87693733025E+02  0.87693733025E+02  0.00000000000E+00 0.  1.
        -13    1    1    2    0    0  0.34521394339E+02 -0.64296589913E+02  0.30122482931E+03  0.30993900545E+03  0.10566000000E+00 0.  1.
         13    1    1    2    0    0 -0.49924137386E+02  0.66487631144E+02  0.97673476535E+02  0.12826980850E+03  0.10566000000E+00 0. -1.
          4    1    1    2  501    0  0.15402743046E+02 -0.21910412317E+01 -0.67149110347E+02  0.68927847605E+02  0.00000000000E+00 0.  1.
</event>
<event>
 5    1  0.1008363E-004  0.1706393E+03  0.7818608E-02  0.1082367E+00
         21   -1    0    0  501  502  0.00000000000E+00  0.00000000000E+00  0.18358616585E+03  0.18358616585E+03  0.00000000000E+00 0. -1.
          4   -1    0    0  502    0 -0.00000000000E+00 -0.00000000000E+00 -0.99872326852E+03  0.99872326852E+03  0.00000000000E+00 0.  1.
        -13    1    1    2    0    0  0.16851506367E+03 -0.32495722851E+02 -0.93268449924E+03  0.94834259895E+03  0.10566000000E+00 0.  1.
         13    1    1    2    0    0 -0.15253826333E+03  0.38466847592E+02  0.51160306543E+02  0.16542372343E+03  0.10566000000E+00 0. -1.
          4    1    1    2  501    0 -0.15976800334E+02 -0.59711247413E+01  0.66387090025E+02  0.68543111992E+02  0.00000000000E+00 0.  1.
</event>
<event>
 5    1  0.1008363E-004  0.1733757E+03  0.7818608E-02  0.1080098E+00
         21   -1    0    0  501  502  0.00000000000E+00  0.00000000000E+00  0.84528666993E+02  0.84528666993E+02  0.00000000000E+00 0. -1.
          4   -1    0    0  502    0 -0.00000000000E+00 -0.00000000000E+00 -0.48193683466E+03  0.48193683466E+03  0.00000000000E+00 0.  1.
        -13    1    1    2    0    0 -0.51424791197E+02  0.16232719530E+03 -0.29805146015E+03  0.34326274418E+03  0.10566000000E+00 0.  1.
         13    1    1    2    0    0  0.56716016298E+02 -0.17126234160E+03 -0.10749763531E+03  0.21000773538E+03  0.10566000000E+00 0. -1.
          4    1    1    2  501    0 -0.52912251012E+01  0.89351463079E+01  0.81409277961E+01  0.13195022092E+02  0.00000000000E+00 0.  1.
</event>
<event>
 5    1  0.1008363E-004  0.1766804E+03  0.7818608E-02  0.1077416E+00
         -4   -1    0    0    0  501 -0.00000000000E+00  0.00000000000E+00  0.77162368332E+03  0.77162368332E+03  0.00000000000E+00 0. -1.
         21   -1    0    0  501  502  0.00000000000E+00 -0.00000000000E+00 -0.13712893982E+03  0.13712893982E+03  0.00000000000E+00 0. -1.
        -13    1    1    2    0    0  0.34619558369E+02 -0.11316087372E+03  0.53087384581E+01  0.11845712740E+03  0.10566000000E+00 0.  1.
         13    1    1    2    0    0 -0.30655237392E+01  0.19145218346E+03  0.66979337740E+03  0.69662508967E+03  0.10566000000E+00 0. -1.
         -4    1    1    2    0  502 -0.31554034630E+02 -0.78291309737E+02 -0.40607372362E+02  0.93670406063E+02  0.00000000000E+00 0. -1.
</event>
<event>
 5    1  0.1008363E-004  0.2124263E+03  0.7818608E-02  0.1051935E+00
         21   -1    0    0  501  502  0.00000000000E+00  0.00000000000E+00  0.17857146815E+03  0.17857146815E+03  0.00000000000E+00 0.  1.
         -4   -1    0    0    0  501 -0.00000000000E+00 -0.00000000000E+00 -0.13574670666E+04  0.13574670666E+04  0.00000000000E+00 0. -1.
        -13    1    1    2    0    0 -0.17322533820E+03 -0.16580184124E+03  0.70911745239E+02  0.25005150495E+03  0.10566000000E+00 0.  1.
         13    1    1    2    0    0  0.15388311688E+03  0.14422398563E+03 -0.12360413987E+04  0.12539054678E+04  0.10566000000E+00 0. -1.
         -4    1    1    2    0  502  0.19342221315E+02  0.21577855605E+02 -0.13765944941E+02  0.32081561963E+02  0.00000000000E+00 0. -1.
</event>
<event>
 5    1  0.1008363E-004  0.4535896E+03  0.7818608E-02  0.9660863E-01
          4   -1    0    0  502    0 -0.00000000000E+00  0.00000000000E+00  0.16073859481E+04  0.16073859481E+04  0.00000000000E+00 0.  1.
         21   -1    0    0  501  502  0.00000000000E+00 -0.00000000000E+00 -0.43648993801E+03  0.43648993801E+03  0.00000000000E+00 0.  1.
        -13    1    1    2    0    0 -0.45564375252E+03 -0.32830465731E+03 -0.21494566015E+02  0.56201174788E+03  0.10566000000E+00 0.  1.
         13    1    1    2    0    0  0.34617117062E+03 -0.34929862388E+02  0.99527785320E+03  0.10543398840E+04  0.10566000000E+00 0. -1.
          4    1    1    2  501    0  0.10947258190E+03  0.36323451970E+03  0.19711272295E+03  0.42752425432E+03  0.00000000000E+00 0.  1.
</event>
<event>
 5    1  0.1008363E-004  0.7070343E+03  0.7818608E-02  0.9112836E-01
          4   -1    0    0  502    0 -0.00000000000E+00  0.00000000000E+00  0.19847362541E+04  0.19847362541E+04  0.00000000000E+00 0.  1.
         21   -1    0    0  501  502  0.00000000000E+00 -0.00000000000E+00 -0.63963485463E+03  0.63963485463E+03  0.00000000000E+00 0. -1.
        -13    1    1    2    0    0 -0.49568881502E+03  0.51923041074E+03  0.12129192104E+04  0.14094256429E+04  0.10566000000E+00 0.  1.
         13    1    1    2    0    0  0.14799060776E+03 -0.74266459859E+03 -0.59016524851E+02  0.75956229985E+03  0.10566000000E+00 0. -1.
          4    1    1    2  501    0  0.34769820726E+03  0.22343418784E+03  0.19119871389E+03  0.45538316594E+03  0.00000000000E+00 0.  1.
</event>
<event>
 5    1  0.1008363E-004  0.1443825E+03  0.7818608E-02  0.1106788E+00
         21   -1    0    0  501  502  0.00000000000E+00  0.00000000000E+00  0.13142969353E+03  0.13142969353E+03  0.00000000000E+00 0. -1.
         -4   -1    0    0    0  501 -0.00000000000E+00 -0.00000000000E+00 -0.87189549271E+03  0.87189549271E+03  0.00000000000E+00 0. -1.
        -13    1    1    2    0    0 -0.13104181854E+03  0.15216696335E+03 -0.21653455324E+03  0.29532010913E+03  0.10566000000E+00 0.  1.
         13    1    1    2    0    0  0.94543121554E+02 -0.94699016248E+02 -0.59484003647E+03  0.60970565493E+03  0.10566000000E+00 0. -1.
         -4    1    1    2    0  502  0.36498696990E+02 -0.57467947106E+02  0.70908790527E+02  0.98299422179E+02  0.00000000000E+00 0. -1.
</event>
<event>
 5    1  0.1008363E-004  0.2818919E+03  0.7818608E-02  0.1020125E+00
         -4   -1    0    0    0  501 -0.00000000000E+00  0.00000000000E+00  0.27483811751E+04  0.27483811751E+04  0.00000000000E+00 0. -1.
         21   -1    0    0  501  502  0.00000000000E+00 -0.00000000000E+00 -0.16375710224E+03  0.16375710224E+03  0.00000000000E+00 0. -1.
        -13    1    1    2    0    0 -0.21535410438E+03  0.10643635016E+03  0.10038132626E+04  0.10321565600E+04  0.10566000000E+00 0.  1.
         13    1    1    2    0    0  0.44308729450E+03  0.38995193538E+02  0.15445857233E+04  0.16073556058E+04  0.10566000000E+00 0. -1.
         -4    1    1    2    0  502 -0.22773319012E+03 -0.14543154370E+03  0.36225086912E+02  0.27262611156E+03  0.00000000000E+00 0. -1.
</event>
<event>
 5    1  0.1008363E-004  0.3748742E+03  0.7818608E-02  0.9888050E-01
         -4   -1    0    0    0  501 -0.00000000000E+00  0.00000000000E+00  0.16349409666E+04  0.16349409666E+04  0.00000000000E+00 0. -1.
         21   -1    0    0  501  502  0.00000000000E+00 -0.00000000000E+00 -0.63528032332E+03  0.63528032332E+03  0.00000000000E+00 0. -1.
        -13    1    1    2    0    0 -0.28055476862E+03  0.34299911848E+02  0.11768866782E+04  0.12103510758E+04  0.10566000000E+00 0.  1.
         13    1    1    2    0    0  0.42289819526E+03 -0.35227499134E+03  0.16186624818E+03  0.57370832881E+03  0.10566000000E+00 0. -1.
         -4    1    1    2    0  502 -0.14234342664E+03  0.31797507949E+03 -0.33909228310E+03  0.48616188533E+03  0.00000000000E+00 0. -1.
</event>
<event>
 5    1  0.1008363E-004  0.3329651E+03  0.7818608E-02  0.1040491E+00
          4   -1    0    0  502    0 -0.00000000000E+00  0.00000000000E+00  0.19293802092E+04  0.19293802092E+04  0.00000000000E+00 0.  1.
         21   -1    0    0  501  502  0.00000000000E+00 -0.00000000000E+00 -0.16611821404E+03  0.16611821404E+03  0.00000000000E+00 0.  1.
        -13    1    1    2    0    0  0.28133050909E+03  0.69739302565E+01  0.14039334755E+04  0.14318605749E+04  0.10566000000E+00 0.  1.
         13    1    1    2    0    0  0.56008730070E+02 -0.53875007055E+02  0.30988796028E+03  0.31948404236E+03  0.10566000000E+00 0. -1.
          4    1    1    2  501    0 -0.33733923916E+03  0.46901076798E+02  0.49440559372E+02  0.34415380601E+03  0.00000000000E+00 0.  1.
</event>
<event>
 5    1  0.1008363E-004  0.4657174E+03  0.7818608E-02  0.1018488E+00
         -4   -1    0    0    0  501 -0.00000000000E+00  0.00000000000E+00  0.16260057065E+04  0.16260057065E+04  0.00000000000E+00 0. -1.
         21   -1    0    0  501  502  0.00000000000E+00 -0.00000000000E+00 -0.17677444785E+03  0.17677444785E+03  0.00000000000E+00 0. -1.
        -13    1    1    2    0    0  0.41059796618E+02  0.38219271443E+02  0.19774904505E+03  0.20555124809E+03  0.10566000000E+00 0.  1.
         13    1    1    2    0    0 -0.46710403433E+03 -0.11823679334E+03  0.34558393094E+03  0.59295394650E+03  0.10566000000E+00 0. -1.
         -4    1    1    2    0  502  0.42604423771E+03  0.80017521897E+02  0.90589828266E+03  0.10042749598E+04  0.00000000000E+00 0. -1.
</event>
<event>
 5    1  0.1008363E-004  0.4805140E+03  0.7818608E-02  0.9521735E-01
          4   -1    0    0  502    0 -0.00000000000E+00  0.00000000000E+00  0.44424755082E+03  0.44424755082E+03  0.00000000000E+00 0.  1.
         21   -1    0    0  501  502  0.00000000000E+00 -0.00000000000E+00 -0.15940753800E+04  0.15940753800E+04  0.00000000000E+00 0.  1.
        -13    1    1    2    0    0 -0.12754015459E+03  0.74132123454E+03 -0.92384416272E+03  0.11913486945E+04  0.10566000000E+00 0.  1.
         13    1    1    2    0    0  0.63947543489E+02 -0.42499064041E+03  0.36096508039E+02  0.43128795695E+03  0.10566000000E+00 0. -1.
          4    1    1    2  501    0  0.63592611098E+02 -0.31633059414E+03 -0.26208017452E+03  0.41568627936E+03  0.00000000000E+00 0.  1.
</event>
<event>
 5    1  0.2024274E-004  0.4924654E+03  0.7818608E-02  0.1033220E+00
          4   -1    0    0  502    0 -0.00000000000E+00  0.00000000000E+00  0.16118290847E+04  0.16118290847E+04  0.00000000000E+00 0.  1.
         21   -1    0    0  501  502  0.00000000000E+00 -0.00000000000E+00 -0.16923289394E+03  0.16923289394E+03  0.00000000000E+00 0.  1.
        -13    1    1    2    0    0  0.45791122112E+03 -0.13622567096E+03  0.66097048393E+03  0.81555018953E+03  0.10566000000E+00 0.  1.
         13    1    1    2    0    0  0.29978501825E+02 -0.26483046601E+00  0.16383477978E+03  0.16655517685E+03  0.10566000000E+00 0. -1.
          4    1    1    2  501    0 -0.48788972294E+03  0.13649050142E+03  0.61779092708E+03  0.79895661228E+03  0.00000000000E+00 0.  1.
</event>
<event>
 5    1  0.1008363E-004  0.2530819E+03  0.7818608E-02  0.1028808E+00
         21   -1    0    0  501  502  0.00000000000E+00  0.00000000000E+00  0.64293861850E+02  0.64293861850E+02  0.00000000000E+00 0.  1.
          4   -1    0    0  502    0 -0.00000000000E+00 -0.00000000000E+00 -0.24552452241E+04  0.24552452241E+04  0.00000000000E+00 0.  1.
        -13    1    1    2    0    0  0.28926761464E+03  0.34634669213E+02 -0.13589176044E+04  0.13897958051E+04  0.10566000000E+00 0.  1.
         13    1    1    2    0    0 -0.20933112074E+03 -0.85640331310E+02 -0.10064213152E+04  0.10315220110E+04  0.10566000000E+00 0. -1.
          4    1    1    2  501    0 -0.79936493899E+02  0.51005662097E+02 -0.25612442686E+02  0.98221269810E+02  0.00000000000E+00 0.  1.
</event>
<event>
 5    1  0.1008363E-004  0.4774584E+03  0.7818608E-02  0.9704688E-01
         -4   -1    0    0    0  501 -0.00000000000E+00  0.00000000000E+00  0.13012339555E+04  0.13012339555E+04  0.00000000000E+00 0. -1.
         21   -1    0    0  501  502  0.00000000000E+00 -0.00000000000E+00 -0.38070364700E+03  0.38070364700E+03  0.00000000000E+00 0. -1.
        -13    1    1    2    0    0 -0.25565084552E+03 -0.12323126311E+02  0.50254498840E+03  0.56396869664E+03  0.10566000000E+00 0.  1.
         13    1    1    2    0    0  0.62157463944E+03 -0.13982574166E+03  0.30192825924E+03  0.70502975492E+03  0.10566000000E+00 0. -1.
         -4    1    1    2    0  502 -0.36592379392E+03  0.15214886798E+03  0.11605706081E+03  0.41293915090E+03  0.00000000000E+00 0. -1.
</event>
<event>
 5    1  0.1008363E-004  0.3707768E+03  0.7818608E-02  0.1004664E+00
         21   -1    0    0  501  502  0.00000000000E+00  0.00000000000E+00  0.12320001135E+03  0.12320001135E+03  0.00000000000E+00 0. -1.
         -4   -1    0    0    0  501 -0.00000000000E+00 -0.00000000000E+00 -0.29259486954E+04  0.29259486954E+04  0.00000000000E+00 0. -1.
        -13    1    1    2    0    0  0.12412353324E+03 -0.12065238659E+03 -0.46008607622E+03  0.49157182445E+03  0.10566000000E+00 0.  1.
         13    1    1    2    0    0  0.69159037357E+02  0.42907039005E+03 -0.20352929268E+04  0.20811779552E+04  0.10566000000E+00 0. -1.
         -4    1    1    2    0  502 -0.19328257060E+03 -0.30841800346E+03 -0.30736968103E+03  0.47639892713E+03  0.00000000000E+00 0. -1.
</event>
<event>
 5    1  0.1008363E-004  0.1992462E+03  0.7818608E-02  0.1075530E+00
          4   -1    0    0  502    0 -0.00000000000E+00  0.00000000000E+00  0.71317736827E+03  0.71317736827E+03  0.00000000000E+00 0.  1.
         21   -1    0    0  501  502  0.00000000000E+00 -0.00000000000E+00 -0.78813468399E+03  0.78813468399E+03  0.00000000000E+00 0.  1.
        -13    1    1    2    0    0  0.18317674906E+03 -0.70832002129E+02 -0.70220492981E+03  0.72915202018E+03  0.10566000000E+00 0.  1.
         13    1    1    2    0    0  0.85643603262E+02 -0.97724904120E+02  0.14300074099E+03  0.19322061679E+03  0.10566000000E+00 0. -1.
          4    1    1    2  501    0 -0.26882035232E+03  0.16855690625E+03  0.48424687310E+03  0.57893941529E+03  0.00000000000E+00 0.  1.
</event>
<event>
 5    1  0.1008363E-004  0.4593280E+03  0.7818608E-02  0.9635040E-01
          4   -1    0    0  502    0 -0.00000000000E+00  0.00000000000E+00  0.18203915334E+04  0.18203915334E+04  0.00000000000E+00 0.  1.
         21   -1    0    0  501  502  0.00000000000E+00 -0.00000000000E+00 -0.27184610477E+03  0.27184610477E+03  0.00000000000E+00 0.  1.
        -13    1    1    2    0    0 -0.20653193628E+03 -0.38402957523E+03  0.85656408079E+03  0.96116397718E+03  0.10566000000E+00 0.  1.
         13    1    1    2    0    0  0.34932208532E+03 -0.11234523878E+03  0.37703562994E+03  0.52612094558E+03  0.10566000000E+00 0. -1.
          4    1    1    2  501    0 -0.14279014905E+03  0.49637481402E+03  0.31494571788E+03  0.60495271539E+03  0.00000000000E+00 0.  1.
</event>
<event>
 5    1  0.1008363E-004  0.1921104E+03  0.7818608E-02  0.1065683E+00
         21   -1    0    0  501  502  0.00000000000E+00  0.00000000000E+00  0.60469447429E+03  0.60469447429E+03  0.00000000000E+00 0. -1.
         -4   -1    0    0    0  501 -0.00000000000E+00 -0.00000000000E+00 -0.27404588737E+03  0.27404588737E+03  0.00000000000E+00 0. -1.
        -13    1    1    2    0    0 -0.18281406773E+03  0.13899253871E+02  0.48994539578E+02  0.18977525838E+03  0.10566000000E+00 0.  1.
         13    1    1    2    0    0  0.19556076779E+03 -0.51324703960E+01 -0.15650821373E+03  0.25052981515E+03  0.10566000000E+00 0. -1.
         -4    1    1    2    0  502 -0.12746700059E+02 -0.87667834749E+01  0.43816226107E+03  0.43843528813E+03  0.00000000000E+00 0. -1.
</event>
<event>
 5    1  0.1008363E-004  0.2147822E+02  0.7818608E-02  0.1541981E+00
         21   -1    0    0  501  502  0.00000000000E+00  0.00000000000E+00  0.10387138036E+03  0.10387138036E+03  0.00000000000E+00 0. -1.
         -4   -1    0    0    0  501 -0.00000000000E+00 -0.00000000000E+00 -0.87574117680E+02  0.87574117680E+02  0.00000000000E+00 0. -1.
        -13    1    1    2    0    0 -0.16715184208E+02  0.39815084751E+02  0.30914339247E+02  0.53106928851E+02  0.10566000000E+00 0.  1.
         13    1    1    2    0    0 -0.11379194304E+01 -0.14401642483E+02 -0.71814416288E+02  0.73253148175E+02  0.10566000000E+00 0. -1.
         -4    1    1    2    0  502  0.17853103639E+02 -0.25413442268E+02  0.57197339722E+02  0.65085421015E+02  0.00000000000E+00 0. -1.
</event>
<event>
 5    1  0.1008363E-004  0.4956332E+03  0.7818608E-02  0.9971778E-01
         21   -1    0    0  501  502  0.00000000000E+00  0.00000000000E+00  0.12513213479E+04  0.12513213479E+04  0.00000000000E+00 0. -1.
         -4   -1    0    0    0  501 -0.00000000000E+00 -0.00000000000E+00 -0.48725840844E+03  0.48725840844E+03  0.00000000000E+00 0. -1.
        -13    1    1    2    0    0  0.83563709801E+02 -0.39847344043E+02 -0.27348739360E+03  0.28873183068E+03  0.10566000000E+00 0.  1.
         13    1    1    2    0    0 -0.51737917789E+03  0.18700749248E+03  0.49805101263E+03  0.74209691975E+03  0.10566000000E+00 0. -1.
         -4    1    1    2    0  502  0.43381546808E+03 -0.14716014844E+03  0.53949932044E+03  0.70775100593E+03  0.00000000000E+00 0. -1.
</event>
<event>
 5    1  0.1008363E-004  0.7141191E+02  0.7818608E-02  0.1223071E+00
         -4   -1    0    0    0  501 -0.00000000000E+00  0.00000000000E+00  0.47874608338E+03  0.47874608338E+03  0.00000000000E+00 0. -1.
         21   -1    0    0  501  502  0.00000000000E+00 -0.00000000000E+00 -0.55448269248E+02  0.55448269248E+02  0.00000000000E+00 0. -1.
        -13    1    1    2    0    0 -0.91889353887E+01  0.75799507453E+02  0.20694421935E+03  0.22058087621E+03  0.10566000000E+00 0.  1.
         13    1    1    2    0    0  0.15514601710E+02 -0.66590776514E+02  0.25985521420E+03  0.26870016356E+03  0.10566000000E+00 0. -1.
         -4    1    1    2    0  502 -0.63256663216E+01 -0.92087309386E+01 -0.43501619420E+02  0.44913312860E+02  0.00000000000E+00 0. -1.
</event>
<event>
 5    1  0.1008363E-004  0.5998080E+02  0.7818608E-02  0.1255763E+00
         21   -1    0    0  501  502  0.00000000000E+00  0.00000000000E+00  0.84049671238E+03  0.84049671238E+03  0.00000000000E+00 0. -1.
          4   -1    0    0  502    0 -0.00000000000E+00 -0.00000000000E+00 -0.10892007025E+02  0.10892007025E+02  0.00000000000E+00 0.  1.
        -13    1    1    2    0    0 -0.29082349267E+02 -0.52497896337E+02  0.12783375813E+03  0.14122072454E+03  0.10566000000E+00 0.  1.
         13    1    1    2    0    0  0.16526032551E+02  0.58654359098E+02  0.22252547318E+03  0.23071853192E+03  0.10566000000E+00 0. -1.
          4    1    1    2  501    0  0.12556316716E+02 -0.61564627609E+01  0.47924547404E+03  0.47944946294E+03  0.00000000000E+00 0.  1.
</event>
<event>
 5    1  0.1008363E-004  0.2331149E+03  0.7818608E-02  0.1094710E+00
         21   -1    0    0  501  502  0.00000000000E+00  0.00000000000E+00  0.12982008693E+03  0.12982008693E+03  0.00000000000E+00 0.  1.
          4   -1    0    0  502    0 -0.00000000000E+00 -0.00000000000E+00 -0.12207068184E+04  0.12207068184E+04  0.00000000000E+00 0.  1.
        -13    1    1    2    0    0 -0.12591869743E+03 -0.23969561304E+03 -0.94414635079E+03  0.98220254945E+03  0.10566000000E+00 0.  1.
         13    1    1    2    0    0  0.37733921210E+02  0.28956280599E+02 -0.13096445075E+03  0.13933417930E+03  0.10566000000E+00 0. -1.
          4    1    1    2  501    0  0.88184776217E+02  0.21073933245E+03 -0.15775929917E+02  0.22899017656E+03  0.00000000000E+00 0.  1.
</event>
<event>
 5    1  0.1008363E-004  0.1953363E+03  0.7818608E-02  0.1063381E+00
         -4   -1    0    0    0  501 -0.00000000000E+00  0.00000000000E+00  0.30945181420E+03  0.30945181420E+03  0.00000000000E+00 0. -1.
         21   -1    0    0  501  502  0.00000000000E+00 -0.00000000000E+00 -0.18826125516E+03  0.18826125516E+03  0.00000000000E+00 0.  1.
        -13    1    1    2    0    0 -0.68205169836E+02 -0.14718797684E+03  0.19940231686E+01  0.16223511646E+03  0.10566000000E+00 0.  1.
         13    1    1    2    0    0  0.40356314449E+02  0.22367200103E+03  0.11305875191E+03  0.25385052434E+03  0.10566000000E+00 0. -1.
         -4    1    1    2    0  502  0.27848855387E+02 -0.76484024187E+02  0.61377839529E+01  0.81627428565E+02  0.00000000000E+00 0. -1.
</event>
<event>
 5    1  0.1008363E-004  0.4802279E+03  0.7818608E-02  0.9953542E-01
         -4   -1    0    0    0  501 -0.00000000000E+00  0.00000000000E+00  0.38148444179E+03  0.38148444179E+03  0.00000000000E+00 0. -1.
         21   -1    0    0  501  502  0.00000000000E+00 -0.00000000000E+00 -0.10880800019E+04  0.10880800019E+04  0.00000000000E+00 0. -1.
        -13    1    1    2    0    0 -0.10789612139E+03 -0.65459285439E+01  0.13880068935E+03  0.17592630480E+03  0.10566000000E+00 0.  1.
         13    1    1    2    0    0  0.52813868770E+03  0.12186670710E+03 -0.43423375217E+03  0.69450768925E+03  0.10566000000E+00 0. -1.
         -4    1    1    2    0  502 -0.42024256631E+03 -0.11532077856E+03 -0.41116249730E+03  0.59913044964E+03  0.00000000000E+00 0. -1.
</event>
<event>
 5    1  0.1008363E-004  0.1473411E+03  0.7818608E-02  0.1103764E+00
          4   -1    0    0  502    0 -0.00000000000E+00  0.00000000000E+00  0.13233935922E+03  0.13233935922E+03  0.00000000000E+00 0.  1.
         21   -1    0    0  501  502  0.00000000000E+00 -0.00000000000E+00 -0.61188413383E+03  0.61188413383E+03  0.00000000000E+00 0.  1.
        -13    1    1    2    0    0 -0.56557669581E+02 -0.12727143083E+03  0.41384652591E+02  0.14529104490E+03  0.10566000000E+00 0.  1.
         13    1    1    2    0    0  0.92867444971E+02  0.15784785084E+03 -0.18735199722E+03  0.26199444341E+03  0.10566000000E+00 0. -1.
          4    1    1    2  501    0 -0.36309775390E+02 -0.30576420013E+02 -0.33357742998E+03  0.33693800475E+03  0.00000000000E+00 0.  1.
</event>
<event>
 5    1  0.1008363E-004  0.3259000E+03  0.7818608E-02  0.9971535E-01
         21   -1    0    0  501  502  0.00000000000E+00  0.00000000000E+00  0.38640545328E+02  0.38640545328E+02  0.00000000000E+00 0. -1.
          4   -1    0    0  502    0 -0.00000000000E+00 -0.00000000000E+00 -0.32258427018E+04  0.32258427018E+04  0.00000000000E+00 0.  1.
        -13    1    1    2    0    0 -0.15782896258E+03  0.28090660443E+03 -0.16475961098E+04  0.16788065564E+04  0.10566000000E+00 0.  1.
         13    1    1    2    0    0  0.16716475216E+03 -0.28460446856E+03 -0.15406234362E+04  0.15755838096E+04  0.10566000000E+00 0. -1.
          4    1    1    2  501    0 -0.93357895840E+01  0.36978641360E+01  0.10173895011E+01  0.10092881042E+02  0.00000000000E+00 0.  1.
</event>
<event>
 5    1  0.1008363E-004  0.3794175E+03  0.7818608E-02  0.1007809E+00
         21   -1    0    0  501  502  0.00000000000E+00  0.00000000000E+00  0.26433508919E+03  0.26433508919E+03  0.00000000000E+00 0. -1.
         -4   -1    0    0    0  501 -0.00000000000E+00 -0.00000000000E+00 -0.13328986599E+04  0.13328986599E+04  0.00000000000E+00 0. -1.
        -13    1    1    2    0    0 -0.10999745184E+03  0.95857243907E+02 -0.28742129612E+03  0.32233377615E+03  0.10566000000E+00 0.  1.
         13    1    1    2    0    0  0.29428414119E+03 -0.27829532568E+03  0.46397829826E+02  0.40768151028E+03  0.10566000000E+00 0. -1.
         -4    1    1    2    0  502 -0.18428668935E+03  0.18243808177E+03 -0.82754010442E+03  0.86721846266E+03  0.00000000000E+00 0. -1.
</event>
<event>
 5    1  0.1008363E-004  0.4084645E+03  0.7818608E-02  0.9704913E-01
         21   -1    0    0  501  502  0.00000000000E+00  0.00000000000E+00  0.94494454847E+03  0.94494454847E+03  0.00000000000E+00 0.  1.
          4   -1    0    0  502    0 -0.00000000000E+00 -0.00000000000E+00 -0.14776578940E+04  0.14776578940E+04  0.00000000000E+00 0.  1.
        -13    1    1    2    0    0  0.40436558089E+03 -0.21507826145E+02 -0.13276450537E+04  0.13880257596E+04  0.10566000000E+00 0.  1.
         13    1    1    2    0    0 -0.45922272472E+03  0.58204026308E+02  0.33865343109E+03  0.57354980353E+03  0.10566000000E+00 0. -1.
          4    1    1    2  501    0  0.54857143827E+02 -0.36696200163E+02  0.45627827707E+03  0.46102687933E+03  0.00000000000E+00 0.  1.
</event>
<event>
 5    1  0.1008363E-004  0.4582017E+03  0.7818608E-02  0.9754268E-01
         21   -1    0    0  501  502  0.00000000000E+00  0.00000000000E+00  0.16951370601E+03  0.16951370601E+03  0.00000000000E+00 0. -1.
         -4   -1    0    0    0  501 -0.00000000000E+00 -0.00000000000E+00 -0.24600496456E+04  0.24600496456E+04  0.00000000000E+00 0. -1.
        -13    1    1    2    0    0 -0.23987194866E+03 -0.44215957455E+02 -0.50561046628E+03  0.56136935917E+03  0.10566000000E+00 0.  1.
         13    1    1    2    0    0  0.27938445289E+03 -0.41371812523E+03 -0.13337888554E+04  0.14241527592E+04  0.10566000000E+00 0. -1.
         -4    1    1    2    0  502 -0.39512504230E+02  0.45793408269E+03 -0.45113661798E+03  0.64404123328E+03  0.00000000000E+00 0. -1.
</event>
<event>
 5    1  0.1008363E-004  0.5836185E+03  0.7818608E-02  0.9311422E-01
         21   -1    0    0  501  502  0.00000000000E+00  0.00000000000E+00  0.26212807146E+04  0.26212807146E+04  0.00000000000E+00 0.  1.
         -4   -1    0    0    0  501 -0.00000000000E+00 -0.00000000000E+00 -0.32766714441E+03  0.32766714441E+03  0.00000000000E+00 0. -1.
        -13    1    1    2    0    0  0.48303693150E+03  0.33799971881E+03  0.36113894962E+03  0.69136809242E+03  0.10566000000E+00 0.  1.
         13    1    1    2    0    0 -0.64877869447E+03 -0.10563658334E+02  0.17086754266E+04  0.18277300429E+04  0.10566000000E+00 0. -1.
         -4    1    1    2    0  502  0.16574176296E+03 -0.32743606048E+03  0.22379919398E+03  0.42984972364E+03  0.00000000000E+00 0. -1.
</event>
<event>
 5    1  0.1008363E-004  0.4319998E+03  0.7818608E-02  0.9886206E-01
         -4   -1    0    0    0  501 -0.00000000000E+00  0.00000000000E+00  0.10421319852E+04  0.10421319852E+04  0.00000000000E+00 0. -1.
         21   -1    0    0  501  502  0.00000000000E+00 -0.00000000000E+00 -0.35373821039E+03  0.35373821039E+03  0.00000000000E+00 0. -1.
        -13    1    1    2    0    0 -0.79606140237E+02  0.16792339734E+03  0.13197754886E+03  0.22793308120E+03  0.10566000000E+00 0.  1.
         13    1    1    2    0    0  0.46199170265E+03 -0.28667748063E+03  0.54134619280E+03  0.76725225502E+03  0.10566000000E+00 0. -1.
         -4    1    1    2    0  502 -0.38238556241E+03  0.11875408329E+03  0.15070033150E+02  0.40068485938E+03  0.00000000000E+00 0. -1.
</event>
<event>
 5    1  0.1008363E-004  0.4558505E+03  0.7818608E-02  0.9908968E-01
         -4   -1    0    0    0  501 -0.00000000000E+00  0.00000000000E+00  0.23470404293E+04  0.23470404293E+04  0.00000000000E+00 0. -1.
         21   -1    0    0  501  502  0.00000000000E+00 -0.00000000000E+00 -0.12547416987E+03  0.12547416987E+03  0.00000000000E+00 0. -1.
        -13    1    1    2    0    0 -0.12407985454E+03  0.78008020005E+02  0.30550393272E+03  0.33884174117E+03  0.10566000000E+00 0.  1.
         13    1    1    2    0    0 -0.26838752844E+03  0.25556885946E+03  0.11683535723E+04  0.12257232104E+04  0.10566000000E+00 0. -1.
         -4    1    1    2    0  502  0.39246738298E+03 -0.33357687946E+03  0.74770875441E+03  0.90794964764E+03  0.00000000000E+00 0. -1.
</event>
<event>
 5    1  0.1008363E-004  0.4363267E+03  0.7818608E-02  0.9629644E-01
         21   -1    0    0  501  502  0.00000000000E+00  0.00000000000E+00  0.43288488797E+03  0.43288488797E+03  0.00000000000E+00 0.  1.
          4   -1    0    0  502    0 -0.00000000000E+00 -0.00000000000E+00 -0.21464306178E+04  0.21464306178E+04  0.00000000000E+00 0.  1.
        -13    1    1    2    0    0  0.34621831225E+03  0.25079616714E+03 -0.56851071365E+03  0.71131587912E+03  0.10566000000E+00 0.  1.
         13    1    1    2    0    0 -0.40855232171E+03 -0.17343647955E+03 -0.14661545474E+04  0.15318630422E+04  0.10566000000E+00 0. -1.
          4    1    1    2  501    0  0.62334009452E+02 -0.77359687585E+02  0.32111953128E+03  0.33613658439E+03  0.00000000000E+00 0.  1.
</event>
<event>
 5    1  0.1008363E-004  0.4518970E+03  0.7818608E-02  0.9946453E-01
         -4   -1    0    0    0  501 -0.00000000000E+00  0.00000000000E+00  0.81118140840E+03  0.81118140840E+03  0.00000000000E+00 0. -1.
         21   -1    0    0  501  502  0.00000000000E+00 -0.00000000000E+00 -0.48431379581E+03  0.48431379581E+03  0.00000000000E+00 0. -1.
        -13    1    1    2    0    0  0.13265902841E+03 -0.62814158343E+01  0.23993339210E+03  0.27423697383E+03  0.10566000000E+00 0.  1.
         13    1    1    2    0    0  0.37715017133E+03 -0.17938466029E+03 -0.12929372480E+03  0.43719330567E+03  0.10566000000E+00 0. -1.
         -4    1    1    2    0  502 -0.50980919974E+03  0.18566607613E+03  0.21622794528E+03  0.58406492472E+03  0.00000000000E+00 0. -1.
</event>
<event>
 5    1  0.1008363E-004  0.4682484E+03  0.7818608E-02  0.9950142E-01
         -4   -1    0    0    0  501 -0.00000000000E+00  0.00000000000E+00  0.12120973247E+04  0.12120973247E+04  0.00000000000E+00 0. -1.
         21   -1    0    0  501  502  0.00000000000E+00 -0.00000000000E+00 -0.27327284905E+03  0.27327284905E+03  0.00000000000E+00 0. -1.
        -13    1    1    2    0    0  0.62009979136E+02 -0.10030463341E+03  0.16947137171E+03  0.20646262129E+03  0.10566000000E+00 0.  1.
         13    1    1    2    0    0  0.32520624043E+03  0.34822335100E+03  0.13457146778E+03  0.49510412248E+03  0.10566000000E+00 0. -1.
         -4    1    1    2    0  502 -0.38721621956E+03 -0.24791871759E+03  0.63478163616E+03  0.78380342997E+03  0.00000000000E+00 0. -1.
</event>
<event>
 5    1  0.1008363E-004  0.3216636E+03  0.7818608E-02  0.9987437E-01
         21   -1    0    0  501  502  0.00000000000E+00  0.00000000000E+00  0.10450814816E+04  0.10450814816E+04  0.00000000000E+00 0.  1.
         -4   -1    0    0    0  501 -0.00000000000E+00 -0.00000000000E+00 -0.15437905171E+03  0.15437905171E+03  0.00000000000E+00 0. -1.
        -13    1    1    2    0    0  0.16547960756E+03 -0.27671256180E+03  0.74905383250E+03  0.81549677959E+03  0.10566000000E+00 0.  1.
         13    1    1    2    0    0 -0.15636353220E+03  0.28090294144E+03  0.93542697988E+02  0.33482273552E+03  0.10566000000E+00 0. -1.
         -4    1    1    2    0  502 -0.91160753656E+01 -0.41903796447E+01  0.48105899424E+02  0.49141018213E+02  0.00000000000E+00 0. -1.
</event>
<event>
 5    1  0.1008363E-004  0.4331056E+03  0.7818608E-02  0.1062830E+00
         -4   -1    0    0    0  501 -0.00000000000E+00  0.00000000000E+00  0.57775652398E+03  0.57775652398E+03  0.00000000000E+00 0. -1.
         21   -1    0    0  501  502  0.00000000000E+00 -0.00000000000E+00 -0.47282165032E+03  0.47282165032E+03  0.00000000000E+00 0. -1.
        -13    1    1    2    0    0  0.15528174324E+02 -0.95103934197E+01  0.63931531583E+02  0.66474233169E+02  0.10566000000E+00 0.  1.
         13    1    1    2    0    0 -0.13604820965E+03 -0.40778779000E+03  0.25507448408E+03  0.49986298185E+03  0.10566000000E+00 0. -1.
         -4    1    1    2    0  502  0.12052003533E+03  0.41729818342E+03 -0.21407114200E+03  0.48424095928E+03  0.00000000000E+00 0. -1.
</event>
<event>
 5    1  0.1008363E-004  0.1362825E+03  0.7818608E-02  0.1115488E+00
          4   -1    0    0  502    0 -0.00000000000E+00  0.00000000000E+00  0.32381158109E+03  0.32381158109E+03  0.00000000000E+00 0.  1.
         21   -1    0    0  501  502  0.00000000000E+00 -0.00000000000E+00 -0.11486273222E+03  0.11486273222E+03  0.00000000000E+00 0. -1.
        -13    1    1    2    0    0  0.11738016428E+03  0.73360798455E+02  0.23547734035E+03  0.27314739373E+03  0.10566000000E+00 0.  1.
         13    1    1    2    0    0 -0.98726051779E+02 -0.84784181971E+02  0.12859989151E+01  0.13014167576E+03  0.10566000000E+00 0. -1.
          4    1    1    2  501    0 -0.18654112497E+02  0.11423383516E+02 -0.27814490397E+02  0.35385243818E+02  0.00000000000E+00 0.  1.
</event>
<event>
 5    1  0.1008363E-004  0.3926310E+03  0.7818608E-02  0.9984983E-01
          4   -1    0    0  502    0 -0.00000000000E+00  0.00000000000E+00  0.24636308329E+03  0.24636308329E+03  0.00000000000E+00 0.  1.
         21   -1    0    0  501  502  0.00000000000E+00 -0.00000000000E+00 -0.18864953060E+04  0.18864953060E+04  0.00000000000E+00 0.  1.
        -13    1    1    2    0    0  0.36981497849E+03 -0.26403309725E+02 -0.12403613720E+04  0.12945874237E+04  0.10566000000E+00 0.  1.
         13    1    1    2    0    0  0.10040303629E+03 -0.14734587560E+03  0.26478210583E+02  0.18025727045E+03  0.10566000000E+00 0. -1.
          4    1    1    2  501    0 -0.47021801478E+03  0.17374918532E+03 -0.42624906124E+03  0.65801369517E+03  0.00000000000E+00 0.  1.
</event>
<event>
 5    1  0.1008363E-004  0.4834282E+03  0.7818608E-02  0.9576625E-01
         -4   -1    0    0    0  501 -0.00000000000E+00  0.00000000000E+00  0.74249402726E+03  0.74249402726E+03  0.00000000000E+00 0. -1.
         21   -1    0    0  501  502  0.00000000000E+00 -0.00000000000E+00 -0.84955997469E+03  0.84955997469E+03  0.00000000000E+00 0. -1.
        -13    1    1    2    0    0  0.38184805343E+03 -0.65079441044E+02  0.25863466372E+03  0.46576299767E+03  0.10566000000E+00 0.  1.
         13    1    1    2    0    0  0.48327997173E+02  0.43234596769E+03  0.29872914392E+02  0.43606310698E+03  0.10566000000E+00 0. -1.
         -4    1    1    2    0  502 -0.43017605060E+03 -0.36726652665E+03 -0.39557352554E+03  0.69022789730E+03  0.00000000000E+00 0. -1.
</event>
<event>
 5    1  0.1008363E-004  0.4675351E+03  0.7818608E-02  0.9982547E-01
         21   -1    0    0  501  502  0.00000000000E+00  0.00000000000E+00  0.66282699783E+03  0.66282699783E+03  0.00000000000E+00 0. -1.
         -4   -1    0    0    0  501 -0.00000000000E+00 -0.00000000000E+00 -0.46189101342E+03  0.46189101342E+03  0.00000000000E+00 0. -1.
        -13    1    1    2    0    0  0.95788712729E+02 -0.46434690067E+02 -0.73582362606E+01  0.10670432387E+03  0.10566000000E+00 0.  1.
         13    1    1    2    0    0 -0.47212567497E+03 -0.19670323895E+03 -0.26547353343E+02  0.51215192112E+03  0.10566000000E+00 0. -1.
         -4    1    1    2    0  502  0.37633696224E+03  0.24313792902E+03  0.23484157401E+03  0.50586176625E+03  0.00000000000E+00 0. -1.
</event>
<event>
 5    1  0.1008363E-004  0.1777473E+03  0.7818608E-02  0.1131027E+00
         21   -1    0    0  501  502  0.00000000000E+00  0.00000000000E+00  0.15289993685E+03  0.15289993685E+03  0.00000000000E+00 0. -1.
         -4   -1    0    0    0  501 -0.00000000000E+00 -0.00000000000E+00 -0.38017962974E+03  0.38017962974E+03  0.00000000000E+00 0. -1.
        -13    1    1    2    0    0 -0.24184829934E+00  0.41017982628E+02 -0.16268008355E+03  0.16777173224E+03  0.10566000000E+00 0.  1.
         13    1    1    2    0    0  0.17501123977E+03  0.13169976106E+02 -0.17570204308E+02  0.17638340500E+03  0.10566000000E+00 0. -1.
         -4    1    1    2    0  502 -0.17476939147E+03 -0.54187958734E+02 -0.47029405034E+02  0.18892442935E+03  0.00000000000E+00 0. -1.
</event>
<event>
 5    1  0.1008363E-004  0.4404916E+03  0.7818608E-02  0.1013328E+00
         -4   -1    0    0    0  501 -0.00000000000E+00  0.00000000000E+00  0.16256586428E+04  0.16256586428E+04  0.00000000000E+00 0. -1.
         21   -1    0    0  501  502  0.00000000000E+00 -0.00000000000E+00 -0.17475036180E+03  0.17475036180E+03  0.00000000000E+00 0. -1.
        -13    1    1    2    0    0 -0.99213867347E+01 -0.77470712517E+02  0.24041086690E+03  0.25277962992E+03  0.10566000000E+00 0.  1.
         13    1    1    2    0    0 -0.36668363165E+03  0.26279842923E+03  0.29095298143E+03  0.53681798470E+03  0.10566000000E+00 0. -1.
         -4    1    1    2    0  502  0.37660501839E+03 -0.18532771671E+03  0.91954443266E+03  0.10108113900E+04  0.00000000000E+00 0. -1.
</event>
<event>
 5    1  0.1008363E-004  0.4584920E+03  0.7818608E-02  0.1038345E+00
         -4   -1    0    0    0  501 -0.00000000000E+00  0.00000000000E+00  0.15212309892E+04  0.15212309892E+04  0.00000000000E+00 0. -1.
         21   -1    0    0  501  502  0.00000000000E+00 -0.00000000000E+00 -0.17423138742E+03  0.17423138742E+03  0.00000000000E+00 0. -1.
        -13    1    1    2    0    0 -0.24296998055E+02 -0.20463850893E+02  0.71011376990E+02  0.77792931130E+02  0.10566000000E+00 0.  1.
         13    1    1    2    0    0 -0.36450127152E+03  0.26873431979E+03  0.95119525612E+03  0.10534950109E+04  0.10566000000E+00 0. -1.
         -4    1    1    2    0  502  0.38879826958E+03 -0.24827046889E+03  0.32479296871E+03  0.56417443462E+03  0.00000000000E+00 0. -1.
</event>
<event>
 5    1  0.1008363E-004  0.5849677E+03  0.7818608E-02  0.9308979E-01
         21   -1    0    0  501  502  0.00000000000E+00  0.00000000000E+00  0.22206979416E+03  0.22206979416E+03  0.00000000000E+00 0. -1.
          4   -1    0    0  502    0 -0.00000000000E+00 -0.00000000000E+00 -0.23240221742E+04  0.23240221742E+04  0.00000000000E+00 0.  1.
        -13    1    1    2    0    0 -0.35282891721E+03  0.46307390179E+03 -0.17126710176E+04  0.18089134056E+04  0.10566000000E+00 0.  1.
         13    1    1    2    0    0  0.36677258136E+03 -0.46745119900E+03 -0.40234591823E+03  0.71757577925E+03  0.10566000000E+00 0. -1.
          4    1    1    2  501    0 -0.13943664149E+02  0.43772972117E+01  0.13064555814E+02  0.19602783460E+02  0.00000000000E+00 0.  1.
</event>
<event>
 5    1  0.1008363E-004  0.3459704E+03  0.7818608E-02  0.9899558E-01
         21   -1    0    0  501  502  0.00000000000E+00  0.00000000000E+00  0.22147814770E+03  0.22147814770E+03  0.00000000000E+00 0. -1.
          4   -1    0    0  502    0 -0.00000000000E+00 -0.00000000000E+00 -0.11720149067E+04  0.11720149067E+04  0.00000000000E+00 0.  1.
        -13    1    1    2    0    0 -0.17642276699E+03 -0.30585280325E+03 -0.96235386006E+03  0.10250833591E+04  0.10566000000E+00 0.  1.
         13    1    1    2    0    0  0.15567150191E+03  0.27172070605E+03 -0.24913666388E+02  0.31414401242E+03  0.10566000000E+00 0. -1.
          4    1    1    2  501    0  0.20751265078E+02  0.34132097206E+02  0.36730767442E+02  0.54265682885E+02  0.00000000000E+00 0.  1.
</event>
<event>
 5    1  0.1008363E-004  0.1216483E+03  0.7818608E-02  0.1133004E+00
          4   -1    0    0  502    0 -0.00000000000E+00  0.00000000000E+00  0.11191061480E+04  0.11191061480E+04  0.00000000000E+00 0.  1.
         21   -1    0    0  501  502  0.00000000000E+00 -0.00000000000E+00 -0.21422009072E+02  0.21422009072E+02  0.00000000000E+00 0. -1.
        -13    1    1    2    0    0 -0.30837217067E+02 -0.11293670746E+03  0.63631606755E+03  0.64699596818E+03  0.10566000000E+00 0.  1.
         13    1    1    2    0    0  0.35368760085E+02  0.12429595744E+03  0.46344662938E+03  0.48112703486E+03  0.10566000000E+00 0. -1.
          4    1    1    2  501    0 -0.45315430181E+01 -0.11359249982E+02 -0.20785580381E+01  0.12405154001E+02  0.00000000000E+00 0.  1.
</event>
<event>
 5    1  0.1008363E-004  0.3646552E+03  0.7818608E-02  0.9837072E-01
          4   -1    0    0  502    0 -0.00000000000E+00  0.00000000000E+00  0.76717333361E+03  0.76717333361E+03  0.00000000000E+00 0.  1.
         21   -1    0    0  501  502  0.00000000000E+00 -0.00000000000E+00 -0.44270144001E+03  0.44270144001E+03  0.00000000000E+00 0. -1.
        -13    1    1    2    0    0  0.35140198039E+03  0.10587983839E+03  0.55483044363E+03  0.66522982821E+03  0.10566000000E+00 0.  1.
         13    1    1    2    0    0 -0.36002280464E+03 -0.31526577589E+02 -0.70615684144E+02  0.36823488559E+03  0.10566000000E+00 0. -1.
          4    1    1    2  501    0  0.86208242550E+01 -0.74353260802E+02 -0.15974286589E+03  0.17641005982E+03  0.00000000000E+00 0.  1.
</event>
<event>
 5    1  0.1008363E-004  0.4246968E+03  0.7818608E-02  0.9660315E-01
          4   -1    0    0  502    0 -0.00000000000E+00  0.00000000000E+00  0.55622471683E+03  0.55622471683E+03  0.00000000000E+00 0.  1.
         21   -1    0    0  501  502  0.00000000000E+00 -0.00000000000E+00 -0.81178615994E+03  0.81178615994E+03  0.00000000000E+00 0. -1.
        -13    1    1    2    0    0 -0.54357768876E+03  0.77494265489E+02  0.23776357787E+03  0.59834237275E+03  0.10566000000E+00 0.  1.
         13    1    1    2    0    0  0.28044023547E+03 -0.29752707370E+02 -0.11095554611E+03  0.30305625491E+03  0.10566000000E+00 0. -1.
          4    1    1    2  501    0  0.26313745329E+03 -0.47741558119E+02 -0.38236947488E+03  0.46661224910E+03  0.00000000000E+00 0.  1.
</event>
<event>
 5    1  0.1008363E-004  0.8902182E+02  0.7818608E-02  0.1190557E+00
          4   -1    0    0  502    0 -0.00000000000E+00  0.00000000000E+00  0.25564602631E+03  0.25564602631E+03  0.00000000000E+00 0.  1.
         21   -1    0    0  501  502  0.00000000000E+00 -0.00000000000E+00 -0.12789711025E+03  0.12789711025E+03  0.00000000000E+00 0.  1.
        -13    1    1    2    0    0  0.44577716168E+02 -0.11621604047E+03  0.14508193167E+03  0.19115993017E+03  0.10566000000E+00 0.  1.
         13    1    1    2    0    0 -0.69340999865E+02  0.32665077462E+02  0.41573028547E+02  0.87198104420E+02  0.10566000000E+00 0. -1.
          4    1    1    2  501    0  0.24763283697E+02  0.83550963004E+02 -0.58906044157E+02  0.10518510197E+03  0.00000000000E+00 0.  1.
</event>
<event>
 5    1  0.1008363E-004  0.4526201E+03  0.7818608E-02  0.9745076E-01
         -4   -1    0    0    0  501 -0.00000000000E+00  0.00000000000E+00  0.21782191904E+04  0.21782191904E+04  0.00000000000E+00 0. -1.
         21   -1    0    0  501  502  0.00000000000E+00 -0.00000000000E+00 -0.22969135097E+03  0.22969135097E+03  0.00000000000E+00 0. -1.
        -13    1    1    2    0    0 -0.21501240914E+03 -0.14830403171E+03  0.26363152313E+03  0.37111455516E+03  0.10566000000E+00 0.  1.
         13    1    1    2    0    0 -0.11076531539E+03  0.47225341577E+03  0.14329394548E+04  0.15128145082E+04  0.10566000000E+00 0. -1.
         -4    1    1    2    0  502  0.32577772453E+03 -0.32394938406E+03  0.25195686142E+03  0.52398147797E+03  0.00000000000E+00 0. -1.
</event>
<event>
 5    1  0.1008363E-004  0.9939335E+02  0.7818608E-02  0.1165563E+00
          4   -1    0    0  502    0 -0.00000000000E+00  0.00000000000E+00  0.56534891928E+02  0.56534891928E+02  0.00000000000E+00 0.  1.
         21   -1    0    0  501  502  0.00000000000E+00 -0.00000000000E+00 -0.26485901725E+03  0.26485901725E+03  0.00000000000E+00 0.  1.
        -13    1    1    2    0    0 -0.28769122192E+02  0.10191818796E+03 -0.41943017872E+02  0.11390437806E+03  0.10566000000E+00 0.  1.
         13    1    1    2    0    0  0.48682753502E+02 -0.77124149946E+02 -0.11138472157E+03  0.14396080146E+03  0.10566000000E+00 0. -1.
          4    1    1    2  501    0 -0.19913631310E+02 -0.24794038011E+02 -0.54996385888E+02  0.63528729670E+02  0.00000000000E+00 0.  1.
</event>
<event>
 5    1  0.1008363E-004  0.4666836E+03  0.7818608E-02  0.9738339E-01
          4   -1    0    0  502    0 -0.00000000000E+00  0.00000000000E+00  0.17774855662E+04  0.17774855662E+04  0.00000000000E+00 0.  1.
         21   -1    0    0  501  502  0.00000000000E+00 -0.00000000000E+00 -0.26423317946E+03  0.26423317946E+03  0.00000000000E+00 0.  1.
        -13    1    1    2    0    0  0.55570342502E+03  0.14252884790E+03  0.57521027090E+03  0.81239623090E+03  0.10566000000E+00 0.  1.
         13    1    1    2    0    0 -0.13539110637E+03 -0.20286988930E+03  0.70274330901E+03  0.74386498317E+03  0.10566000000E+00 0. -1.
          4    1    1    2  501    0 -0.42031231865E+03  0.60341041397E+02  0.23529880684E+03  0.48545753160E+03  0.00000000000E+00 0.  1.
</event>
<event>
 5    1  0.1008363E-004  0.4959842E+03  0.7818608E-02  0.9608535E-01
         21   -1    0    0  501  502  0.00000000000E+00  0.00000000000E+00  0.13463005309E+04  0.13463005309E+04  0.00000000000E+00 0. -1.
         -4   -1    0    0    0  501 -0.00000000000E+00 -0.00000000000E+00 -0.49136584933E+03  0.49136584933E+03  0.00000000000E+00 0. -1.
        -13    1    1    2    0    0  0.31619141472E+03 -0.50048855729E+02 -0.17853109476E+03  0.36654503361E+03  0.10566000000E+00 0.  1.
         13    1    1    2    0    0 -0.60272126841E+03  0.20749054605E+03  0.93136650402E+03  0.11286136762E+04  0.10566000000E+00 0. -1.
         -4    1    1    2    0  502  0.28652985369E+03 -0.15744169032E+03  0.10209927233E+03  0.34250767045E+03  0.00000000000E+00 0. -1.
</event>
<event>
 5    1  0.1008363E-004  0.4900009E+03  0.7818608E-02  0.1004350E+00
          4   -1    0    0  502    0 -0.00000000000E+00  0.00000000000E+00  0.15918508075E+04  0.15918508075E+04  0.00000000000E+00 0.  1.
         21   -1    0    0  501  502  0.00000000000E+00 -0.00000000000E+00 -0.20876165816E+03  0.20876165816E+03  0.00000000000E+00 0.  1.
        -13    1    1    2    0    0  0.37237055778E+03 -0.35255367940E+03  0.65586950514E+03  0.83253753555E+03  0.10566000000E+00 0.  1.
         13    1    1    2    0    0  0.14867994181E+02  0.74292955723E+02  0.35543563797E+03  0.36342124928E+03  0.10566000000E+00 0. -1.
          4    1    1    2  501    0 -0.38723855196E+03  0.27826072368E+03  0.37178400624E+03  0.60465368085E+03  0.00000000000E+00 0.  1.
</event>
<event>
 5    1  0.1008363E-004  0.1543635E+03  0.7818608E-02  0.1096886E+00
         21   -1    0    0  501  502  0.00000000000E+00  0.00000000000E+00  0.63599570436E+02  0.63599570436E+02  0.00000000000E+00 0. -1.
          4   -1    0    0  502    0 -0.00000000000E+00 -0.00000000000E+00 -0.10519498612E+04  0.10519498612E+04  0.00000000000E+00 0.  1.
        -13    1    1    2    0    0  0.15351200064E+03 -0.71499499016E+02 -0.49333323640E+03  0.52158969123E+03  0.10566000000E+00 0.  1.
         13    1    1    2    0    0 -0.10372895949E+03  0.10494408524E+03 -0.51101205993E+03  0.53188936314E+03  0.10566000000E+00 0. -1.
          4    1    1    2  501    0 -0.49783041153E+02 -0.33444586223E+02  0.15995005543E+02  0.62070377286E+02  0.00000000000E+00 0.  1.
</event>
<event>
 5    1  0.1008363E-004  0.4373378E+03  0.7818608E-02  0.1006716E+00
         -4   -1    0    0    0  501 -0.00000000000E+00  0.00000000000E+00  0.14003353142E+04  0.14003353142E+04  0.00000000000E+00 0. -1.
         21   -1    0    0  501  502  0.00000000000E+00 -0.00000000000E+00 -0.25230800222E+03  0.25230800222E+03  0.00000000000E+00 0. -1.
        -13    1    1    2    0    0 -0.98467053096E+02  0.67442544462E+01  0.34845066768E+03  0.36215897681E+03  0.10566000000E+00 0.  1.
         13    1    1    2    0    0 -0.26822006556E+02 -0.43067439660E+03  0.72280360593E+03  0.84181050115E+03  0.10566000000E+00 0. -1.
         -4    1    1    2    0  502  0.12528905965E+03  0.42393014216E+03  0.76773038371E+02  0.44867383846E+03  0.00000000000E+00 0. -1.
</event>
<event>
 5    1  0.1008363E-004  0.5043951E+03  0.7818608E-02  0.9606439E-01
         -4   -1    0    0    0  501 -0.00000000000E+00  0.00000000000E+00  0.38686810903E+03  0.38686810903E+03  0.00000000000E+00 0. -1.
         21   -1    0    0  501  502  0.00000000000E+00 -0.00000000000E+00 -0.12702993148E+04  0.12702993148E+04  0.00000000000E+00 0. -1.
        -13    1    1    2    0    0 -0.10623513868E+03  0.28766411534E+03 -0.35258392068E+03  0.46728147859E+03  0.10566000000E+00 0.  1.
         13    1    1    2    0    0  0.13024220653E+03  0.33469568396E+03  0.18205155726E+02  0.35960488328E+03  0.10566000000E+00 0. -1.
         -4    1    1    2    0  502 -0.24007067856E+02 -0.62235979930E+03 -0.54905244085E+03  0.83028106199E+03  0.00000000000E+00 0. -1.
</event>
<event>
 5    1  0.1008363E-004  0.4473885E+03  0.7818608E-02  0.9975032E-01
         21   -1    0    0  501  502  0.00000000000E+00  0.00000000000E+00  0.73212782938E+03  0.73212782938E+03  0.00000000000E+00 0. -1.
         -4   -1    0    0    0  501 -0.00000000000E+00 -0.00000000000E+00 -0.78477426626E+03  0.78477426626E+03  0.00000000000E+00 0. -1.
        -13    1    1    2    0    0  0.10661671671E+03  0.64349641660E+02 -0.43477228980E+03  0.45225540992E+03  0.10566000000E+00 0.  1.
         13    1    1    2    0    0 -0.11932715756E+02 -0.48850532853E+03  0.41341728452E+01  0.48866854642E+03  0.10566000000E+00 0. -1.
         -4    1    1    2    0  502 -0.94684000955E+02  0.42415568687E+03  0.37799168007E+03  0.57597813929E+03  0.00000000000E+00 0. -1.
</event>
<event>
 5    1  0.1008363E-004  0.4643208E+03  0.7818608E-02  0.9661982E-01
         -4   -1    0    0    0  501 -0.00000000000E+00  0.00000000000E+00  0.69710474579E+03  0.69710474579E+03  0.00000000000E+00 0. -1.
         21   -1    0    0  501  502  0.00000000000E+00 -0.00000000000E+00 -0.67281201265E+03  0.67281201265E+03  0.00000000000E+00 0. -1.
        -13    1    1    2    0    0  0.96686457093E+02  0.30828037021E+03  0.18199993616E+03  0.37082212120E+03  0.10566000000E+00 0.  1.
         13    1    1    2    0    0  0.41173231239E+03 -0.16103313839E+03  0.14887813589E+02  0.44235373502E+03  0.10566000000E+00 0. -1.
         -4    1    1    2    0  502 -0.50841876949E+03 -0.14724723183E+03 -0.17259501662E+03  0.55674090222E+03  0.00000000000E+00 0. -1.
</event>
<event>
 5    1  0.1008363E-004  0.2188611E+03  0.7818608E-02  0.1047922E+00
         -4   -1    0    0    0  501 -0.00000000000E+00  0.00000000000E+00  0.81833566200E+03  0.81833566200E+03  0.00000000000E+00 0. -1.
         21   -1    0    0  501  502  0.00000000000E+00 -0.00000000000E+00 -0.68001977687E+02  0.68001977687E+02  0.00000000000E+00 0.  1.
        -13    1    1    2    0    0 -0.10442063773E+02  0.22240910952E+03  0.25885324627E+03  0.34143793428E+03  0.10566000000E+00 0.  1.
         13    1    1    2    0    0 -0.55513114453E+01 -0.21681155161E+03  0.46926128924E+03  0.51695670488E+03  0.10566000000E+00 0. -1.
         -4    1    1    2    0  502  0.15993375218E+02 -0.55975579089E+01  0.22219148805E+02  0.27943000537E+02  0.00000000000E+00 0. -1.
</event>
<event>
 5    1  0.1008363E-004  0.4467585E+02  0.7818608E-02  0.1315128E+00
         21   -1    0    0  501  502  0.00000000000E+00  0.00000000000E+00  0.69166636292E+02  0.69166636292E+02  0.00000000000E+00 0. -1.
          4   -1    0    0  502    0 -0.00000000000E+00 -0.00000000000E+00 -0.21114668394E+03  0.21114668394E+03  0.00000000000E+00 0.  1.
        -13    1    1    2    0    0 -0.17217513179E+02 -0.40339512816E+02 -0.18252035870E+03  0.18771630605E+03  0.10566000000E+00 0.  1.
         13    1    1    2    0    0  0.23535529130E+02  0.48201534380E+02  0.29990116368E+01  0.53724429107E+02  0.10566000000E+00 0. -1.
          4    1    1    2  501    0 -0.63180159516E+01 -0.78620215646E+01  0.37541299413E+02  0.38872585073E+02  0.00000000000E+00 0.  1.
</event>
<event>
 5    1  0.1008363E-004  0.4754942E+02  0.7818608E-02  0.1302101E+00
         21   -1    0    0  501  502  0.00000000000E+00  0.00000000000E+00  0.17288369790E+03  0.17288369790E+03  0.00000000000E+00 0. -1.
          4   -1    0    0  502    0 -0.00000000000E+00 -0.00000000000E+00 -0.11271181477E+03  0.11271181477E+03  0.00000000000E+00 0.  1.
        -13    1    1    2    0    0 -0.46800051699E+02  0.11477726289E+02 -0.10306566999E+03  0.11377401520E+03  0.10566000000E+00 0.  1.
         13    1    1    2    0    0  0.36912671320E+02 -0.36702618970E+00  0.93662619457E+02  0.10067461179E+03  0.10566000000E+00 0. -1.
          4    1    1    2  501    0  0.98873803791E+01 -0.11110700100E+02  0.69574933659E+02  0.71146885674E+02  0.00000000000E+00 0.  1.
</event>
<event>
 5    1  0.1008363E-004  0.2451076E+03  0.7818608E-02  0.1032960E+00
         21   -1    0    0  501  502  0.00000000000E+00  0.00000000000E+00  0.43408608293E+02  0.43408608293E+02  0.00000000000E+00 0. -1.
          4   -1    0    0  502    0 -0.00000000000E+00 -0.00000000000E+00 -0.23940784222E+04  0.23940784222E+04  0.00000000000E+00 0.  1.
        -13    1    1    2    0    0  0.62018674428E+02  0.25216861421E+03 -0.11418982283E+04  0.11710537566E+04  0.10566000000E+00 0.  1.
         13    1    1    2    0    0 -0.85280711588E+02 -0.21864954924E+03 -0.12024584077E+04  0.12251476068E+04  0.10566000000E+00 0. -1.
          4    1    1    2  501    0  0.23262037159E+02 -0.33519064973E+02 -0.63131779706E+01  0.41285667071E+02  0.00000000000E+00 0.  1.
</event>
<event>
 5    1  0.1008363E-004  0.1914082E+03  0.7818608E-02  0.1066191E+00
          4   -1    0    0  502    0 -0.00000000000E+00  0.00000000000E+00  0.17805624521E+04  0.17805624521E+04  0.00000000000E+00 0.  1.
         21   -1    0    0  501  502  0.00000000000E+00 -0.00000000000E+00 -0.24891368731E+02  0.24891368731E+02  0.00000000000E+00 0. -1.
        -13    1    1    2    0    0  0.16306464997E+03 -0.11962079852E+03  0.10307178255E+04  0.10503706310E+04  0.10566000000E+00 0.  1.
         13    1    1    2    0    0 -0.15072415877E+03  0.96273601644E+02  0.67821882821E+03  0.70140371293E+03  0.10566000000E+00 0. -1.
          4    1    1    2  501    0 -0.12340491203E+02  0.23347196871E+02  0.46734429685E+02  0.53679476924E+02  0.00000000000E+00 0.  1.
</event>
<event>
 5    1  0.1008363E-004  0.4254310E+03  0.7818608E-02  0.9658348E-01
         21   -1    0    0  501  502  0.00000000000E+00  0.00000000000E+00  0.52103441528E+03  0.52103441528E+03  0.00000000000E+00 0. -1.
         -4   -1    0    0    0  501 -0.00000000000E+00 -0.00000000000E+00 -0.11130630572E+04  0.11130630572E+04  0.00000000000E+00 0. -1.
        -13    1    1    2    0    0  0.18233295598E+03  0.35571958844E+03 -0.35391604653E+03  0.53388979349E+03  0.10566000000E+00 0.  1.
         13    1    1    2    0    0 -0.69542441893E+02 -0.56214947229E+03  0.20183515218E+03  0.60131989842E+03  0.10566000000E+00 0. -1.
         -4    1    1    2    0  502 -0.11279051408E+03  0.20642988385E+03 -0.43994774758E+03  0.49888778059E+03  0.00000000000E+00 0. -1.
</event>
<event>
 5    1  0.1008363E-004  0.3661393E+03  0.7818608E-02  0.9958958E-01
         21   -1    0    0  501  502  0.00000000000E+00  0.00000000000E+00  0.13761041169E+03  0.13761041169E+03  0.00000000000E+00 0. -1.
         -4   -1    0    0    0  501 -0.00000000000E+00 -0.00000000000E+00 -0.23248741206E+04  0.23248741206E+04  0.00000000000E+00 0. -1.
        -13    1    1    2    0    0  0.11431697269E+03 -0.21053335497E+03 -0.58038630271E+03  0.62788608468E+03  0.10566000000E+00 0.  1.
         13    1    1    2    0    0 -0.59060165315E+02 -0.31339635345E+03 -0.35972985396E+03  0.48074000923E+03  0.10566000000E+00 0. -1.
         -4    1    1    2    0  502 -0.55256807378E+02  0.52392970842E+03 -0.12471475522E+04  0.13538584384E+04  0.00000000000E+00 0. -1.
</event>
<event>
 5    1  0.1008363E-004  0.3344501E+03  0.7818608E-02  0.9940214E-01
          4   -1    0    0  502    0 -0.00000000000E+00  0.00000000000E+00  0.11938827924E+04  0.11938827924E+04  0.00000000000E+00 0.  1.
         21   -1    0    0  501  502  0.00000000000E+00 -0.00000000000E+00 -0.16750207099E+03  0.16750207099E+03  0.00000000000E+00 0. -1.
        -13    1    1    2    0    0  0.27237296496E+03  0.20386453536E+03  0.84546822717E+03  0.91135301345E+03  0.10566000000E+00 0.  1.
         13    1    1    2    0    0 -0.26123713129E+03 -0.18515990963E+03  0.23139204576E+03  0.39505862970E+03  0.10566000000E+00 0. -1.
          4    1    1    2  501    0 -0.11135833669E+02 -0.18704625723E+02 -0.50479551544E+02  0.54973220199E+02  0.00000000000E+00 0.  1.
</event>
<event>
 5    1  0.1008363E-004  0.4100838E+03  0.7818608E-02  0.9955972E-01
         21   -1    0    0  501  502  0.00000000000E+00  0.00000000000E+00  0.13413145977E+03  0.13413145977E+03  0.00000000000E+00 0.  1.
          4   -1    0    0  502    0 -0.00000000000E+00 -0.00000000000E+00 -0.22827734178E+04  0.22827734178E+04  0.00000000000E+00 0.  1.
        -13    1    1    2    0    0 -0.20246900035E+03  0.24603923021E+03 -0.93632429949E+03  0.98905621877E+03  0.10566000000E+00 0.  1.
         13    1    1    2    0    0 -0.35662454348E+01  0.17216475636E+03 -0.75645928345E+03  0.77581188449E+03  0.10566000000E+00 0. -1.
          4    1    1    2  501    0  0.20603524578E+03 -0.41820398657E+03 -0.45585837504E+03  0.65203677426E+03  0.00000000000E+00 0.  1.
</event>
<event>
 5    1  0.1008363E-004  0.2067026E+03  0.7818608E-02  0.1055636E+00
         -4   -1    0    0    0  501 -0.00000000000E+00  0.00000000000E+00  0.22125962698E+03  0.22125962698E+03  0.00000000000E+00 0. -1.
         21   -1    0    0  501  502  0.00000000000E+00 -0.00000000000E+00 -0.44315907730E+03  0.44315907730E+03  0.00000000000E+00 0.  1.
        -13    1    1    2    0    0  0.20360425813E+03 -0.57220031061E+02 -0.20244856778E+03  0.29276997736E+03  0.10566000000E+00 0.  1.
         13    1    1    2    0    0 -0.19494675984E+03  0.65291280508E+02  0.11574721046E+03  0.23593350414E+03  0.10566000000E+00 0. -1.
         -4    1    1    2    0  502 -0.86574982854E+01 -0.80712494468E+01 -0.13519809300E+03  0.13571522278E+03  0.00000000000E+00 0. -1.
</event>
<event>
 5    1  0.1008363E-004  0.4264050E+03  0.7818608E-02  0.9778923E-01
         21   -1    0    0  501  502  0.00000000000E+00  0.00000000000E+00  0.54718030825E+03  0.54718030825E+03  0.00000000000E+00 0. -1.
         -4   -1    0    0    0  501 -0.00000000000E+00 -0.00000000000E+00 -0.88438001908E+03  0.88438001908E+03  0.00000000000E+00 0. -1.
        -13    1    1    2    0    0  0.16952479975E+03  0.22040553143E+03 -0.17512629902E+03  0.32861297568E+03  0.10566000000E+00 0.  1.
         13    1    1    2    0    0  0.37561510092E+03  0.70101424686E+02  0.15047505993E+03  0.41066247528E+03  0.10566000000E+00 0. -1.
         -4    1    1    2    0  502 -0.54513990067E+03 -0.29050695612E+03 -0.31254847174E+03  0.69228487636E+03  0.00000000000E+00 0. -1.
</event>
<event>
 5    1  0.1008363E-004  0.4088899E+03  0.7818608E-02  0.9837428E-01
         21   -1    0    0  501  502  0.00000000000E+00  0.00000000000E+00  0.42134379052E+03  0.42134379052E+03  0.00000000000E+00 0.  1.
          4   -1    0    0  502    0 -0.00000000000E+00 -0.00000000000E+00 -0.10765622542E+04  0.10765622542E+04  0.00000000000E+00 0.  1.
        -13    1    1    2    0    0  0.27431794144E+03  0.26862190732E+03 -0.48369554386E+03  0.61755117391E+03  0.10566000000E+00 0.  1.
         13    1    1    2    0    0 -0.20433750318E+03  0.15806272428E+03 -0.33066281799E+03  0.41961357268E+03  0.10566000000E+00 0. -1.
          4    1    1    2  501    0 -0.69980438258E+02 -0.42668463161E+03  0.15913989819E+03  0.46074129811E+03  0.00000000000E+00 0.  1.
</event>
<event>
 5    1  0.1008363E-004  0.1651512E+03  0.7818608E-02  0.1087060E+00
          4   -1    0    0  502    0 -0.00000000000E+00  0.00000000000E+00  0.31611543410E+02  0.31611543410E+02  0.00000000000E+00 0.  1.
         21   -1    0    0  501  502  0.00000000000E+00 -0.00000000000E+00 -0.16108290582E+04  0.16108290582E+04  0.00000000000E+00 0.  1.
        -13    1    1    2    0    0  0.14443628838E+03  0.95307985501E+02 -0.28640452795E+03  0.33462369656E+03  0.10566000000E+00 0.  1.
         13    1    1    2    0    0 -0.11645626436E+03 -0.88545496702E+02 -0.74385005363E+03  0.75809978232E+03  0.10566000000E+00 0. -1.
          4    1    1    2  501    0 -0.27980024019E+02 -0.67624887987E+01 -0.54896293325E+03  0.54971712278E+03  0.00000000000E+00 0.  1.
</event>
<event>
 5    1  0.1008363E-004  0.4851584E+03  0.7818608E-02  0.9795235E-01
         21   -1    0    0  501  502  0.00000000000E+00  0.00000000000E+00  0.58950017896E+03  0.58950017896E+03  0.00000000000E+00 0.  1.
          4   -1    0    0  502    0 -0.00000000000E+00 -0.00000000000E+00 -0.68906479523E+03  0.68906479523E+03  0.00000000000E+00 0.  1.
        -13    1    1    2    0    0 -0.18992190127E+03  0.48573126921E+03  0.19594297405E+03  0.55713450326E+03  0.10566000000E+00 0.  1.
         13    1    1    2    0    0  0.17383176807E+03 -0.40679414257E+02 -0.19597469575E+03  0.26510071836E+03  0.10566000000E+00 0. -1.
          4    1    1    2  501    0  0.16090133206E+02 -0.44505185496E+03 -0.99532894572E+02  0.45632975258E+03  0.00000000000E+00 0.  1.
</event>
<event>
 5    1  0.1008363E-004  0.3056902E+03  0.7818608E-02  0.1004984E+00
         21   -1    0    0  501  502  0.00000000000E+00  0.00000000000E+00  0.78902204940E+03  0.78902204940E+03  0.00000000000E+00 0. -1.
         -4   -1    0    0    0  501 -0.00000000000E+00 -0.00000000000E+00 -0.65883413880E+03  0.65883413880E+03  0.00000000000E+00 0. -1.
        -13    1    1    2    0    0  0.28922944154E+03 -0.19804336454E+03 -0.42641312583E+02  0.35311915382E+03  0.10566000000E+00 0.  1.
         13    1    1    2    0    0 -0.24173235943E+03  0.16426988660E+03 -0.41303492239E+03  0.50598121261E+03  0.10566000000E+00 0. -1.
         -4    1    1    2    0  502 -0.47497082108E+02  0.33773477934E+02  0.58586414556E+03  0.58875582178E+03  0.00000000000E+00 0. -1.
</event>
<event>
 5    1  0.1008363E-004  0.8570200E+02  0.7818608E-02  0.1190660E+00
          4   -1    0    0  502    0 -0.00000000000E+00  0.00000000000E+00  0.55156187816E+02  0.55156187816E+02  0.00000000000E+00 0.  1.
         21   -1    0    0  501  502  0.00000000000E+00 -0.00000000000E+00 -0.20722230921E+03  0.20722230921E+03  0.00000000000E+00 0. -1.
        -13    1    1    2    0    0 -0.87388848398E+02  0.27591314399E+02 -0.61646062122E+02  0.11044609361E+03  0.10566000000E+00 0.  1.
         13    1    1    2    0    0  0.83308747386E+02  0.26738514651E+01 -0.38765042005E+02  0.91925168035E+02  0.10566000000E+00 0. -1.
          4    1    1    2  501    0  0.40801010121E+01 -0.30265165864E+02 -0.51655017268E+02  0.60007235380E+02  0.00000000000E+00 0.  1.
</event>
<event>
 5    1  0.1008363E-004  0.1592850E+02  0.7818608E-02  0.1575940E+00
         21   -1    0    0  501  502  0.00000000000E+00  0.00000000000E+00  0.92556398754E+02  0.92556398754E+02  0.00000000000E+00 0.  1.
          4   -1    0    0  502    0 -0.00000000000E+00 -0.00000000000E+00 -0.19769890791E+02  0.19769890791E+02  0.00000000000E+00 0.  1.
        -13    1    1    2    0    0  0.93602629580E+01 -0.12001679669E+02 -0.10285051668E+02  0.18369765632E+02  0.10566000000E+00 0.  1.
         13    1    1    2    0    0 -0.35644817817E+01  0.23134315492E+02  0.23842448302E+02  0.33412207181E+02  0.10566000000E+00 0. -1.
          4    1    1    2  501    0 -0.57957811763E+01 -0.11132635822E+02  0.59229111329E+02  0.60544316732E+02  0.00000000000E+00 0.  1.
</event>
<event>
 5    1  0.1008363E-004  0.9756984E+02  0.7818608E-02  0.1235214E+00
         -4   -1    0    0    0  501 -0.00000000000E+00  0.00000000000E+00  0.83572108646E+02  0.83572108646E+02  0.00000000000E+00 0. -1.
         21   -1    0    0  501  502  0.00000000000E+00 -0.00000000000E+00 -0.14495124473E+03  0.14495124473E+03  0.00000000000E+00 0. -1.
        -13    1    1    2    0    0  0.19525912564E+02 -0.90333702513E+01 -0.12185292627E+02  0.24725605352E+02  0.10566000000E+00 0.  1.
         13    1    1    2    0    0 -0.24742985060E+02 -0.91524161211E+02 -0.84902464160E+01  0.95189194992E+02  0.10566000000E+00 0. -1.
         -4    1    1    2    0  502  0.52170724954E+01  0.10055753146E+03 -0.40703597040E+02  0.10860855303E+03  0.00000000000E+00 0. -1.
</event>
<event>
 5    1  0.1008363E-004  0.2235538E+03  0.7818608E-02  0.1045087E+00
         21   -1    0    0  501  502  0.00000000000E+00  0.00000000000E+00  0.17928931737E+03  0.17928931737E+03  0.00000000000E+00 0. -1.
         -4   -1    0    0    0  501 -0.00000000000E+00 -0.00000000000E+00 -0.10561729098E+04  0.10561729098E+04  0.00000000000E+00 0. -1.
        -13    1    1    2    0    0 -0.16507246997E+03 -0.14582168117E+03 -0.80192567189E+03  0.83162351905E+03  0.10566000000E+00 0.  1.
         13    1    1    2    0    0  0.15288126950E+03  0.18409589549E+03 -0.17471850166E+03  0.29629469669E+03  0.10566000000E+00 0. -1.
         -4    1    1    2    0  502  0.12191200465E+02 -0.38274214323E+02  0.99760581118E+02  0.10754401144E+03  0.00000000000E+00 0. -1.
</event>
<event>
 5    1  0.1008363E-004  0.4674736E+02  0.7818608E-02  0.1305630E+00
         -4   -1    0    0    0  501 -0.00000000000E+00  0.00000000000E+00  0.39771456299E+02  0.39771456299E+02  0.00000000000E+00 0. -1.
         21   -1    0    0  501  502  0.00000000000E+00 -0.00000000000E+00 -0.20955066807E+03  0.20955066807E+03  0.00000000000E+00 0.  1.
        -13    1    1    2    0    0  0.33395724301E+02  0.33161598884E+02 -0.12217310619E+03  0.13092457784E+03  0.10566000000E+00 0.  1.
         13    1    1    2    0    0 -0.48377319809E+02 -0.14522845171E+01  0.11429747064E+02  0.49730518640E+02  0.10566000000E+00 0. -1.
         -4    1    1    2    0  502  0.14981595508E+02 -0.31709314367E+02 -0.59035852641E+02  0.68667027886E+02  0.00000000000E+00 0. -1.
</event>
<event>
 5    1  0.1008363E-004  0.4758995E+03  0.7818608E-02  0.9686542E-01
         21   -1    0    0  501  502  0.00000000000E+00  0.00000000000E+00  0.22882776511E+03  0.22882776511E+03  0.00000000000E+00 0. -1.
         -4   -1    0    0    0  501 -0.00000000000E+00 -0.00000000000E+00 -0.22468614820E+04  0.22468614820E+04  0.00000000000E+00 0. -1.
        -13    1    1    2    0    0  0.23791059017E+03  0.13861666056E+03 -0.92690750840E+03  0.96694031242E+03  0.10566000000E+00 0.  1.
         13    1    1    2    0    0 -0.47455697961E+03  0.22017647510E+03 -0.28634431532E+03  0.59638501420E+03  0.10566000000E+00 0. -1.
         -4    1    1    2    0  502  0.23664638944E+03 -0.35879313566E+03 -0.80478189316E+03  0.91236392047E+03  0.00000000000E+00 0. -1.
</event>
<event>
 5    1  0.1008363E-004  0.2040823E+03  0.7818608E-02  0.1057373E+00
         -4   -1    0    0    0  501 -0.00000000000E+00  0.00000000000E+00  0.82423071343E+03  0.82423071343E+03  0.00000000000E+00 0. -1.
         21   -1    0    0  501  502  0.00000000000E+00 -0.00000000000E+00 -0.76136984467E+02  0.76136984467E+02  0.00000000000E+00 0.  1.
        -13    1    1    2    0    0  0.13137672545E+03  0.15190278523E+03  0.39768858983E+03  0.44552275564E+03  0.10566000000E+00 0.  1.
         13    1    1    2    0    0 -0.14717026970E+03 -0.14704887249E+03  0.37285525144E+03  0.42697014986E+03  0.10566000000E+00 0. -1.
         -4    1    1    2    0  502  0.15793544257E+02 -0.48539127457E+01 -0.22450112297E+02  0.27874792400E+02  0.00000000000E+00 0. -1.
</event>
<event>
 5    1  0.1008363E-004  0.2683581E+02  0.7818608E-02  0.1444662E+00
         -4   -1    0    0    0  501 -0.00000000000E+00  0.00000000000E+00  0.81489411136E+02  0.81489411136E+02  0.00000000000E+00 0. -1.
         21   -1    0    0  501  502  0.00000000000E+00 -0.00000000000E+00 -0.36522990361E+03  0.36522990361E+03  0.00000000000E+00 0.  1.
        -13    1    1    2    0    0  0.34507469013E+02 -0.18853074606E+02 -0.19298837478E+03  0.19695361841E+03  0.10566000000E+00 0.  1.
         13    1    1    2    0    0 -0.77278400885E+01  0.20588652565E+02  0.76898293120E+02  0.79981065107E+02  0.10566000000E+00 0. -1.
         -4    1    1    2    0  502 -0.26779628925E+02 -0.17355779588E+01 -0.16765041082E+03  0.16978463124E+03  0.00000000000E+00 0. -1.
</event>
<event>
 5    1  0.1008363E-004  0.5156076E+03  0.7818608E-02  0.9863673E-01
         21   -1    0    0  501  502  0.00000000000E+00  0.00000000000E+00  0.78445222057E+03  0.78445222057E+03  0.00000000000E+00 0. -1.
         -4   -1    0    0    0  501 -0.00000000000E+00 -0.00000000000E+00 -0.43635088890E+03  0.43635088890E+03  0.00000000000E+00 0. -1.
        -13    1    1    2    0    0 -0.31697953533E+02  0.11356331773E+03  0.96868392094E+02  0.15259385290E+03  0.10566000000E+00 0.  1.
         13    1    1    2    0    0  0.52424374848E+03  0.30040424525E+02  0.12010502460E+03  0.53866423960E+03  0.10566000000E+00 0. -1.
         -4    1    1    2    0  502 -0.49254579495E+03 -0.14360374225E+03  0.13112791497E+03  0.52954501697E+03  0.00000000000E+00 0. -1.
</event>
<event>
 5    1  0.1008363E-004  0.4537976E+03  0.7818608E-02  0.9672214E-01
         21   -1    0    0  501  502  0.00000000000E+00  0.00000000000E+00  0.17821259612E+04  0.17821259612E+04  0.00000000000E+00 0.  1.
          4   -1    0    0  502    0 -0.00000000000E+00 -0.00000000000E+00 -0.10991323041E+04  0.10991323041E+04  0.00000000000E+00 0.  1.
        -13    1    1    2    0    0  0.95388508056E+02  0.38811615665E+03  0.81196493109E+03  0.90499733646E+03  0.10566000000E+00 0.  1.
         13    1    1    2    0    0  0.32468322722E+03  0.77869251251E+02 -0.91298831154E+03  0.97212678520E+03  0.10566000000E+00 0. -1.
          4    1    1    2  501    0 -0.42007173528E+03 -0.46598540790E+03  0.78401703756E+03  0.10041341436E+04  0.00000000000E+00 0.  1.
</event>
<event>
 5    1  0.1008363E-004  0.5032582E+03  0.7818608E-02  0.9635970E-01
         -4   -1    0    0    0  501 -0.00000000000E+00  0.00000000000E+00  0.87591261727E+03  0.87591261727E+03  0.00000000000E+00 0. -1.
         21   -1    0    0  501  502  0.00000000000E+00 -0.00000000000E+00 -0.53786278006E+03  0.53786278006E+03  0.00000000000E+00 0. -1.
        -13    1    1    2    0    0 -0.27373890812E+03 -0.48945689248E+02 -0.46702964547E+02  0.28197490735E+03  0.10566000000E+00 0.  1.
         13    1    1    2    0    0  0.29576157668E+03  0.48703882863E+03  0.35172183436E+02  0.57089300616E+03  0.10566000000E+00 0. -1.
         -4    1    1    2    0  502 -0.22022668559E+02 -0.43809313938E+03  0.34958061832E+03  0.56090748382E+03  0.00000000000E+00 0. -1.
</event>
<event>
 5    1  0.1008363E-004  0.4007336E+03  0.7818608E-02  0.9932331E-01
         21   -1    0    0  501  502  0.00000000000E+00  0.00000000000E+00  0.55568529108E+03  0.55568529108E+03  0.00000000000E+00 0.  1.
          4   -1    0    0  502    0 -0.00000000000E+00 -0.00000000000E+00 -0.19426676075E+04  0.19426676075E+04  0.00000000000E+00 0.  1.
        -13    1    1    2    0    0  0.91644603686E+02 -0.11081185550E+03 -0.54659634297E+03  0.56519516453E+03  0.10566000000E+00 0.  1.
         13    1    1    2    0    0 -0.41112252480E+03  0.35272355112E+03 -0.12486478812E+04  0.13610867630E+04  0.10566000000E+00 0. -1.
          4    1    1    2  501    0  0.31947792112E+03 -0.24191169562E+03  0.40826190780E+03  0.57207097105E+03  0.00000000000E+00 0.  1.
</event>
<event>
 5    1  0.1008363E-004  0.1669766E+03  0.7818608E-02  0.1085478E+00
         21   -1    0    0  501  502  0.00000000000E+00  0.00000000000E+00  0.39819292108E+03  0.39819292108E+03  0.00000000000E+00 0. -1.
          4   -1    0    0  502    0 -0.00000000000E+00 -0.00000000000E+00 -0.38913144149E+03  0.38913144149E+03  0.00000000000E+00 0.  1.
        -13    1    1    2    0    0  0.65909597155E+02 -0.15361107750E+03 -0.32738326253E+03  0.36758706435E+03  0.10566000000E+00 0.  1.
         13    1    1    2    0    0 -0.13053596830E+03  0.12198322317E+03  0.22953788933E+03  0.29087316748E+03  0.10566000000E+00 0. -1.
          4    1    1    2  501    0  0.64626371150E+02  0.31627854324E+02  0.10690685278E+03  0.12886413073E+03  0.00000000000E+00 0.  1.
</event>
<event>
 5    1  0.1008363E-004  0.3101462E+03  0.7818608E-02  0.1003203E+00
         21   -1    0    0  501  502  0.00000000000E+00  0.00000000000E+00  0.71176773935E+03  0.71176773935E+03  0.00000000000E+00 0.  1.
         -4   -1    0    0    0  501 -0.00000000000E+00 -0.00000000000E+00 -0.29309204070E+03  0.29309204070E+03  0.00000000000E+00 0. -1.
        -13    1    1    2    0    0  0.56336241581E+02 -0.23549213210E+03  0.23261139098E+03  0.33576537459E+03  0.10566000000E+00 0.  1.
         13    1    1    2    0    0 -0.30175396066E+02  0.40103741134E+03  0.26724596905E+03  0.48286849033E+03  0.10566000000E+00 0. -1.
         -4    1    1    2    0  502 -0.26160845516E+02 -0.16554527924E+03 -0.81181661382E+02  0.18622591512E+03  0.00000000000E+00 0. -1.
</event>
<event>
 5    1  0.1008363E-004  0.4803542E+03  0.7818608E-02  0.1006526E+00
         -4   -1    0    0    0  501 -0.00000000000E+00  0.00000000000E+00  0.96570061671E+03  0.96570061671E+03  0.00000000000E+00 0. -1.
         21   -1    0    0  501  502  0.00000000000E+00 -0.00000000000E+00 -0.34071603169E+03  0.34071603169E+03  0.00000000000E+00 0. -1.
        -13    1    1    2    0    0  0.68549281605E+02 -0.30292452862E+02  0.66927095169E+01  0.75242542711E+02  0.10566000000E+00 0.  1.
         13    1    1    2    0    0  0.39328586353E+03  0.20928755794E+03  0.58420891793E+03  0.73469389770E+03  0.10566000000E+00 0. -1.
         -4    1    1    2    0  502 -0.46183514514E+03 -0.17899510508E+03  0.34082957576E+02  0.49648020799E+03  0.00000000000E+00 0. -1.
</event>
<event>
 5    1  0.1008363E-004  0.4620212E+03  0.7818608E-02  0.9565340E-01
         -4   -1    0    0    0  501 -0.00000000000E+00  0.00000000000E+00  0.13600269440E+04  0.13600269440E+04  0.00000000000E+00 0. -1.
         21   -1    0    0  501  502  0.00000000000E+00 -0.00000000000E+00 -0.57794578476E+03  0.57794578476E+03  0.00000000000E+00 0.  1.
        -13    1    1    2    0    0  0.34476531228E+03 -0.29406852450E+03 -0.48238037841E+02  0.45570422109E+03  0.10566000000E+00 0.  1.
         13    1    1    2    0    0 -0.32494954350E+03  0.33113356763E+03  0.11081124234E+04  0.12013137806E+04  0.10566000000E+00 0. -1.
         -4    1    1    2    0  502 -0.19815768788E+02 -0.37065043130E+02 -0.27779322628E+03  0.28095472710E+03  0.00000000000E+00 0. -1.
</event>
<event>
 5    1  0.1008363E-004  0.4958507E+03  0.7818608E-02  0.9719182E-01
         21   -1    0    0  501  502  0.00000000000E+00  0.00000000000E+00  0.61278097988E+03  0.61278097988E+03  0.00000000000E+00 0.  1.
          4   -1    0    0  502    0 -0.00000000000E+00 -0.00000000000E+00 -0.76490373010E+03  0.76490373010E+03  0.00000000000E+00 0.  1.
        -13    1    1    2    0    0  0.61101361541E+02 -0.56484579525E+03  0.68060353163E+02  0.57220308600E+03  0.10566000000E+00 0.  1.
         13    1    1    2    0    0  0.14539573632E+03  0.16147467565E+03 -0.27338079261E+03  0.34921491942E+03  0.10566000000E+00 0. -1.
          4    1    1    2  501    0 -0.20649709786E+03  0.40337111960E+03  0.53197689230E+02  0.45626670456E+03  0.00000000000E+00 0.  1.
</event>
<event>
 5    1  0.1008363E-004  0.4537729E+03  0.7818608E-02  0.9842770E-01
         -4   -1    0    0    0  501 -0.00000000000E+00  0.00000000000E+00  0.14499025256E+04  0.14499025256E+04  0.00000000000E+00 0. -1.
         21   -1    0    0  501  502  0.00000000000E+00 -0.00000000000E+00 -0.51470430243E+03  0.51470430243E+03  0.00000000000E+00 0. -1.
        -13    1    1    2    0    0 -0.14521994518E+03 -0.11561686103E+03  0.93212282749E+03  0.95042572973E+03  0.10566000000E+00 0.  1.
         13    1    1    2    0    0  0.22795703768E+03  0.44803374070E+03 -0.27497197088E+03  0.57298188432E+03  0.10566000000E+00 0. -1.
         -4    1    1    2    0  502 -0.82737092493E+02 -0.33241687966E+03  0.27804736653E+03  0.44119921395E+03  0.00000000000E+00 0. -1.
</event>
<event>
 5    1  0.1008363E-004  0.4632406E+03  0.7818608E-02  0.9740116E-01
         21   -1    0    0  501  502  0.00000000000E+00  0.00000000000E+00  0.28139838976E+03  0.28139838976E+03  0.00000000000E+00 0. -1.
         -4   -1    0    0    0  501 -0.00000000000E+00 -0.00000000000E+00 -0.14752422397E+04  0.14752422397E+04  0.00000000000E+00 0. -1.
        -13    1    1    2    0    0  0.11468914332E+03  0.21971986094E+03 -0.37570887183E+03  0.45009730551E+03  0.10566000000E+00 0.  1.
         13    1    1    2    0    0 -0.46303993370E+03 -0.40450823233E+03 -0.58372988000E+03  0.84780509210E+03  0.10566000000E+00 0. -1.
         -4    1    1    2    0  502  0.34835079037E+03  0.18478837139E+03 -0.23440509811E+03  0.45873823187E+03  0.00000000000E+00 0. -1.
</event>
<event>
 5    1  0.1008363E-004  0.5008193E+03  0.7818608E-02  0.9536653E-01
         -4   -1    0    0    0  501 -0.00000000000E+00  0.00000000000E+00  0.36456279074E+04  0.36456279074E+04  0.00000000000E+00 0. -1.
         21   -1    0    0  501  502  0.00000000000E+00 -0.00000000000E+00 -0.21208688696E+03  0.21208688696E+03  0.00000000000E+00 0. -1.
        -13    1    1    2    0    0  0.38212109519E+03  0.12532379587E+03  0.21134008388E+04  0.21513218499E+04  0.10566000000E+00 0.  1.
         13    1    1    2    0    0 -0.30721966269E+03  0.42542029589E+03  0.61181412895E+03  0.80602908685E+03  0.10566000000E+00 0. -1.
         -4    1    1    2    0  502 -0.74901432501E+02 -0.55074409175E+03  0.70832605269E+03  0.90036385762E+03  0.00000000000E+00 0. -1.
</event>
<event>
 5    1  0.1008363E-004  0.4908594E+03  0.7818608E-02  0.9569636E-01
         21   -1    0    0  501  502  0.00000000000E+00  0.00000000000E+00  0.20049840382E+04  0.20049840382E+04  0.00000000000E+00 0.  1.
         -4   -1    0    0    0  501 -0.00000000000E+00 -0.00000000000E+00 -0.26220937084E+03  0.26220937084E+03  0.00000000000E+00 0. -1.
        -13    1    1    2    0    0 -0.77786747376E+02 -0.37133563521E+03  0.52172529688E+03  0.64508776815E+03  0.10566000000E+00 0.  1.
         13    1    1    2    0    0 -0.42549495761E+03  0.33033787897E+03  0.80100809730E+03  0.96528910506E+03  0.10566000000E+00 0. -1.
         -4    1    1    2    0  502  0.50328170499E+03  0.40997756240E+02  0.42004127321E+03  0.65681653587E+03  0.00000000000E+00 0. -1.
</event>
<event>
 5    1  0.1008363E-004  0.4895825E+03  0.7818608E-02  0.9926390E-01
          4   -1    0    0  502    0 -0.00000000000E+00  0.00000000000E+00  0.29597851081E+03  0.29597851081E+03  0.00000000000E+00 0.  1.
         21   -1    0    0  501  502  0.00000000000E+00 -0.00000000000E+00 -0.16811629218E+04  0.16811629218E+04  0.00000000000E+00 0.  1.
        -13    1    1    2    0    0  0.30088728846E+03 -0.36096222869E+03 -0.48266595259E+03  0.67364183648E+03  0.10566000000E+00 0.  1.
         13    1    1    2    0    0 -0.68100109851E+02 -0.88456248909E+02  0.11918718487E+03  0.16330256929E+03  0.10566000000E+00 0. -1.
          4    1    1    2  501    0 -0.23278717861E+03  0.44941847760E+03 -0.10217056432E+04  0.11401970268E+04  0.00000000000E+00 0.  1.
</event>
<event>
 5    1  0.1008363E-004  0.6261633E+03  0.7818608E-02  0.9362711E-01
          4   -1    0    0  502    0 -0.00000000000E+00  0.00000000000E+00  0.33518293846E+04  0.33518293846E+04  0.00000000000E+00 0.  1.
         21   -1    0    0  501  502  0.00000000000E+00 -0.00000000000E+00 -0.53610336758E+03  0.53610336758E+03  0.00000000000E+00 0.  1.
        -13    1    1    2    0    0 -0.18556277244E+03 -0.64916816942E+02  0.46835078021E+03  0.50793720096E+03  0.10566000000E+00 0.  1.
         13    1    1    2    0    0  0.25432613559E+03 -0.75187543552E+03  0.24298242819E+04  0.25561777141E+04  0.10566000000E+00 0. -1.
          4    1    1    2  501    0 -0.68763363152E+02  0.81679225247E+03 -0.82449045079E+02  0.82381783717E+03  0.00000000000E+00 0.  1.
</event>
<event>
 5    1  0.1008363E-004  0.4998390E+03  0.7818608E-02  0.9567074E-01
          4   -1    0    0  502    0 -0.00000000000E+00  0.00000000000E+00  0.44023202283E+03  0.44023202283E+03  0.00000000000E+00 0.  1.
         21   -1    0    0  501  502  0.00000000000E+00 -0.00000000000E+00 -0.11827884477E+04  0.11827884477E+04  0.00000000000E+00 0.  1.
        -13    1    1    2    0    0  0.29996366731E+03 -0.31567069735E+03 -0.10497975617E+03  0.44793632499E+03  0.10566000000E+00 0.  1.
         13    1    1    2    0    0  0.30623965466E+03  0.19420139938E+03 -0.30024141780E+03  0.47078851912E+03  0.10566000000E+00 0. -1.
          4    1    1    2  501    0 -0.60620332198E+03  0.12146929797E+03 -0.33733525094E+03  0.70429562646E+03  0.00000000000E+00 0.  1.
</event>
<event>
 5    1  0.1008363E-004  0.2264675E+03  0.7818608E-02  0.1043364E+00
          4   -1    0    0  502    0 -0.00000000000E+00  0.00000000000E+00  0.19651665379E+04  0.19651665379E+04  0.00000000000E+00 0.  1.
         21   -1    0    0  501  502  0.00000000000E+00 -0.00000000000E+00 -0.24500971452E+03  0.24500971452E+03  0.00000000000E+00 0.  1.
        -13    1    1    2    0    0  0.16556884044E+03 -0.24564970973E+03 -0.11960916870E+03  0.31947329343E+03  0.10566000000E+00 0.  1.
         13    1    1    2    0    0 -0.22245496933E+03  0.45511246319E+02  0.90332654884E+03  0.93142705132E+03  0.10566000000E+00 0. -1.
          4    1    1    2  501    0  0.56886128891E+02  0.20013846341E+03  0.93643944320E+03  0.95927590764E+03  0.00000000000E+00 0.  1.
</event>
<event>
 5    1  0.1008363E-004  0.3664457E+03  0.7818608E-02  0.1000179E+00
         -4   -1    0    0    0  501 -0.00000000000E+00  0.00000000000E+00  0.58691518300E+03  0.58691518300E+03  0.00000000000E+00 0. -1.
         21   -1    0    0  501  502  0.00000000000E+00 -0.00000000000E+00 -0.98228147794E+03  0.98228147794E+03  0.00000000000E+00 0. -1.
        -13    1    1    2    0    0  0.48370156416E+02 -0.20183847507E+03  0.36192246303E+03  0.41721256269E+03  0.10566000000E+00 0.  1.
         13    1    1    2    0    0  0.32478086812E+03  0.87333564710E+02 -0.44403414995E+02  0.33923655205E+03  0.10566000000E+00 0. -1.
         -4    1    1    2    0  502 -0.37315102453E+03  0.11450491036E+03 -0.71288534299E+03  0.81274754620E+03  0.00000000000E+00 0. -1.
</event>
<event>
 5    1  0.1008363E-004  0.4765640E+03  0.7818608E-02  0.9759149E-01
         21   -1    0    0  501  502  0.00000000000E+00  0.00000000000E+00  0.81418160298E+03  0.81418160298E+03  0.00000000000E+00 0. -1.
         -4   -1    0    0    0  501 -0.00000000000E+00 -0.00000000000E+00 -0.15981814123E+04  0.15981814123E+04  0.00000000000E+00 0. -1.
        -13    1    1    2    0    0 -0.41473830431E+03 -0.78800847261E+03 -0.54743224337E+03  0.10452977022E+04  0.10566000000E+00 0.  1.
         13    1    1    2    0    0  0.24918532778E+03  0.94965193254E+02 -0.53247890914E+03  0.59552121318E+03  0.10566000000E+00 0. -1.
         -4    1    1    2    0  502  0.16555297654E+03  0.69304327936E+03  0.29591134316E+03  0.77154409992E+03  0.00000000000E+00 0. -1.
</event>
<event>
 5    1  0.1008363E-004  0.5936698E+03  0.7818608E-02  0.9293390E-01
          4   -1    0    0  502    0 -0.00000000000E+00  0.00000000000E+00  0.21007732533E+04  0.21007732533E+04  0.00000000000E+00 0.  1.
         21   -1    0    0  501  502  0.00000000000E+00 -0.00000000000E+00 -0.36018052064E+03  0.36018052064E+03  0.00000000000E+00 0.  1.
        -13    1    1    2    0    0 -0.53635298109E+03 -0.41173842991E+03  0.89059202469E+03  0.11181937312E+04  0.10566000000E+00 0.  1.
         13    1    1    2    0    0  0.11457294431E+03  0.57334151528E+03  0.53073683399E+03  0.78963855708E+03  0.10566000000E+00 0. -1.
          4    1    1    2  501    0  0.42178003678E+03 -0.16160308537E+03  0.31926387401E+03  0.55312148564E+03  0.00000000000E+00 0.  1.
</event>
<event>
 5    1  0.1008363E-004  0.5060222E+02  0.7818608E-02  0.1299670E+00
         21   -1    0    0  501  502  0.00000000000E+00  0.00000000000E+00  0.12704154536E+03  0.12704154536E+03  0.00000000000E+00 0.  1.
          4   -1    0    0  502    0 -0.00000000000E+00 -0.00000000000E+00 -0.78271200523E+02  0.78271200523E+02  0.00000000000E+00 0.  1.
        -13    1    1    2    0    0  0.68608879522E+02  0.51428288774E+02 -0.25609057335E+02  0.89486771185E+02  0.10566000000E+00 0.  1.
         13    1    1    2    0    0 -0.28630230472E+02 -0.29841712057E+02  0.23312357455E+02  0.47473098167E+02  0.10566000000E+00 0. -1.
          4    1    1    2  501    0 -0.39978649050E+02 -0.21586576717E+02  0.51067044720E+02  0.68352876535E+02  0.00000000000E+00 0.  1.
</event>
<event>
 5    1  0.1008363E-004  0.3649298E+03  0.7818608E-02  0.9899806E-01
         21   -1    0    0  501  502  0.00000000000E+00  0.00000000000E+00  0.33610034883E+03  0.33610034883E+03  0.00000000000E+00 0.  1.
          4   -1    0    0  502    0 -0.00000000000E+00 -0.00000000000E+00 -0.19714655920E+04  0.19714655920E+04  0.00000000000E+00 0.  1.
        -13    1    1    2    0    0 -0.47948382294E+03 -0.40434049227E+01 -0.63183456978E+03  0.79318095055E+03  0.10566000000E+00 0.  1.
         13    1    1    2    0    0  0.19796563080E+03 -0.21811076333E+03 -0.11034677726E+04  0.11421050006E+04  0.10566000000E+00 0. -1.
          4    1    1    2  501    0  0.28151819214E+03  0.22215416825E+03  0.99937099147E+02  0.37227998974E+03  0.00000000000E+00 0.  1.
</event>
<event>
 5    1  0.1008363E-004  0.4461240E+03  0.7818608E-02  0.9742964E-01
          4   -1    0    0  502    0 -0.00000000000E+00  0.00000000000E+00  0.19429150612E+04  0.19429150612E+04  0.00000000000E+00 0.  1.
         21   -1    0    0  501  502  0.00000000000E+00 -0.00000000000E+00 -0.23041066684E+03  0.23041066684E+03  0.00000000000E+00 0.  1.
        -13    1    1    2    0    0 -0.43281817846E+03  0.11482284038E+02  0.71460802629E+03  0.83554058002E+03  0.10566000000E+00 0.  1.
         13    1    1    2    0    0  0.44733633132E+02  0.27110595482E+03  0.74736784896E+03  0.79627774645E+03  0.10566000000E+00 0. -1.
          4    1    1    2  501    0  0.38808454533E+03 -0.28258823885E+03  0.25052851909E+03  0.54150740156E+03  0.00000000000E+00 0.  1.
</event>
<event>
 5    1  0.1008363E-004  0.2600546E+03  0.7818608E-02  0.1046215E+00
          4   -1    0    0  502    0 -0.00000000000E+00  0.00000000000E+00  0.38216818164E+03  0.38216818164E+03  0.00000000000E+00 0.  1.
         21   -1    0    0  501  502  0.00000000000E+00 -0.00000000000E+00 -0.85298291884E+03  0.85298291884E+03  0.00000000000E+00 0.  1.
        -13    1    1    2    0    0 -0.18629208642E+03  0.18255020560E+03 -0.67292391749E+03  0.72170349100E+03  0.10566000000E+00 0.  1.
         13    1    1    2    0    0 -0.86320858447E+02 -0.10676329124E+03 -0.37883301243E+02  0.14242488068E+03  0.10566000000E+00 0. -1.
          4    1    1    2  501    0  0.27261294486E+03 -0.75786914364E+02  0.23999248153E+03  0.37102272880E+03  0.00000000000E+00 0.  1.
</event>
<event>
 5    1  0.1008363E-004  0.2236274E+03  0.7818608E-02  0.1045043E+00
         21   -1    0    0  501  502  0.00000000000E+00  0.00000000000E+00  0.21158200909E+03  0.21158200909E+03  0.00000000000E+00 0.  1.
         -4   -1    0    0    0  501 -0.00000000000E+00 -0.00000000000E+00 -0.86010933579E+03  0.86010933579E+03  0.00000000000E+00 0. -1.
        -13    1    1    2    0    0 -0.31684741428E+03 -0.39468374823E+02 -0.12940700942E+03  0.34452318035E+03  0.10566000000E+00 0.  1.
         13    1    1    2    0    0  0.19811226365E+03 -0.71605681093E+02 -0.52373542997E+03  0.56451275835E+03  0.10566000000E+00 0. -1.
         -4    1    1    2    0  502  0.11873515063E+03  0.11107405592E+03  0.46151126853E+01  0.16265540617E+03  0.00000000000E+00 0. -1.
</event>
<event>
 5    1  0.1008363E-004  0.3745410E+03  0.7818608E-02  0.1043515E+00
         21   -1    0    0  501  502  0.00000000000E+00  0.00000000000E+00  0.16928247967E+03  0.16928247967E+03  0.00000000000E+00 0. -1.
         -4   -1    0    0    0  501 -0.00000000000E+00 -0.00000000000E+00 -0.17460071243E+04  0.17460071243E+04  0.00000000000E+00 0. -1.
        -13    1    1    2    0    0 -0.35675541689E+01  0.49708790568E+02 -0.23284759086E+02  0.55008021890E+02  0.10566000000E+00 0.  1.
         13    1    1    2    0    0 -0.16186593407E+03  0.29453790194E+03 -0.14144706506E+04  0.14538501948E+04  0.10566000000E+00 0. -1.
         -4    1    1    2    0  502  0.16543348824E+03 -0.34424669251E+03 -0.13896923495E+03  0.40643138732E+03  0.00000000000E+00 0. -1.
</event>
<event>
 5    1  0.1008363E-004  0.1411333E+03  0.7818608E-02  0.1110201E+00
         21   -1    0    0  501  502  0.00000000000E+00  0.00000000000E+00  0.61961626334E+03  0.61961626334E+03  0.00000000000E+00 0. -1.
          4   -1    0    0  502    0 -0.00000000000E+00 -0.00000000000E+00 -0.15230173917E+03  0.15230173917E+03  0.00000000000E+00 0.  1.
        -13    1    1    2    0    0 -0.13678942624E+03  0.38678697058E+02 -0.10379798924E+03  0.17601540408E+03  0.10566000000E+00 0.  1.
         13    1    1    2    0    0  0.12336431482E+03 -0.45390804361E+02  0.34344977581E+03  0.36774561719E+03  0.10566000000E+00 0. -1.
          4    1    1    2  501    0  0.13425111421E+02  0.67121073029E+01  0.22766273759E+03  0.22815698124E+03  0.00000000000E+00 0.  1.
</event>
<event>
 5    1  0.1008363E-004  0.4648382E+03  0.7818608E-02  0.9558559E-01
          4   -1    0    0  502    0 -0.00000000000E+00  0.00000000000E+00  0.34892507816E+04  0.34892507816E+04  0.00000000000E+00 0.  1.
         21   -1    0    0  501  502  0.00000000000E+00 -0.00000000000E+00 -0.22867304107E+03  0.22867304107E+03  0.00000000000E+00 0.  1.
        -13    1    1    2    0    0  0.12994757430E+03  0.53173139051E+03  0.37386645286E+03  0.66287312470E+03  0.10566000000E+00 0.  1.
         13    1    1    2    0    0 -0.44223931871E+03 -0.19689182854E+03  0.19921283120E+04  0.20501017608E+04  0.10566000000E+00 0. -1.
          4    1    1    2  501    0  0.31229174441E+03 -0.33483956197E+03  0.89458297571E+03  0.10049489372E+04  0.00000000000E+00 0.  1.
</event>
<event>
 5    1  0.1008363E-004  0.2716149E+03  0.7818608E-02  0.1019763E+00
         21   -1    0    0  501  502  0.00000000000E+00  0.00000000000E+00  0.83775563206E+03  0.83775563206E+03  0.00000000000E+00 0.  1.
          4   -1    0    0  502    0 -0.00000000000E+00 -0.00000000000E+00 -0.15310658982E+04  0.15310658982E+04  0.00000000000E+00 0.  1.
        -13    1    1    2    0    0  0.31260457365E+03 -0.36459161623E+03  0.67433208073E+03  0.82787223191E+03  0.10566000000E+00 0.  1.
         13    1    1    2    0    0 -0.68296873472E+02  0.25956233123E+03 -0.11929616659E+04  0.12227815071E+04  0.10566000000E+00 0. -1.
          4    1    1    2  501    0 -0.24430770018E+03  0.10502928500E+03 -0.17468068099E+03  0.31816779125E+03  0.00000000000E+00 0.  1.
</event>
<event>
 5    1  0.1008363E-004  0.4298309E+03  0.7818608E-02  0.9711974E-01
          4   -1    0    0  502    0 -0.00000000000E+00  0.00000000000E+00  0.21428458596E+04  0.21428458596E+04  0.00000000000E+00 0.  1.
         21   -1    0    0  501  502  0.00000000000E+00 -0.00000000000E+00 -0.36935520270E+03  0.36935520270E+03  0.00000000000E+00 0.  1.
        -13    1    1    2    0    0  0.22010376414E+03 -0.52644516604E+03  0.45281868637E+03  0.72844694640E+03  0.10566000000E+00 0.  1.
         13    1    1    2    0    0  0.13013708757E+03  0.31630465509E+03  0.13319392792E+04  0.13751532828E+04  0.10566000000E+00 0. -1.
          4    1    1    2  501    0 -0.35024085171E+03  0.21014051095E+03 -0.11267308740E+02  0.40860083308E+03  0.00000000000E+00 0.  1.
</event>
<event>
 5    1  0.1008363E-004  0.4055673E+03  0.7818608E-02  0.9713104E-01
         21   -1    0    0  501  502  0.00000000000E+00  0.00000000000E+00  0.28508512394E+03  0.28508512394E+03  0.00000000000E+00 0. -1.
          4   -1    0    0  502    0 -0.00000000000E+00 -0.00000000000E+00 -0.92575640670E+03  0.92575640670E+03  0.00000000000E+00 0.  1.
        -13    1    1    2    0    0 -0.12206746866E+03 -0.38625025598E+03 -0.64900388447E+03  0.76504626028E+03  0.10566000000E+00 0.  1.
         13    1    1    2    0    0  0.13505597038E+03  0.38428506588E+03 -0.26879379418E+02  0.40821273767E+03  0.10566000000E+00 0. -1.
          4    1    1    2  501    0 -0.12988501722E+02  0.19651901085E+01  0.35211981123E+02  0.37582532695E+02  0.00000000000E+00 0.  1.
</event>
<event>
 5    1  0.1008363E-004  0.5680979E+02  0.7818608E-02  0.1266301E+00
          4   -1    0    0  502    0 -0.00000000000E+00  0.00000000000E+00  0.18013498611E+03  0.18013498611E+03  0.00000000000E+00 0.  1.
         21   -1    0    0  501  502  0.00000000000E+00 -0.00000000000E+00 -0.17583965948E+03  0.17583965948E+03  0.00000000000E+00 0.  1.
        -13    1    1    2    0    0 -0.30108796848E+02 -0.46316414919E+02  0.14871846315E+03  0.15864722622E+03  0.10566000000E+00 0.  1.
         13    1    1    2    0    0  0.66736307570E+02  0.63410850864E+02 -0.83942948958E+02  0.12458370920E+03  0.10566000000E+00 0. -1.
          4    1    1    2  501    0 -0.36627510721E+02 -0.17094435945E+02 -0.60480187565E+02  0.72743710174E+02  0.00000000000E+00 0.  1.
</event>
<event>
 5    1  0.1008363E-004  0.6354597E+02  0.7818608E-02  0.1286951E+00
         21   -1    0    0  501  502  0.00000000000E+00  0.00000000000E+00  0.50843027584E+02  0.50843027584E+02  0.00000000000E+00 0. -1.
         -4   -1    0    0    0  501 -0.00000000000E+00 -0.00000000000E+00 -0.16885300469E+03  0.16885300469E+03  0.00000000000E+00 0. -1.
        -13    1    1    2    0    0  0.81367770213E+01 -0.25529629333E+02 -0.53606409059E+02  0.59930187472E+02  0.10566000000E+00 0.  1.
         13    1    1    2    0    0 -0.44283443930E+02  0.69422628076E+02 -0.61600826997E+02  0.10283578048E+03  0.10566000000E+00 0. -1.
         -4    1    1    2    0  502  0.36146666909E+02 -0.43892998742E+02 -0.28027410538E+01  0.56930064330E+02  0.00000000000E+00 0. -1.
</event>
<event>
 5    1  0.1008363E-004  0.9974883E+02  0.7818608E-02  0.1164972E+00
         -4   -1    0    0    0  501 -0.00000000000E+00  0.00000000000E+00  0.17435579567E+03  0.17435579567E+03  0.00000000000E+00 0. -1.
         21   -1    0    0  501  502  0.00000000000E+00 -0.00000000000E+00 -0.22224287854E+03  0.22224287854E+03  0.00000000000E+00 0.  1.
        -13    1    1    2    0    0  0.88565513784E+02  0.23962171526E+02  0.21813352226E+02  0.94307313584E+02  0.10566000000E+00 0.  1.
         13    1    1    2    0    0 -0.10372676800E+03 -0.17528658749E+02  0.92001659808E+02  0.13975268458E+03  0.10566000000E+00 0. -1.
         -4    1    1    2    0  502  0.15161254212E+02 -0.64335127773E+01 -0.16170209490E+03  0.16253867605E+03  0.00000000000E+00 0. -1.
</event>
<event>
 5    1  0.1008363E-004  0.1592657E+03  0.7818608E-02  0.1145547E+00
         -4   -1    0    0    0  501 -0.00000000000E+00  0.00000000000E+00  0.22489701158E+03  0.22489701158E+03  0.00000000000E+00 0. -1.
         21   -1    0    0  501  502  0.00000000000E+00 -0.00000000000E+00 -0.46290231450E+03  0.46290231450E+03  0.00000000000E+00 0. -1.
        -13    1    1    2    0    0 -0.35382374621E+02  0.17531953763E+02  0.71077194639E+02  0.81309658703E+02  0.10566000000E+00 0.  1.
         13    1    1    2    0    0  0.15704183730E+03 -0.11393158200E+03  0.62462749000E+02  0.20382382152E+03  0.10566000000E+00 0. -1.
         -4    1    1    2    0  502 -0.12165946268E+03  0.96399628240E+02 -0.37154524656E+03  0.40266584586E+03  0.00000000000E+00 0. -1.
</event>
<event>
 5    1  0.1008363E-004  0.3930592E+03  0.7818608E-02  0.9749308E-01
         -4   -1    0    0    0  501 -0.00000000000E+00  0.00000000000E+00  0.15698175495E+04  0.15698175495E+04  0.00000000000E+00 0. -1.
         21   -1    0    0  501  502  0.00000000000E+00 -0.00000000000E+00 -0.21396716053E+03  0.21396716053E+03  0.00000000000E+00 0.  1.
        -13    1    1    2    0    0 -0.14963114594E+03  0.36591400487E+03  0.23840071251E+03  0.46164645529E+03  0.10566000000E+00 0.  1.
         13    1    1    2    0    0  0.15797876970E+03 -0.35924612329E+03  0.11878144984E+04  0.12509669710E+04  0.10566000000E+00 0. -1.
         -4    1    1    2    0  502 -0.83476237644E+01 -0.66678815781E+01 -0.70364821920E+02  0.71171283753E+02  0.00000000000E+00 0. -1.
</event>
<event>
 5    1  0.1008363E-004  0.1549515E+03  0.7818608E-02  0.1096329E+00
         -4   -1    0    0    0  501 -0.00000000000E+00  0.00000000000E+00  0.31622333944E+03  0.31622333944E+03  0.00000000000E+00 0. -1.
         21   -1    0    0  501  502  0.00000000000E+00 -0.00000000000E+00 -0.10988009660E+03  0.10988009660E+03  0.00000000000E+00 0.  1.
        -13    1    1    2    0    0 -0.11888861631E+03  0.99735442981E+02  0.45569414140E+02  0.16173510548E+03  0.10566000000E+00 0.  1.
         13    1    1    2    0    0  0.87215994631E+02 -0.13066777004E+03  0.15323854717E+03  0.21946015436E+03  0.10566000000E+00 0. -1.
         -4    1    1    2    0  502  0.31672621684E+02  0.30932327062E+02  0.75352815246E+01  0.44908176199E+02  0.00000000000E+00 0. -1.
</event>
<event>
 5    1  0.1008363E-004  0.5442872E+03  0.7818608E-02  0.9392538E-01
          4   -1    0    0  502    0 -0.00000000000E+00  0.00000000000E+00  0.92056850232E+03  0.92056850232E+03  0.00000000000E+00 0.  1.
         21   -1    0    0  501  502  0.00000000000E+00 -0.00000000000E+00 -0.86245307758E+03  0.86245307758E+03  0.00000000000E+00 0. -1.
        -13    1    1    2    0    0 -0.95066317008E+02  0.25215136937E+03  0.30601654079E+03  0.40775489219E+03  0.10566000000E+00 0.  1.
         13    1    1    2    0    0  0.28478448647E+03  0.47180908632E+03  0.82386031301E+02  0.55721942445E+03  0.10566000000E+00 0. -1.
          4    1    1    2  501    0 -0.18971816946E+03 -0.72396045569E+03 -0.33028714735E+03  0.81804726326E+03  0.00000000000E+00 0.  1.
</event>
<event>
 5    1  0.1008363E-004  0.2552477E+03  0.7818608E-02  0.1027709E+00
         21   -1    0    0  501  502  0.00000000000E+00  0.00000000000E+00  0.85948305910E+03  0.85948305910E+03  0.00000000000E+00 0. -1.
         -4   -1    0    0    0  501 -0.00000000000E+00 -0.00000000000E+00 -0.64118412368E+03  0.64118412368E+03  0.00000000000E+00 0. -1.
        -13    1    1    2    0    0 -0.13598148603E+03 -0.22174713539E+03 -0.30646067332E+03  0.40197128262E+03  0.10566000000E+00 0.  1.
         13    1    1    2    0    0 -0.53644827368E+02  0.23539630396E+03  0.75931145044E+03  0.79677040442E+03  0.10566000000E+00 0. -1.
         -4    1    1    2    0  502  0.18962631339E+03 -0.13649168563E+02 -0.23455184170E+03  0.30192549574E+03  0.00000000000E+00 0. -1.
</event>
<event>
 5    1  0.1008363E-004  0.4837629E+03  0.7818608E-02  0.9570722E-01
         21   -1    0    0  501  502  0.00000000000E+00  0.00000000000E+00  0.84422774412E+03  0.84422774412E+03  0.00000000000E+00 0.  1.
          4   -1    0    0  502    0 -0.00000000000E+00 -0.00000000000E+00 -0.13264007575E+04  0.13264007575E+04  0.00000000000E+00 0.  1.
        -13    1    1    2    0    0  0.38843210476E+02 -0.49610355299E+03  0.52191785529E+02  0.50035140045E+03  0.10566000000E+00 0.  1.
         13    1    1    2    0    0 -0.38441487829E+03  0.89956734329E+02 -0.92732129554E+03  0.10078649756E+04  0.10566000000E+00 0. -1.
          4    1    1    2  501    0  0.34557166781E+03  0.40614681867E+03  0.39295649662E+03  0.66241212560E+03  0.00000000000E+00 0.  1.
</event>
<event>
 5    1  0.1008363E-004  0.4315705E+03  0.7818608E-02  0.9683934E-01
          4   -1    0    0  502    0 -0.00000000000E+00  0.00000000000E+00  0.31560603700E+04  0.31560603700E+04  0.00000000000E+00 0.  1.
         21   -1    0    0  501  502  0.00000000000E+00 -0.00000000000E+00 -0.26650722967E+03  0.26650722967E+03  0.00000000000E+00 0.  1.
        -13    1    1    2    0    0  0.28691114313E+03 -0.24005091901E+03  0.11967093372E+03  0.39276404025E+03  0.10566000000E+00 0.  1.
         13    1    1    2    0    0  0.35693352947E+03  0.29721517106E+03  0.18374058780E+04  0.18952041510E+04  0.10566000000E+00 0. -1.
          4    1    1    2  501    0 -0.64384467259E+03 -0.57164252045E+02  0.93247632859E+03  0.11345994084E+04  0.00000000000E+00 0.  1.
</event>
<event>
 5    1  0.1008363E-004  0.2227061E+03  0.7818608E-02  0.1067787E+00
          4   -1    0    0  502    0 -0.00000000000E+00  0.00000000000E+00  0.22001042648E+04  0.22001042648E+04  0.00000000000E+00 0.  1.
         21   -1    0    0  501  502  0.00000000000E+00 -0.00000000000E+00 -0.14180370370E+03  0.14180370370E+03  0.00000000000E+00 0.  1.
        -13    1    1    2    0    0 -0.11167837164E+03  0.19180180075E+03 -0.15825834954E+02  0.22250945526E+03  0.10566000000E+00 0.  1.
         13    1    1    2    0    0  0.93279314788E+02  0.69058595976E+02  0.23852378902E+03  0.26526162432E+03  0.10566000000E+00 0. -1.
          4    1    1    2  501    0  0.18399056849E+02 -0.26086039673E+03  0.18356026071E+04  0.18541368890E+04  0.00000000000E+00 0.  1.
</event>
<event>
 5    1  0.1008363E-004  0.3224016E+03  0.7818608E-02  0.1017946E+00
          4   -1    0    0  502    0 -0.00000000000E+00  0.00000000000E+00  0.17008787757E+04  0.17008787757E+04  0.00000000000E+00 0.  1.
         21   -1    0    0  501  502  0.00000000000E+00 -0.00000000000E+00 -0.33118042238E+03  0.33118042238E+03  0.00000000000E+00 0.  1.
        -13    1    1    2    0    0 -0.30517425930E+03 -0.31193233343E+03  0.66334090889E+03  0.79401151235E+03  0.10566000000E+00 0.  1.
         13    1    1    2    0    0  0.29660381723E+02  0.16943019629E+03  0.87034705486E+03  0.88718111834E+03  0.10566000000E+00 0. -1.
          4    1    1    2  501    0  0.27551387758E+03  0.14250213714E+03 -0.16398961039E+03  0.35086656743E+03  0.00000000000E+00 0.  1.
</event>
<event>
 5    1  0.1008363E-004  0.1108798E+03  0.7818608E-02  0.1175760E+00
         21   -1    0    0  501  502  0.00000000000E+00  0.00000000000E+00  0.12329772419E+03  0.12329772419E+03  0.00000000000E+00 0.  1.
         -4   -1    0    0    0  501 -0.00000000000E+00 -0.00000000000E+00 -0.22079153218E+03  0.22079153218E+03  0.00000000000E+00 0. -1.
        -13    1    1    2    0    0 -0.55901730082E+02 -0.46383974457E+01  0.15261842499E+02  0.58133064236E+02  0.10566000000E+00 0.  1.
         13    1    1    2    0    0  0.13287370863E+03  0.67068628491E+02 -0.11295516787E+03  0.18684888142E+03  0.10566000000E+00 0. -1.
         -4    1    1    2    0  502 -0.76971978553E+02 -0.62430231046E+02  0.19951738652E+00  0.99107310719E+02  0.00000000000E+00 0. -1.
</event>
<event>
 5    1  0.1008363E-004  0.4623247E+03  0.7818608E-02  0.9908884E-01
         21   -1    0    0  501  502  0.00000000000E+00  0.00000000000E+00  0.58612600680E+03  0.58612600680E+03  0.00000000000E+00 0.  1.
          4   -1    0    0  502    0 -0.00000000000E+00 -0.00000000000E+00 -0.51927792235E+03  0.51927792235E+03  0.00000000000E+00 0.  1.
        -13    1    1    2    0    0  0.38524792825E+03  0.32493647353E+03 -0.58910120480E+02  0.50741510768E+03  0.10566000000E+00 0.  1.
         13    1    1    2    0    0  0.17399486801E+02 -0.13945082303E+03  0.17261121916E+02  0.14158824697E+03  0.10566000000E+00 0. -1.
          4    1    1    2  501    0 -0.40264741505E+03 -0.18548565050E+03  0.10849708301E+03  0.45640057450E+03  0.00000000000E+00 0.  1.
</event>
<event>
 5    1  0.1008363E-004  0.4776073E+03  0.7818608E-02  0.9570836E-01
          4   -1    0    0  502    0 -0.00000000000E+00  0.00000000000E+00  0.13891225772E+04  0.13891225772E+04  0.00000000000E+00 0.  1.
         21   -1    0    0  501  502  0.00000000000E+00 -0.00000000000E+00 -0.54467541456E+03  0.54467541456E+03  0.00000000000E+00 0.  1.
        -13    1    1    2    0    0  0.11110894366E+03  0.42489470198E+02  0.51864271816E+03  0.53210979384E+03  0.10566000000E+00 0.  1.
         13    1    1    2    0    0  0.36847921289E+03 -0.36039354032E+03  0.57715301880E+03  0.77379974962E+03  0.10566000000E+00 0. -1.
          4    1    1    2  501    0 -0.47958815655E+03  0.31790407012E+03 -0.25134857432E+03  0.62788844830E+03  0.00000000000E+00 0.  1.
</event>
<event>
 5    1  0.1008363E-004  0.4212880E+03  0.7818608E-02  0.9976748E-01
         -4   -1    0    0    0  501 -0.00000000000E+00  0.00000000000E+00  0.27938770349E+04  0.27938770349E+04  0.00000000000E+00 0. -1.
         21   -1    0    0  501  502  0.00000000000E+00 -0.00000000000E+00 -0.11342586157E+03  0.11342586157E+03  0.00000000000E+00 0. -1.
        -13    1    1    2    0    0  0.88108908482E+02 -0.11928847083E+03  0.51246037274E+03  0.53348717306E+03  0.10566000000E+00 0.  1.
         13    1    1    2    0    0 -0.26262628542E+03  0.45972833066E+03  0.16288162686E+04  0.17127069661E+04  0.10566000000E+00 0. -1.
         -4    1    1    2    0  502  0.17451737694E+03 -0.34043985983E+03  0.53917453203E+03  0.66110875732E+03  0.00000000000E+00 0. -1.
</event>
<event>
 5    1  0.1008363E-004  0.1136137E+03  0.7818608E-02  0.1143808E+00
         21   -1    0    0  501  502  0.00000000000E+00  0.00000000000E+00  0.82994361827E+02  0.82994361827E+02  0.00000000000E+00 0. -1.
         -4   -1    0    0    0  501 -0.00000000000E+00 -0.00000000000E+00 -0.37243669495E+04  0.37243669495E+04  0.00000000000E+00 0. -1.
        -13    1    1    2    0    0 -0.38306929312E+02 -0.99845006622E+02 -0.41798556862E+03  0.43144917768E+03  0.10566000000E+00 0.  1.
         13    1    1    2    0    0  0.66612633918E+02  0.17653470639E+03 -0.41779301832E+02  0.19325440948E+03  0.10566000000E+00 0. -1.
         -4    1    1    2    0  502 -0.28305704606E+02 -0.76689699764E+02 -0.31816077172E+04  0.31826577241E+04  0.00000000000E+00 0. -1.
</event>
<event>
 5    1  0.1008363E-004  0.4789569E+03  0.7818608E-02  0.9623108E-01
         21   -1    0    0  501  502  0.00000000000E+00  0.00000000000E+00  0.31852301974E+03  0.31852301974E+03  0.00000000000E+00 0.  1.
          4   -1    0    0  502    0 -0.00000000000E+00 -0.00000000000E+00 -0.15378746825E+04  0.15378746825E+04  0.00000000000E+00 0.  1.
        -13    1    1    2    0    0 -0.55202263294E+03 -0.34435512362E+03 -0.61022544934E+03  0.89201151822E+03  0.10566000000E+00 0.  1.
         13    1    1    2    0    0  0.18427846272E+03  0.28286729615E+03 -0.14084213807E+03  0.36579909524E+03  0.10566000000E+00 0. -1.
          4    1    1    2  501    0  0.36774417022E+03  0.61487827469E+02 -0.46828407535E+03  0.59858708881E+03  0.00000000000E+00 0.  1.
</event>
<event>
 5    1  0.1008363E-004  0.3579809E+03  0.7818608E-02  0.9858926E-01
          4   -1    0    0  502    0 -0.00000000000E+00  0.00000000000E+00  0.15771115237E+04  0.15771115237E+04  0.00000000000E+00 0.  1.
         21   -1    0    0  501  502  0.00000000000E+00 -0.00000000000E+00 -0.11535717787E+03  0.11535717787E+03  0.00000000000E+00 0. -1.
        -13    1    1    2    0    0  0.33943282116E+03  0.11234614114E+03  0.11439747177E+04  0.11985468124E+04  0.10566000000E+00 0.  1.
         13    1    1    2    0    0 -0.33547096650E+03 -0.12959492435E+03  0.30908416650E+03  0.47420317052E+03  0.10566000000E+00 0. -1.
          4    1    1    2  501    0 -0.39618546658E+01  0.17248783208E+02  0.86954616530E+01  0.19718718719E+02  0.00000000000E+00 0.  1.
</event>
<event>
 5    1  0.1008363E-004  0.5316233E+03  0.7818608E-02  0.9411229E-01
         -4   -1    0    0    0  501 -0.00000000000E+00  0.00000000000E+00  0.30235042961E+04  0.30235042961E+04  0.00000000000E+00 0. -1.
         21   -1    0    0  501  502  0.00000000000E+00 -0.00000000000E+00 -0.31239516741E+03  0.31239516741E+03  0.00000000000E+00 0. -1.
        -13    1    1    2    0    0  0.40697762223E+02  0.49585507785E+03  0.18802199824E+04  0.19449307853E+04  0.10566000000E+00 0.  1.
         13    1    1    2    0    0 -0.31087805024E+03 -0.63203478730E+03  0.82976906404E+03  0.10884070219E+04  0.10566000000E+00 0. -1.
         -4    1    1    2    0  502  0.27018028802E+03  0.13617970944E+03  0.11200822221E+01  0.30256165633E+03  0.00000000000E+00 0. -1.
</event>
<event>
 5    1  0.1008363E-004  0.4379421E+03  0.7818608E-02  0.9894479E-01
         21   -1    0    0  501  502  0.00000000000E+00  0.00000000000E+00  0.58026223057E+03  0.58026223057E+03  0.00000000000E+00 0.  1.
          4   -1    0    0  502    0 -0.00000000000E+00 -0.00000000000E+00 -0.67974771341E+03  0.67974771341E+03  0.00000000000E+00 0.  1.
        -13    1    1    2    0    0 -0.23396867939E+03 -0.32098769851E+03 -0.23879498426E+03  0.46346251327E+03  0.10566000000E+00 0.  1.
         13    1    1    2    0    0 -0.15561800319E+03  0.76705052961E+02 -0.16956980295E+03  0.24259958224E+03  0.10566000000E+00 0. -1.
          4    1    1    2  501    0  0.38958668259E+03  0.24428264554E+03  0.30887930437E+03  0.55394784848E+03  0.00000000000E+00 0.  1.
</event>
<event>
 5    1  0.1008363E-004  0.1375167E+03  0.7818608E-02  0.1114121E+00
          4   -1    0    0  502    0 -0.00000000000E+00  0.00000000000E+00  0.10848373424E+03  0.10848373424E+03  0.00000000000E+00 0.  1.
         21   -1    0    0  501  502  0.00000000000E+00 -0.00000000000E+00 -0.34804305689E+03  0.34804305689E+03  0.00000000000E+00 0. -1.
        -13    1    1    2    0    0  0.13724081242E+03  0.68889824671E+02  0.78589945419E+01  0.15376158004E+03  0.10566000000E+00 0.  1.
         13    1    1    2    0    0 -0.71926834729E+02 -0.80295848773E+02 -0.14311968892E+03  0.17917630815E+03  0.10566000000E+00 0. -1.
          4    1    1    2  501    0 -0.65313977694E+02  0.11406024102E+02 -0.10429862828E+03  0.12358890293E+03  0.00000000000E+00 0.  1.
</event>
<event>
 5    1  0.1008363E-004  0.4872538E+03  0.7818608E-02  0.9506355E-01
         21   -1    0    0  501  502  0.00000000000E+00  0.00000000000E+00  0.26532071702E+03  0.26532071702E+03  0.00000000000E+00 0. -1.
         -4   -1    0    0    0  501 -0.00000000000E+00 -0.00000000000E+00 -0.16226579088E+04  0.16226579088E+04  0.00000000000E+00 0. -1.
        -13    1    1    2    0    0  0.42423993006E+03 -0.20751299336E+03 -0.62493695117E+03  0.78331817595E+03  0.10566000000E+00 0.  1.
         13    1    1    2    0    0 -0.43585520526E+03  0.24623663122E+03 -0.84659142239E+03  0.98352391234E+03  0.10566000000E+00 0. -1.
         -4    1    1    2    0  502  0.11615275201E+02 -0.38723637852E+02  0.11419118175E+03  0.12113653757E+03  0.00000000000E+00 0. -1.
</event>
<event>
 5    1  0.1008363E-004  0.1566941E+03  0.7818608E-02  0.1094691E+00
         -4   -1    0    0    0  501 -0.00000000000E+00  0.00000000000E+00  0.72036188372E+03  0.72036188372E+03  0.00000000000E+00 0. -1.
         21   -1    0    0  501  502  0.00000000000E+00 -0.00000000000E+00 -0.15856822069E+03  0.15856822069E+03  0.00000000000E+00 0. -1.
        -13    1    1    2    0    0 -0.15203384672E+03 -0.34962324929E+02  0.11563955011E+03  0.19418849458E+03  0.10566000000E+00 0.  1.
         13    1    1    2    0    0  0.15026793041E+03  0.45351255218E+02  0.55429402735E+03  0.57608946109E+03  0.10566000000E+00 0. -1.
         -4    1    1    2    0  502  0.17659163178E+01 -0.10388930289E+02 -0.10813991443E+03  0.10865214874E+03  0.00000000000E+00 0. -1.
</event>
<event>
 5    1  0.1008363E-004  0.1400303E+03  0.7818608E-02  0.1111383E+00
         21   -1    0    0  501  502  0.00000000000E+00  0.00000000000E+00  0.22720262198E+03  0.22720262198E+03  0.00000000000E+00 0. -1.
          4   -1    0    0  502    0 -0.00000000000E+00 -0.00000000000E+00 -0.18551537486E+03  0.18551537486E+03  0.00000000000E+00 0.  1.
        -13    1    1    2    0    0 -0.11258203010E+03 -0.80263753659E+02 -0.99067110639E+02  0.17009199636E+03  0.10566000000E+00 0.  1.
         13    1    1    2    0    0  0.11192795938E+03  0.93032255927E+02  0.54474227744E+02  0.15540373672E+03  0.10566000000E+00 0. -1.
          4    1    1    2  501    0  0.65407071625E+00 -0.12768502268E+02  0.86280130014E+02  0.87222263752E+02  0.00000000000E+00 0.  1.
</event>
<event>
 5    1  0.1008363E-004  0.4357358E+03  0.7818608E-02  0.9631178E-01
          4   -1    0    0  502    0 -0.00000000000E+00  0.00000000000E+00  0.33481848675E+04  0.33481848675E+04  0.00000000000E+00 0.  1.
         21   -1    0    0  501  502  0.00000000000E+00 -0.00000000000E+00 -0.32558951360E+03  0.32558951360E+03  0.00000000000E+00 0.  1.
        -13    1    1    2    0    0  0.43274812236E+03 -0.16422344380E+03  0.10478213970E+04  0.11454998769E+04  0.10566000000E+00 0.  1.
         13    1    1    2    0    0 -0.42102300656E+03  0.71083587583E+02  0.22226118168E+04  0.22632535315E+04  0.10566000000E+00 0. -1.
          4    1    1    2  501    0 -0.11725115805E+02  0.93139856219E+02 -0.24783785989E+03  0.26502097266E+03  0.00000000000E+00 0.  1.
</event>
<event>
 5    1  0.1008363E-004  0.4700145E+03  0.7818608E-02  0.9764741E-01
         -4   -1    0    0    0  501 -0.00000000000E+00  0.00000000000E+00  0.86000917048E+03  0.86000917048E+03  0.00000000000E+00 0. -1.
         21   -1    0    0  501  502  0.00000000000E+00 -0.00000000000E+00 -0.45760166129E+03  0.45760166129E+03  0.00000000000E+00 0. -1.
        -13    1    1    2    0    0 -0.15292529257E+03 -0.15533636942E+03  0.13906720750E+03  0.25856378737E+03  0.10566000000E+00 0.  1.
         13    1    1    2    0    0  0.40150474938E+03 -0.26122496091E+03 -0.49920509755E+02  0.48159797802E+03  0.10566000000E+00 0. -1.
         -4    1    1    2    0  502 -0.24857945681E+03  0.41656133033E+03  0.31326081145E+03  0.57744906638E+03  0.00000000000E+00 0. -1.
</event>
<event>
 5    1  0.1008363E-004  0.5200922E+03  0.7818608E-02  0.9434989E-01
         21   -1    0    0  501  502  0.00000000000E+00  0.00000000000E+00  0.25363750482E+03  0.25363750482E+03  0.00000000000E+00 0. -1.
         -4   -1    0    0    0  501 -0.00000000000E+00 -0.00000000000E+00 -0.22848165570E+04  0.22848165570E+04  0.00000000000E+00 0. -1.
        -13    1    1    2    0    0  0.42457766183E+03 -0.38943263486E+02 -0.53574797564E+03  0.68469604443E+03  0.10566000000E+00 0.  1.
         13    1    1    2    0    0 -0.56971176399E+03  0.40334376315E+03 -0.10421844982E+04  0.12543549038E+04  0.10566000000E+00 0. -1.
         -4    1    1    2    0  502  0.14513410216E+03 -0.36440049966E+03 -0.45324657834E+03  0.59940311355E+03  0.00000000000E+00 0. -1.
</event>
<event>
 5    1  0.1008363E-004  0.2561371E+03  0.7818608E-02  0.1027261E+00
         -4   -1    0    0    0  501 -0.00000000000E+00  0.00000000000E+00  0.79728351758E+02  0.79728351758E+02  0.00000000000E+00 0. -1.
         21   -1    0    0  501  502  0.00000000000E+00 -0.00000000000E+00 -0.12152237137E+04  0.12152237137E+04  0.00000000000E+00 0.  1.
        -13    1    1    2    0    0  0.24149957923E+03  0.28950678368E+02 -0.87539713501E+03  0.90855948825E+03  0.10566000000E+00 0.  1.
         13    1    1    2    0    0 -0.25597262533E+03 -0.49018221498E+02 -0.24285180246E+03  0.35623276110E+03  0.10566000000E+00 0. -1.
         -4    1    1    2    0  502  0.14473046100E+02  0.20067543130E+02 -0.17246424483E+02  0.30159816116E+02  0.00000000000E+00 0. -1.
</event>
<event>
 5    1  0.1960920E-004  0.3084242E+03  0.7818608E-02  0.1035044E+00
          4   -1    0    0  502    0 -0.00000000000E+00  0.00000000000E+00  0.15935918375E+04  0.15935918375E+04  0.00000000000E+00 0.  1.
         21   -1    0    0  501  502  0.00000000000E+00 -0.00000000000E+00 -0.27745325235E+03  0.27745325235E+03  0.00000000000E+00 0.  1.
        -13    1    1    2    0    0 -0.29908018559E+03 -0.18287306907E+02  0.82853787452E+03  0.88105527845E+03  0.10566000000E+00 0.  1.
         13    1    1    2    0    0  0.29447421089E+01  0.11536874620E+03  0.63489028448E+03  0.64529396681E+03  0.10566000000E+00 0. -1.
          4    1    1    2  501    0  0.29613544348E+03 -0.97081439294E+02 -0.14728957383E+03  0.34469584462E+03  0.00000000000E+00 0.  1.
</event>
<event>
 5    1  0.1008363E-004  0.3747719E+02  0.7818608E-02  0.1353282E+00
          4   -1    0    0  502    0 -0.00000000000E+00  0.00000000000E+00  0.30655375417E+02  0.30655375417E+02  0.00000000000E+00 0.  1.
         21   -1    0    0  501  502  0.00000000000E+00 -0.00000000000E+00 -0.27458040450E+03  0.27458040450E+03  0.00000000000E+00 0.  1.
        -13    1    1    2    0    0 -0.22283083161E+02 -0.23233007172E+02 -0.81295149278E+01  0.33202538976E+02  0.10566000000E+00 0.  1.
         13    1    1    2    0    0  0.70714573410E+01  0.55514937762E+02 -0.30650369238E+02  0.63807288942E+02  0.10566000000E+00 0. -1.
          4    1    1    2  501    0  0.15211625820E+02 -0.32281930590E+02 -0.20514514492E+03  0.20822595200E+03  0.00000000000E+00 0.  1.
</event>
<event>
 5    1  0.1008363E-004  0.2134280E+03  0.7818608E-02  0.1051301E+00
         -4   -1    0    0    0  501 -0.00000000000E+00  0.00000000000E+00  0.81348033494E+03  0.81348033494E+03  0.00000000000E+00 0. -1.
         21   -1    0    0  501  502  0.00000000000E+00 -0.00000000000E+00 -0.99713199588E+02  0.99713199588E+02  0.00000000000E+00 0.  1.
        -13    1    1    2    0    0 -0.13305404459E+03  0.17255227725E+03  0.12412122671E+03  0.25076633995E+03  0.10566000000E+00 0.  1.
         13    1    1    2    0    0  0.14087063363E+03 -0.15878392836E+03  0.60452003333E+03  0.64070379520E+03  0.10566000000E+00 0. -1.
         -4    1    1    2    0  502 -0.78165890321E+01 -0.13768348887E+02 -0.14874124690E+02  0.21723399377E+02  0.00000000000E+00 0. -1.
</event>
<event>
 5    1  0.1008363E-004  0.3816704E+03  0.7818608E-02  0.1003200E+00
         21   -1    0    0  501  502  0.00000000000E+00  0.00000000000E+00  0.18134521245E+03  0.18134521245E+03  0.00000000000E+00 0. -1.
         -4   -1    0    0    0  501 -0.00000000000E+00 -0.00000000000E+00 -0.22247773126E+04  0.22247773126E+04  0.00000000000E+00 0. -1.
        -13    1    1    2    0    0 -0.35712132422E+02  0.16255666444E+03 -0.70316555381E+03  0.72259382282E+03  0.10566000000E+00 0.  1.
         13    1    1    2    0    0 -0.24717855880E+03  0.12878361817E+03 -0.12321724813E+04  0.12633018226E+04  0.10566000000E+00 0. -1.
         -4    1    1    2    0  502  0.28289069122E+03 -0.29134028261E+03 -0.10809406507E+03  0.42022687962E+03  0.00000000000E+00 0. -1.
</event>
<event>
 5    1  0.1008363E-004  0.3108267E+03  0.7818608E-02  0.1038215E+00
          4   -1    0    0  502    0 -0.00000000000E+00  0.00000000000E+00  0.10704267332E+04  0.10704267332E+04  0.00000000000E+00 0.  1.
         21   -1    0    0  501  502  0.00000000000E+00 -0.00000000000E+00 -0.34356669996E+03  0.34356669996E+03  0.00000000000E+00 0.  1.
        -13    1    1    2    0    0  0.16373536877E+03  0.25303472455E+03 -0.19669618975E+03  0.35989615869E+03  0.10566000000E+00 0.  1.
         13    1    1    2    0    0  0.92480851453E+02  0.43870081308E+02  0.30479380421E+03  0.32152226388E+03  0.10566000000E+00 0. -1.
          4    1    1    2  501    0 -0.25621622022E+03 -0.29690480586E+03  0.61876241873E+03  0.73257501055E+03  0.00000000000E+00 0.  1.
</event>
<event>
 5    1  0.1008363E-004  0.5468531E+02  0.7818608E-02  0.1303423E+00
         21   -1    0    0  501  502  0.00000000000E+00  0.00000000000E+00  0.11698374356E+03  0.11698374356E+03  0.00000000000E+00 0.  1.
          4   -1    0    0  502    0 -0.00000000000E+00 -0.00000000000E+00 -0.51984872004E+02  0.51984872004E+02  0.00000000000E+00 0.  1.
        -13    1    1    2    0    0 -0.34824813398E+02  0.29781776537E+02  0.20769416657E+02  0.50310055399E+02  0.10566000000E+00 0.  1.
         13    1    1    2    0    0 -0.28653447533E+02 -0.10364430708E+02 -0.10908393540E+02  0.32364265681E+02  0.10566000000E+00 0. -1.
          4    1    1    2  501    0  0.63478260931E+02 -0.19417345829E+02  0.55137848438E+02  0.86294294483E+02  0.00000000000E+00 0.  1.
</event>
<event>
 5    1  0.1008363E-004  0.4778840E+03  0.7818608E-02  0.9806321E-01
         21   -1    0    0  501  502  0.00000000000E+00  0.00000000000E+00  0.28020412114E+03  0.28020412114E+03  0.00000000000E+00 0. -1.
         -4   -1    0    0    0  501 -0.00000000000E+00 -0.00000000000E+00 -0.13011257890E+04  0.13011257890E+04  0.00000000000E+00 0. -1.
        -13    1    1    2    0    0  0.53046328670E+02 -0.17186848382E+03 -0.18673358097E+03  0.25927230886E+03  0.10566000000E+00 0.  1.
         13    1    1    2    0    0  0.66999962297E+02  0.58051203516E+03 -0.59323060189E+03  0.83270989912E+03  0.10566000000E+00 0. -1.
         -4    1    1    2    0  502 -0.12004629097E+03 -0.40864355135E+03 -0.24095748499E+03  0.48934770216E+03  0.00000000000E+00 0. -1.
</event>
<event>
 5    1  0.1008363E-004  0.2525091E+03  0.7818608E-02  0.1029101E+00
         21   -1    0    0  501  502  0.00000000000E+00  0.00000000000E+00  0.15968424729E+03  0.15968424729E+03  0.00000000000E+00 0.  1.
          4   -1    0    0  502    0 -0.00000000000E+00 -0.00000000000E+00 -0.15299971428E+04  0.15299971428E+04  0.00000000000E+00 0.  1.
        -13    1    1    2    0    0 -0.22479677952E+03  0.23349514501E+03 -0.95423941727E+03  0.10077829387E+04  0.10566000000E+00 0.  1.
         13    1    1    2    0    0  0.19427694824E+03 -0.69341415270E+02 -0.46433780207E+03  0.50809582766E+03  0.10566000000E+00 0. -1.
          4    1    1    2  501    0  0.30519831276E+02 -0.16415372974E+03  0.48264323790E+02  0.17380262380E+03  0.00000000000E+00 0.  1.
</event>
<event>
 5    1  0.1008363E-004  0.5163074E+03  0.7818608E-02  0.9442929E-01
          4   -1    0    0  502    0 -0.00000000000E+00  0.00000000000E+00  0.16946356884E+04  0.16946356884E+04  0.00000000000E+00 0.  1.
         21   -1    0    0  501  502  0.00000000000E+00 -0.00000000000E+00 -0.41134029656E+03  0.41134029656E+03  0.00000000000E+00 0. -1.
        -13    1    1    2    0    0 -0.33304768819E+03 -0.39890288367E+03  0.13676847368E+04  0.14630809354E+04  0.10566000000E+00 0.  1.
         13    1    1    2    0    0  0.32612173883E+03  0.37972835787E+03  0.53597675654E+02  0.50341010747E+03  0.10566000000E+00 0. -1.
          4    1    1    2  501    0  0.69259493529E+01  0.19174525801E+02 -0.13798702058E+03  0.13948494207E+03  0.00000000000E+00 0.  1.
</event>
<event>
 5    1  0.1008363E-004  0.1514844E+03  0.7818608E-02  0.1099657E+00
         21   -1    0    0  501  502  0.00000000000E+00  0.00000000000E+00  0.46464127992E+03  0.46464127992E+03  0.00000000000E+00 0. -1.
         -4   -1    0    0    0  501 -0.00000000000E+00 -0.00000000000E+00 -0.71909081205E+03  0.71909081205E+03  0.00000000000E+00 0. -1.
        -13    1    1    2    0    0  0.13576681748E+03  0.66098625424E+02 -0.53971604188E+03  0.56044185607E+03  0.10566000000E+00 0.  1.
         13    1    1    2    0    0 -0.14651075136E+03 -0.48131179863E+02 -0.13351785763E+03  0.20398294098E+03  0.10566000000E+00 0. -1.
         -4    1    1    2    0  502  0.10743933883E+02 -0.17967445561E+02  0.41878436738E+03  0.41930729492E+03  0.00000000000E+00 0. -1.
</event>
<event>
 5    1  0.1008363E-004  0.7637895E+02  0.7818608E-02  0.1210920E+00
         21   -1    0    0  501  502  0.00000000000E+00  0.00000000000E+00  0.22297399480E+03  0.22297399480E+03  0.00000000000E+00 0. -1.
          4   -1    0    0  502    0 -0.00000000000E+00 -0.00000000000E+00 -0.77532569683E+02  0.77532569683E+02  0.00000000000E+00 0.  1.
        -13    1    1    2    0    0  0.67336976951E+02 -0.14184893053E+02  0.94118442417E+01  0.69455551484E+02  0.10566000000E+00 0.  1.
         13    1    1    2    0    0 -0.74571500348E+02  0.42796402283E+02 -0.58083694760E+01  0.86175338889E+02  0.10566000000E+00 0. -1.
          4    1    1    2  501    0  0.72345233971E+01 -0.28611509230E+02  0.14183795035E+03  0.14487567411E+03  0.00000000000E+00 0.  1.
</event>
<event>
 5    1  0.1008363E-004  0.4519455E+03  0.7818608E-02  0.9844884E-01
         -4   -1    0    0    0  501 -0.00000000000E+00  0.00000000000E+00  0.44284159285E+04  0.44284159285E+04  0.00000000000E+00 0. -1.
         21   -1    0    0  501  502  0.00000000000E+00 -0.00000000000E+00 -0.82737232498E+02  0.82737232498E+02  0.00000000000E+00 0. -1.
        -13    1    1    2    0    0  0.11300549151E+03 -0.14842120402E+03  0.49104724250E+03  0.52528706480E+03  0.10566000000E+00 0.  1.
         13    1    1    2    0    0 -0.47400404765E+03 -0.54394681955E+02  0.10825100058E+04  0.11829905082E+04  0.10566000000E+00 0. -1.
         -4    1    1    2    0  502  0.36099855614E+03  0.20281588598E+03  0.27721214477E+04  0.28028755880E+04  0.00000000000E+00 0. -1.
</event>
<event>
 5    1  0.1008363E-004  0.2372566E+03  0.7818608E-02  0.1037217E+00
         21   -1    0    0  501  502  0.00000000000E+00  0.00000000000E+00  0.37556832572E+03  0.37556832572E+03  0.00000000000E+00 0.  1.
          4   -1    0    0  502    0 -0.00000000000E+00 -0.00000000000E+00 -0.12087105136E+04  0.12087105136E+04  0.00000000000E+00 0.  1.
        -13    1    1    2    0    0  0.11449739832E+03  0.19828041720E+03 -0.92127672031E+03  0.94930268335E+03  0.10566000000E+00 0.  1.
         13    1    1    2    0    0 -0.16272590493E+03 -0.22980867475E+03 -0.19727039611E+03  0.34381298328E+03  0.10566000000E+00 0. -1.
          4    1    1    2  501    0  0.48228506604E+02  0.31528257546E+02  0.28540492857E+03  0.29116317268E+03  0.00000000000E+00 0.  1.
</event>
<event>
 5    1  0.1008363E-004  0.4720887E+03  0.7818608E-02  0.9618172E-01
          4   -1    0    0  502    0 -0.00000000000E+00  0.00000000000E+00  0.20104603992E+04  0.20104603992E+04  0.00000000000E+00 0.  1.
         21   -1    0    0  501  502  0.00000000000E+00 -0.00000000000E+00 -0.24929036860E+03  0.24929036860E+03  0.00000000000E+00 0.  1.
        -13    1    1    2    0    0 -0.44490820104E+03  0.30831869802E+03  0.77737563970E+03  0.94726797860E+03  0.10566000000E+00 0.  1.
         13    1    1    2    0    0 -0.31569888918E+02 -0.35737329603E+03  0.59833954807E+03  0.69765504123E+03  0.10566000000E+00 0. -1.
          4    1    1    2  501    0  0.47647808996E+03  0.49054598010E+02  0.38545484278E+03  0.61482774793E+03  0.00000000000E+00 0.  1.
</event>
<event>
 5    1  0.1008363E-004  0.1829367E+02  0.7818608E-02  0.1535072E+00
          4   -1    0    0  502    0 -0.00000000000E+00  0.00000000000E+00  0.83103756090E+02  0.83103756090E+02  0.00000000000E+00 0.  1.
         21   -1    0    0  501  502  0.00000000000E+00 -0.00000000000E+00 -0.43380672399E+02  0.43380672399E+02  0.00000000000E+00 0.  1.
        -13    1    1    2    0    0  0.14403555398E+02  0.10109451317E+02  0.68388075484E+02  0.70615886644E+02  0.10566000000E+00 0.  1.
         13    1    1    2    0    0 -0.22929686567E+02 -0.16521930832E+02 -0.34281802995E+01  0.28469427615E+02  0.10566000000E+00 0. -1.
          4    1    1    2  501    0  0.85261311693E+01  0.64124795151E+01 -0.25236811494E+02  0.27399114231E+02  0.00000000000E+00 0.  1.
</event>
<event>
 5    1  0.1008363E-004  0.1506523E+03  0.7818608E-02  0.1100470E+00
         21   -1    0    0  501  502  0.00000000000E+00  0.00000000000E+00  0.65049350356E+02  0.65049350356E+02  0.00000000000E+00 0.  1.
          4   -1    0    0  502    0 -0.00000000000E+00 -0.00000000000E+00 -0.64924954469E+03  0.64924954469E+03  0.00000000000E+00 0.  1.
        -13    1    1    2    0    0 -0.16638105343E+03  0.51109951030E+02 -0.23303204603E+03  0.29085877617E+03  0.10566000000E+00 0.  1.
         13    1    1    2    0    0  0.13644293744E+03 -0.31945030974E+02 -0.36042440462E+03  0.38670780027E+03  0.10566000000E+00 0. -1.
          4    1    1    2  501    0  0.29938115987E+02 -0.19164920056E+02  0.92562563094E+01  0.36732318610E+02  0.00000000000E+00 0.  1.
</event>
<event>
 5    1  0.1008363E-004  0.3817398E+03  0.7818608E-02  0.9969264E-01
         -4   -1    0    0    0  501 -0.00000000000E+00  0.00000000000E+00  0.24788199964E+04  0.24788199964E+04  0.00000000000E+00 0. -1.
         21   -1    0    0  501  502  0.00000000000E+00 -0.00000000000E+00 -0.21186638173E+03  0.21186638173E+03  0.00000000000E+00 0. -1.
        -13    1    1    2    0    0  0.16307055118E+03 -0.12308602031E+03  0.11874581749E+04  0.12049062625E+04  0.10566000000E+00 0.  1.
         13    1    1    2    0    0  0.34080657944E+03  0.11703214698E+03  0.83986337920E+02  0.36999914073E+03  0.10566000000E+00 0. -1.
         -4    1    1    2    0  502 -0.50387713062E+03  0.60538733293E+01  0.99550910183E+03  0.11157809749E+04  0.00000000000E+00 0. -1.
</event>
<event>
 5    1  0.1008363E-004  0.8513537E+02  0.7818608E-02  0.1191809E+00
         21   -1    0    0  501  502  0.00000000000E+00  0.00000000000E+00  0.98185225732E+02  0.98185225732E+02  0.00000000000E+00 0. -1.
         -4   -1    0    0    0  501 -0.00000000000E+00 -0.00000000000E+00 -0.53718774620E+03  0.53718774620E+03  0.00000000000E+00 0. -1.
        -13    1    1    2    0    0 -0.67457746585E+02 -0.48875587552E+02 -0.16618834129E+03  0.18589767771E+03  0.10566000000E+00 0.  1.
         13    1    1    2    0    0  0.52231407018E+02  0.70198444988E+02 -0.35374665414E+03  0.36440725574E+03  0.10566000000E+00 0. -1.
         -4    1    1    2    0  502  0.15226339568E+02 -0.21322857436E+02  0.80932474967E+02  0.85068038476E+02  0.00000000000E+00 0. -1.
</event>
<event>
 5    1  0.1008363E-004  0.2335301E+03  0.7818608E-02  0.1039300E+00
         21   -1    0    0  501  502  0.00000000000E+00  0.00000000000E+00  0.22545907774E+03  0.22545907774E+03  0.00000000000E+00 0. -1.
          4   -1    0    0  502    0 -0.00000000000E+00 -0.00000000000E+00 -0.78052935222E+03  0.78052935222E+03  0.00000000000E+00 0.  1.
        -13    1    1    2    0    0 -0.18433896991E+03  0.15524488176E+03 -0.25847986005E+03  0.35340299710E+03  0.10566000000E+00 0.  1.
         13    1    1    2    0    0  0.17607402122E+03 -0.14669197041E+03 -0.44667250405E+03  0.50203279989E+03  0.10566000000E+00 0. -1.
          4    1    1    2  501    0  0.82649486970E+01 -0.85529113560E+01  0.15008208962E+03  0.15055263298E+03  0.00000000000E+00 0.  1.
</event>
<event>
 5    1  0.1008363E-004  0.2856754E+03  0.7818608E-02  0.1013400E+00
         21   -1    0    0  501  502  0.00000000000E+00  0.00000000000E+00  0.84193518685E+02  0.84193518685E+02  0.00000000000E+00 0.  1.
         -4   -1    0    0    0  501 -0.00000000000E+00 -0.00000000000E+00 -0.12487962660E+04  0.12487962660E+04  0.00000000000E+00 0. -1.
        -13    1    1    2    0    0 -0.18237993609E+03  0.22851015689E+03 -0.78275198930E+03  0.83557167305E+03  0.10566000000E+00 0.  1.
         13    1    1    2    0    0  0.18436600729E+03 -0.20382861024E+03 -0.38437738445E+03  0.47252821274E+03  0.10566000000E+00 0. -1.
         -4    1    1    2    0  502 -0.19860711936E+01 -0.24681546657E+02  0.25266264611E+01  0.24889898864E+02  0.00000000000E+00 0. -1.
</event>
<event>
 5    1  0.1008363E-004  0.5231551E+03  0.7818608E-02  0.9428615E-01
         -4   -1    0    0    0  501 -0.00000000000E+00  0.00000000000E+00  0.34200234839E+04  0.34200234839E+04  0.00000000000E+00 0. -1.
         21   -1    0    0  501  502  0.00000000000E+00 -0.00000000000E+00 -0.26346968687E+03  0.26346968687E+03  0.00000000000E+00 0. -1.
        -13    1    1    2    0    0  0.31361662596E+03  0.43017928476E+03  0.19720304664E+04  0.20426242377E+04  0.10566000000E+00 0.  1.
         13    1    1    2    0    0  0.51351270585E+02 -0.60152173463E+03  0.10582995140E+04  0.12183854984E+04  0.10566000000E+00 0. -1.
         -4    1    1    2    0  502 -0.36496789654E+03  0.17134244988E+03  0.12622381664E+03  0.42248343461E+03  0.00000000000E+00 0. -1.
</event>
<event>
 5    1  0.1008363E-004  0.4943037E+03  0.7818608E-02  0.9501716E-01
         21   -1    0    0  501  502  0.00000000000E+00  0.00000000000E+00  0.26597646707E+04  0.26597646707E+04  0.00000000000E+00 0.  1.
          4   -1    0    0  502    0 -0.00000000000E+00 -0.00000000000E+00 -0.25731983708E+03  0.25731983708E+03  0.00000000000E+00 0.  1.
        -13    1    1    2    0    0 -0.20532781922E+03 -0.30549804887E+03  0.34984987009E+03  0.50782232520E+03  0.10566000000E+00 0.  1.
         13    1    1    2    0    0 -0.43651025709E+03  0.18636083732E+03  0.36173243654E+03  0.59675952699E+03  0.10566000000E+00 0. -1.
          4    1    1    2  501    0  0.64183807631E+03  0.11913721155E+03  0.16908625270E+04  0.18125026556E+04  0.00000000000E+00 0.  1.
</event>
<event>
 5    1  0.1008363E-004  0.1521812E+03  0.7818608E-02  0.1144037E+00
         21   -1    0    0  501  502  0.00000000000E+00  0.00000000000E+00  0.35433226192E+03  0.35433226192E+03  0.00000000000E+00 0. -1.
         -4   -1    0    0    0  501 -0.00000000000E+00 -0.00000000000E+00 -0.10280656239E+03  0.10280656239E+03  0.00000000000E+00 0. -1.
        -13    1    1    2    0    0  0.28325246409E+02 -0.37512256396E+02 -0.10812557627E+01  0.47017754542E+02  0.10566000000E+00 0.  1.
         13    1    1    2    0    0 -0.16136757941E+03  0.76884063250E+02  0.10395031891E+03  0.20677604995E+03  0.10566000000E+00 0. -1.
         -4    1    1    2    0  502  0.13304233300E+03 -0.39371806854E+02  0.14865663638E+03  0.20334501982E+03  0.00000000000E+00 0. -1.
</event>
<event>
 5    1  0.1008363E-004  0.4007819E+03  0.7818608E-02  0.1026321E+00
         21   -1    0    0  501  502  0.00000000000E+00  0.00000000000E+00  0.74439898213E+03  0.74439898213E+03  0.00000000000E+00 0. -1.
         -4   -1    0    0    0  501 -0.00000000000E+00 -0.00000000000E+00 -0.43275105589E+03  0.43275105589E+03  0.00000000000E+00 0. -1.
        -13    1    1    2    0    0 -0.11346833355E+02 -0.67900364492E+02 -0.63542303946E+02  0.93684820970E+02  0.10566000000E+00 0.  1.
         13    1    1    2    0    0  0.14948959452E+03  0.43015399243E+03 -0.10396290951E+03  0.46710587000E+03  0.10566000000E+00 0. -1.
         -4    1    1    2    0  502 -0.13814276116E+03 -0.36225362793E+03  0.47915313969E+03  0.61635934705E+03  0.00000000000E+00 0. -1.
</event>
<event>
 5    1  0.1008363E-004  0.4213460E+03  0.7818608E-02  0.9874369E-01
          4   -1    0    0  502    0 -0.00000000000E+00  0.00000000000E+00  0.52674678394E+03  0.52674678394E+03  0.00000000000E+00 0.  1.
         21   -1    0    0  501  502  0.00000000000E+00 -0.00000000000E+00 -0.95463710354E+03  0.95463710354E+03  0.00000000000E+00 0.  1.
        -13    1    1    2    0    0  0.49196007928E+03 -0.22300887833E+03 -0.11586651400E+03  0.55243347079E+03  0.10566000000E+00 0.  1.
         13    1    1    2    0    0 -0.20419062782E+03 -0.41757872033E+02  0.19718755476E+03  0.28691544971E+03  0.10566000000E+00 0. -1.
          4    1    1    2  501    0 -0.28776945146E+03  0.26476675037E+03 -0.50921136036E+03  0.64203496697E+03  0.00000000000E+00 0.  1.
</event>
<event>
 5    1  0.1008363E-004  0.5440439E+03  0.7818608E-02  0.9429955E-01
         21   -1    0    0  501  502  0.00000000000E+00  0.00000000000E+00  0.59719675623E+03  0.59719675623E+03  0.00000000000E+00 0. -1.
         -4   -1    0    0    0  501 -0.00000000000E+00 -0.00000000000E+00 -0.15707704659E+04  0.15707704659E+04  0.00000000000E+00 0. -1.
        -13    1    1    2    0    0  0.18237544896E+03 -0.56090752120E+03 -0.76484385903E+03  0.96584894864E+03  0.10566000000E+00 0.  1.
         13    1    1    2    0    0 -0.17143541071E+03 -0.15883426056E+03 -0.39466158480E+03  0.45866785374E+03  0.10566000000E+00 0. -1.
         -4    1    1    2    0  502 -0.10940038254E+02  0.71974178176E+03  0.18593173417E+03  0.74345041975E+03  0.00000000000E+00 0. -1.
</event>
<event>
 5    1  0.1008363E-004  0.3789539E+02  0.7818608E-02  0.1421737E+00
         21   -1    0    0  501  502  0.00000000000E+00  0.00000000000E+00  0.58232654014E+02  0.58232654014E+02  0.00000000000E+00 0.  1.
          4   -1    0    0  502    0 -0.00000000000E+00 -0.00000000000E+00 -0.44571002916E+02  0.44571002916E+02  0.00000000000E+00 0.  1.
        -13    1    1    2    0    0  0.39372410204E+02  0.17882613738E+02 -0.13499929278E+02  0.45301587323E+02  0.10566000000E+00 0.  1.
         13    1    1    2    0    0 -0.35650254532E+01 -0.10714292027E+02 -0.10714204663E+01  0.11343040420E+02  0.10566000000E+00 0. -1.
          4    1    1    2  501    0 -0.35807384751E+02 -0.71683217108E+01  0.28233000843E+02  0.46159029187E+02  0.00000000000E+00 0.  1.
</event>
<event>
 5    1  0.1008363E-004  0.8915905E+02  0.7818608E-02  0.1252284E+00
         -4   -1    0    0    0  501 -0.00000000000E+00  0.00000000000E+00  0.25448866872E+03  0.25448866872E+03  0.00000000000E+00 0. -1.
         21   -1    0    0  501  502  0.00000000000E+00 -0.00000000000E+00 -0.49403799346E+02  0.49403799346E+02  0.00000000000E+00 0. -1.
        -13    1    1    2    0    0  0.71767648748E+01 -0.18277389879E+02 -0.45252107369E+01  0.20150871721E+02  0.10566000000E+00 0.  1.
         13    1    1    2    0    0 -0.52603713060E+02  0.87606390869E+02  0.15059877874E+03  0.18199459791E+03  0.10566000000E+00 0. -1.
         -4    1    1    2    0  502  0.45426948185E+02 -0.69329000990E+02  0.59011301369E+02  0.10174699843E+03  0.00000000000E+00 0. -1.
</event>
<event>
 5    1  0.1008363E-004  0.2933316E+03  0.7818608E-02  0.1010097E+00
         21   -1    0    0  501  502  0.00000000000E+00  0.00000000000E+00  0.58760558712E+02  0.58760558712E+02  0.00000000000E+00 0.  1.
         -4   -1    0    0    0  501 -0.00000000000E+00 -0.00000000000E+00 -0.19218334804E+04  0.19218334804E+04  0.00000000000E+00 0. -1.
        -13    1    1    2    0    0  0.28940461253E+03 -0.70961182196E+02 -0.83498503144E+03  0.88656107124E+03  0.10566000000E+00 0.  1.
         13    1    1    2    0    0 -0.27970351186E+03  0.75816503672E+02 -0.10389927723E+04  0.10786510969E+04  0.10566000000E+00 0. -1.
         -4    1    1    2    0  502 -0.97011006765E+01 -0.48553214760E+01  0.10904882081E+02  0.15381870958E+02  0.00000000000E+00 0. -1.
</event>
<event>
 5    1  0.1008363E-004  0.4751141E+03  0.7818608E-02  0.9730824E-01
         -4   -1    0    0    0  501 -0.00000000000E+00  0.00000000000E+00  0.21393447895E+04  0.21393447895E+04  0.00000000000E+00 0. -1.
         21   -1    0    0  501  502  0.00000000000E+00 -0.00000000000E+00 -0.19285171083E+03  0.19285171083E+03  0.00000000000E+00 0. -1.
        -13    1    1    2    0    0 -0.13653004834E+03  0.19400642123E+03  0.56655420997E+03  0.61421708669E+03  0.10566000000E+00 0.  1.
         13    1    1    2    0    0  0.56019233033E+03 -0.68096037385E+02  0.92609300487E+03  0.10844818035E+04  0.10566000000E+00 0. -1.
         -4    1    1    2    0  502 -0.42366228200E+03 -0.12591038384E+03  0.45384586377E+03  0.63349761011E+03  0.00000000000E+00 0. -1.
</event>
<event>
 5    1  0.1008363E-004  0.2993620E+03  0.7818608E-02  0.1017950E+00
          4   -1    0    0  502    0 -0.00000000000E+00  0.00000000000E+00  0.51134080638E+03  0.51134080638E+03  0.00000000000E+00 0.  1.
         21   -1    0    0  501  502  0.00000000000E+00 -0.00000000000E+00 -0.93291478125E+03  0.93291478125E+03  0.00000000000E+00 0.  1.
        -13    1    1    2    0    0 -0.28378426405E+03 -0.28109696972E+03  0.11346042221E+03  0.41523763495E+03  0.10566000000E+00 0.  1.
         13    1    1    2    0    0  0.21477521668E+03 -0.46773809411E+01  0.16426686018E+03  0.27043277189E+03  0.10566000000E+00 0. -1.
          4    1    1    2  501    0  0.69009047367E+02  0.28577435066E+03 -0.69930125726E+03  0.75858518079E+03  0.00000000000E+00 0.  1.
</event>
<event>
 5    1  0.1008363E-004  0.4929036E+03  0.7818608E-02  0.9493663E-01
         -4   -1    0    0    0  501 -0.00000000000E+00  0.00000000000E+00  0.30274015925E+04  0.30274015925E+04  0.00000000000E+00 0. -1.
         21   -1    0    0  501  502  0.00000000000E+00 -0.00000000000E+00 -0.26642424832E+03  0.26642424832E+03  0.00000000000E+00 0. -1.
        -13    1    1    2    0    0  0.14999906998E+03 -0.47697655884E+03  0.16413872179E+04  0.17158549965E+04  0.10566000000E+00 0.  1.
         13    1    1    2    0    0 -0.31362462242E+03  0.36854737880E+03  0.45468312943E+02  0.48606064730E+03  0.10566000000E+00 0. -1.
         -4    1    1    2    0  502  0.16362555245E+03  0.10842918004E+03  0.10741218134E+04  0.10919101971E+04  0.00000000000E+00 0. -1.
</event>
<event>
 5    1  0.1008363E-004  0.1619324E+03  0.7818608E-02  0.1089905E+00
         -4   -1    0    0    0  501 -0.00000000000E+00  0.00000000000E+00  0.19629607549E+03  0.19629607549E+03  0.00000000000E+00 0. -1.
         21   -1    0    0  501  502  0.00000000000E+00 -0.00000000000E+00 -0.33268716067E+03  0.33268716067E+03  0.00000000000E+00 0. -1.
        -13    1    1    2    0    0 -0.30140050018E+02 -0.14166353283E+03 -0.12666850449E+03  0.19241075943E+03  0.10566000000E+00 0.  1.
         13    1    1    2    0    0  0.43342607279E+02  0.16081613536E+03  0.11968077526E+03  0.20509488080E+03  0.10566000000E+00 0. -1.
         -4    1    1    2    0  502 -0.13202557260E+02 -0.19152602531E+02 -0.12940335595E+03  0.13147759594E+03  0.00000000000E+00 0. -1.
</event>
<event>
 5    1  0.1008363E-004  0.4937020E+03  0.7818608E-02  0.9707955E-01
         21   -1    0    0  501  502  0.00000000000E+00  0.00000000000E+00  0.10003749457E+03  0.10003749457E+03  0.00000000000E+00 0.  1.
          4   -1    0    0  502    0 -0.00000000000E+00 -0.00000000000E+00 -0.40386906334E+04  0.40386906334E+04  0.00000000000E+00 0.  1.
        -13    1    1    2    0    0 -0.30233575380E+03 -0.47609304930E+03 -0.11822262859E+04  0.13098589626E+04  0.10566000000E+00 0.  1.
         13    1    1    2    0    0  0.21489093882E+03  0.78820887245E+02 -0.94378973607E+03  0.97114876560E+03  0.10566000000E+00 0. -1.
          4    1    1    2  501    0  0.87444814980E+02  0.39727216206E+03 -0.18126371169E+04  0.18577203998E+04  0.00000000000E+00 0.  1.
</event>
<event>
 5    1  0.1008363E-004  0.1089785E+03  0.7818608E-02  0.1150498E+00
         21   -1    0    0  501  502  0.00000000000E+00  0.00000000000E+00  0.21354015070E+02  0.21354015070E+02  0.00000000000E+00 0. -1.
          4   -1    0    0  502    0 -0.00000000000E+00 -0.00000000000E+00 -0.99644861791E+03  0.99644861791E+03  0.00000000000E+00 0.  1.
        -13    1    1    2    0    0  0.68860225076E+02 -0.81010928509E+02 -0.43743595904E+03  0.45017189002E+03  0.10566000000E+00 0.  1.
         13    1    1    2    0    0 -0.92427722029E+02  0.65314439389E+02 -0.52420082316E+03  0.53627919404E+03  0.10566000000E+00 0. -1.
          4    1    1    2  501    0  0.23567496953E+02  0.15696489119E+02 -0.13457820629E+02  0.31351548916E+02  0.00000000000E+00 0.  1.
</event>
<event>
 5    1  0.1008363E-004  0.4555116E+03  0.7818608E-02  0.9929564E-01
          4   -1    0    0  502    0 -0.00000000000E+00  0.00000000000E+00  0.10754189928E+04  0.10754189928E+04  0.00000000000E+00 0.  1.
         21   -1    0    0  501  502  0.00000000000E+00 -0.00000000000E+00 -0.42096492389E+03  0.42096492389E+03  0.00000000000E+00 0.  1.
        -13    1    1    2    0    0 -0.24847447607E+03  0.27842377156E+03  0.23494680303E+03  0.44097547919E+03  0.10566000000E+00 0.  1.
         13    1    1    2    0    0 -0.59908674095E+02  0.12337161613E+03  0.52108015887E+03  0.53882664005E+03  0.10566000000E+00 0. -1.
          4    1    1    2  501    0  0.30838315017E+03 -0.40179538769E+03 -0.10157289298E+03  0.51658179746E+03  0.00000000000E+00 0.  1.
</event>
<event>
 5    1  0.1008363E-004  0.8118150E+02  0.7818608E-02  0.1200109E+00
         21   -1    0    0  501  502  0.00000000000E+00  0.00000000000E+00  0.46815320989E+03  0.46815320989E+03  0.00000000000E+00 0. -1.
          4   -1    0    0  502    0 -0.00000000000E+00 -0.00000000000E+00 -0.30007467001E+02  0.30007467001E+02  0.00000000000E+00 0.  1.
        -13    1    1    2    0    0 -0.17187260463E+02  0.79521960330E+02  0.46690711073E+02  0.93803932548E+02  0.10566000000E+00 0.  1.
         13    1    1    2    0    0  0.27017330603E+02 -0.76400723042E+02  0.25623846119E+03  0.26874740332E+03  0.10566000000E+00 0. -1.
          4    1    1    2  501    0 -0.98300701392E+01 -0.31212372875E+01  0.13521657063E+03  0.13560934102E+03  0.00000000000E+00 0.  1.
</event>
<event>
 5    1  0.1834390E-004  0.2907246E+03  0.7818608E-02  0.1088136E+00
          4   -1    0    0  502    0 -0.00000000000E+00  0.00000000000E+00  0.21508698407E+03  0.21508698407E+03  0.00000000000E+00 0.  1.
         21   -1    0    0  501  502  0.00000000000E+00 -0.00000000000E+00 -0.12574861974E+04  0.12574861974E+04  0.00000000000E+00 0.  1.
        -13    1    1    2    0    0 -0.16596635270E+03 -0.26183258155E+03  0.55316836732E+02  0.31489854649E+03  0.10566000000E+00 0.  1.
         13    1    1    2    0    0 -0.49110021050E+01  0.28971702100E+02 -0.81768166794E+01  0.30501622240E+02  0.10566000000E+00 0. -1.
          4    1    1    2  501    0  0.17087735481E+03  0.23286087945E+03 -0.10895392334E+04  0.11271730127E+04  0.00000000000E+00 0.  1.
</event>
<event>
 5    1  0.1008363E-004  0.3787179E+03  0.7818608E-02  0.9792604E-01
          4   -1    0    0  502    0 -0.00000000000E+00  0.00000000000E+00  0.13636354997E+04  0.13636354997E+04  0.00000000000E+00 0.  1.
         21   -1    0    0  501  502  0.00000000000E+00 -0.00000000000E+00 -0.88224531624E+03  0.88224531624E+03  0.00000000000E+00 0.  1.
        -13    1    1    2    0    0 -0.60546634048E+03 -0.24124737403E+03 -0.49739465765E+03  0.81987269838E+03  0.10566000000E+00 0.  1.
         13    1    1    2    0    0  0.34868439289E+03  0.11157947892E+03  0.10646212633E+04  0.11258104776E+04  0.10566000000E+00 0. -1.
          4    1    1    2  501    0  0.25678194759E+03  0.12966789511E+03 -0.85836422257E+02  0.30019763992E+03  0.00000000000E+00 0.  1.
</event>
<event>
 5    1  0.1008363E-004  0.4578210E+03  0.7818608E-02  0.9638588E-01
          4   -1    0    0  502    0 -0.00000000000E+00  0.00000000000E+00  0.13704074881E+04  0.13704074881E+04  0.00000000000E+00 0.  1.
         21   -1    0    0  501  502  0.00000000000E+00 -0.00000000000E+00 -0.38853377820E+03  0.38853377820E+03  0.00000000000E+00 0.  1.
        -13    1    1    2    0    0  0.96645095953E+01  0.32826116766E+03  0.73228475624E+03  0.80255203714E+03  0.10566000000E+00 0.  1.
         13    1    1    2    0    0  0.36198306063E+03  0.53858867819E+02  0.20985000366E+03  0.42186437279E+03  0.10566000000E+00 0. -1.
          4    1    1    2  501    0 -0.37164757023E+03 -0.38212003548E+03  0.39738950052E+02  0.53452485641E+03  0.00000000000E+00 0.  1.
</event>
<event>
 5    1  0.1008363E-004  0.2866549E+02  0.7818608E-02  0.1433346E+00
         21   -1    0    0  501  502  0.00000000000E+00  0.00000000000E+00  0.25511342582E+03  0.25511342582E+03  0.00000000000E+00 0. -1.
         -4   -1    0    0    0  501 -0.00000000000E+00 -0.00000000000E+00 -0.10332030876E+03  0.10332030876E+03  0.00000000000E+00 0. -1.
        -13    1    1    2    0    0 -0.58689815953E+00  0.56252004374E+02  0.25891415044E+02  0.61927449346E+02  0.10566000000E+00 0.  1.
         13    1    1    2    0    0  0.38309685897E+01 -0.23423149845E+02 -0.82327319824E+02  0.85680330429E+02  0.10566000000E+00 0. -1.
         -4    1    1    2    0  502 -0.32440704301E+01 -0.32828854529E+02  0.20822902184E+03  0.21082595480E+03  0.00000000000E+00 0. -1.
</event>
<event>
 5    1  0.1008363E-004  0.5770793E+02  0.7818608E-02  0.1290334E+00
         21   -1    0    0  501  502  0.00000000000E+00  0.00000000000E+00  0.28404720037E+03  0.28404720037E+03  0.00000000000E+00 0. -1.
         -4   -1    0    0    0  501 -0.00000000000E+00 -0.00000000000E+00 -0.24206602253E+02  0.24206602253E+02  0.00000000000E+00 0. -1.
        -13    1    1    2    0    0 -0.97781591985E+01  0.32005018358E+02  0.66373182495E+02  0.74332658475E+02  0.10566000000E+00 0.  1.
         13    1    1    2    0    0  0.64636645967E+02 -0.21523377776E+02  0.66450676130E+02  0.95167511867E+02  0.10566000000E+00 0. -1.
         -4    1    1    2    0  502 -0.54858486769E+02 -0.10481640582E+02  0.12701673949E+03  0.13875363228E+03  0.00000000000E+00 0. -1.
</event>
<event>
 5    1  0.1008363E-004  0.4300481E+03  0.7818608E-02  0.9646074E-01
          4   -1    0    0  502    0 -0.00000000000E+00  0.00000000000E+00  0.21973447327E+04  0.21973447327E+04  0.00000000000E+00 0.  1.
         21   -1    0    0  501  502  0.00000000000E+00 -0.00000000000E+00 -0.23670539871E+03  0.23670539871E+03  0.00000000000E+00 0.  1.
        -13    1    1    2    0    0  0.63876711197E+03 -0.17696471821E+03  0.63718799221E+03  0.91942834599E+03  0.10566000000E+00 0.  1.
         13    1    1    2    0    0 -0.28031921019E+03  0.24136996016E+03  0.72893405438E+03  0.81742472685E+03  0.10566000000E+00 0. -1.
          4    1    1    2  501    0 -0.35844790178E+03 -0.64405241947E+02  0.59451728742E+03  0.69719705860E+03  0.00000000000E+00 0.  1.
</event>
<event>
 5    1  0.1008363E-004  0.2724099E+03  0.7818608E-02  0.1026042E+00
         21   -1    0    0  501  502  0.00000000000E+00  0.00000000000E+00  0.33751048185E+03  0.33751048185E+03  0.00000000000E+00 0. -1.
         -4   -1    0    0    0  501 -0.00000000000E+00 -0.00000000000E+00 -0.15256394735E+04  0.15256394735E+04  0.00000000000E+00 0. -1.
        -13    1    1    2    0    0 -0.19931987397E+03 -0.22733345677E+03 -0.18881186966E+03  0.35645314701E+03  0.10566000000E+00 0.  1.
         13    1    1    2    0    0 -0.17408028491E+03 -0.14922026039E+03  0.12676725175E+03  0.26199347127E+03  0.10566000000E+00 0. -1.
         -4    1    1    2    0  502  0.37340015888E+03  0.37655371716E+03 -0.11260843738E+04  0.12447033371E+04  0.00000000000E+00 0. -1.
</event>
<event>
 5    1  0.1008363E-004  0.1977425E+03  0.7818608E-02  0.1061695E+00
         21   -1    0    0  501  502  0.00000000000E+00  0.00000000000E+00  0.23073676428E+03  0.23073676428E+03  0.00000000000E+00 0.  1.
         -4   -1    0    0    0  501 -0.00000000000E+00 -0.00000000000E+00 -0.68012863265E+03  0.68012863265E+03  0.00000000000E+00 0. -1.
        -13    1    1    2    0    0  0.16994096374E+00 -0.19016994808E+03  0.14851199963E+03  0.24128916931E+03  0.10566000000E+00 0.  1.
         13    1    1    2    0    0 -0.26782626656E+02  0.19666893197E+03 -0.60861446841E+03  0.64016213588E+03  0.10566000000E+00 0. -1.
         -4    1    1    2    0  502  0.26612685692E+02 -0.64989838934E+01  0.10710600416E+02  0.29414091736E+02  0.00000000000E+00 0. -1.
</event>
<event>
 5    1  0.1008363E-004  0.2512328E+03  0.7818608E-02  0.1029756E+00
         21   -1    0    0  501  502  0.00000000000E+00  0.00000000000E+00  0.79552050860E+02  0.79552050860E+02  0.00000000000E+00 0.  1.
          4   -1    0    0  502    0 -0.00000000000E+00 -0.00000000000E+00 -0.23607679486E+04  0.23607679486E+04  0.00000000000E+00 0.  1.
        -13    1    1    2    0    0 -0.27647066471E+03  0.18717497650E+03 -0.13232443289E+04  0.13647146461E+04  0.10566000000E+00 0.  1.
         13    1    1    2    0    0  0.11816802233E+03 -0.17235063132E+03 -0.86824671299E+03  0.89304019361E+03  0.10566000000E+00 0. -1.
          4    1    1    2  501    0  0.15830264238E+03 -0.14824345176E+02 -0.89724855919E+02  0.18256515977E+03  0.00000000000E+00 0.  1.
</event>
<event>
 5    1  0.1008363E-004  0.1492488E+03  0.7818608E-02  0.1101855E+00
         21   -1    0    0  501  502  0.00000000000E+00  0.00000000000E+00  0.45905619605E+03  0.45905619605E+03  0.00000000000E+00 0.  1.
          4   -1    0    0  502    0 -0.00000000000E+00 -0.00000000000E+00 -0.96561605674E+02  0.96561605674E+02  0.00000000000E+00 0.  1.
        -13    1    1    2    0    0 -0.42648363432E+02  0.14212190349E+03  0.51522853467E+02  0.15707365772E+03  0.10566000000E+00 0.  1.
         13    1    1    2    0    0  0.54555258098E+02 -0.14035783433E+03  0.86326594670E+02  0.17357675523E+03  0.10566000000E+00 0. -1.
          4    1    1    2  501    0 -0.11906894666E+02 -0.17640691589E+01  0.22464514224E+03  0.22496738878E+03  0.00000000000E+00 0.  1.
</event>
<event>
 5    1  0.1008363E-004  0.3194642E+03  0.7818608E-02  0.1009520E+00
         21   -1    0    0  501  502  0.00000000000E+00  0.00000000000E+00  0.66692751971E+03  0.66692751971E+03  0.00000000000E+00 0.  1.
          4   -1    0    0  502    0 -0.00000000000E+00 -0.00000000000E+00 -0.10685643728E+04  0.10685643728E+04  0.00000000000E+00 0.  1.
        -13    1    1    2    0    0  0.28720332223E+03 -0.52725291946E+02  0.40422146398E+03  0.49865890930E+03  0.10566000000E+00 0.  1.
         13    1    1    2    0    0  0.22414688909E+03 -0.57180244110E+02 -0.65173329976E+03  0.69156902286E+03  0.10566000000E+00 0. -1.
          4    1    1    2  501    0 -0.51135021132E+03  0.10990553606E+03 -0.15412501729E+03  0.54526396032E+03  0.00000000000E+00 0.  1.
</event>
<event>
 5    1  0.1008363E-004  0.4187297E+03  0.7818608E-02  0.9676459E-01
         21   -1    0    0  501  502  0.00000000000E+00  0.00000000000E+00  0.31121618658E+03  0.31121618658E+03  0.00000000000E+00 0.  1.
         -4   -1    0    0    0  501 -0.00000000000E+00 -0.00000000000E+00 -0.16706150500E+04  0.16706150500E+04  0.00000000000E+00 0. -1.
        -13    1    1    2    0    0  0.36967589908E+03 -0.29278970909E+03 -0.11683871389E+03  0.48583678364E+03  0.10566000000E+00 0.  1.
         13    1    1    2    0    0 -0.16967140987E+03  0.38109521512E+03 -0.12036991612E+04  0.12739362747E+04  0.10566000000E+00 0. -1.
         -4    1    1    2    0  502 -0.20000448920E+03 -0.88305506033E+02 -0.38860988370E+02  0.22205817822E+03  0.00000000000E+00 0. -1.
</event>
<event>
 5    1  0.1008363E-004  0.1456351E+03  0.7818608E-02  0.1106322E+00
         21   -1    0    0  501  502  0.00000000000E+00  0.00000000000E+00  0.30511564001E+02  0.30511564001E+02  0.00000000000E+00 0.  1.
          4   -1    0    0  502    0 -0.00000000000E+00 -0.00000000000E+00 -0.19237725197E+04  0.19237725197E+04  0.00000000000E+00 0.  1.
        -13    1    1    2    0    0  0.28630561846E+02  0.17297673509E+03 -0.90681927912E+03  0.92361348847E+03  0.10566000000E+00 0.  1.
         13    1    1    2    0    0 -0.13297752266E+03 -0.63247996402E+02 -0.48144808221E+03  0.50346360108E+03  0.10566000000E+00 0. -1.
          4    1    1    2  501    0  0.10434696081E+03 -0.10972873869E+03 -0.50499359439E+03  0.52720699417E+03  0.00000000000E+00 0.  1.
</event>
<event>
 5    1  0.1008363E-004  0.5598737E+02  0.7818608E-02  0.1269162E+00
          4   -1    0    0  502    0 -0.00000000000E+00  0.00000000000E+00  0.67295760397E+02  0.67295760397E+02  0.00000000000E+00 0.  1.
         21   -1    0    0  501  502  0.00000000000E+00 -0.00000000000E+00 -0.15094695618E+03  0.15094695618E+03  0.00000000000E+00 0. -1.
        -13    1    1    2    0    0  0.41823310021E+02 -0.39654691993E+02  0.37556062685E+02  0.68790645197E+02  0.10566000000E+00 0.  1.
         13    1    1    2    0    0 -0.15826193401E+02  0.52438425189E+02 -0.57214239464E+02  0.79206926435E+02  0.10566000000E+00 0. -1.
          4    1    1    2  501    0 -0.25997116621E+02 -0.12783733195E+02 -0.63993019001E+02  0.70245144941E+02  0.00000000000E+00 0.  1.
</event>
<event>
 5    1  0.1008363E-004  0.1253266E+03  0.7818608E-02  0.1128358E+00
         -4   -1    0    0    0  501 -0.00000000000E+00  0.00000000000E+00  0.10242456404E+04  0.10242456404E+04  0.00000000000E+00 0. -1.
         21   -1    0    0  501  502  0.00000000000E+00 -0.00000000000E+00 -0.39174401992E+02  0.39174401992E+02  0.00000000000E+00 0.  1.
        -13    1    1    2    0    0  0.10425894217E+03 -0.80766482118E+02  0.51631396084E+03  0.53289142325E+03  0.10566000000E+00 0.  1.
         13    1    1    2    0    0 -0.38382658527E+02  0.12506019715E+03  0.41378089629E+03  0.43396765165E+03  0.10566000000E+00 0. -1.
         -4    1    1    2    0  502 -0.65876283646E+02 -0.44293715031E+02  0.54976381234E+02  0.96560967435E+02  0.00000000000E+00 0. -1.
</event>
<event>
 5    1  0.1008363E-004  0.3240290E+03  0.7818608E-02  0.1008742E+00
          4   -1    0    0  502    0 -0.00000000000E+00  0.00000000000E+00  0.14954607389E+04  0.14954607389E+04  0.00000000000E+00 0.  1.
         21   -1    0    0  501  502  0.00000000000E+00 -0.00000000000E+00 -0.27540091541E+03  0.27540091541E+03  0.00000000000E+00 0.  1.
        -13    1    1    2    0    0  0.24912870134E+03  0.78932650313E+02  0.10746061572E+03  0.28256551136E+03  0.10566000000E+00 0.  1.
         13    1    1    2    0    0  0.17457808281E+03 -0.14556655505E+03  0.10258065670E+04  0.10506884662E+04  0.10566000000E+00 0. -1.
          4    1    1    2  501    0 -0.42370678415E+03  0.66633904737E+02  0.86792640692E+02  0.43760767667E+03  0.00000000000E+00 0.  1.
</event>
<event>
 5    1  0.1008363E-004  0.4567588E+03  0.7818608E-02  0.9588250E-01
          4   -1    0    0  502    0 -0.00000000000E+00  0.00000000000E+00  0.12094419911E+04  0.12094419911E+04  0.00000000000E+00 0.  1.
         21   -1    0    0  501  502  0.00000000000E+00 -0.00000000000E+00 -0.63692383099E+03  0.63692383099E+03  0.00000000000E+00 0.  1.
        -13    1    1    2    0    0  0.46309631464E+03  0.55489842632E+02  0.39762479051E+03  0.61289705862E+03  0.10566000000E+00 0.  1.
         13    1    1    2    0    0 -0.26846949898E+03 -0.47788080667E+03  0.43575184098E+03  0.70023254377E+03  0.10566000000E+00 0. -1.
          4    1    1    2  501    0 -0.19462681566E+03  0.42239096404E+03 -0.26085847141E+03  0.53323621968E+03  0.00000000000E+00 0.  1.
</event>
<event>
 5    1  0.1008363E-004  0.4488684E+03  0.7818608E-02  0.9926108E-01
         -4   -1    0    0    0  501 -0.00000000000E+00  0.00000000000E+00  0.11904191359E+04  0.11904191359E+04  0.00000000000E+00 0. -1.
         21   -1    0    0  501  502  0.00000000000E+00 -0.00000000000E+00 -0.23905279693E+03  0.23905279693E+03  0.00000000000E+00 0. -1.
        -13    1    1    2    0    0 -0.63287199193E+02 -0.13044331838E+03  0.62986084157E+02  0.15807588954E+03  0.10566000000E+00 0.  1.
         13    1    1    2    0    0 -0.72068114922E+02  0.50087415804E+03  0.40913451773E+03  0.65073788897E+03  0.10566000000E+00 0. -1.
         -4    1    1    2    0  502  0.13535531411E+03 -0.37043083966E+03  0.47924573710E+03  0.62065815435E+03  0.00000000000E+00 0. -1.
</event>
<event>
 5    1  0.1008363E-004  0.2175161E+03  0.7818608E-02  0.1048749E+00
         21   -1    0    0  501  502  0.00000000000E+00  0.00000000000E+00  0.28203043266E+03  0.28203043266E+03  0.00000000000E+00 0. -1.
         -4   -1    0    0    0  501 -0.00000000000E+00 -0.00000000000E+00 -0.42678498294E+03  0.42678498294E+03  0.00000000000E+00 0. -1.
        -13    1    1    2    0    0 -0.30009834609E+02 -0.19826766482E+03 -0.13202435439E+03  0.24008560640E+03  0.10566000000E+00 0.  1.
         13    1    1    2    0    0  0.39148651974E+02  0.23256342751E+03 -0.18066658597E+03  0.29708381177E+03  0.10566000000E+00 0. -1.
         -4    1    1    2    0  502 -0.91388173648E+01 -0.34295762698E+02  0.16793639007E+03  0.17164599742E+03  0.00000000000E+00 0. -1.
</event>
<event>
 5    1  0.1008363E-004  0.4404592E+03  0.7818608E-02  0.1007483E+00
         21   -1    0    0  501  502  0.00000000000E+00  0.00000000000E+00  0.10502613835E+04  0.10502613835E+04  0.00000000000E+00 0.  1.
          4   -1    0    0  502    0 -0.00000000000E+00 -0.00000000000E+00 -0.29209077194E+03  0.29209077194E+03  0.00000000000E+00 0.  1.
        -13    1    1    2    0    0 -0.63463142628E+02  0.46023066718E+03  0.60197639925E+03  0.76040478293E+03  0.10566000000E+00 0.  1.
         13    1    1    2    0    0 -0.26764633663E+02 -0.90370558326E+02  0.17715236142E+03  0.20066428120E+03  0.10566000000E+00 0. -1.
          4    1    1    2  501    0  0.90227776291E+02 -0.36986010885E+03 -0.20958149088E+02  0.38128309135E+03  0.00000000000E+00 0.  1.
</event>
<event>
 5    1  0.1008363E-004  0.1475255E+03  0.7818608E-02  0.1103578E+00
         21   -1    0    0  501  502  0.00000000000E+00  0.00000000000E+00  0.28443387863E+03  0.28443387863E+03  0.00000000000E+00 0.  1.
         -4   -1    0    0    0  501 -0.00000000000E+00 -0.00000000000E+00 -0.18568394864E+03  0.18568394864E+03  0.00000000000E+00 0. -1.
        -13    1    1    2    0    0 -0.10590689404E+03  0.10651455527E+03  0.20674224281E+02  0.15162142132E+03  0.10566000000E+00 0.  1.
         13    1    1    2    0    0  0.95461528745E+02 -0.11082226350E+03 -0.75431882401E+02  0.16457356290E+03  0.10566000000E+00 0. -1.
         -4    1    1    2    0  502  0.10445365294E+02  0.43077082383E+01  0.15350758811E+03  0.15392284305E+03  0.00000000000E+00 0. -1.
</event>
<event>
 5    1  0.1008363E-004  0.4686364E+03  0.7818608E-02  0.9743109E-01
         21   -1    0    0  501  502  0.00000000000E+00  0.00000000000E+00  0.22352208966E+03  0.22352208966E+03  0.00000000000E+00 0. -1.
         -4   -1    0    0    0  501 -0.00000000000E+00 -0.00000000000E+00 -0.26828895184E+04  0.26828895184E+04  0.00000000000E+00 0. -1.
        -13    1    1    2    0    0  0.21608826783E+03 -0.97158706222E+02 -0.14078907033E+04  0.14276870095E+04  0.10566000000E+00 0.  1.
         13    1    1    2    0    0  0.30311046472E+03 -0.56850994462E+02 -0.84434989260E+03  0.89890752677E+03  0.10566000000E+00 0. -1.
         -4    1    1    2    0  502 -0.51919873256E+03  0.15400970068E+03 -0.20712683288E+03  0.57981707175E+03  0.00000000000E+00 0. -1.
</event>
<event>
 5    1  0.1008363E-004  0.8656414E+03  0.7818608E-02  0.8912244E-01
          4   -1    0    0  502    0 -0.00000000000E+00  0.00000000000E+00  0.11145875225E+04  0.11145875225E+04  0.00000000000E+00 0.  1.
         21   -1    0    0  501  502  0.00000000000E+00 -0.00000000000E+00 -0.94843873041E+03  0.94843873041E+03  0.00000000000E+00 0. -1.
        -13    1    1    2    0    0 -0.53307380318E+03 -0.79238085134E+03  0.25236392697E+03  0.98778674622E+03  0.10566000000E+00 0.  1.
         13    1    1    2    0    0  0.58292116753E+03  0.52626649750E+03  0.16918231041E+02  0.78551877867E+03  0.10566000000E+00 0. -1.
          4    1    1    2  501    0 -0.49847364350E+02  0.26611435384E+03 -0.10313336594E+03  0.28972072799E+03  0.00000000000E+00 0.  1.
</event>
<event>
 5    1  0.1008363E-004  0.4962812E+03  0.7818608E-02  0.9582012E-01
         21   -1    0    0  501  502  0.00000000000E+00  0.00000000000E+00  0.55335853148E+03  0.55335853148E+03  0.00000000000E+00 0. -1.
         -4   -1    0    0    0  501 -0.00000000000E+00 -0.00000000000E+00 -0.11351926327E+04  0.11351926327E+04  0.00000000000E+00 0. -1.
        -13    1    1    2    0    0 -0.33190626301E+03  0.11481938654E+03 -0.52555416666E+03  0.63210161542E+03  0.10566000000E+00 0.  1.
         13    1    1    2    0    0  0.45616753032E+03 -0.44795701783E+03  0.13392207180E+03  0.65321469519E+03  0.10566000000E+00 0. -1.
         -4    1    1    2    0  502 -0.12426126730E+03  0.33313763129E+03 -0.19020200638E+03  0.40323485361E+03  0.00000000000E+00 0. -1.
</event>
<event>
 5    1  0.1008363E-004  0.5697356E+03  0.7818608E-02  0.9336967E-01
          4   -1    0    0  502    0 -0.00000000000E+00  0.00000000000E+00  0.19738153610E+04  0.19738153610E+04  0.00000000000E+00 0.  1.
         21   -1    0    0  501  502  0.00000000000E+00 -0.00000000000E+00 -0.35129496986E+03  0.35129496986E+03  0.00000000000E+00 0.  1.
        -13    1    1    2    0    0 -0.61992489977E+03 -0.33229778209E+03  0.54717502838E+03  0.89113928214E+03  0.10566000000E+00 0.  1.
         13    1    1    2    0    0  0.52881156373E+03 -0.70891269989E+02  0.56266882897E+03  0.77541180308E+03  0.10566000000E+00 0. -1.
          4    1    1    2  501    0  0.91113336042E+02  0.40318905208E+03  0.51267653382E+03  0.65855924566E+03  0.00000000000E+00 0.  1.
</event>
<event>
 5    1  0.1008363E-004  0.4895586E+03  0.7818608E-02  0.9720848E-01
         -4   -1    0    0    0  501 -0.00000000000E+00  0.00000000000E+00  0.16019110546E+04  0.16019110546E+04  0.00000000000E+00 0. -1.
         21   -1    0    0  501  502  0.00000000000E+00 -0.00000000000E+00 -0.28989781456E+03  0.28989781456E+03  0.00000000000E+00 0. -1.
        -13    1    1    2    0    0  0.10552172277E+03 -0.19812381193E+03  0.62092001606E+03  0.66024961669E+03  0.10566000000E+00 0.  1.
         13    1    1    2    0    0  0.42738970075E+03  0.13057380332E+03  0.47603821051E+03  0.65293480796E+03  0.10566000000E+00 0. -1.
         -4    1    1    2    0  502 -0.53291142352E+03  0.67550008612E+02  0.21505501349E+03  0.57862444453E+03  0.00000000000E+00 0. -1.
</event>
<event>
 5    1  0.1008363E-004  0.4080313E+03  0.7818608E-02  0.9876248E-01
         21   -1    0    0  501  502  0.00000000000E+00  0.00000000000E+00  0.33188063927E+03  0.33188063927E+03  0.00000000000E+00 0.  1.
          4   -1    0    0  502    0 -0.00000000000E+00 -0.00000000000E+00 -0.13617087294E+04  0.13617087294E+04  0.00000000000E+00 0.  1.
        -13    1    1    2    0    0  0.26883999012E+03  0.24997704327E+03  0.58474205200E+01  0.36714801639E+03  0.10566000000E+00 0.  1.
         13    1    1    2    0    0  0.22336732550E+03  0.45962895289E+02 -0.45916173309E+03  0.51267441729E+03  0.10566000000E+00 0. -1.
          4    1    1    2  501    0 -0.49220731562E+03 -0.29593993856E+03 -0.57651377756E+03  0.81376693500E+03  0.00000000000E+00 0.  1.
</event>
<event>
 5    1  0.1008363E-004  0.1146028E+03  0.7818608E-02  0.1142426E+00
          4   -1    0    0  502    0 -0.00000000000E+00  0.00000000000E+00  0.11767732673E+03  0.11767732673E+03  0.00000000000E+00 0.  1.
         21   -1    0    0  501  502  0.00000000000E+00 -0.00000000000E+00 -0.20823331916E+03  0.20823331916E+03  0.00000000000E+00 0. -1.
        -13    1    1    2    0    0 -0.10758565121E+03 -0.38602530307E+02  0.56268722221E+02  0.12740097314E+03  0.10566000000E+00 0.  1.
         13    1    1    2    0    0  0.11314312416E+03  0.27007006426E+02 -0.11236961076E+03  0.16173337790E+03  0.10566000000E+00 0. -1.
          4    1    1    2  501    0 -0.55574729537E+01  0.11595523881E+02 -0.34455103883E+02  0.36776294855E+02  0.00000000000E+00 0.  1.
</event>
<event>
 5    1  0.1008363E-004  0.3017828E+03  0.7818608E-02  0.1006572E+00
         21   -1    0    0  501  502  0.00000000000E+00  0.00000000000E+00  0.40478721774E+03  0.40478721774E+03  0.00000000000E+00 0.  1.
         -4   -1    0    0    0  501 -0.00000000000E+00 -0.00000000000E+00 -0.84878723633E+03  0.84878723633E+03  0.00000000000E+00 0. -1.
        -13    1    1    2    0    0 -0.42482313021E+03  0.25467585222E+03 -0.31503673967E+02  0.49631338316E+03  0.10566000000E+00 0.  1.
         13    1    1    2    0    0  0.19298591787E+03 -0.19086592031E+03 -0.43817812072E+03  0.51543519542E+03  0.10566000000E+00 0. -1.
         -4    1    1    2    0  502  0.23183721234E+03 -0.63809931902E+02  0.25681776092E+02  0.24182587549E+03  0.00000000000E+00 0. -1.
</event>
<event>
 5    1  0.1008363E-004  0.5094520E+02  0.7818608E-02  0.1287988E+00
         -4   -1    0    0    0  501 -0.00000000000E+00  0.00000000000E+00  0.35351108322E+03  0.35351108322E+03  0.00000000000E+00 0. -1.
         21   -1    0    0  501  502  0.00000000000E+00 -0.00000000000E+00 -0.14928541316E+02  0.14928541316E+02  0.00000000000E+00 0.  1.
        -13    1    1    2    0    0 -0.19054948556E+02  0.52288548055E+02  0.13421653271E+03  0.14529718559E+03  0.10566000000E+00 0.  1.
         13    1    1    2    0    0  0.11904723991E+01 -0.49348355708E+02  0.19782748201E+03  0.20389311229E+03  0.10566000000E+00 0. -1.
         -4    1    1    2    0  502  0.17864476157E+02 -0.29401923465E+01  0.65385271873E+01  0.19249326668E+02  0.00000000000E+00 0. -1.
</event>
<event>
 5    1  0.1008363E-004  0.4833057E+03  0.7818608E-02  0.9629145E-01
         21   -1    0    0  501  502  0.00000000000E+00  0.00000000000E+00  0.21037902157E+03  0.21037902157E+03  0.00000000000E+00 0.  1.
          4   -1    0    0  502    0 -0.00000000000E+00 -0.00000000000E+00 -0.26655979653E+04  0.26655979653E+04  0.00000000000E+00 0.  1.
        -13    1    1    2    0    0  0.33530342691E+03 -0.45260804690E+03 -0.72723295464E+03  0.91986423656E+03  0.10566000000E+00 0.  1.
         13    1    1    2    0    0  0.10640988763E+03  0.30351049381E+03 -0.12407964471E+04  0.12818024490E+04  0.10566000000E+00 0. -1.
          4    1    1    2  501    0 -0.44171331454E+03  0.14909755309E+03 -0.48718954197E+03  0.67431030126E+03  0.00000000000E+00 0.  1.
</event>
<event>
 5    1  0.1008363E-004  0.5459015E+03  0.7818608E-02  0.9382667E-01
         21   -1    0    0  501  502  0.00000000000E+00  0.00000000000E+00  0.27459987437E+03  0.27459987437E+03  0.00000000000E+00 0. -1.
          4   -1    0    0  502    0 -0.00000000000E+00 -0.00000000000E+00 -0.17880322482E+04  0.17880322482E+04  0.00000000000E+00 0.  1.
        -13    1    1    2    0    0 -0.63379238133E+03  0.15124297875E+02 -0.41318478668E+03  0.75673192487E+03  0.10566000000E+00 0.  1.
         13    1    1    2    0    0  0.49721500812E+03  0.93096410398E+02 -0.65377240953E+03  0.82662451001E+03  0.10566000000E+00 0. -1.
          4    1    1    2  501    0  0.13657737321E+03 -0.10822070827E+03 -0.44647517765E+03  0.47927568771E+03  0.00000000000E+00 0.  1.
</event>
<event>
 5    1  0.1008363E-004  0.4857575E+03  0.7818608E-02  0.9812194E-01
         -4   -1    0    0    0  501 -0.00000000000E+00  0.00000000000E+00  0.19184827416E+04  0.19184827416E+04  0.00000000000E+00 0. -1.
         21   -1    0    0  501  502  0.00000000000E+00 -0.00000000000E+00 -0.20741981252E+03  0.20741981252E+03  0.00000000000E+00 0. -1.
        -13    1    1    2    0    0 -0.14645926220E+03 -0.82037251352E+02  0.63468848829E+03  0.65651345335E+03  0.10566000000E+00 0.  1.
         13    1    1    2    0    0  0.55999036654E+03  0.15326709019E+03  0.63234986523E+03  0.85845580828E+03  0.10566000000E+00 0. -1.
         -4    1    1    2    0  502 -0.41353110434E+03 -0.71229838836E+02  0.44402457559E+03  0.61093329253E+03  0.00000000000E+00 0. -1.
</event>
<event>
 5    1  0.1008363E-004  0.1901819E+03  0.7818608E-02  0.1067083E+00
         21   -1    0    0  501  502  0.00000000000E+00  0.00000000000E+00  0.92353144712E+02  0.92353144712E+02  0.00000000000E+00 0.  1.
         -4   -1    0    0    0  501 -0.00000000000E+00 -0.00000000000E+00 -0.68605844975E+03  0.68605844975E+03  0.00000000000E+00 0. -1.
        -13    1    1    2    0    0 -0.16656982113E+02  0.12778481717E+03 -0.46354867011E+02  0.13694962363E+03  0.10566000000E+00 0.  1.
         13    1    1    2    0    0  0.33770049859E+02 -0.22495181895E+03 -0.44216438754E+03  0.49724550665E+03  0.10566000000E+00 0. -1.
         -4    1    1    2    0  502 -0.17113067745E+02  0.97167001774E+02 -0.10518605048E+03  0.14421646417E+03  0.00000000000E+00 0. -1.
</event>
<event>
 5    1  0.1008363E-004  0.5035420E+02  0.7818608E-02  0.1290353E+00
         21   -1    0    0  501  502  0.00000000000E+00  0.00000000000E+00  0.40797374299E+02  0.40797374299E+02  0.00000000000E+00 0. -1.
         -4   -1    0    0    0  501 -0.00000000000E+00 -0.00000000000E+00 -0.92488018482E+02  0.92488018482E+02  0.00000000000E+00 0. -1.
        -13    1    1    2    0    0 -0.48035499992E+02  0.82890676755E+01 -0.67991271536E+01  0.49217448091E+02  0.10566000000E+00 0.  1.
         13    1    1    2    0    0  0.51681928834E+02  0.86584188842E+01 -0.40379174554E+02  0.66154961170E+02  0.10566000000E+00 0. -1.
         -4    1    1    2    0  502 -0.36464288419E+01 -0.16947486560E+02 -0.45123424751E+01  0.17912983520E+02  0.00000000000E+00 0. -1.
</event>
<event>
 5    1  0.1008363E-004  0.9685047E+02  0.7818608E-02  0.1169874E+00
         -4   -1    0    0    0  501 -0.00000000000E+00  0.00000000000E+00  0.33203631948E+03  0.33203631948E+03  0.00000000000E+00 0. -1.
         21   -1    0    0  501  502  0.00000000000E+00 -0.00000000000E+00 -0.48215201163E+02  0.48215201163E+02  0.00000000000E+00 0.  1.
        -13    1    1    2    0    0 -0.38823053222E+02 -0.66406212452E+02  0.22188409099E+02  0.80058423518E+02  0.10566000000E+00 0.  1.
         13    1    1    2    0    0  0.35568348051E+02  0.98606198775E+02  0.23817387240E+03  0.26022124141E+03  0.10566000000E+00 0. -1.
         -4    1    1    2    0  502  0.32547051712E+01 -0.32199986323E+02  0.23458836815E+02  0.39971855719E+02  0.00000000000E+00 0. -1.
</event>
<event>
 5    1  0.1008363E-004  0.1124961E+04  0.7818608E-02  0.8665317E-01
         21   -1    0    0  501  502  0.00000000000E+00  0.00000000000E+00  0.55259548506E+03  0.55259548506E+03  0.00000000000E+00 0.  1.
         -4   -1    0    0    0  501 -0.00000000000E+00 -0.00000000000E+00 -0.30052277496E+04  0.30052277496E+04  0.00000000000E+00 0. -1.
        -13    1    1    2    0    0 -0.26078741372E+03 -0.10618717640E+04 -0.95004891876E+03  0.14485077416E+04  0.10566000000E+00 0.  1.
         13    1    1    2    0    0 -0.19875602919E+02  0.11749526380E+04 -0.11423751743E+04  0.16388806519E+04  0.10566000000E+00 0. -1.
         -4    1    1    2    0  502  0.28066301664E+03 -0.11308087395E+03 -0.36020817144E+03  0.47043484111E+03  0.00000000000E+00 0. -1.
</event>
<event>
 5    1  0.1008363E-004  0.4212723E+03  0.7818608E-02  0.1044125E+00
          4   -1    0    0  502    0 -0.00000000000E+00  0.00000000000E+00  0.25267484158E+04  0.25267484158E+04  0.00000000000E+00 0.  1.
         21   -1    0    0  501  502  0.00000000000E+00 -0.00000000000E+00 -0.11063273046E+03  0.11063273046E+03  0.00000000000E+00 0.  1.
        -13    1    1    2    0    0 -0.30031847966E+03 -0.27115727698E+03  0.19092587667E+04  0.19516624983E+04  0.10566000000E+00 0.  1.
         13    1    1    2    0    0 -0.33790524547E+02  0.63754191793E+01  0.26083616544E+02  0.43160302767E+02  0.10566000000E+00 0. -1.
          4    1    1    2  501    0  0.33410900420E+03  0.26478185780E+03  0.48077330210E+03  0.64255834515E+03  0.00000000000E+00 0.  1.
</event>
<event>
 5    1  0.1008363E-004  0.1140941E+03  0.7818608E-02  0.1143135E+00
         -4   -1    0    0    0  501 -0.00000000000E+00  0.00000000000E+00  0.52054380651E+03  0.52054380651E+03  0.00000000000E+00 0. -1.
         21   -1    0    0  501  502  0.00000000000E+00 -0.00000000000E+00 -0.22412283514E+03  0.22412283514E+03  0.00000000000E+00 0. -1.
        -13    1    1    2    0    0  0.10136800842E+03 -0.23913820762E+02 -0.32102979803E+02  0.10898603778E+03  0.10566000000E+00 0.  1.
         13    1    1    2    0    0 -0.11404852271E+03  0.15568685052E+02  0.47483331237E+03  0.48858585242E+03  0.10566000000E+00 0. -1.
         -4    1    1    2    0  502  0.12680514288E+02  0.83451357103E+01 -0.14630936119E+03  0.14709475145E+03  0.00000000000E+00 0. -1.
</event>
<event>
 5    1  0.1008363E-004  0.3109629E+03  0.7818608E-02  0.1018533E+00
         21   -1    0    0  501  502  0.00000000000E+00  0.00000000000E+00  0.10976594683E+04  0.10976594683E+04  0.00000000000E+00 0.  1.
          4   -1    0    0  502    0 -0.00000000000E+00 -0.00000000000E+00 -0.33254524439E+03  0.33254524439E+03  0.00000000000E+00 0.  1.
        -13    1    1    2    0    0 -0.14841717209E+03 -0.38878759244E+03 -0.53710979252E+02  0.41960496835E+03  0.10566000000E+00 0.  1.
         13    1    1    2    0    0 -0.66001963828E+02  0.17621661316E+03  0.65876042584E+02  0.19936955167E+03  0.10566000000E+00 0. -1.
          4    1    1    2  501    0  0.21441913592E+03  0.21257097929E+03  0.75294916058E+03  0.81123019267E+03  0.00000000000E+00 0.  1.
</event>
<event>
 5    1  0.1008363E-004  0.4853641E+03  0.7818608E-02  0.9703682E-01
         21   -1    0    0  501  502  0.00000000000E+00  0.00000000000E+00  0.27535162699E+03  0.27535162699E+03  0.00000000000E+00 0.  1.
          4   -1    0    0  502    0 -0.00000000000E+00 -0.00000000000E+00 -0.17673228934E+04  0.17673228934E+04  0.00000000000E+00 0.  1.
        -13    1    1    2    0    0  0.35194460931E+03  0.22770268403E+03 -0.59937172133E+03  0.73140959239E+03  0.10566000000E+00 0.  1.
         13    1    1    2    0    0 -0.70447700071E+02  0.23412844485E+03 -0.69280703120E+03  0.73468401424E+03  0.10566000000E+00 0. -1.
          4    1    1    2  501    0 -0.28149690924E+03 -0.46183112888E+03 -0.19979251387E+03  0.57658091376E+03  0.00000000000E+00 0.  1.
</event>
<event>
 5    1  0.1008363E-004  0.4412575E+03  0.7818608E-02  0.9701846E-01
          4   -1    0    0  502    0 -0.00000000000E+00  0.00000000000E+00  0.17919063604E+04  0.17919063604E+04  0.00000000000E+00 0.  1.
         21   -1    0    0  501  502  0.00000000000E+00 -0.00000000000E+00 -0.41738927971E+03  0.41738927971E+03  0.00000000000E+00 0.  1.
        -13    1    1    2    0    0  0.14962960544E+03 -0.52548469294E+03  0.33122841221E+03  0.63893305875E+03  0.10566000000E+00 0.  1.
         13    1    1    2    0    0  0.19162418731E+03  0.26555538801E+03  0.10906791886E+04  0.11387803111E+04  0.10566000000E+00 0. -1.
          4    1    1    2  501    0 -0.34125379275E+03  0.25992930493E+03 -0.47390520129E+02  0.43158227028E+03  0.00000000000E+00 0.  1.
</event>
<event>
 5    1  0.1008363E-004  0.4770974E+03  0.7818608E-02  0.9550424E-01
         -4   -1    0    0    0  501 -0.00000000000E+00  0.00000000000E+00  0.36721090679E+04  0.36721090679E+04  0.00000000000E+00 0. -1.
         21   -1    0    0  501  502  0.00000000000E+00 -0.00000000000E+00 -0.21921413489E+03  0.21921413489E+03  0.00000000000E+00 0. -1.
        -13    1    1    2    0    0  0.48546513307E+03  0.98234732736E+02  0.20336519619E+04  0.20930997997E+04  0.10566000000E+00 0.  1.
         13    1    1    2    0    0 -0.34037187956E+03  0.39245770715E+03  0.10358946225E+04  0.11588588130E+04  0.10566000000E+00 0. -1.
         -4    1    1    2    0  502 -0.14509325351E+03 -0.49069243988E+03  0.38334834865E+03  0.63936459019E+03  0.00000000000E+00 0. -1.
</event>
<event>
 5    1  0.1790436E-004  0.4938133E+03  0.7818608E-02  0.1011139E+00
         21   -1    0    0  501  502  0.00000000000E+00  0.00000000000E+00  0.37737962288E+03  0.37737962288E+03  0.00000000000E+00 0. -1.
         -4   -1    0    0    0  501 -0.00000000000E+00 -0.00000000000E+00 -0.79119061090E+03  0.79119061090E+03  0.00000000000E+00 0. -1.
        -13    1    1    2    0    0 -0.40819742876E+02  0.43232598818E+02 -0.11135834831E+03  0.12623787828E+03  0.10566000000E+00 0.  1.
         13    1    1    2    0    0 -0.47079954333E+03 -0.90338397228E+02 -0.97640971210E+02  0.48923103584E+03  0.10566000000E+00 0. -1.
         -4    1    1    2    0  502  0.51161928620E+03  0.47105798409E+02 -0.20481166850E+03  0.55310131966E+03  0.00000000000E+00 0. -1.
</event>
<event>
 5    1  0.1008363E-004  0.5062935E+03  0.7818608E-02  0.1003167E+00
         21   -1    0    0  501  502  0.00000000000E+00  0.00000000000E+00  0.81428089791E+03  0.81428089791E+03  0.00000000000E+00 0. -1.
         -4   -1    0    0    0  501 -0.00000000000E+00 -0.00000000000E+00 -0.40705258965E+03  0.40705258965E+03  0.00000000000E+00 0. -1.
        -13    1    1    2    0    0 -0.44135753041E+02  0.56096495969E+02 -0.68117301311E+02  0.98664884627E+02  0.10566000000E+00 0.  1.
         13    1    1    2    0    0 -0.43435411830E+03 -0.24602377235E+03  0.19043216185E+03  0.53428046574E+03  0.10566000000E+00 0. -1.
         -4    1    1    2    0  502  0.47848987134E+03  0.18992727638E+03  0.28491344772E+03  0.58838813718E+03  0.00000000000E+00 0. -1.
</event>
<event>
 5    1  0.1008363E-004  0.3514633E+03  0.7818608E-02  0.1033233E+00
         21   -1    0    0  501  502  0.00000000000E+00  0.00000000000E+00  0.32766713224E+03  0.32766713224E+03  0.00000000000E+00 0.  1.
          4   -1    0    0  502    0 -0.00000000000E+00 -0.00000000000E+00 -0.10186492097E+04  0.10186492097E+04  0.00000000000E+00 0.  1.
        -13    1    1    2    0    0 -0.55881761124E+02 -0.38192928330E+03 -0.80644911619E+03  0.89406539853E+03  0.10566000000E+00 0.  1.
         13    1    1    2    0    0  0.74246986710E+02  0.35827180441E+02  0.58319629515E+02  0.10098213825E+03  0.10566000000E+00 0. -1.
          4    1    1    2  501    0 -0.18365225586E+02  0.34610210286E+03  0.57147409195E+02  0.35126880518E+03  0.00000000000E+00 0.  1.
</event>
<event>
 5    1  0.1008363E-004  0.4531465E+03  0.7818608E-02  0.9887488E-01
          4   -1    0    0  502    0 -0.00000000000E+00  0.00000000000E+00  0.19333743889E+04  0.19333743889E+04  0.00000000000E+00 0.  1.
         21   -1    0    0  501  502  0.00000000000E+00 -0.00000000000E+00 -0.17071203541E+03  0.17071203541E+03  0.00000000000E+00 0.  1.
        -13    1    1    2    0    0  0.24515506357E+03 -0.37283718314E+03  0.42247205075E+03  0.61448451173E+03  0.10566000000E+00 0.  1.
         13    1    1    2    0    0 -0.12634627938E+03 -0.98693796067E+02  0.26797017655E+03  0.31226891357E+03  0.10566000000E+00 0. -1.
          4    1    1    2  501    0 -0.11880878420E+03  0.47153097920E+03  0.10722201261E+04  0.11773329990E+04  0.00000000000E+00 0.  1.
</event>
<event>
 5    1  0.1008363E-004  0.1922528E+03  0.7818608E-02  0.1065581E+00
          4   -1    0    0  502    0 -0.00000000000E+00  0.00000000000E+00  0.24730037063E+03  0.24730037063E+03  0.00000000000E+00 0.  1.
         21   -1    0    0  501  502  0.00000000000E+00 -0.00000000000E+00 -0.24911200345E+03  0.24911200345E+03  0.00000000000E+00 0. -1.
        -13    1    1    2    0    0  0.14859130877E+03 -0.12157881881E+03  0.14472373970E+03  0.24042828083E+03  0.10566000000E+00 0.  1.
         13    1    1    2    0    0 -0.14124843421E+03  0.13234064309E+03 -0.12375087637E+03  0.22973779955E+03  0.10566000000E+00 0. -1.
          4    1    1    2  501    0 -0.73428745617E+01 -0.10761824273E+02 -0.22784496148E+02  0.26246293704E+02  0.00000000000E+00 0.  1.
</event>
<event>
 5    1  0.1008363E-004  0.4142372E+02  0.7818608E-02  0.1331275E+00
         21   -1    0    0  501  502  0.00000000000E+00  0.00000000000E+00  0.52688743344E+02  0.52688743344E+02  0.00000000000E+00 0. -1.
          4   -1    0    0  502    0 -0.00000000000E+00 -0.00000000000E+00 -0.16041776428E+03  0.16041776428E+03  0.00000000000E+00 0.  1.
        -13    1    1    2    0    0 -0.11510563500E+02  0.36250438694E+02 -0.10448776688E+03  0.11119483787E+03  0.10566000000E+00 0.  1.
         13    1    1    2    0    0  0.18462839463E+02 -0.63204157550E+02 -0.20737200321E+02  0.69033938131E+02  0.10566000000E+00 0. -1.
          4    1    1    2  501    0 -0.69522759630E+01  0.26953718856E+02  0.17495946262E+02  0.32877731625E+02  0.00000000000E+00 0.  1.
</event>
<event>
 5    1  0.1008363E-004  0.4919999E+03  0.7818608E-02  0.9641398E-01
         21   -1    0    0  501  502  0.00000000000E+00  0.00000000000E+00  0.95180322720E+03  0.95180322720E+03  0.00000000000E+00 0. -1.
         -4   -1    0    0    0  501 -0.00000000000E+00 -0.00000000000E+00 -0.46828006681E+03  0.46828006681E+03  0.00000000000E+00 0. -1.
        -13    1    1    2    0    0 -0.28774937518E+02 -0.29054271144E+03  0.16097554080E+03  0.33340095996E+03  0.10566000000E+00 0.  1.
         13    1    1    2    0    0  0.40366938745E+03 -0.13614570929E+03 -0.14433066557E+02  0.42625456373E+03  0.10566000000E+00 0. -1.
         -4    1    1    2    0  502 -0.37489444994E+03  0.42668842073E+03  0.33698068615E+03  0.66042777033E+03  0.00000000000E+00 0. -1.
</event>
<event>
 5    1  0.1008363E-004  0.4469783E+03  0.7818608E-02  0.9602432E-01
         -4   -1    0    0    0  501 -0.00000000000E+00  0.00000000000E+00  0.13933476538E+04  0.13933476538E+04  0.00000000000E+00 0. -1.
         21   -1    0    0  501  502  0.00000000000E+00 -0.00000000000E+00 -0.39856087634E+03  0.39856087634E+03  0.00000000000E+00 0.  1.
        -13    1    1    2    0    0 -0.34100114616E+03 -0.42303286483E+02 -0.23408119102E+03  0.41577080812E+03  0.10566000000E+00 0.  1.
         13    1    1    2    0    0  0.46133778973E+03  0.17176533647E+02  0.11219376849E+04  0.12132072244E+04  0.10566000000E+00 0. -1.
         -4    1    1    2    0  502 -0.12033664357E+03  0.25126752836E+02  0.10693028366E+03  0.16293049762E+03  0.00000000000E+00 0. -1.
</event>
<event>
 5    1  0.1008363E-004  0.4373746E+03  0.7818608E-02  0.9760137E-01
         21   -1    0    0  501  502  0.00000000000E+00  0.00000000000E+00  0.83690093177E+03  0.83690093177E+03  0.00000000000E+00 0.  1.
          4   -1    0    0  502    0 -0.00000000000E+00 -0.00000000000E+00 -0.96504421350E+03  0.96504421350E+03  0.00000000000E+00 0.  1.
        -13    1    1    2    0    0  0.22630474238E+03  0.28806844185E+03  0.30423682938E+03  0.47619042739E+03  0.10566000000E+00 0.  1.
         13    1    1    2    0    0  0.16349209215E+03  0.22091489626E+03 -0.60271188831E+03  0.66241579621E+03  0.10566000000E+00 0. -1.
          4    1    1    2  501    0 -0.38979683454E+03 -0.50898333811E+03  0.17033177720E+03  0.66333892168E+03  0.00000000000E+00 0.  1.
</event>
<event>
 5    1  0.1008363E-004  0.4967807E+02  0.7818608E-02  0.1293105E+00
         21   -1    0    0  501  502  0.00000000000E+00  0.00000000000E+00  0.47403702738E+02  0.47403702738E+02  0.00000000000E+00 0.  1.
          4   -1    0    0  502    0 -0.00000000000E+00 -0.00000000000E+00 -0.34571427960E+03  0.34571427960E+03  0.00000000000E+00 0.  1.
        -13    1    1    2    0    0 -0.51608940499E+02  0.12310337422E+02 -0.26621782992E+03  0.27145344219E+03  0.10566000000E+00 0.  1.
         13    1    1    2    0    0  0.41520990838E+02 -0.74338648967E+01 -0.70225324047E+02  0.81919853082E+02  0.10566000000E+00 0. -1.
          4    1    1    2  501    0  0.10087949661E+02 -0.48764725251E+01  0.38132577108E+02  0.39744687060E+02  0.00000000000E+00 0.  1.
</event>
<event>
 5    1  0.1008363E-004  0.5995611E+02  0.7818608E-02  0.1255842E+00
         21   -1    0    0  501  502  0.00000000000E+00  0.00000000000E+00  0.24283983495E+03  0.24283983495E+03  0.00000000000E+00 0.  1.
          4   -1    0    0  502    0 -0.00000000000E+00 -0.00000000000E+00 -0.72981388365E+02  0.72981388365E+02  0.00000000000E+00 0.  1.
        -13    1    1    2    0    0 -0.62347317214E+02  0.68155428905E+01 -0.49721637772E+02  0.80036816625E+02  0.10566000000E+00 0.  1.
         13    1    1    2    0    0  0.46586690012E+02 -0.56643796526E+01  0.63781587698E+02  0.79186532797E+02  0.10566000000E+00 0. -1.
          4    1    1    2  501    0  0.15760627202E+02 -0.11511632379E+01  0.15579849666E+03  0.15659787390E+03  0.00000000000E+00 0.  1.
</event>
<event>
 5    1  0.1008363E-004  0.5032769E+03  0.7818608E-02  0.9520095E-01
         21   -1    0    0  501  502  0.00000000000E+00  0.00000000000E+00  0.98221360184E+03  0.98221360184E+03  0.00000000000E+00 0. -1.
         -4   -1    0    0    0  501 -0.00000000000E+00 -0.00000000000E+00 -0.21092226128E+04  0.21092226128E+04  0.00000000000E+00 0. -1.
        -13    1    1    2    0    0 -0.40360701433E+03 -0.11872277774E+03 -0.17729702623E+04  0.18222012189E+04  0.10566000000E+00 0.  1.
         13    1    1    2    0    0  0.39056269223E+03 -0.40831755571E+03  0.31864385679E+03  0.64868818511E+03  0.10566000000E+00 0. -1.
         -4    1    1    2    0  502  0.13044322099E+02  0.52704033345E+03  0.32731739456E+03  0.62054681064E+03  0.00000000000E+00 0. -1.
</event>
<event>
 5    1  0.1008363E-004  0.4883939E+03  0.7818608E-02  0.9591481E-01
          4   -1    0    0  502    0 -0.00000000000E+00  0.00000000000E+00  0.21774465042E+04  0.21774465042E+04  0.00000000000E+00 0.  1.
         21   -1    0    0  501  502  0.00000000000E+00 -0.00000000000E+00 -0.24633757864E+03  0.24633757864E+03  0.00000000000E+00 0.  1.
        -13    1    1    2    0    0 -0.11774461376E+03  0.48769537623E+03  0.51063638793E+03  0.71586318938E+03  0.10566000000E+00 0.  1.
         13    1    1    2    0    0  0.35622991459E+03 -0.44319313895E+01  0.85764309783E+03  0.92869321548E+03  0.10566000000E+00 0. -1.
          4    1    1    2  501    0 -0.23848530083E+03 -0.48326344484E+03  0.56282943981E+03  0.77922767799E+03  0.00000000000E+00 0.  1.
</event>
<event>
 5    1  0.1008363E-004  0.6403248E+03  0.7818608E-02  0.9214354E-01
         21   -1    0    0  501  502  0.00000000000E+00  0.00000000000E+00  0.30020906849E+03  0.30020906849E+03  0.00000000000E+00 0.  1.
          4   -1    0    0  502    0 -0.00000000000E+00 -0.00000000000E+00 -0.33336232210E+04  0.33336232210E+04  0.00000000000E+00 0.  1.
        -13    1    1    2    0    0  0.63674512572E+03  0.56502264428E+03 -0.66910786236E+03  0.10827743469E+04  0.10566000000E+00 0.  1.
         13    1    1    2    0    0 -0.52021828031E+03 -0.29525416732E+03 -0.19730976149E+04  0.20617750342E+04  0.10566000000E+00 0. -1.
          4    1    1    2  501    0 -0.11652684541E+03 -0.26976847696E+03 -0.39120867520E+03  0.48928290836E+03  0.00000000000E+00 0.  1.
</event>
<event>
 5    1  0.1008363E-004  0.8037151E+02  0.7818608E-02  0.1201874E+00
          4   -1    0    0  502    0 -0.00000000000E+00  0.00000000000E+00  0.48890943850E+03  0.48890943850E+03  0.00000000000E+00 0.  1.
         21   -1    0    0  501  502  0.00000000000E+00 -0.00000000000E+00 -0.20953403106E+02  0.20953403106E+02  0.00000000000E+00 0.  1.
        -13    1    1    2    0    0 -0.79066966306E+02 -0.21879148587E+02  0.11644088217E+03  0.14243866227E+03  0.10566000000E+00 0.  1.
         13    1    1    2    0    0  0.80780929591E+02 -0.32968509018E+01  0.24650596962E+03  0.25942558092E+03  0.10566000000E+00 0. -1.
          4    1    1    2  501    0 -0.17139632852E+01  0.25175999489E+02  0.10500918360E+03  0.10799859842E+03  0.00000000000E+00 0.  1.
</event>
<event>
 5    1  0.1008363E-004  0.3849873E+03  0.7818608E-02  0.9773432E-01
         21   -1    0    0  501  502  0.00000000000E+00  0.00000000000E+00  0.11979606142E+04  0.11979606142E+04  0.00000000000E+00 0.  1.
          4   -1    0    0  502    0 -0.00000000000E+00 -0.00000000000E+00 -0.44393435465E+03  0.44393435465E+03  0.00000000000E+00 0.  1.
        -13    1    1    2    0    0  0.36148769177E+03 -0.15070498817E+03 -0.87007249746E+02  0.40119274350E+03  0.10566000000E+00 0.  1.
         13    1    1    2    0    0 -0.34602771184E+03  0.15079390081E+03 -0.21463164978E+02  0.37806700001E+03  0.10566000000E+00 0. -1.
          4    1    1    2  501    0 -0.15459979931E+02 -0.88912636341E-01  0.86249667428E+03  0.86263522535E+03  0.00000000000E+00 0.  1.
</event>
<event>
 5    1  0.1008363E-004  0.1548872E+03  0.7818608E-02  0.1120272E+00
         21   -1    0    0  501  502  0.00000000000E+00  0.00000000000E+00  0.26328345403E+03  0.26328345403E+03  0.00000000000E+00 0.  1.
          4   -1    0    0  502    0 -0.00000000000E+00 -0.00000000000E+00 -0.22680223110E+03  0.22680223110E+03  0.00000000000E+00 0.  1.
        -13    1    1    2    0    0  0.15051180066E+03 -0.10531888663E+03  0.13214713892E+03  0.22629349860E+03  0.10566000000E+00 0.  1.
         13    1    1    2    0    0 -0.81885960511E+02 -0.61944363815E+00 -0.10958727143E+03  0.13680305356E+03  0.10566000000E+00 0. -1.
          4    1    1    2  501    0 -0.68625840150E+02  0.10593833027E+03  0.13921355432E+02  0.12698913298E+03  0.00000000000E+00 0.  1.
</event>
<event>
 5    1  0.1008363E-004  0.7099129E+02  0.7818608E-02  0.1224150E+00
         21   -1    0    0  501  502  0.00000000000E+00  0.00000000000E+00  0.11932061237E+03  0.11932061237E+03  0.00000000000E+00 0. -1.
          4   -1    0    0  502    0 -0.00000000000E+00 -0.00000000000E+00 -0.61230453957E+02  0.61230453957E+02  0.00000000000E+00 0.  1.
        -13    1    1    2    0    0  0.70510407418E+02 -0.37566713465E+02  0.65655218854E+01  0.80162913847E+02  0.10566000000E+00 0.  1.
         13    1    1    2    0    0 -0.54612302472E+02  0.29351743832E+02  0.21854808133E+02  0.65739426905E+02  0.10566000000E+00 0. -1.
          4    1    1    2  501    0 -0.15898104947E+02  0.82149696325E+01  0.29669828394E+02  0.34648725573E+02  0.00000000000E+00 0.  1.
</event>
<event>
 5    1  0.1008363E-004  0.4350313E+03  0.7818608E-02  0.9723467E-01
          4   -1    0    0  502    0 -0.00000000000E+00  0.00000000000E+00  0.29752526271E+04  0.29752526271E+04  0.00000000000E+00 0.  1.
         21   -1    0    0  501  502  0.00000000000E+00 -0.00000000000E+00 -0.17727265231E+03  0.17727265231E+03  0.00000000000E+00 0.  1.
        -13    1    1    2    0    0  0.57118881293E+03 -0.61682649607E+02  0.66060527895E+03  0.87547744404E+03  0.10566000000E+00 0.  1.
         13    1    1    2    0    0 -0.24467951572E+03  0.20156256099E+03  0.16119040556E+04  0.16427812475E+04  0.10566000000E+00 0. -1.
          4    1    1    2  501    0 -0.32650929721E+03 -0.13987991139E+03  0.52547064021E+03  0.63426658788E+03  0.00000000000E+00 0.  1.
</event>
<event>
 5    1  0.1008363E-004  0.1713912E+03  0.7818608E-02  0.1081739E+00
         21   -1    0    0  501  502  0.00000000000E+00  0.00000000000E+00  0.26191861483E+03  0.26191861483E+03  0.00000000000E+00 0.  1.
          4   -1    0    0  502    0 -0.00000000000E+00 -0.00000000000E+00 -0.12633901106E+04  0.12633901106E+04  0.00000000000E+00 0.  1.
        -13    1    1    2    0    0  0.15648454577E+03 -0.97027049024E+02 -0.10525345959E+04  0.10685180148E+04  0.10566000000E+00 0.  1.
         13    1    1    2    0    0 -0.79376700298E+02  0.11635940762E+03 -0.17064092156E+03  0.22126569451E+03  0.10566000000E+00 0. -1.
          4    1    1    2  501    0 -0.77107845476E+02 -0.19332358598E+02  0.22170402174E+03  0.23552501603E+03  0.00000000000E+00 0.  1.
</event>
<event>
 5    1  0.1008363E-004  0.6916507E+03  0.7818608E-02  0.9135179E-01
          4   -1    0    0  502    0 -0.00000000000E+00  0.00000000000E+00  0.13413603127E+04  0.13413603127E+04  0.00000000000E+00 0.  1.
         21   -1    0    0  501  502  0.00000000000E+00 -0.00000000000E+00 -0.60899989527E+03  0.60899989527E+03  0.00000000000E+00 0. -1.
        -13    1    1    2    0    0 -0.78184914792E+03 -0.25618149586E+02  0.44845184575E+02  0.78355311334E+03  0.10566000000E+00 0.  1.
         13    1    1    2    0    0  0.63010690762E+03  0.10798228041E+03  0.23270540019E+03  0.68032837833E+03  0.10566000000E+00 0. -1.
          4    1    1    2  501    0  0.15174224030E+03 -0.82364130826E+02  0.45480983263E+03  0.48647871628E+03  0.00000000000E+00 0.  1.
</event>
<event>
 5    1  0.1008363E-004  0.5037408E+03  0.7818608E-02  0.9750052E-01
         -4   -1    0    0    0  501 -0.00000000000E+00  0.00000000000E+00  0.36026073642E+03  0.36026073642E+03  0.00000000000E+00 0. -1.
         21   -1    0    0  501  502  0.00000000000E+00 -0.00000000000E+00 -0.10304458976E+04  0.10304458976E+04  0.00000000000E+00 0. -1.
        -13    1    1    2    0    0 -0.18437488154E+03  0.26358525706E+02 -0.51871312872E+02  0.19333782114E+03  0.10566000000E+00 0.  1.
         13    1    1    2    0    0  0.37400508881E+03  0.40631811953E+03 -0.35551621699E+03  0.65678460124E+03  0.10566000000E+00 0. -1.
         -4    1    1    2    0  502 -0.18963020727E+03 -0.43267664524E+03 -0.26279763131E+03  0.54058421163E+03  0.00000000000E+00 0. -1.
</event>
<event>
 5    1  0.1008363E-004  0.4760494E+03  0.7818608E-02  0.9778418E-01
          4   -1    0    0  502    0 -0.00000000000E+00  0.00000000000E+00  0.14514002243E+04  0.14514002243E+04  0.00000000000E+00 0.  1.
         21   -1    0    0  501  502  0.00000000000E+00 -0.00000000000E+00 -0.24865283610E+03  0.24865283610E+03  0.00000000000E+00 0.  1.
        -13    1    1    2    0    0 -0.26235619236E+03  0.35445312544E+03  0.40993218150E+03  0.60208985575E+03  0.10566000000E+00 0.  1.
         13    1    1    2    0    0  0.12185898517E+03  0.15880450217E+03  0.36050734459E+03  0.41235183865E+03  0.10566000000E+00 0. -1.
          4    1    1    2  501    0  0.14049720720E+03 -0.51325762760E+03  0.43230786210E+03  0.68561136598E+03  0.00000000000E+00 0.  1.
</event>
<event>
 5    1  0.1008363E-004  0.5226333E+02  0.7818608E-02  0.1282838E+00
         -4   -1    0    0    0  501 -0.00000000000E+00  0.00000000000E+00  0.17985810607E+02  0.17985810607E+02  0.00000000000E+00 0. -1.
         21   -1    0    0  501  502  0.00000000000E+00 -0.00000000000E+00 -0.32172921605E+03  0.32172921605E+03  0.00000000000E+00 0. -1.
        -13    1    1    2    0    0 -0.52566297567E+02  0.98170638638E+01 -0.57533796046E+02  0.78547687644E+02  0.10566000000E+00 0.  1.
         13    1    1    2    0    0  0.51457466887E+02  0.34679239112E+01 -0.85108948317E+02  0.99516037111E+02  0.10566000000E+00 0. -1.
         -4    1    1    2    0  502  0.11088306797E+01 -0.13284987775E+02 -0.16110066109E+03  0.16165130191E+03  0.00000000000E+00 0. -1.
</event>
<event>
 5    1  0.1008363E-004  0.3463089E+03  0.7818608E-02  0.9898388E-01
         -4   -1    0    0    0  501 -0.00000000000E+00  0.00000000000E+00  0.17704100557E+03  0.17704100557E+03  0.00000000000E+00 0. -1.
         21   -1    0    0  501  502  0.00000000000E+00 -0.00000000000E+00 -0.13423221568E+04  0.13423221568E+04  0.00000000000E+00 0.  1.
        -13    1    1    2    0    0 -0.14788533467E+02 -0.34003746663E+03 -0.19821524517E+03  0.39386986939E+03  0.10566000000E+00 0.  1.
         13    1    1    2    0    0  0.64366470444E+02  0.35053595058E+03 -0.32780182445E+03  0.48422364919E+03  0.10566000000E+00 0. -1.
         -4    1    1    2    0  502 -0.49577936977E+02 -0.10498483949E+02 -0.63926408165E+03  0.64126964382E+03  0.00000000000E+00 0. -1.
</event>
<event>
 5    1  0.1008363E-004  0.3274408E+03  0.7818608E-02  0.1021477E+00
         -4   -1    0    0    0  501 -0.00000000000E+00  0.00000000000E+00  0.74002414324E+02  0.74002414324E+02  0.00000000000E+00 0. -1.
         21   -1    0    0  501  502  0.00000000000E+00 -0.00000000000E+00 -0.24259852019E+04  0.24259852019E+04  0.00000000000E+00 0. -1.
        -13    1    1    2    0    0  0.12791737015E+03  0.72199566266E+02 -0.43855927556E+03  0.46250392463E+03  0.10566000000E+00 0.  1.
         13    1    1    2    0    0 -0.21916276207E+03  0.25098500443E+03 -0.65311754266E+03  0.73320414921E+03  0.10566000000E+00 0. -1.
         -4    1    1    2    0  502  0.91245391916E+02 -0.32318457070E+03 -0.12603059694E+04  0.13042795424E+04  0.00000000000E+00 0. -1.
</event>
<event>
 5    1  0.1008363E-004  0.3456346E+03  0.7818608E-02  0.1017359E+00
         21   -1    0    0  501  502  0.00000000000E+00  0.00000000000E+00  0.61268097189E+03  0.61268097189E+03  0.00000000000E+00 0.  1.
          4   -1    0    0  502    0 -0.00000000000E+00 -0.00000000000E+00 -0.67600679227E+03  0.67600679227E+03  0.00000000000E+00 0.  1.
        -13    1    1    2    0    0 -0.27893101848E+02  0.35511370238E+03 -0.30439184218E+03  0.46854900650E+03  0.10566000000E+00 0.  1.
         13    1    1    2    0    0  0.13986569682E+03 -0.25749057717E+02 -0.20807365974E+03  0.25203191497E+03  0.10566000000E+00 0. -1.
          4    1    1    2  501    0 -0.11197259498E+03 -0.32936464466E+03  0.44913968154E+03  0.56810684269E+03  0.00000000000E+00 0.  1.
</event>
<event>
 5    1  0.1008363E-004  0.1037650E+03  0.7818608E-02  0.1158472E+00
         21   -1    0    0  501  502  0.00000000000E+00  0.00000000000E+00  0.10486081083E+03  0.10486081083E+03  0.00000000000E+00 0. -1.
         -4   -1    0    0    0  501 -0.00000000000E+00 -0.00000000000E+00 -0.45093028331E+03  0.45093028331E+03  0.00000000000E+00 0. -1.
        -13    1    1    2    0    0 -0.53344263619E+02  0.76154812393E+02 -0.15893157373E+03  0.18413153506E+03  0.10566000000E+00 0.  1.
         13    1    1    2    0    0  0.70758958996E+02 -0.89163913620E+02 -0.26627842409E+03  0.28958805927E+03  0.10566000000E+00 0. -1.
         -4    1    1    2    0  502 -0.17414695377E+02  0.13009101227E+02  0.79140525337E+02  0.82071499806E+02  0.00000000000E+00 0. -1.
</event>
<event>
 5    1  0.1008363E-004  0.4407891E+03  0.7818608E-02  0.9715277E-01
          4   -1    0    0  502    0 -0.00000000000E+00  0.00000000000E+00  0.62282328975E+03  0.62282328975E+03  0.00000000000E+00 0.  1.
         21   -1    0    0  501  502  0.00000000000E+00 -0.00000000000E+00 -0.81407914222E+03  0.81407914222E+03  0.00000000000E+00 0.  1.
        -13    1    1    2    0    0  0.32676128515E+03  0.58441269999E+03 -0.12556476928E+03  0.68123245947E+03  0.10566000000E+00 0.  1.
         13    1    1    2    0    0 -0.14412680612E+03 -0.27844081437E+03  0.14094704066E+03  0.34375558583E+03  0.10566000000E+00 0. -1.
          4    1    1    2  501    0 -0.18263447903E+03 -0.30597188562E+03 -0.20663812386E+03  0.41191438668E+03  0.00000000000E+00 0.  1.
</event>
<event>
 5    1  0.1008363E-004  0.6877731E+02  0.7818608E-02  0.1229973E+00
         21   -1    0    0  501  502  0.00000000000E+00  0.00000000000E+00  0.12073498300E+03  0.12073498300E+03  0.00000000000E+00 0.  1.
         -4   -1    0    0    0  501 -0.00000000000E+00 -0.00000000000E+00 -0.68243900717E+02  0.68243900717E+02  0.00000000000E+00 0. -1.
        -13    1    1    2    0    0 -0.53163053567E+02  0.53064123605E+02  0.31505465820E+02  0.81453772283E+02  0.10566000000E+00 0.  1.
         13    1    1    2    0    0  0.26517015090E+02 -0.61760306017E+02 -0.74177186032E+01  0.67620420007E+02  0.10566000000E+00 0. -1.
         -4    1    1    2    0  502  0.26646038477E+02  0.86961824119E+01  0.28403335067E+02  0.39904691428E+02  0.00000000000E+00 0. -1.
</event>
<event>
 5    1  0.1008363E-004  0.3362345E+03  0.7818608E-02  0.9999384E-01
         21   -1    0    0  501  502  0.00000000000E+00  0.00000000000E+00  0.55979406660E+03  0.55979406660E+03  0.00000000000E+00 0.  1.
          4   -1    0    0  502    0 -0.00000000000E+00 -0.00000000000E+00 -0.10280178059E+04  0.10280178059E+04  0.00000000000E+00 0.  1.
        -13    1    1    2    0    0  0.23651701087E+03  0.48003540393E+03 -0.31245580327E+03  0.61967969598E+03  0.10566000000E+00 0.  1.
         13    1    1    2    0    0 -0.45857688568E+01 -0.27076375125E+03 -0.45889969686E+03  0.53284423729E+03  0.10566000000E+00 0. -1.
          4    1    1    2  501    0 -0.23193124202E+03 -0.20927165268E+03  0.30313176082E+03  0.43528793925E+03  0.00000000000E+00 0.  1.
</event>
<event>
 5    1  0.1008363E-004  0.1776523E+03  0.7818608E-02  0.1076640E+00
         21   -1    0    0  501  502  0.00000000000E+00  0.00000000000E+00  0.46551359686E+03  0.46551359686E+03  0.00000000000E+00 0.  1.
          4   -1    0    0  502    0 -0.00000000000E+00 -0.00000000000E+00 -0.55602694879E+03  0.55602694879E+03  0.00000000000E+00 0.  1.
        -13    1    1    2    0    0 -0.18177692371E+03 -0.36962394696E+02 -0.46642839652E+03  0.50196068458E+03  0.10566000000E+00 0.  1.
         13    1    1    2    0    0  0.10753446332E+03  0.11858942713E+03  0.38594553297E+02  0.16467138105E+03  0.10566000000E+00 0. -1.
          4    1    1    2  501    0  0.74242460394E+02 -0.81627032431E+02  0.33732049129E+03  0.35490848002E+03  0.00000000000E+00 0.  1.
</event>
<event>
 5    1  0.1008363E-004  0.5458296E+03  0.7818608E-02  0.9382809E-01
         21   -1    0    0  501  502  0.00000000000E+00  0.00000000000E+00  0.82705046024E+03  0.82705046024E+03  0.00000000000E+00 0.  1.
          4   -1    0    0  502    0 -0.00000000000E+00 -0.00000000000E+00 -0.10628751558E+04  0.10628751558E+04  0.00000000000E+00 0.  1.
        -13    1    1    2    0    0 -0.52486508295E+03  0.17776012720E+03  0.24500772471E+03  0.60589670279E+03  0.10566000000E+00 0.  1.
         13    1    1    2    0    0  0.20215665929E+03 -0.56218923980E+03 -0.50392066185E+03  0.78157539678E+03  0.10566000000E+00 0. -1.
          4    1    1    2  501    0  0.32270842366E+03  0.38442911260E+03  0.23088241579E+02  0.50245351647E+03  0.00000000000E+00 0.  1.
</event>
<event>
 5    1  0.1008363E-004  0.8418640E+02  0.7818608E-02  0.1193755E+00
         21   -1    0    0  501  502  0.00000000000E+00  0.00000000000E+00  0.29051941787E+03  0.29051941787E+03  0.00000000000E+00 0.  1.
          4   -1    0    0  502    0 -0.00000000000E+00 -0.00000000000E+00 -0.13415372614E+03  0.13415372614E+03  0.00000000000E+00 0.  1.
        -13    1    1    2    0    0 -0.90875897856E+02  0.94489593571E+00 -0.97573116427E+02  0.13334108839E+03  0.10566000000E+00 0.  1.
         13    1    1    2    0    0  0.62897584090E+02  0.80844710597E+01  0.39119766217E+02  0.74510616892E+02  0.10566000000E+00 0. -1.
          4    1    1    2  501    0  0.27978313765E+02 -0.90293669954E+01  0.21481904194E+03  0.21682143873E+03  0.00000000000E+00 0.  1.
</event>
<event>
 5    1  0.1008363E-004  0.4913706E+03  0.7818608E-02  0.9632782E-01
         21   -1    0    0  501  502  0.00000000000E+00  0.00000000000E+00  0.18536401106E+03  0.18536401106E+03  0.00000000000E+00 0. -1.
         -4   -1    0    0    0  501 -0.00000000000E+00 -0.00000000000E+00 -0.29826461893E+04  0.29826461893E+04  0.00000000000E+00 0. -1.
        -13    1    1    2    0    0 -0.20559213733E+03 -0.22140126112E+03 -0.18652871784E+03  0.35507691998E+03  0.10566000000E+00 0.  1.
         13    1    1    2    0    0  0.23538543652E+03 -0.34574354774E+03 -0.15977545832E+04  0.16515945701E+04  0.10566000000E+00 0. -1.
         -4    1    1    2    0  502 -0.29793299186E+02  0.56714480887E+03 -0.10129988771E+04  0.11613387103E+04  0.00000000000E+00 0. -1.
</event>
<event>
 5    1  0.1008363E-004  0.4597412E+03  0.7818608E-02  0.9816156E-01
         21   -1    0    0  501  502  0.00000000000E+00  0.00000000000E+00  0.85541600158E+03  0.85541600158E+03  0.00000000000E+00 0.  1.
          4   -1    0    0  502    0 -0.00000000000E+00 -0.00000000000E+00 -0.67736460923E+03  0.67736460923E+03  0.00000000000E+00 0.  1.
        -13    1    1    2    0    0 -0.39551059995E+03  0.33422215079E+03  0.61439876444E+03  0.80350415909E+03  0.10566000000E+00 0.  1.
         13    1    1    2    0    0  0.13078622569E+03 -0.14512112270E+03 -0.33627746681E+03  0.38890580213E+03  0.10566000000E+00 0. -1.
          4    1    1    2  501    0  0.26472437427E+03 -0.18910102809E+03 -0.10006990529E+03  0.34037064959E+03  0.00000000000E+00 0.  1.
</event>
<event>
 5    1  0.1008363E-004  0.6723832E+02  0.7818608E-02  0.1234166E+00
          4   -1    0    0  502    0 -0.00000000000E+00  0.00000000000E+00  0.40080356326E+02  0.40080356326E+02  0.00000000000E+00 0.  1.
         21   -1    0    0  501  502  0.00000000000E+00 -0.00000000000E+00 -0.16853842958E+03  0.16853842958E+03  0.00000000000E+00 0. -1.
        -13    1    1    2    0    0 -0.43823802588E+02  0.55646481670E+02 -0.85036045835E+02  0.11067157201E+03  0.10566000000E+00 0.  1.
         13    1    1    2    0    0  0.48602549919E+02 -0.44609571244E+02 -0.15824464977E+02  0.67842807732E+02  0.10566000000E+00 0. -1.
          4    1    1    2  501    0 -0.47787473306E+01 -0.11036910425E+02 -0.27597562444E+02  0.30104406167E+02  0.00000000000E+00 0.  1.
</event>
<event>
 5    1  0.1008363E-004  0.5809668E+02  0.7818608E-02  0.1261933E+00
         21   -1    0    0  501  502  0.00000000000E+00  0.00000000000E+00  0.56976085419E+02  0.56976085419E+02  0.00000000000E+00 0. -1.
          4   -1    0    0  502    0 -0.00000000000E+00 -0.00000000000E+00 -0.21402771874E+03  0.21402771874E+03  0.00000000000E+00 0.  1.
        -13    1    1    2    0    0 -0.17482202236E+02 -0.54450207312E+02 -0.17702381321E+03  0.18603197058E+03  0.10566000000E+00 0.  1.
         13    1    1    2    0    0  0.11205424746E+02  0.64941332756E+02  0.56521445880E+01  0.66142997712E+02  0.10566000000E+00 0. -1.
          4    1    1    2  501    0  0.62767774900E+01 -0.10491125444E+02  0.14320035305E+02  0.18828835861E+02  0.00000000000E+00 0.  1.
</event>
<event>
 5    1  0.1008363E-004  0.2853636E+03  0.7818608E-02  0.1016156E+00
         -4   -1    0    0    0  501 -0.00000000000E+00  0.00000000000E+00  0.18148480550E+04  0.18148480550E+04  0.00000000000E+00 0. -1.
         21   -1    0    0  501  502  0.00000000000E+00 -0.00000000000E+00 -0.39202179661E+03  0.39202179661E+03  0.00000000000E+00 0. -1.
        -13    1    1    2    0    0  0.13979844499E+03 -0.22221166596E+03  0.10930768957E+04  0.11241613500E+04  0.10566000000E+00 0.  1.
         13    1    1    2    0    0 -0.35045766563E+03  0.24462053105E+02  0.59468168268E+03  0.69069912575E+03  0.10566000000E+00 0. -1.
         -4    1    1    2    0  502  0.21065922063E+03  0.19774961286E+03 -0.26493231997E+03  0.39200937589E+03  0.00000000000E+00 0. -1.
</event>
<event>
 5    1  0.1008363E-004  0.1543305E+03  0.7818608E-02  0.1096918E+00
         21   -1    0    0  501  502  0.00000000000E+00  0.00000000000E+00  0.27618075743E+03  0.27618075743E+03  0.00000000000E+00 0. -1.
         -4   -1    0    0    0  501 -0.00000000000E+00 -0.00000000000E+00 -0.26463626133E+03  0.26463626133E+03  0.00000000000E+00 0. -1.
        -13    1    1    2    0    0 -0.14106426256E+03  0.51005441112E+02 -0.11064439400E+03  0.18639440518E+03  0.10566000000E+00 0.  1.
         13    1    1    2    0    0  0.13119228234E+03 -0.10208439262E+03 -0.50768414696E+02  0.17381047511E+03  0.10566000000E+00 0. -1.
         -4    1    1    2    0  502  0.98719802124E+01  0.51078951507E+02  0.17295730480E+03  0.18061213847E+03  0.00000000000E+00 0. -1.
</event>
<event>
 5    1  0.1008363E-004  0.5454535E+03  0.7818608E-02  0.9383550E-01
          4   -1    0    0  502    0 -0.00000000000E+00  0.00000000000E+00  0.24165836873E+04  0.24165836873E+04  0.00000000000E+00 0.  1.
         21   -1    0    0  501  502  0.00000000000E+00 -0.00000000000E+00 -0.29749029011E+03  0.29749029011E+03  0.00000000000E+00 0.  1.
        -13    1    1    2    0    0 -0.35635083127E+03 -0.42971171423E+03  0.18055386957E+04  0.18898698540E+04  0.10566000000E+00 0.  1.
         13    1    1    2    0    0  0.44423199320E+03  0.27895507615E+03  0.36873175027E+03  0.64118726836E+03  0.10566000000E+00 0. -1.
          4    1    1    2  501    0 -0.87881161931E+02  0.15075663807E+03 -0.55177048712E+02  0.18301685510E+03  0.00000000000E+00 0.  1.
</event>
<event>
 5    1  0.1008363E-004  0.5821696E+03  0.7818608E-02  0.9314053E-01
         21   -1    0    0  501  502  0.00000000000E+00  0.00000000000E+00  0.89936082844E+03  0.89936082844E+03  0.00000000000E+00 0.  1.
          4   -1    0    0  502    0 -0.00000000000E+00 -0.00000000000E+00 -0.70601041012E+03  0.70601041012E+03  0.00000000000E+00 0.  1.
        -13    1    1    2    0    0 -0.48588269935E+03  0.59059687898E+03  0.10628844680E+02  0.76485270118E+03  0.10566000000E+00 0.  1.
         13    1    1    2    0    0  0.31253830912E+03 -0.36156617509E+03 -0.36310987300E+02  0.47930031567E+03  0.10566000000E+00 0. -1.
          4    1    1    2  501    0  0.17334439023E+03 -0.22903070390E+03  0.21903256094E+03  0.36121822172E+03  0.00000000000E+00 0.  1.
</event>
<event>
 5    1  0.1008363E-004  0.4723413E+02  0.7818608E-02  0.1303479E+00
         21   -1    0    0  501  502  0.00000000000E+00  0.00000000000E+00  0.10809348306E+02  0.10809348306E+02  0.00000000000E+00 0. -1.
          4   -1    0    0  502    0 -0.00000000000E+00 -0.00000000000E+00 -0.40883158648E+03  0.40883158648E+03  0.00000000000E+00 0.  1.
        -13    1    1    2    0    0  0.45030667082E+02 -0.17221443647E+02 -0.28671687768E+03  0.29074201315E+03  0.10566000000E+00 0.  1.
         13    1    1    2    0    0 -0.37986470519E+02  0.25619883349E+02 -0.10820700609E+03  0.11750794738E+03  0.10566000000E+00 0. -1.
          4    1    1    2  501    0 -0.70441965626E+01 -0.83984397013E+01 -0.30983544035E+01  0.11390974262E+02  0.00000000000E+00 0.  1.
</event>
<event>
 5    1  0.1008363E-004  0.1846624E+03  0.7818608E-02  0.1071192E+00
         -4   -1    0    0    0  501 -0.00000000000E+00  0.00000000000E+00  0.12541089129E+03  0.12541089129E+03  0.00000000000E+00 0. -1.
         21   -1    0    0  501  502  0.00000000000E+00 -0.00000000000E+00 -0.45978687020E+03  0.45978687020E+03  0.00000000000E+00 0.  1.
        -13    1    1    2    0    0  0.55328776959E+02  0.18640783669E+03 -0.20586358706E+03  0.28317659293E+03  0.10566000000E+00 0.  1.
         13    1    1    2    0    0 -0.30461368370E+02 -0.17861935456E+03 -0.10866360202E+02  0.18152371122E+03  0.10566000000E+00 0. -1.
         -4    1    1    2    0  502 -0.24867408589E+02 -0.77884821351E+01 -0.11764603165E+03  0.12049745735E+03  0.00000000000E+00 0. -1.
</event>
<event>
 5    1  0.1008363E-004  0.6718147E+02  0.7818608E-02  0.1234323E+00
          4   -1    0    0  502    0 -0.00000000000E+00  0.00000000000E+00  0.45574233830E+02  0.45574233830E+02  0.00000000000E+00 0.  1.
         21   -1    0    0  501  502  0.00000000000E+00 -0.00000000000E+00 -0.21429912723E+03  0.21429912723E+03  0.00000000000E+00 0. -1.
        -13    1    1    2    0    0 -0.89524707458E+02 -0.36393979904E+01 -0.82654168960E+02  0.12190012828E+03  0.10566000000E+00 0.  1.
         13    1    1    2    0    0  0.47602474212E+02 -0.87148241781E-01 -0.83115529194E+02  0.95782072974E+02  0.10566000000E+00 0. -1.
          4    1    1    2  501    0  0.41922233246E+02  0.37265462322E+01 -0.29551952443E+01  0.42191159809E+02  0.00000000000E+00 0.  1.
</event>
<event>
 5    1  0.1008363E-004  0.6144734E+03  0.7818608E-02  0.9317049E-01
         21   -1    0    0  501  502  0.00000000000E+00  0.00000000000E+00  0.41791344882E+03  0.41791344882E+03  0.00000000000E+00 0.  1.
         -4   -1    0    0    0  501 -0.00000000000E+00 -0.00000000000E+00 -0.24815069318E+04  0.24815069318E+04  0.00000000000E+00 0. -1.
        -13    1    1    2    0    0  0.52067527472E+03 -0.54803565573E+03 -0.57416073891E+03  0.94926623606E+03  0.10566000000E+00 0.  1.
         13    1    1    2    0    0  0.16774455531E+03  0.54249521777E+03 -0.73545014864E+03  0.92915350155E+03  0.10566000000E+00 0. -1.
         -4    1    1    2    0  502 -0.68841983002E+03  0.55404379537E+01 -0.75398259539E+03  0.10210006430E+04  0.00000000000E+00 0. -1.
</event>
<event>
 5    1  0.1008363E-004  0.5176602E+03  0.7818608E-02  0.9440083E-01
         -4   -1    0    0    0  501 -0.00000000000E+00  0.00000000000E+00  0.94485519370E+03  0.94485519370E+03  0.00000000000E+00 0. -1.
         21   -1    0    0  501  502  0.00000000000E+00 -0.00000000000E+00 -0.35496355257E+03  0.35496355257E+03  0.00000000000E+00 0.  1.
        -13    1    1    2    0    0  0.27350886168E+03 -0.43626173384E+03  0.22195920067E+03  0.56071141933E+03  0.10566000000E+00 0.  1.
         13    1    1    2    0    0 -0.26621233115E+03  0.44633588711E+03  0.43079083374E+03  0.67502998673E+03  0.10566000000E+00 0. -1.
         -4    1    1    2    0  502 -0.72965305306E+01 -0.10074153269E+02 -0.62858393286E+02  0.64077340210E+02  0.00000000000E+00 0. -1.
</event>
<event>
 5    1  0.1008363E-004  0.4525465E+03  0.7818608E-02  0.9628090E-01
         -4   -1    0    0    0  501 -0.00000000000E+00  0.00000000000E+00  0.95289749197E+03  0.95289749197E+03  0.00000000000E+00 0. -1.
         21   -1    0    0  501  502  0.00000000000E+00 -0.00000000000E+00 -0.77409391867E+03  0.77409391867E+03  0.00000000000E+00 0. -1.
        -13    1    1    2    0    0  0.44320629040E+03 -0.35429026449E+03  0.62405958409E+02  0.57083090506E+03  0.10566000000E+00 0.  1.
         13    1    1    2    0    0  0.79179080151E+01  0.39014167570E+03  0.44874913970E+03  0.59468396811E+03  0.10566000000E+00 0. -1.
         -4    1    1    2    0  502 -0.45112419841E+03 -0.35851411203E+02 -0.33235152481E+03  0.56147653746E+03  0.00000000000E+00 0. -1.
</event>
<event>
 5    1  0.1008363E-004  0.7994305E+02  0.7818608E-02  0.1243431E+00
         -4   -1    0    0    0  501 -0.00000000000E+00  0.00000000000E+00  0.14460573676E+03  0.14460573676E+03  0.00000000000E+00 0. -1.
         21   -1    0    0  501  502  0.00000000000E+00 -0.00000000000E+00 -0.22313309613E+03  0.22313309613E+03  0.00000000000E+00 0.  1.
        -13    1    1    2    0    0 -0.22828069964E+02  0.23583172743E+02 -0.13017669697E+03  0.13425077434E+03  0.10566000000E+00 0.  1.
         13    1    1    2    0    0  0.99092307806E+02 -0.13096858810E+02  0.10095830526E+03  0.14206830661E+03  0.10566000000E+00 0. -1.
         -4    1    1    2    0  502 -0.76264237842E+02 -0.10486313934E+02 -0.49308967663E+02  0.91419751944E+02  0.00000000000E+00 0. -1.
</event>
<event>
 5    1  0.1008363E-004  0.4887039E+02  0.7818608E-02  0.1296457E+00
         -4   -1    0    0    0  501 -0.00000000000E+00  0.00000000000E+00  0.21883362526E+03  0.21883362526E+03  0.00000000000E+00 0. -1.
         21   -1    0    0  501  502  0.00000000000E+00 -0.00000000000E+00 -0.22480556334E+03  0.22480556334E+03  0.00000000000E+00 0.  1.
        -13    1    1    2    0    0 -0.17183542826E+02  0.73725404191E+02 -0.18753343480E+03  0.20223627197E+03  0.10566000000E+00 0.  1.
         13    1    1    2    0    0  0.61396824596E+01 -0.48089583221E+02  0.20140323101E+03  0.20715592277E+03  0.10566000000E+00 0. -1.
         -4    1    1    2    0  502  0.11043860367E+02 -0.25635820970E+02 -0.19841734286E+02  0.34246993855E+02  0.00000000000E+00 0. -1.
</event>
<event>
 5    1  0.1008363E-004  0.3060784E+03  0.7818608E-02  0.1004828E+00
         21   -1    0    0  501  502  0.00000000000E+00  0.00000000000E+00  0.18882614715E+03  0.18882614715E+03  0.00000000000E+00 0.  1.
         -4   -1    0    0    0  501 -0.00000000000E+00 -0.00000000000E+00 -0.66716491873E+03  0.66716491873E+03  0.00000000000E+00 0. -1.
        -13    1    1    2    0    0 -0.29452182694E+03 -0.87951794133E+02 -0.40886185949E+03  0.51151408186E+03  0.10566000000E+00 0.  1.
         13    1    1    2    0    0  0.28214450914E+03  0.11320364264E+03 -0.80153222528E+02  0.31439646784E+03  0.10566000000E+00 0. -1.
         -4    1    1    2    0  502  0.12377317794E+02 -0.25251848509E+02  0.10676310437E+02  0.30080516176E+02  0.00000000000E+00 0. -1.
</event>
<event>
 5    1  0.1911710E-004  0.4497680E+03  0.7818608E-02  0.1030804E+00
         -4   -1    0    0    0  501 -0.00000000000E+00  0.00000000000E+00  0.68593484558E+03  0.68593484558E+03  0.00000000000E+00 0. -1.
         21   -1    0    0  501  502  0.00000000000E+00 -0.00000000000E+00 -0.47420104471E+03  0.47420104471E+03  0.00000000000E+00 0. -1.
        -13    1    1    2    0    0 -0.20131153839E+02 -0.37306217640E+02  0.15038689439E+03  0.15624738845E+03  0.10566000000E+00 0.  1.
         13    1    1    2    0    0  0.23488038562E+03  0.41890687733E+03  0.23271268865E+03  0.53367309661E+03  0.10566000000E+00 0. -1.
         -4    1    1    2    0  502 -0.21474923178E+03 -0.38160065969E+03 -0.17136578216E+03  0.47021540524E+03  0.00000000000E+00 0. -1.
</event>
<event>
 5    1  0.1008363E-004  0.1766810E+03  0.7818608E-02  0.1077416E+00
         -4   -1    0    0    0  501 -0.00000000000E+00  0.00000000000E+00  0.13331004992E+04  0.13331004992E+04  0.00000000000E+00 0. -1.
         21   -1    0    0  501  502  0.00000000000E+00 -0.00000000000E+00 -0.38711236754E+02  0.38711236754E+02  0.00000000000E+00 0.  1.
        -13    1    1    2    0    0  0.15606147607E+03  0.66976514087E+02  0.67969349124E+03  0.70058853184E+03  0.10566000000E+00 0.  1.
         13    1    1    2    0    0 -0.17343748518E+03 -0.66155368799E+02  0.62432799680E+03  0.65133904600E+03  0.10566000000E+00 0. -1.
         -4    1    1    2    0  502  0.17376009115E+02 -0.82114528815E+00 -0.96322256216E+01  0.19884158086E+02  0.00000000000E+00 0. -1.
</event>
<event>
 5    1  0.1008363E-004  0.9235159E+02  0.7818608E-02  0.1177870E+00
         21   -1    0    0  501  502  0.00000000000E+00  0.00000000000E+00  0.31821052697E+03  0.31821052697E+03  0.00000000000E+00 0.  1.
         -4   -1    0    0    0  501 -0.00000000000E+00 -0.00000000000E+00 -0.28290513848E+03  0.28290513848E+03  0.00000000000E+00 0. -1.
        -13    1    1    2    0    0 -0.29414881493E+01  0.80511869250E+02  0.24244851587E+03  0.25548406497E+03  0.10566000000E+00 0.  1.
         13    1    1    2    0    0 -0.28564979672E+02 -0.88375662440E+02 -0.26416213813E+03  0.28001403922E+03  0.10566000000E+00 0. -1.
         -4    1    1    2    0  502  0.31506467821E+02  0.78637931901E+01  0.57019010751E+02  0.65617561254E+02  0.00000000000E+00 0. -1.
</event>
<event>
 5    1  0.1008363E-004  0.2125667E+03  0.7818608E-02  0.1051846E+00
         21   -1    0    0  501  502  0.00000000000E+00  0.00000000000E+00  0.10554661540E+03  0.10554661540E+03  0.00000000000E+00 0.  1.
          4   -1    0    0  502    0 -0.00000000000E+00 -0.00000000000E+00 -0.14064551308E+04  0.14064551308E+04  0.00000000000E+00 0.  1.
        -13    1    1    2    0    0 -0.20982755470E+03 -0.50241874387E+02 -0.10682453592E+04  0.10898165016E+04  0.10566000000E+00 0.  1.
         13    1    1    2    0    0  0.19875585098E+03  0.42530179941E+02 -0.29509014480E+03  0.35831677218E+03  0.10566000000E+00 0. -1.
          4    1    1    2  501    0  0.11071703717E+02  0.77116944462E+01  0.62426988608E+02  0.63868472356E+02  0.00000000000E+00 0.  1.
</event>
<event>
 5    1  0.1008363E-004  0.8684603E+02  0.7818608E-02  0.1201849E+00
         21   -1    0    0  501  502  0.00000000000E+00  0.00000000000E+00  0.20895991608E+02  0.20895991608E+02  0.00000000000E+00 0.  1.
         -4   -1    0    0    0  501 -0.00000000000E+00 -0.00000000000E+00 -0.82933747967E+03  0.82933747967E+03  0.00000000000E+00 0. -1.
        -13    1    1    2    0    0  0.23854614847E+02 -0.59107135376E+02 -0.11191695070E+03  0.12879484120E+03  0.10566000000E+00 0.  1.
         13    1    1    2    0    0 -0.89021850870E+02 -0.89360216811E+01 -0.41609737091E+03  0.42560753712E+03  0.10566000000E+00 0. -1.
         -4    1    1    2    0  502  0.65167236023E+02  0.68043157057E+02 -0.28042716645E+03  0.29583109295E+03  0.00000000000E+00 0. -1.
</event>
<event>
 5    1  0.1008363E-004  0.5390007E+03  0.7818608E-02  0.1017657E+00
         21   -1    0    0  501  502  0.00000000000E+00  0.00000000000E+00  0.28678938708E+03  0.28678938708E+03  0.00000000000E+00 0. -1.
         -4   -1    0    0    0  501 -0.00000000000E+00 -0.00000000000E+00 -0.11044795350E+04  0.11044795350E+04  0.00000000000E+00 0. -1.
        -13    1    1    2    0    0  0.37139529932E+02 -0.81935531415E+00 -0.23282153455E+02  0.43841599654E+02  0.10566000000E+00 0.  1.
         13    1    1    2    0    0  0.29745015742E+03 -0.43437253279E+03 -0.49262800634E+03  0.72099823661E+03  0.10566000000E+00 0. -1.
         -4    1    1    2    0  502 -0.33458968735E+03  0.43519188811E+03 -0.30177998817E+03  0.62642908586E+03  0.00000000000E+00 0. -1.
</event>
<event>
 5    1  0.1008363E-004  0.3590910E+03  0.7818608E-02  0.1003642E+00
          4   -1    0    0  502    0 -0.00000000000E+00  0.00000000000E+00  0.10658844760E+04  0.10658844760E+04  0.00000000000E+00 0.  1.
         21   -1    0    0  501  502  0.00000000000E+00 -0.00000000000E+00 -0.58938390322E+03  0.58938390322E+03  0.00000000000E+00 0.  1.
        -13    1    1    2    0    0  0.69776598861E+02 -0.37817099955E+03 -0.47019552928E+03  0.60742565436E+03  0.10566000000E+00 0.  1.
         13    1    1    2    0    0 -0.12495311523E+03  0.15229312059E+03  0.59030970588E+03  0.62231184756E+03  0.10566000000E+00 0. -1.
          4    1    1    2  501    0  0.55176516369E+02  0.22587787896E+03  0.35638639615E+03  0.42553087728E+03  0.00000000000E+00 0.  1.
</event>
<event>
 5    1  0.1008363E-004  0.6024591E+02  0.7818608E-02  0.1271092E+00
         21   -1    0    0  501  502  0.00000000000E+00  0.00000000000E+00  0.38616606485E+02  0.38616606485E+02  0.00000000000E+00 0. -1.
          4   -1    0    0  502    0 -0.00000000000E+00 -0.00000000000E+00 -0.60365977911E+03  0.60365977911E+03  0.00000000000E+00 0.  1.
        -13    1    1    2    0    0  0.94028784485E+02  0.91312837085E+01 -0.47805207373E+03  0.48729722862E+03  0.10566000000E+00 0.  1.
         13    1    1    2    0    0 -0.42890104029E+02  0.52145811402E+01  0.10044929775E+02  0.44358366272E+02  0.10566000000E+00 0. -1.
          4    1    1    2  501    0 -0.51138680456E+02 -0.14345864849E+02 -0.97036028664E+02  0.11062079070E+03  0.00000000000E+00 0.  1.
</event>
<event>
 5    1  0.1008363E-004  0.4992531E+03  0.7818608E-02  0.9680070E-01
         21   -1    0    0  501  502  0.00000000000E+00  0.00000000000E+00  0.58951392139E+03  0.58951392139E+03  0.00000000000E+00 0. -1.
         -4   -1    0    0    0  501 -0.00000000000E+00 -0.00000000000E+00 -0.91477630674E+03  0.91477630674E+03  0.00000000000E+00 0. -1.
        -13    1    1    2    0    0 -0.24019585586E+03  0.42589678578E+02 -0.40551221284E+03  0.47323154568E+03  0.10566000000E+00 0.  1.
         13    1    1    2    0    0  0.29706241641E+03  0.44580573035E+03  0.58264241155E+02  0.53887249087E+03  0.10566000000E+00 0. -1.
         -4    1    1    2    0  502 -0.56866560544E+02 -0.48839540893E+03  0.21985586337E+02  0.49218619158E+03  0.00000000000E+00 0. -1.
</event>
<event>
 5    1  0.1008363E-004  0.1227889E+03  0.7818608E-02  0.1131545E+00
         -4   -1    0    0    0  501 -0.00000000000E+00  0.00000000000E+00  0.95758060069E+03  0.95758060069E+03  0.00000000000E+00 0. -1.
         21   -1    0    0  501  502  0.00000000000E+00 -0.00000000000E+00 -0.28801544386E+02  0.28801544386E+02  0.00000000000E+00 0.  1.
        -13    1    1    2    0    0  0.13090382568E+03 -0.38473583868E+02  0.23257675840E+03  0.26964418768E+03  0.10566000000E+00 0.  1.
         13    1    1    2    0    0 -0.11362006841E+03  0.35444689917E+02  0.68639192905E+03  0.69663457954E+03  0.10566000000E+00 0. -1.
         -4    1    1    2    0  502 -0.17283757276E+02  0.30288939514E+01  0.98103688511E+01  0.20103377854E+02  0.00000000000E+00 0. -1.
</event>
<event>
 5    1  0.1008363E-004  0.2913406E+03  0.7818608E-02  0.1057201E+00
         21   -1    0    0  501  502  0.00000000000E+00  0.00000000000E+00  0.10772190951E+03  0.10772190951E+03  0.00000000000E+00 0. -1.
         -4   -1    0    0    0  501 -0.00000000000E+00 -0.00000000000E+00 -0.29105382123E+04  0.29105382123E+04  0.00000000000E+00 0. -1.
        -13    1    1    2    0    0 -0.60829629792E+02 -0.35641238686E+02 -0.37732101457E+03  0.38385114427E+03  0.10566000000E+00 0.  1.
         13    1    1    2    0    0 -0.28365297558E+03  0.39718302009E+02 -0.13233322914E+03  0.31551330997E+03  0.10566000000E+00 0. -1.
         -4    1    1    2    0  502  0.34448260538E+03 -0.40770633230E+01 -0.22931620591E+04  0.23188956676E+04  0.00000000000E+00 0. -1.
</event>
<event>
 5    1  0.1008363E-004  0.4960609E+03  0.7818608E-02  0.9880356E-01
          4   -1    0    0  502    0 -0.00000000000E+00  0.00000000000E+00  0.19415791207E+04  0.19415791207E+04  0.00000000000E+00 0.  1.
         21   -1    0    0  501  502  0.00000000000E+00 -0.00000000000E+00 -0.23854208809E+03  0.23854208809E+03  0.00000000000E+00 0.  1.
        -13    1    1    2    0    0 -0.34168428075E+03 -0.40953112072E+03  0.19845989730E+03  0.56907840281E+03  0.10566000000E+00 0.  1.
         13    1    1    2    0    0  0.94164672579E+02  0.82467593031E+02  0.66443803359E+03  0.67612558087E+03  0.10566000000E+00 0. -1.
          4    1    1    2  501    0  0.24751960817E+03  0.32706352768E+03  0.84013910168E+03  0.93491722508E+03  0.00000000000E+00 0.  1.
</event>
<event>
 5    1  0.1089561E-004  0.3591431E+03  0.7818608E-02  0.1038322E+00
          4   -1    0    0  502    0 -0.00000000000E+00  0.00000000000E+00  0.79528646779E+03  0.79528646779E+03  0.00000000000E+00 0.  1.
         21   -1    0    0  501  502  0.00000000000E+00 -0.00000000000E+00 -0.39511296736E+03  0.39511296736E+03  0.00000000000E+00 0.  1.
        -13    1    1    2    0    0  0.15193852422E+03 -0.28363539827E+03  0.52184303168E+03  0.61306974740E+03  0.10566000000E+00 0.  1.
         13    1    1    2    0    0 -0.26855714719E+02 -0.60443093058E+02  0.12114068140E+03  0.13802055196E+03  0.10566000000E+00 0. -1.
          4    1    1    2  501    0 -0.12508280950E+03  0.34407849133E+03 -0.24281021265E+03  0.43930913580E+03  0.00000000000E+00 0.  1.
</event>
<event>
 5    1  0.1008363E-004  0.4794599E+03  0.7818608E-02  0.9618512E-01
          4   -1    0    0  502    0 -0.00000000000E+00  0.00000000000E+00  0.77422130226E+03  0.77422130226E+03  0.00000000000E+00 0.  1.
         21   -1    0    0  501  502  0.00000000000E+00 -0.00000000000E+00 -0.81564991392E+03  0.81564991392E+03  0.00000000000E+00 0.  1.
        -13    1    1    2    0    0 -0.27225229704E+03  0.98558780676E+02  0.12246370685E+03  0.31437639407E+03  0.10566000000E+00 0.  1.
         13    1    1    2    0    0 -0.33661256690E+03 -0.60797770374E+02  0.34146744030E+03  0.48332640424E+03  0.10566000000E+00 0. -1.
          4    1    1    2  501    0  0.60886486394E+03 -0.37761010302E+02 -0.50535975881E+03  0.79216841787E+03  0.00000000000E+00 0.  1.
</event>
<event>
 5    1  0.1008363E-004  0.4860652E+03  0.7818608E-02  0.9591337E-01
         21   -1    0    0  501  502  0.00000000000E+00  0.00000000000E+00  0.50052641798E+03  0.50052641798E+03  0.00000000000E+00 0. -1.
          4   -1    0    0  502    0 -0.00000000000E+00 -0.00000000000E+00 -0.10337464003E+04  0.10337464003E+04  0.00000000000E+00 0.  1.
        -13    1    1    2    0    0 -0.46750907116E+03  0.43917319476E+03 -0.30687939582E+03  0.71106455499E+03  0.10566000000E+00 0.  1.
         13    1    1    2    0    0  0.35995056244E+03 -0.34370440993E+02 -0.36755399814E+02  0.36345110427E+03  0.10566000000E+00 0. -1.
          4    1    1    2  501    0  0.10755850873E+03 -0.40480275377E+03 -0.18958518668E+03  0.45975715902E+03  0.00000000000E+00 0.  1.
</event>
<event>
 5    1  0.1008363E-004  0.4646410E+03  0.7818608E-02  0.9775308E-01
          4   -1    0    0  502    0 -0.00000000000E+00  0.00000000000E+00  0.32861383599E+04  0.32861383599E+04  0.00000000000E+00 0.  1.
         21   -1    0    0  501  502  0.00000000000E+00 -0.00000000000E+00 -0.14128494974E+03  0.14128494974E+03  0.00000000000E+00 0.  1.
        -13    1    1    2    0    0  0.34932289941E+03 -0.40790061821E+03  0.13164803559E+04  0.14218051699E+04  0.10566000000E+00 0.  1.
         13    1    1    2    0    0 -0.21695382692E+03 -0.16618346352E+02  0.12859045046E+04  0.13041838592E+04  0.10566000000E+00 0. -1.
          4    1    1    2  501    0 -0.13236907250E+03  0.42451896456E+03  0.54246854961E+03  0.70143428056E+03  0.00000000000E+00 0.  1.
</event>
<event>
 5    1  0.1008363E-004  0.3630288E+03  0.7818608E-02  0.1018479E+00
         21   -1    0    0  501  502  0.00000000000E+00  0.00000000000E+00  0.37909665880E+03  0.37909665880E+03  0.00000000000E+00 0. -1.
         -4   -1    0    0    0  501 -0.00000000000E+00 -0.00000000000E+00 -0.95782992141E+03  0.95782992141E+03  0.00000000000E+00 0. -1.
        -13    1    1    2    0    0  0.58440266360E+02  0.10304589702E+03 -0.17717620658E+03  0.21313174557E+03  0.10566000000E+00 0.  1.
         13    1    1    2    0    0 -0.37622020566E+03 -0.24818997480E+03 -0.57755863918E+03  0.73260760274E+03  0.10566000000E+00 0. -1.
         -4    1    1    2    0  502  0.31777993930E+03  0.14514407778E+03  0.17600158315E+03  0.39118723190E+03  0.00000000000E+00 0. -1.
</event>
<event>
 5    1  0.1008363E-004  0.4004172E+03  0.7818608E-02  0.9923880E-01
          4   -1    0    0  502    0 -0.00000000000E+00  0.00000000000E+00  0.50641624294E+03  0.50641624294E+03  0.00000000000E+00 0.  1.
         21   -1    0    0  501  502  0.00000000000E+00 -0.00000000000E+00 -0.19586082666E+04  0.19586082666E+04  0.00000000000E+00 0.  1.
        -13    1    1    2    0    0  0.36823116622E+03  0.56944601134E+01 -0.12227002209E+04  0.12769582844E+04  0.10566000000E+00 0.  1.
         13    1    1    2    0    0  0.15658750704E+03 -0.13348427878E+03  0.34362585390E+03  0.40052021007E+03  0.10566000000E+00 0. -1.
          4    1    1    2  501    0 -0.52481867325E+03  0.12778981867E+03 -0.57311765667E+03  0.78754601513E+03  0.00000000000E+00 0.  1.
</event>
<event>
 5    1  0.1008363E-004  0.5683924E+02  0.7818608E-02  0.1344696E+00
         21   -1    0    0  501  502  0.00000000000E+00  0.00000000000E+00  0.13269700665E+03  0.13269700665E+03  0.00000000000E+00 0. -1.
         -4   -1    0    0    0  501 -0.00000000000E+00 -0.00000000000E+00 -0.10771147436E+03  0.10771147436E+03  0.00000000000E+00 0. -1.
        -13    1    1    2    0    0  0.42838686092E+01  0.11785098025E+02  0.31335423598E+02  0.33751444440E+02  0.10566000000E+00 0.  1.
         13    1    1    2    0    0  0.13244271308E+02  0.43374238181E+02 -0.92413863819E+02  0.10294206453E+03  0.10566000000E+00 0. -1.
         -4    1    1    2    0  502 -0.17528139917E+02 -0.55159336206E+02  0.86063972512E+02  0.10371497204E+03  0.00000000000E+00 0. -1.
</event>
<event>
 5    1  0.1008363E-004  0.4185598E+03  0.7818608E-02  0.9676923E-01
         -4   -1    0    0    0  501 -0.00000000000E+00  0.00000000000E+00  0.13566096471E+04  0.13566096471E+04  0.00000000000E+00 0. -1.
         21   -1    0    0  501  502  0.00000000000E+00 -0.00000000000E+00 -0.49899146582E+03  0.49899146582E+03  0.00000000000E+00 0. -1.
        -13    1    1    2    0    0  0.20560517948E+03 -0.37264862206E+03  0.24948896657E+02  0.42633665566E+03  0.10566000000E+00 0.  1.
         13    1    1    2    0    0  0.17363476125E+03  0.47280282370E+03 -0.56609380165E+01  0.50370983492E+03  0.10566000000E+00 0. -1.
         -4    1    1    2    0  502 -0.37923994073E+03 -0.10015420164E+03  0.83833022259E+03  0.92555462230E+03  0.00000000000E+00 0. -1.
</event>
<event>
 5    1  0.1008363E-004  0.4646796E+03  0.7818608E-02  0.9748338E-01
         21   -1    0    0  501  502  0.00000000000E+00  0.00000000000E+00  0.18879168033E+03  0.18879168033E+03  0.00000000000E+00 0. -1.
         -4   -1    0    0    0  501 -0.00000000000E+00 -0.00000000000E+00 -0.22323395131E+04  0.22323395131E+04  0.00000000000E+00 0. -1.
        -13    1    1    2    0    0 -0.20414234312E+03 -0.12367597307E+03 -0.58532127918E+03  0.63211617096E+03  0.10566000000E+00 0.  1.
         13    1    1    2    0    0  0.60413694039E+03  0.13164735805E+03 -0.10423469571E+04  0.12119404522E+04  0.10566000000E+00 0. -1.
         -4    1    1    2    0  502 -0.39999459727E+03 -0.79713849837E+01 -0.41587959653E+03  0.57707457026E+03  0.00000000000E+00 0. -1.
</event>
<event>
 5    1  0.1008363E-004  0.1683261E+03  0.7818608E-02  0.1084322E+00
          4   -1    0    0  502    0 -0.00000000000E+00  0.00000000000E+00  0.47484203904E+03  0.47484203904E+03  0.00000000000E+00 0.  1.
         21   -1    0    0  501  502  0.00000000000E+00 -0.00000000000E+00 -0.33956386156E+03  0.33956386156E+03  0.00000000000E+00 0.  1.
        -13    1    1    2    0    0 -0.18393492664E+03  0.71834480744E+02  0.23209491938E+03  0.30472990111E+03  0.10566000000E+00 0.  1.
         13    1    1    2    0    0  0.14169271809E+03 -0.40296979350E+02  0.17731360335E+03  0.23052287956E+03  0.10566000000E+00 0. -1.
          4    1    1    2  501    0  0.42242208552E+02 -0.31537501394E+02 -0.27413034526E+03  0.27915311993E+03  0.00000000000E+00 0.  1.
</event>
<event>
 5    1  0.1008363E-004  0.4857607E+03  0.7818608E-02  0.9599332E-01
          4   -1    0    0  502    0 -0.00000000000E+00  0.00000000000E+00  0.10579998307E+04  0.10579998307E+04  0.00000000000E+00 0.  1.
         21   -1    0    0  501  502  0.00000000000E+00 -0.00000000000E+00 -0.46701895281E+03  0.46701895281E+03  0.00000000000E+00 0. -1.
        -13    1    1    2    0    0 -0.49988724065E+03 -0.18219333718E+03  0.80093462529E+02  0.53804891913E+03  0.10566000000E+00 0.  1.
         13    1    1    2    0    0  0.37125037013E+02  0.35013752869E+03  0.21882162368E+03  0.41455695812E+03  0.10566000000E+00 0. -1.
          4    1    1    2  501    0  0.46276220364E+03 -0.16794419151E+03  0.29206579167E+03  0.57241290625E+03  0.00000000000E+00 0.  1.
</event>
<event>
 5    1  0.1008363E-004  0.4865612E+03  0.7818608E-02  0.9592103E-01
         -4   -1    0    0    0  501 -0.00000000000E+00  0.00000000000E+00  0.13533658137E+04  0.13533658137E+04  0.00000000000E+00 0. -1.
         21   -1    0    0  501  502  0.00000000000E+00 -0.00000000000E+00 -0.10382442552E+04  0.10382442552E+04  0.00000000000E+00 0. -1.
        -13    1    1    2    0    0 -0.33520529580E+03  0.12991691886E+03  0.10412729056E+04  0.11015853445E+04  0.10566000000E+00 0.  1.
         13    1    1    2    0    0  0.16925800952E+03  0.40406137360E+03 -0.97738277980E+02  0.44885036434E+03  0.10566000000E+00 0. -1.
         -4    1    1    2    0  502  0.16594728628E+03 -0.53397829246E+03 -0.62841306912E+03  0.84117436009E+03  0.00000000000E+00 0. -1.
</event>
<event>
 5    1  0.1008363E-004  0.8259127E+02  0.7818608E-02  0.1212420E+00
         21   -1    0    0  501  502  0.00000000000E+00  0.00000000000E+00  0.11362512299E+03  0.11362512299E+03  0.00000000000E+00 0. -1.
         -4   -1    0    0    0  501 -0.00000000000E+00 -0.00000000000E+00 -0.12383396992E+03  0.12383396992E+03  0.00000000000E+00 0. -1.
        -13    1    1    2    0    0  0.33142711760E+02  0.48106323642E+02 -0.64066363712E+01  0.58768306686E+02  0.10566000000E+00 0.  1.
         13    1    1    2    0    0  0.49847493662E+02 -0.72495881484E+02  0.17275789158E+02  0.89659854515E+02  0.10566000000E+00 0. -1.
         -4    1    1    2    0  502 -0.82990205422E+02  0.24389557842E+02 -0.21077999719E+02  0.89030931702E+02  0.00000000000E+00 0. -1.
</event>
<event>
 5    1  0.1008363E-004  0.4035856E+03  0.7818608E-02  0.1006298E+00
         -4   -1    0    0    0  501 -0.00000000000E+00  0.00000000000E+00  0.22581104639E+03  0.22581104639E+03  0.00000000000E+00 0. -1.
         21   -1    0    0  501  502  0.00000000000E+00 -0.00000000000E+00 -0.20084652370E+04  0.20084652370E+04  0.00000000000E+00 0. -1.
        -13    1    1    2    0    0  0.52797219707E+01 -0.12718844925E+03  0.41711719255E+02  0.13395766411E+03  0.10566000000E+00 0.  1.
         13    1    1    2    0    0  0.39535254758E+03  0.46972993142E+02 -0.24168528425E+03  0.46574873779E+03  0.10566000000E+00 0. -1.
         -4    1    1    2    0  502 -0.40063226955E+03  0.80215456106E+02 -0.15826806256E+04  0.16345698815E+04  0.00000000000E+00 0. -1.
</event>
<event>
 5    1  0.1008363E-004  0.3145738E+03  0.7818608E-02  0.1021253E+00
          4   -1    0    0  502    0 -0.00000000000E+00  0.00000000000E+00  0.11254363707E+04  0.11254363707E+04  0.00000000000E+00 0.  1.
         21   -1    0    0  501  502  0.00000000000E+00 -0.00000000000E+00 -0.21698846876E+03  0.21698846876E+03  0.00000000000E+00 0.  1.
        -13    1    1    2    0    0  0.10425583103E+03 -0.22734017681E+03  0.14088964820E+03  0.28705877174E+03  0.10566000000E+00 0.  1.
         13    1    1    2    0    0  0.10836726597E+03 -0.12684059699E+03  0.57662710893E+03  0.60027563277E+03  0.10566000000E+00 0. -1.
          4    1    1    2  501    0 -0.21262309700E+03  0.35418077381E+03  0.19093114477E+03  0.45509043492E+03  0.00000000000E+00 0.  1.
</event>
<event>
 5    1  0.1008363E-004  0.5181354E+03  0.7818608E-02  0.9541546E-01
          4   -1    0    0  502    0 -0.00000000000E+00  0.00000000000E+00  0.15550691090E+04  0.15550691090E+04  0.00000000000E+00 0.  1.
         21   -1    0    0  501  502  0.00000000000E+00 -0.00000000000E+00 -0.55972054439E+03  0.55972054439E+03  0.00000000000E+00 0.  1.
        -13    1    1    2    0    0 -0.13538768881E+03 -0.50542436383E+03 -0.11601098667E+03  0.53594978685E+03  0.10566000000E+00 0.  1.
         13    1    1    2    0    0  0.35481288379E+03 -0.37732331958E+02  0.87895497255E+03  0.94861887305E+03  0.10566000000E+00 0. -1.
          4    1    1    2  501    0 -0.21942519499E+03  0.54315669579E+03  0.23240457870E+03  0.63022099344E+03  0.00000000000E+00 0.  1.
</event>
<event>
 5    1  0.1008363E-004  0.6958886E+03  0.7818608E-02  0.9128964E-01
          4   -1    0    0  502    0 -0.00000000000E+00  0.00000000000E+00  0.31282550628E+04  0.31282550628E+04  0.00000000000E+00 0.  1.
         21   -1    0    0  501  502  0.00000000000E+00 -0.00000000000E+00 -0.25115964951E+03  0.25115964951E+03  0.00000000000E+00 0. -1.
        -13    1    1    2    0    0  0.75385149433E+03  0.41808519136E+03  0.13319124153E+04  0.15865301749E+04  0.10566000000E+00 0.  1.
         13    1    1    2    0    0 -0.55648937363E+03 -0.24572973612E+03  0.12942308740E+04  0.14300689118E+04  0.10566000000E+00 0. -1.
          4    1    1    2  501    0 -0.19736212070E+03 -0.17235545524E+03  0.25095212408E+03  0.36281562566E+03  0.00000000000E+00 0.  1.
</event>
<event>
 5    1  0.1008363E-004  0.4112419E+03  0.7818608E-02  0.1007935E+00
         21   -1    0    0  501  502  0.00000000000E+00  0.00000000000E+00  0.92654024623E+03  0.92654024623E+03  0.00000000000E+00 0. -1.
         -4   -1    0    0    0  501 -0.00000000000E+00 -0.00000000000E+00 -0.35395084915E+03  0.35395084915E+03  0.00000000000E+00 0. -1.
        -13    1    1    2    0    0 -0.10983520572E+02  0.11359193434E+03 -0.13276670731E+01  0.11412948408E+03  0.10566000000E+00 0.  1.
         13    1    1    2    0    0 -0.39896229104E+03 -0.35344549857E+02 -0.62433909811E+02  0.40536175342E+03  0.10566000000E+00 0. -1.
         -4    1    1    2    0  502  0.40994581161E+03 -0.78247384487E+02  0.63635097396E+03  0.76099985789E+03  0.00000000000E+00 0. -1.
</event>
<event>
 5    1  0.1008363E-004  0.4604216E+03  0.7818608E-02  0.9640862E-01
         21   -1    0    0  501  502  0.00000000000E+00  0.00000000000E+00  0.49678268575E+03  0.49678268575E+03  0.00000000000E+00 0.  1.
          4   -1    0    0  502    0 -0.00000000000E+00 -0.00000000000E+00 -0.21718448387E+04  0.21718448387E+04  0.00000000000E+00 0.  1.
        -13    1    1    2    0    0  0.13597554527E+03 -0.32648120203E+03 -0.32134512429E+03  0.47785146674E+03  0.10566000000E+00 0.  1.
         13    1    1    2    0    0  0.34685867255E+03  0.84179271403E+02 -0.15691133143E+04  0.16091965985E+04  0.10566000000E+00 0. -1.
          4    1    1    2  501    0 -0.48283421782E+03  0.24230193063E+03  0.21539628563E+03  0.58157945919E+03  0.00000000000E+00 0.  1.
</event>
<event>
 5    1  0.1008363E-004  0.4423076E+03  0.7818608E-02  0.9646077E-01
          4   -1    0    0  502    0 -0.00000000000E+00  0.00000000000E+00  0.10807481120E+04  0.10807481120E+04  0.00000000000E+00 0.  1.
         21   -1    0    0  501  502  0.00000000000E+00 -0.00000000000E+00 -0.82418830829E+03  0.82418830829E+03  0.00000000000E+00 0.  1.
        -13    1    1    2    0    0 -0.60610994837E+03 -0.72182990536E+01 -0.73173954240E+02  0.61055369305E+03  0.10566000000E+00 0.  1.
         13    1    1    2    0    0  0.28554559633E+03  0.27331264906E+03  0.65554921282E+03  0.76549387542E+03  0.10566000000E+00 0. -1.
          4    1    1    2  501    0  0.32056435204E+03 -0.26609435001E+03 -0.32581545490E+03  0.52888885179E+03  0.00000000000E+00 0.  1.
</event>
<event>
 5    1  0.1008363E-004  0.5157334E+03  0.7818608E-02  0.9576753E-01
         21   -1    0    0  501  502  0.00000000000E+00  0.00000000000E+00  0.90649452457E+03  0.90649452457E+03  0.00000000000E+00 0. -1.
         -4   -1    0    0    0  501 -0.00000000000E+00 -0.00000000000E+00 -0.57654111606E+03  0.57654111606E+03  0.00000000000E+00 0. -1.
        -13    1    1    2    0    0  0.30064757374E+03 -0.10628503061E+03 -0.31016072971E+02  0.32038645301E+03  0.10566000000E+00 0.  1.
         13    1    1    2    0    0 -0.54933566262E+03  0.32208248199E+03  0.49560113881E+03  0.80692459088E+03  0.10566000000E+00 0. -1.
         -4    1    1    2    0  502  0.24868808888E+03 -0.21579745138E+03 -0.13463165732E+03  0.35572459674E+03  0.00000000000E+00 0. -1.
</event>
<event>
 5    1  0.1008363E-004  0.4120574E+03  0.7818608E-02  0.9749997E-01
         21   -1    0    0  501  502  0.00000000000E+00  0.00000000000E+00  0.33022511446E+03  0.33022511446E+03  0.00000000000E+00 0. -1.
         -4   -1    0    0    0  501 -0.00000000000E+00 -0.00000000000E+00 -0.26879181274E+04  0.26879181274E+04  0.00000000000E+00 0. -1.
        -13    1    1    2    0    0  0.33727841466E+03  0.45626754106E+02 -0.17629997809E+04  0.17955519397E+04  0.10566000000E+00 0.  1.
         13    1    1    2    0    0 -0.40658721128E+02 -0.38064597988E+03 -0.66727152817E+03  0.76928265096E+03  0.10566000000E+00 0. -1.
         -4    1    1    2    0  502 -0.29661969353E+03  0.33501922577E+03  0.72578296048E+02  0.45330865124E+03  0.00000000000E+00 0. -1.
</event>
<event>
 5    1  0.1008363E-004  0.1222336E+03  0.7818608E-02  0.1132253E+00
         21   -1    0    0  501  502  0.00000000000E+00  0.00000000000E+00  0.14138254731E+04  0.14138254731E+04  0.00000000000E+00 0.  1.
          4   -1    0    0  502    0 -0.00000000000E+00 -0.00000000000E+00 -0.22226280433E+02  0.22226280433E+02  0.00000000000E+00 0.  1.
        -13    1    1    2    0    0 -0.75082090372E+02 -0.66664868362E+02  0.44146774626E+03  0.45274198736E+03  0.10566000000E+00 0.  1.
         13    1    1    2    0    0  0.49526321708E+02  0.14013678145E+03  0.38232423149E+03  0.41019873623E+03  0.10566000000E+00 0. -1.
          4    1    1    2  501    0  0.25555768664E+02 -0.73471913093E+02  0.56780721491E+03  0.57311102993E+03  0.00000000000E+00 0.  1.
</event>
<event>
 5    1  0.1008363E-004  0.7469976E+02  0.7818608E-02  0.1259505E+00
          4   -1    0    0  502    0 -0.00000000000E+00  0.00000000000E+00  0.94192464182E+02  0.94192464182E+02  0.00000000000E+00 0.  1.
         21   -1    0    0  501  502  0.00000000000E+00 -0.00000000000E+00 -0.19244339684E+03  0.19244339684E+03  0.00000000000E+00 0.  1.
        -13    1    1    2    0    0  0.36960013868E+02 -0.92014445582E+02  0.48766005056E+01  0.99279873173E+02  0.10566000000E+00 0.  1.
         13    1    1    2    0    0 -0.90138232057E+01  0.27283976193E+02  0.26952639350E+02  0.39396957975E+02  0.10566000000E+00 0. -1.
          4    1    1    2  501    0 -0.27946190662E+02  0.64730469389E+02 -0.13008017251E+03  0.14795902987E+03  0.00000000000E+00 0.  1.
</event>
<event>
 5    1  0.1008363E-004  0.3818602E+03  0.7818608E-02  0.9970340E-01
         21   -1    0    0  501  502  0.00000000000E+00  0.00000000000E+00  0.14425540729E+03  0.14425540729E+03  0.00000000000E+00 0.  1.
          4   -1    0    0  502    0 -0.00000000000E+00 -0.00000000000E+00 -0.26801755941E+04  0.26801755941E+04  0.00000000000E+00 0.  1.
        -13    1    1    2    0    0  0.47295035998E+03 -0.14709589263E+03 -0.16699627376E+04  0.17418653223E+04  0.10566000000E+00 0.  1.
         13    1    1    2    0    0 -0.18781928340E+03 -0.78054080970E+02 -0.59654574293E+03  0.63026610043E+03  0.10566000000E+00 0. -1.
          4    1    1    2  501    0 -0.28513107658E+03  0.22514997360E+03 -0.26941170625E+03  0.45229957871E+03  0.00000000000E+00 0.  1.
</event>
<event>
 5    1  0.1008363E-004  0.4865967E+03  0.7818608E-02  0.9629767E-01
          4   -1    0    0  502    0 -0.00000000000E+00  0.00000000000E+00  0.72379349877E+03  0.72379349877E+03  0.00000000000E+00 0.  1.
         21   -1    0    0  501  502  0.00000000000E+00 -0.00000000000E+00 -0.65774997748E+03  0.65774997748E+03  0.00000000000E+00 0. -1.
        -13    1    1    2    0    0  0.55946277615E+03 -0.69742470809E+02  0.57310246894E+02  0.56669840806E+03  0.10566000000E+00 0.  1.
         13    1    1    2    0    0 -0.13665302348E+03  0.28320388811E+03  0.10500983157E+03  0.33152008530E+03  0.10566000000E+00 0. -1.
          4    1    1    2  501    0 -0.42280975267E+03 -0.21346141730E+03 -0.96276557171E+02  0.48332498290E+03  0.00000000000E+00 0.  1.
</event>
<event>
 5    1  0.1008363E-004  0.3449057E+03  0.7818608E-02  0.1036495E+00
         21   -1    0    0  501  502  0.00000000000E+00  0.00000000000E+00  0.11926519423E+03  0.11926519423E+03  0.00000000000E+00 0.  1.
          4   -1    0    0  502    0 -0.00000000000E+00 -0.00000000000E+00 -0.26981572250E+04  0.26981572250E+04  0.00000000000E+00 0.  1.
        -13    1    1    2    0    0 -0.33639002975E+03  0.18948479984E+02 -0.20253871642E+03  0.39311479216E+03  0.10566000000E+00 0.  1.
         13    1    1    2    0    0 -0.56518999271E+02  0.55115967801E+02 -0.45431815043E+03  0.46112596995E+03  0.10566000000E+00 0. -1.
          4    1    1    2  501    0  0.39290902902E+03 -0.74064447785E+02 -0.19220351640E+04  0.19631816572E+04  0.00000000000E+00 0.  1.
</event>
<event>
 5    1  0.1008363E-004  0.4759601E+03  0.7818608E-02  0.9565015E-01
          4   -1    0    0  502    0 -0.00000000000E+00  0.00000000000E+00  0.14789077495E+04  0.14789077495E+04  0.00000000000E+00 0.  1.
         21   -1    0    0  501  502  0.00000000000E+00 -0.00000000000E+00 -0.51228368350E+03  0.51228368350E+03  0.00000000000E+00 0. -1.
        -13    1    1    2    0    0 -0.26497348853E+03  0.18194351965E+03  0.37910236450E+03  0.49702415223E+03  0.10566000000E+00 0.  1.
         13    1    1    2    0    0  0.14951859333E+03  0.39579741654E+03  0.76898093739E+03  0.87769191515E+03  0.10566000000E+00 0. -1.
          4    1    1    2  501    0  0.11545489520E+03 -0.57774093620E+03 -0.18145923585E+03  0.61647536566E+03  0.00000000000E+00 0.  1.
</event>
<event>
 5    1  0.1008363E-004  0.4272818E+03  0.7818608E-02  0.9960101E-01
         21   -1    0    0  501  502  0.00000000000E+00  0.00000000000E+00  0.19698653642E+03  0.19698653642E+03  0.00000000000E+00 0.  1.
          4   -1    0    0  502    0 -0.00000000000E+00 -0.00000000000E+00 -0.17343338910E+04  0.17343338910E+04  0.00000000000E+00 0.  1.
        -13    1    1    2    0    0  0.29050553497E+03 -0.42456028669E+03 -0.56201564192E+03  0.76190976881E+03  0.10566000000E+00 0.  1.
         13    1    1    2    0    0 -0.38537530788E+02  0.14514129957E+03 -0.66484652434E+03  0.68159522461E+03  0.10566000000E+00 0. -1.
          4    1    1    2  501    0 -0.25196800418E+03  0.27941898712E+03 -0.31048518837E+03  0.48781543404E+03  0.00000000000E+00 0.  1.
</event>
<event>
 5    1  0.1008363E-004  0.1057001E+03  0.7818608E-02  0.1155454E+00
         21   -1    0    0  501  502  0.00000000000E+00  0.00000000000E+00  0.35043343440E+03  0.35043343440E+03  0.00000000000E+00 0. -1.
          4   -1    0    0  502    0 -0.00000000000E+00 -0.00000000000E+00 -0.76493559332E+02  0.76493559332E+02  0.00000000000E+00 0.  1.
        -13    1    1    2    0    0  0.16815001482E+02  0.12490233936E+03  0.26049584388E+02  0.12869316478E+03  0.10566000000E+00 0.  1.
         13    1    1    2    0    0 -0.61732495237E+02 -0.59026472440E+02  0.11479424454E+03  0.14308303589E+03  0.10566000000E+00 0. -1.
          4    1    1    2  501    0  0.44917493755E+02 -0.65875866916E+02  0.13309604614E+03  0.15515079305E+03  0.00000000000E+00 0.  1.
</event>
<event>
 5    1  0.1008363E-004  0.1813692E+03  0.7818608E-02  0.1073718E+00
         21   -1    0    0  501  502  0.00000000000E+00  0.00000000000E+00  0.12551552579E+04  0.12551552579E+04  0.00000000000E+00 0.  1.
          4   -1    0    0  502    0 -0.00000000000E+00 -0.00000000000E+00 -0.37095672708E+03  0.37095672708E+03  0.00000000000E+00 0.  1.
        -13    1    1    2    0    0 -0.12842627883E+03  0.99494922063E+02 -0.20647476293E+03  0.26272492744E+03  0.10566000000E+00 0.  1.
         13    1    1    2    0    0  0.22210844999E+03 -0.17275533422E+03  0.15663471084E+02  0.28181895704E+03  0.10566000000E+00 0. -1.
          4    1    1    2  501    0 -0.93682171158E+02  0.73260412154E+02  0.10750098226E+04  0.10815681004E+04  0.00000000000E+00 0.  1.
</event>
<event>
 5    1  0.1008363E-004  0.4238117E+03  0.7818608E-02  0.9880400E-01
          4   -1    0    0  502    0 -0.00000000000E+00  0.00000000000E+00  0.18735384619E+04  0.18735384619E+04  0.00000000000E+00 0.  1.
         21   -1    0    0  501  502  0.00000000000E+00 -0.00000000000E+00 -0.17608590303E+03  0.17608590303E+03  0.00000000000E+00 0.  1.
        -13    1    1    2    0    0  0.26555110952E+03 -0.22004589589E+03  0.96625872364E+03  0.10259598044E+04  0.10566000000E+00 0.  1.
         13    1    1    2    0    0  0.18239430620E+03  0.83720609749E+02  0.40810892359E+03  0.45478536488E+03  0.10566000000E+00 0. -1.
          4    1    1    2  501    0 -0.44794541572E+03  0.13632528614E+03  0.32308491162E+03  0.56887919563E+03  0.00000000000E+00 0.  1.
</event>
<event>
 5    1  0.1008363E-004  0.4739482E+03  0.7818608E-02  0.1004336E+00
          4   -1    0    0  502    0 -0.00000000000E+00  0.00000000000E+00  0.14260896429E+04  0.14260896429E+04  0.00000000000E+00 0.  1.
         21   -1    0    0  501  502  0.00000000000E+00 -0.00000000000E+00 -0.21111224291E+03  0.21111224291E+03  0.00000000000E+00 0.  1.
        -13    1    1    2    0    0 -0.51381305280E+03  0.44170143954E+02  0.43347042732E+03  0.67368499863E+03  0.10566000000E+00 0.  1.
         13    1    1    2    0    0  0.83690087630E+02  0.35907296033E+01  0.32025724407E+03  0.33103117323E+03  0.10566000000E+00 0. -1.
          4    1    1    2  501    0  0.43012296517E+03 -0.47760873557E+02  0.46124972858E+03  0.63248571393E+03  0.00000000000E+00 0.  1.
</event>
<event>
 5    1  0.1008363E-004  0.1250494E+03  0.7818608E-02  0.1138281E+00
         21   -1    0    0  501  502  0.00000000000E+00  0.00000000000E+00  0.11509685903E+04  0.11509685903E+04  0.00000000000E+00 0. -1.
         -4   -1    0    0    0  501 -0.00000000000E+00 -0.00000000000E+00 -0.41312009004E+03  0.41312009004E+03  0.00000000000E+00 0. -1.
        -13    1    1    2    0    0  0.20415056396E+03  0.35696465811E+02 -0.65545970529E+02  0.21736599517E+03  0.10566000000E+00 0.  1.
         13    1    1    2    0    0 -0.79139671198E+02 -0.38798988988E+02 -0.26075641851E+03  0.27524965043E+03  0.10566000000E+00 0. -1.
         -4    1    1    2    0  502 -0.12501089277E+03  0.31025231777E+01  0.10641508893E+04  0.10714730347E+04  0.00000000000E+00 0. -1.
</event>
<event>
 5    1  0.1008363E-004  0.2716258E+03  0.7818608E-02  0.1019758E+00
         21   -1    0    0  501  502  0.00000000000E+00  0.00000000000E+00  0.76382111386E+02  0.76382111386E+02  0.00000000000E+00 0. -1.
          4   -1    0    0  502    0 -0.00000000000E+00 -0.00000000000E+00 -0.14573628712E+04  0.14573628712E+04  0.00000000000E+00 0.  1.
        -13    1    1    2    0    0  0.14459150306E+03  0.23327117403E+03 -0.99933514122E+03  0.10363362770E+04  0.10566000000E+00 0.  1.
         13    1    1    2    0    0 -0.13414780755E+03 -0.22916265641E+03 -0.39746918098E+03  0.47800932873E+03  0.10566000000E+00 0. -1.
          4    1    1    2  501    0 -0.10443695510E+02 -0.41085176249E+01  0.15823562422E+02  0.19399376813E+02  0.00000000000E+00 0.  1.
</event>
<event>
 5    1  0.1008363E-004  0.1149370E+03  0.7818608E-02  0.1141962E+00
         21   -1    0    0  501  502  0.00000000000E+00  0.00000000000E+00  0.45336339366E+02  0.45336339366E+02  0.00000000000E+00 0. -1.
         -4   -1    0    0    0  501 -0.00000000000E+00 -0.00000000000E+00 -0.77344304717E+03  0.77344304717E+03  0.00000000000E+00 0. -1.
        -13    1    1    2    0    0  0.10082962694E+03 -0.44726526395E+02 -0.39299243679E+03  0.40817905676E+03  0.10566000000E+00 0.  1.
         13    1    1    2    0    0 -0.98537602906E+02  0.73503868510E+02 -0.35490931610E+03  0.37559700703E+03  0.10566000000E+00 0. -1.
         -4    1    1    2    0  502 -0.22920240372E+01 -0.28777342115E+02  0.19795045089E+02  0.35003322749E+02  0.00000000000E+00 0. -1.
</event>
<event>
 5    1  0.1008363E-004  0.4291171E+03  0.7818608E-02  0.9914881E-01
          4   -1    0    0  502    0 -0.00000000000E+00  0.00000000000E+00  0.10576339180E+04  0.10576339180E+04  0.00000000000E+00 0.  1.
         21   -1    0    0  501  502  0.00000000000E+00 -0.00000000000E+00 -0.39043719164E+03  0.39043719164E+03  0.00000000000E+00 0.  1.
        -13    1    1    2    0    0 -0.61817754331E+02  0.50520226506E+03  0.27980315025E+03  0.58081027662E+03  0.10566000000E+00 0.  1.
         13    1    1    2    0    0  0.13281258503E+03 -0.10970940484E+03  0.42997195036E+03  0.46319674600E+03  0.10566000000E+00 0. -1.
          4    1    1    2  501    0 -0.70994830695E+02 -0.39549286023E+03 -0.42578374232E+02  0.40406408703E+03  0.00000000000E+00 0.  1.
</event>
<event>
 5    1  0.1008363E-004  0.3364045E+03  0.7818608E-02  0.1001572E+00
          4   -1    0    0  502    0 -0.00000000000E+00  0.00000000000E+00  0.57594052264E+03  0.57594052264E+03  0.00000000000E+00 0.  1.
         21   -1    0    0  501  502  0.00000000000E+00 -0.00000000000E+00 -0.11545379590E+04  0.11545379590E+04  0.00000000000E+00 0.  1.
        -13    1    1    2    0    0 -0.13140692366E+02  0.34155992009E+03  0.82681302497E+02  0.35167039362E+03  0.10566000000E+00 0.  1.
         13    1    1    2    0    0 -0.23628511157E+03 -0.99337246231E+02  0.27747040391E+03  0.37774115297E+03  0.10566000000E+00 0. -1.
          4    1    1    2  501    0  0.24942580394E+03 -0.24222267386E+03 -0.93874914272E+03  0.10010669350E+04  0.00000000000E+00 0.  1.
</event>
<event>
 5    1  0.1008363E-004  0.6905114E+03  0.7818608E-02  0.9136857E-01
         21   -1    0    0  501  502  0.00000000000E+00  0.00000000000E+00  0.39250917390E+03  0.39250917390E+03  0.00000000000E+00 0.  1.
         -4   -1    0    0    0  501 -0.00000000000E+00 -0.00000000000E+00 -0.29460257616E+04  0.29460257616E+04  0.00000000000E+00 0. -1.
        -13    1    1    2    0    0 -0.68636543032E+03 -0.42686617246E+03 -0.13734220380E+04  0.15936123552E+04  0.10566000000E+00 0.  1.
         13    1    1    2    0    0  0.13471777767E+03  0.59492132025E+03 -0.26901049493E+03  0.66666851917E+03  0.10566000000E+00 0. -1.
         -4    1    1    2    0  502  0.55164765265E+03 -0.16805514779E+03 -0.91108405477E+03  0.10782540611E+04  0.00000000000E+00 0. -1.
</event>
<event>
 5    1  0.1008363E-004  0.9065979E+02  0.7818608E-02  0.1181008E+00
         -4   -1    0    0    0  501 -0.00000000000E+00  0.00000000000E+00  0.33703743117E+03  0.33703743117E+03  0.00000000000E+00 0. -1.
         21   -1    0    0  501  502  0.00000000000E+00 -0.00000000000E+00 -0.59811314276E+02  0.59811314276E+02  0.00000000000E+00 0.  1.
        -13    1    1    2    0    0 -0.76645422026E+02 -0.44457800962E+01  0.78062794075E+01  0.77170168073E+02  0.10566000000E+00 0.  1.
         13    1    1    2    0    0  0.89047678041E+02  0.31345726543E+02  0.27390728246E+03  0.28971926771E+03  0.10566000000E+00 0. -1.
         -4    1    1    2    0  502 -0.12402256015E+02 -0.26899946447E+02 -0.44874449689E+01  0.29959309662E+02  0.00000000000E+00 0. -1.
</event>
<event>
 5    1  0.1008363E-004  0.4761802E+03  0.7818608E-02  0.9711130E-01
         21   -1    0    0  501  502  0.00000000000E+00  0.00000000000E+00  0.31449040790E+03  0.31449040790E+03  0.00000000000E+00 0.  1.
          4   -1    0    0  502    0 -0.00000000000E+00 -0.00000000000E+00 -0.14545244852E+04  0.14545244852E+04  0.00000000000E+00 0.  1.
        -13    1    1    2    0    0 -0.45058806056E+02  0.50890662703E+03 -0.15109065749E+03  0.53277072834E+03  0.10566000000E+00 0.  1.
         13    1    1    2    0    0 -0.21555594660E+03 -0.13111272408E+03 -0.53100494417E+03  0.58789554721E+03  0.10566000000E+00 0. -1.
          4    1    1    2  501    0  0.26061475266E+03 -0.37779390294E+03 -0.45793847567E+03  0.64834861757E+03  0.00000000000E+00 0.  1.
</event>
<event>
 5    1  0.1008363E-004  0.4666320E+03  0.7818608E-02  0.9692936E-01
          4   -1    0    0  502    0 -0.00000000000E+00  0.00000000000E+00  0.19486657867E+04  0.19486657867E+04  0.00000000000E+00 0.  1.
         21   -1    0    0  501  502  0.00000000000E+00 -0.00000000000E+00 -0.21261426148E+03  0.21261426148E+03  0.00000000000E+00 0.  1.
        -13    1    1    2    0    0  0.48317342525E+03 -0.18628530236E+03  0.50793689171E+03  0.72536795481E+03  0.10566000000E+00 0.  1.
         13    1    1    2    0    0 -0.23104944609E+03 -0.16793991179E+03  0.31910202179E+03  0.42826834110E+03  0.10566000000E+00 0. -1.
          4    1    1    2  501    0 -0.25212397916E+03  0.35422521415E+03  0.90901261172E+03  0.10076437523E+04  0.00000000000E+00 0.  1.
</event>
<event>
 5    1  0.1008363E-004  0.4905521E+03  0.7818608E-02  0.9971584E-01
         -4   -1    0    0    0  501 -0.00000000000E+00  0.00000000000E+00  0.99780434177E+03  0.99780434177E+03  0.00000000000E+00 0. -1.
         21   -1    0    0  501  502  0.00000000000E+00 -0.00000000000E+00 -0.31754803736E+03  0.31754803736E+03  0.00000000000E+00 0. -1.
        -13    1    1    2    0    0 -0.76997144452E+02 -0.56572628649E+02  0.13690432714E+03  0.16694858047E+03  0.10566000000E+00 0.  1.
         13    1    1    2    0    0  0.22806047005E+03  0.47058620164E+03  0.11837418873E+03  0.53616733478E+03  0.10566000000E+00 0. -1.
         -4    1    1    2    0  502 -0.15106332559E+03 -0.41401357299E+03  0.42497778853E+03  0.61223646388E+03  0.00000000000E+00 0. -1.
</event>
<event>
 5    1  0.1008363E-004  0.4063223E+03  0.7818608E-02  0.9763182E-01
         21   -1    0    0  501  502  0.00000000000E+00  0.00000000000E+00  0.78228692071E+03  0.78228692071E+03  0.00000000000E+00 0.  1.
          4   -1    0    0  502    0 -0.00000000000E+00 -0.00000000000E+00 -0.87633650702E+03  0.87633650702E+03  0.00000000000E+00 0.  1.
        -13    1    1    2    0    0  0.55757472237E+03  0.12190161342E+03 -0.36827168923E+02  0.57193166193E+03  0.10566000000E+00 0.  1.
         13    1    1    2    0    0 -0.20458158456E+03 -0.27057192281E+03 -0.43304491117E+03  0.55008244510E+03  0.10566000000E+00 0. -1.
          4    1    1    2  501    0 -0.35299313781E+03  0.14867030938E+03  0.37582249379E+03  0.53660932070E+03  0.00000000000E+00 0.  1.
</event>
<event>
 5    1  0.1008363E-004  0.4963933E+03  0.7818608E-02  0.9488259E-01
          4   -1    0    0  502    0 -0.00000000000E+00  0.00000000000E+00  0.14089233962E+04  0.14089233962E+04  0.00000000000E+00 0.  1.
         21   -1    0    0  501  502  0.00000000000E+00 -0.00000000000E+00 -0.68569302291E+03  0.68569302291E+03  0.00000000000E+00 0.  1.
        -13    1    1    2    0    0  0.38308522629E+03  0.27637242986E+02  0.19436423496E+03  0.43045972494E+03  0.10566000000E+00 0.  1.
         13    1    1    2    0    0  0.47969956652E+02 -0.49620612134E+03  0.82347349145E+03  0.96261634823E+03  0.10566000000E+00 0. -1.
          4    1    1    2  501    0 -0.43105518295E+03  0.46856887836E+03 -0.29460735310E+03  0.70154034596E+03  0.00000000000E+00 0.  1.
</event>
<event>
 5    1  0.1008363E-004  0.6520679E+03  0.7818608E-02  0.9195570E-01
          4   -1    0    0  502    0 -0.00000000000E+00  0.00000000000E+00  0.10941883056E+04  0.10941883056E+04  0.00000000000E+00 0.  1.
         21   -1    0    0  501  502  0.00000000000E+00 -0.00000000000E+00 -0.79942204454E+03  0.79942204454E+03  0.00000000000E+00 0.  1.
        -13    1    1    2    0    0 -0.56941198075E+03 -0.36286137503E+03  0.53035753509E+03  0.85859041895E+03  0.10566000000E+00 0.  1.
         13    1    1    2    0    0  0.31940600172E+03  0.57451279849E+03 -0.51688093255E+02  0.65936091764E+03  0.10566000000E+00 0. -1.
          4    1    1    2  501    0  0.25000597904E+03 -0.21165142346E+03 -0.18390318073E+03  0.37565901359E+03  0.00000000000E+00 0.  1.
</event>
<event>
 5    1  0.1008363E-004  0.1752697E+02  0.7818608E-02  0.1583274E+00
         21   -1    0    0  501  502  0.00000000000E+00  0.00000000000E+00  0.63851699291E+01  0.63851699291E+01  0.00000000000E+00 0.  1.
          4   -1    0    0  502    0 -0.00000000000E+00 -0.00000000000E+00 -0.11657460396E+03  0.11657460396E+03  0.00000000000E+00 0.  1.
        -13    1    1    2    0    0  0.16675273536E+02  0.90250107779E+01 -0.21086257945E+02  0.28357662195E+02  0.10566000000E+00 0.  1.
         13    1    1    2    0    0 -0.98222760146E+01  0.46254451247E+01 -0.12797319827E+02  0.16782562603E+02  0.10566000000E+00 0. -1.
          4    1    1    2  501    0 -0.68529975211E+01 -0.13650455903E+02 -0.76305856256E+02  0.77819549088E+02  0.00000000000E+00 0.  1.
</event>
<event>
 5    1  0.1008363E-004  0.4090643E+03  0.7818608E-02  0.9967050E-01
         21   -1    0    0  501  502  0.00000000000E+00  0.00000000000E+00  0.90770634528E+03  0.90770634528E+03  0.00000000000E+00 0.  1.
          4   -1    0    0  502    0 -0.00000000000E+00 -0.00000000000E+00 -0.45471425815E+03  0.45471425815E+03  0.00000000000E+00 0.  1.
        -13    1    1    2    0    0  0.50414584443E+03 -0.58709604296E+02  0.49425220872E+02  0.50995363879E+03  0.10566000000E+00 0.  1.
         13    1    1    2    0    0 -0.14556609226E+03 -0.82375707998E+02 -0.11749373577E+03  0.20440164772E+03  0.10566000000E+00 0. -1.
          4    1    1    2  501    0 -0.35857975217E+03  0.14108531229E+03  0.52106060202E+03  0.64806531691E+03  0.00000000000E+00 0.  1.
</event>
<event>
 5    1  0.1008363E-004  0.2354620E+03  0.7818608E-02  0.1084527E+00
         -4   -1    0    0    0  501 -0.00000000000E+00  0.00000000000E+00  0.83105519433E+03  0.83105519433E+03  0.00000000000E+00 0. -1.
         21   -1    0    0  501  502  0.00000000000E+00 -0.00000000000E+00 -0.11180561407E+04  0.11180561407E+04  0.00000000000E+00 0. -1.
        -13    1    1    2    0    0  0.41824148226E+03  0.31963866420E+03  0.34148011961E+03  0.62745796385E+03  0.10566000000E+00 0.  1.
         13    1    1    2    0    0 -0.10689271514E+02 -0.10190963927E+03  0.28232444266E+03  0.30034469729E+03  0.10566000000E+00 0. -1.
         -4    1    1    2    0  502 -0.40755221075E+03 -0.21772902493E+03 -0.91080550861E+03  0.10213086739E+04  0.00000000000E+00 0. -1.
</event>
<event>
 5    1  0.1008363E-004  0.7222063E+02  0.7818608E-02  0.1221019E+00
         21   -1    0    0  501  502  0.00000000000E+00  0.00000000000E+00  0.13969823789E+03  0.13969823789E+03  0.00000000000E+00 0.  1.
         -4   -1    0    0    0  501 -0.00000000000E+00 -0.00000000000E+00 -0.86864443443E+02  0.86864443443E+02  0.00000000000E+00 0. -1.
        -13    1    1    2    0    0  0.58359455545E+02 -0.33435182387E+02  0.10530979242E+03  0.12495559617E+03  0.10566000000E+00 0.  1.
         13    1    1    2    0    0 -0.67241366764E+02  0.28607541324E+02 -0.54671699160E+02  0.91262252208E+02  0.10566000000E+00 0. -1.
         -4    1    1    2    0  502  0.88819112195E+01  0.48276410629E+01  0.21957011962E+01  0.10344832956E+02  0.00000000000E+00 0. -1.
</event>
<event>
 5    1  0.1008363E-004  0.4821928E+03  0.7818608E-02  0.9549259E-01
         -4   -1    0    0    0  501 -0.00000000000E+00  0.00000000000E+00  0.20802130600E+04  0.20802130600E+04  0.00000000000E+00 0. -1.
         21   -1    0    0  501  502  0.00000000000E+00 -0.00000000000E+00 -0.27693995401E+03  0.27693995401E+03  0.00000000000E+00 0. -1.
        -13    1    1    2    0    0  0.41480963641E+03 -0.11546656410E+03  0.46129414494E+03  0.63102445373E+03  0.10566000000E+00 0.  1.
         13    1    1    2    0    0 -0.63167050523E+02 -0.36802429063E+03  0.92417843240E+03  0.99676363339E+03  0.10566000000E+00 0. -1.
         -4    1    1    2    0  502 -0.35164258589E+03  0.48349085473E+03  0.41780052864E+03  0.72936492688E+03  0.00000000000E+00 0. -1.
</event>
<event>
 5    1  0.1008363E-004  0.3407603E+03  0.7818608E-02  0.9962948E-01
         21   -1    0    0  501  502  0.00000000000E+00  0.00000000000E+00  0.58825130271E+03  0.58825130271E+03  0.00000000000E+00 0. -1.
          4   -1    0    0  502    0 -0.00000000000E+00 -0.00000000000E+00 -0.13048642207E+04  0.13048642207E+04  0.00000000000E+00 0.  1.
        -13    1    1    2    0    0  0.28145061710E+03 -0.48622449693E+01 -0.92467093611E+03  0.96656838482E+03  0.10566000000E+00 0.  1.
         13    1    1    2    0    0 -0.43667871442E+03 -0.29848875744E+03  0.32133761268E+01  0.52895574002E+03  0.10566000000E+00 0. -1.
          4    1    1    2  501    0  0.15522809733E+03  0.30335100241E+03  0.20484464199E+03  0.39759139857E+03  0.00000000000E+00 0.  1.
</event>
<event>
 5    1  0.1008363E-004  0.3017866E+03  0.7818608E-02  0.1006571E+00
          4   -1    0    0  502    0 -0.00000000000E+00  0.00000000000E+00  0.20393737020E+04  0.20393737020E+04  0.00000000000E+00 0.  1.
         21   -1    0    0  501  502  0.00000000000E+00 -0.00000000000E+00 -0.29179064242E+03  0.29179064242E+03  0.00000000000E+00 0.  1.
        -13    1    1    2    0    0 -0.16107492135E+03 -0.29191320852E+03  0.93868814470E+03  0.99613949614E+03  0.10566000000E+00 0.  1.
         13    1    1    2    0    0  0.44049209131E+02  0.28461595277E+03  0.10382396513E+04  0.10774451996E+04  0.10566000000E+00 0. -1.
          4    1    1    2  501    0  0.11702571222E+03  0.72972557468E+01 -0.22934473647E+03  0.25757964867E+03  0.00000000000E+00 0.  1.
</event>
<event>
 5    1  0.1008363E-004  0.4878433E+03  0.7818608E-02  0.9634019E-01
         21   -1    0    0  501  502  0.00000000000E+00  0.00000000000E+00  0.59302257807E+03  0.59302257807E+03  0.00000000000E+00 0. -1.
          4   -1    0    0  502    0 -0.00000000000E+00 -0.00000000000E+00 -0.74938618035E+03  0.74938618035E+03  0.00000000000E+00 0.  1.
        -13    1    1    2    0    0 -0.62147971602E+03 -0.12293647239E+03  0.22672214949E+02  0.63392779886E+03  0.10566000000E+00 0.  1.
         13    1    1    2    0    0  0.25026240656E+03  0.17849018437E+03 -0.49177132322E+02  0.31130117180E+03  0.10566000000E+00 0. -1.
          4    1    1    2  501    0  0.37121730946E+03 -0.55553711981E+02 -0.12985868491E+03  0.39717978776E+03  0.00000000000E+00 0.  1.
</event>
<event>
 5    1  0.1008363E-004  0.2190784E+03  0.7818608E-02  0.1069351E+00
         -4   -1    0    0    0  501 -0.00000000000E+00  0.00000000000E+00  0.16866299801E+04  0.16866299801E+04  0.00000000000E+00 0. -1.
         21   -1    0    0  501  502  0.00000000000E+00 -0.00000000000E+00 -0.91118728617E+02  0.91118728617E+02  0.00000000000E+00 0.  1.
        -13    1    1    2    0    0  0.63387145535E+02 -0.97831109296E+02  0.12597013495E+03  0.17163141387E+03  0.10566000000E+00 0.  1.
         13    1    1    2    0    0 -0.24465932085E+03  0.19361420659E+03  0.13091386921E+04  0.13458041353E+04  0.10566000000E+00 0. -1.
         -4    1    1    2    0  502  0.18127217532E+03 -0.95783097294E+02  0.16040242446E+03  0.26031315957E+03  0.00000000000E+00 0. -1.
</event>
<event>
 5    1  0.1008363E-004  0.1906191E+03  0.7818608E-02  0.1066764E+00
         -4   -1    0    0    0  501 -0.00000000000E+00  0.00000000000E+00  0.71034931787E+03  0.71034931787E+03  0.00000000000E+00 0. -1.
         21   -1    0    0  501  502  0.00000000000E+00 -0.00000000000E+00 -0.67863326531E+02  0.67863326531E+02  0.00000000000E+00 0.  1.
        -13    1    1    2    0    0  0.32097078447E+02  0.18233066709E+03  0.36049622230E+03  0.40525576129E+03  0.10566000000E+00 0.  1.
         13    1    1    2    0    0  0.21838407452E+01 -0.20110207308E+03  0.25789687683E+03  0.32704376343E+03  0.10566000000E+00 0. -1.
         -4    1    1    2    0  502 -0.34280919192E+02  0.18771405989E+02  0.24092892212E+02  0.45913119678E+02  0.00000000000E+00 0. -1.
</event>
<event>
 5    1  0.1008363E-004  0.2108092E+03  0.7818608E-02  0.1052968E+00
         21   -1    0    0  501  502  0.00000000000E+00  0.00000000000E+00  0.21588485176E+03  0.21588485176E+03  0.00000000000E+00 0.  1.
         -4   -1    0    0    0  501 -0.00000000000E+00 -0.00000000000E+00 -0.51656552216E+03  0.51656552216E+03  0.00000000000E+00 0. -1.
        -13    1    1    2    0    0 -0.17346567852E+03  0.63103235294E+02  0.13358015756E+03  0.22785089332E+03  0.10566000000E+00 0.  1.
         13    1    1    2    0    0  0.21006819569E+03 -0.46248376551E+02 -0.38441371648E+03  0.44050139132E+03  0.10566000000E+00 0. -1.
         -4    1    1    2    0  502 -0.36602517163E+02 -0.16854858743E+02 -0.49847111482E+02  0.64098089277E+02  0.00000000000E+00 0. -1.
</event>
<event>
 5    1  0.1008363E-004  0.5865109E+02  0.7818608E-02  0.1290009E+00
         -4   -1    0    0    0  501 -0.00000000000E+00  0.00000000000E+00  0.69553813403E+03  0.69553813403E+03  0.00000000000E+00 0. -1.
         21   -1    0    0  501  502  0.00000000000E+00 -0.00000000000E+00 -0.14593471140E+02  0.14593471140E+02  0.00000000000E+00 0. -1.
        -13    1    1    2    0    0 -0.28259286317E+02  0.15187255094E+02  0.17636168869E+03  0.17925595215E+03  0.10566000000E+00 0.  1.
         13    1    1    2    0    0  0.28348874810E+02 -0.55897649949E+02  0.68306217920E+02  0.92703595094E+02  0.10566000000E+00 0. -1.
         -4    1    1    2    0  502 -0.89588493105E-01  0.40710394855E+02  0.43627675628E+03  0.43817205792E+03  0.00000000000E+00 0. -1.
</event>
<event>
 5    1  0.1008363E-004  0.3724042E+03  0.7818608E-02  0.9872375E-01
         21   -1    0    0  501  502  0.00000000000E+00  0.00000000000E+00  0.35187869975E+03  0.35187869975E+03  0.00000000000E+00 0. -1.
         -4   -1    0    0    0  501 -0.00000000000E+00 -0.00000000000E+00 -0.16638681115E+04  0.16638681115E+04  0.00000000000E+00 0. -1.
        -13    1    1    2    0    0  0.29687233310E+03  0.64936722266E+02 -0.77553976396E+03  0.83295371823E+03  0.10566000000E+00 0.  1.
         13    1    1    2    0    0 -0.32435256139E+03 -0.41900480237E+03 -0.62240196058E+03  0.81740676544E+03  0.10566000000E+00 0. -1.
         -4    1    1    2    0  502  0.27480228291E+02  0.35406808011E+03  0.85952312813E+02  0.36538632757E+03  0.00000000000E+00 0. -1.
</event>
<event>
 5    1  0.1008363E-004  0.4448981E+03  0.7818608E-02  0.9607683E-01
         21   -1    0    0  501  502  0.00000000000E+00  0.00000000000E+00  0.17337345882E+03  0.17337345882E+03  0.00000000000E+00 0.  1.
         -4   -1    0    0    0  501 -0.00000000000E+00 -0.00000000000E+00 -0.21651528324E+04  0.21651528324E+04  0.00000000000E+00 0. -1.
        -13    1    1    2    0    0 -0.40265697799E+03  0.16819006016E+03 -0.12385990261E+04  0.13132205058E+04  0.10566000000E+00 0.  1.
         13    1    1    2    0    0  0.49396570327E+03  0.77952318251E+01 -0.58167082423E+03  0.76315387739E+03  0.10566000000E+00 0. -1.
         -4    1    1    2    0  502 -0.91308725285E+02 -0.17598529199E+03 -0.17150952324E+03  0.26215190800E+03  0.00000000000E+00 0. -1.
</event>
