<event>
 6    1  0.1431486E-005  0.1048100E+04  0.7818608E-02  0.9546271E-01
         21   -1    0    0  501  502  0.00000000000E+00  0.00000000000E+00  0.16077014419E+04  0.16077014419E+04  0.00000000000E+00 0.  1.
          4   -1    0    0  502    0 -0.00000000000E+00 -0.00000000000E+00 -0.99092387091E+03  0.99092387091E+03  0.00000000000E+00 0.  1.
    9000010    2    1    2  501    0  0.17424174126E+03 -0.32989404849E+03  0.13895502844E+04  0.17405064717E+04  0.97945010986E+03 0.  0.
        -13    1    3    3    0    0 -0.33494477190E+03 -0.32047638618E+03  0.99016274213E+03  0.10933047980E+04  0.10566000000E+00 0.  1.
          4    1    3    3  501    0  0.50918651315E+03 -0.94176623085E+01  0.39938754224E+03  0.64720167370E+03  0.00000000000E+00 0.  1.
         13    1    1    2    0    0 -0.17424174126E+03  0.32989404849E+03 -0.77277271341E+03  0.85811884106E+03  0.10566000000E+00 0. -1.
<mgrwt>
<rscale>  1 0.80956744E+03</rscale>
<asrwt>0</asrwt>
<pdfrwt beam="1">  1       21 0.24733868E+00 0.10480996E+04</pdfrwt>
<pdfrwt beam="2">  1        4 0.15244983E+00 0.10480996E+04</pdfrwt>
<totfact> 0.62070471E-01</totfact>
</mgrwt>
</event>
<event>
 6    1  0.1431486E-005  0.1060953E+04  0.7818608E-02  0.9544475E-01
          4   -1    0    0  502    0 -0.00000000000E+00  0.00000000000E+00  0.13627097208E+04  0.13627097208E+04  0.00000000000E+00 0.  1.
         21   -1    0    0  501  502  0.00000000000E+00 -0.00000000000E+00 -0.53854397748E+03  0.53854397748E+03  0.00000000000E+00 0.  1.
    9000010    2    1    2  501    0  0.76483462360E+02  0.35375762848E+03  0.68234173089E+02  0.10631446781E+04  0.99730964320E+03 0.  0.
        -13    1    3    3    0    0  0.33602782793E+03 -0.18927135840E+03  0.21787594718E+03  0.44295404703E+03  0.10566000000E+00 0.  1.
          4    1    3    3  501    0 -0.25954436557E+03  0.54302898687E+03 -0.14964177410E+03  0.62019063105E+03  0.00000000000E+00 0.  1.
         13    1    1    2    0    0 -0.76483462360E+02 -0.35375762848E+03  0.75593157026E+03  0.83810902023E+03  0.10566000000E+00 0. -1.
<mgrwt>
<rscale>  1 0.81082762E+03</rscale>
<asrwt>0</asrwt>
<pdfrwt beam="2">  1       21 0.82852920E-01 0.10609527E+04</pdfrwt>
<pdfrwt beam="1">  1        4 0.20964765E+00 0.10609527E+04</pdfrwt>
<totfact> 0.54202498E+00</totfact>
</mgrwt>
</event>
<event>
 6    1  0.1431486E-005  0.1217109E+04  0.7818608E-02  0.9254061E-01
         21   -1    0    0  501  502  0.00000000000E+00  0.00000000000E+00  0.59076717604E+03  0.59076717604E+03  0.00000000000E+00 0.  1.
          4   -1    0    0  502    0 -0.00000000000E+00 -0.00000000000E+00 -0.15295705613E+04  0.15295705613E+04  0.00000000000E+00 0.  1.
    9000010    2    1    2  501    0 -0.43981807938E+03 -0.51515806692E+03 -0.68747061428E+03  0.13978448655E+04  0.10112005962E+04 0.  0.
        -13    1    3    3    0    0 -0.54713734689E+03 -0.47927849985E+03 -0.89993211395E+03  0.11571279003E+04  0.10566000000E+00 0.  1.
          4    1    3    3  501    0  0.10731926751E+03 -0.35879567069E+02  0.21246149967E+03  0.24071696524E+03  0.00000000000E+00 0.  1.
         13    1    1    2    0    0  0.43981807938E+03  0.51515806692E+03 -0.25133277100E+03  0.72249287180E+03  0.10566000000E+00 0. -1.
<mgrwt>
<rscale>  1 0.10512436E+04</rscale>
<asrwt>0</asrwt>
<pdfrwt beam="1">  1       21 0.90887258E-01 0.12171090E+04</pdfrwt>
<pdfrwt beam="2">  1        4 0.23531855E+00 0.12171090E+04</pdfrwt>
<totfact> 0.29199867E+00</totfact>
</mgrwt>
</event>
<event>
 6    1  0.1431486E-005  0.1060786E+04  0.7818608E-02  0.9518337E-01
         21   -1    0    0  501  502  0.00000000000E+00  0.00000000000E+00  0.77564777648E+03  0.77564777648E+03  0.00000000000E+00 0.  1.
          4   -1    0    0  502    0 -0.00000000000E+00 -0.00000000000E+00 -0.68629151898E+03  0.68629151898E+03  0.00000000000E+00 0.  1.
    9000010    2    1    2  501    0  0.11354962126E+02 -0.39637460415E+03  0.31939790785E+02  0.10612668310E+04  0.98388280517E+03 0.  0.
        -13    1    3    3    0    0  0.50495592454E+02 -0.72436599629E+03 -0.22602269319E+02  0.72647558471E+03  0.10566000000E+00 0.  1.
          4    1    3    3  501    0 -0.39140630327E+02  0.32799139214E+03  0.54542060103E+02  0.33479124627E+03  0.00000000000E+00 0.  1.
         13    1    1    2    0    0 -0.11354962126E+02  0.39637460415E+03  0.57416466715E+02  0.40067246449E+03  0.10566000000E+00 0. -1.
<mgrwt>
<rscale>  1 0.82945324E+03</rscale>
<asrwt>0</asrwt>
<pdfrwt beam="1">  1       21 0.11933043E+00 0.10607861E+04</pdfrwt>
<pdfrwt beam="2">  1        4 0.10558331E+00 0.10607861E+04</pdfrwt>
<totfact> 0.14154806E+01</totfact>
</mgrwt>
</event>
<event>
 6    1  0.1431486E-005  0.1103452E+04  0.7818608E-02  0.9429736E-01
          4   -1    0    0  502    0 -0.00000000000E+00  0.00000000000E+00  0.25019984244E+04  0.25019984244E+04  0.00000000000E+00 0.  1.
         21   -1    0    0  501  502  0.00000000000E+00 -0.00000000000E+00 -0.25198716316E+03  0.25198716316E+03  0.00000000000E+00 0. -1.
    9000010    2    1    2  501    0  0.45268255600E+03  0.16310300140E+03  0.16480321719E+04  0.19833346155E+04  0.99301665236E+03 0.  0.
        -13    1    3    3    0    0 -0.80440065255E+02  0.12901199160E+02  0.13536242796E+04  0.13560736509E+04  0.10566000000E+00 0.  1.
          4    1    3    3  501    0  0.53312262126E+03  0.15020180224E+03  0.29440789223E+03  0.62726096459E+03  0.00000000000E+00 0.  1.
         13    1    1    2    0    0 -0.45268255600E+03 -0.16310300140E+03  0.60197908937E+03  0.77065097209E+03  0.10566000000E+00 0. -1.
<mgrwt>
<rscale>  1 0.89668446E+03</rscale>
<asrwt>0</asrwt>
<pdfrwt beam="2">  1       21 0.38767258E-01 0.11034519E+04</pdfrwt>
<pdfrwt beam="1">  1        4 0.38492282E+00 0.11034519E+04</pdfrwt>
<totfact> 0.22428958E+00</totfact>
</mgrwt>
</event>
<event>
 6    1  0.1431486E-005  0.9961638E+03  0.7818608E-02  0.1004267E+00
         21   -1    0    0  501  502  0.00000000000E+00  0.00000000000E+00  0.34519172528E+03  0.34519172528E+03  0.00000000000E+00 0.  1.
          4   -1    0    0  502    0 -0.00000000000E+00 -0.00000000000E+00 -0.94075473955E+03  0.94075473955E+03  0.00000000000E+00 0.  1.
    9000010    2    1    2  501    0  0.34327841962E+02 -0.77610223216E+02 -0.40130180313E+03  0.10739578406E+04  0.99254247199E+03 0.  0.
        -13    1    3    3    0    0  0.29466684531E+03 -0.42000710368E+03 -0.44296873572E+02  0.51497256338E+03  0.10566000000E+00 0.  1.
          4    1    3    3  501    0 -0.26033900335E+03  0.34239688046E+03 -0.35700492956E+03  0.55898527722E+03  0.00000000000E+00 0.  1.
         13    1    1    2    0    0 -0.34327841962E+02  0.77610223216E+02 -0.19426121115E+03  0.21198862423E+03  0.10566000000E+00 0. -1.
<mgrwt>
<rscale>  1 0.53818041E+03</rscale>
<asrwt>0</asrwt>
<pdfrwt beam="1">  1       21 0.53106420E-01 0.99616379E+03</pdfrwt>
<pdfrwt beam="2">  1        4 0.14473150E+00 0.99616379E+03</pdfrwt>
<totfact> 0.43344889E+01</totfact>
</mgrwt>
</event>
<event>
 6    1  0.1484420E-005  0.8720603E+03  0.7818608E-02  0.9864256E-01
          4   -1    0    0  502    0 -0.00000000000E+00  0.00000000000E+00  0.46020250290E+03  0.46020250290E+03  0.00000000000E+00 0.  1.
         21   -1    0    0  501  502  0.00000000000E+00 -0.00000000000E+00 -0.65285977807E+03  0.65285977807E+03  0.00000000000E+00 0.  1.
    9000010    2    1    2  501    0 -0.11804926168E+03 -0.18939154060E+03 -0.17275244551E+03  0.88900649051E+03  0.84302096587E+03 0.  0.
        -13    1    3    3    0    0 -0.23178351763E+03  0.22155219431E+03  0.15023937442E+03  0.35409159075E+03  0.10566000000E+00 0.  1.
          4    1    3    3  501    0  0.11373425595E+03 -0.41094373491E+03 -0.32299181994E+03  0.53491489976E+03  0.00000000000E+00 0.  1.
         13    1    1    2    0    0  0.11804926168E+03  0.18939154060E+03 -0.19904829657E+02  0.22405579047E+03  0.10566000000E+00 0. -1.
<mgrwt>
<rscale>  1 0.62025286E+03</rscale>
<asrwt>0</asrwt>
<pdfrwt beam="2">  1       21 0.10043997E+00 0.87206028E+03</pdfrwt>
<pdfrwt beam="1">  1        4 0.70800385E-01 0.87206028E+03</pdfrwt>
<totfact> 0.56715941E+01</totfact>
</mgrwt>
</event>
<event>
 6    1  0.1431486E-005  0.1075742E+04  0.7818608E-02  0.9476283E-01
          4   -1    0    0  502    0 -0.00000000000E+00  0.00000000000E+00  0.48314006982E+03  0.48314006982E+03  0.00000000000E+00 0.  1.
         21   -1    0    0  501  502  0.00000000000E+00 -0.00000000000E+00 -0.14444079876E+04  0.14444079876E+04  0.00000000000E+00 0.  1.
    9000010    2    1    2  501    0  0.36876351167E+03 -0.24101394429E+03 -0.10208211933E+04  0.14830023875E+04  0.98139998152E+03 0.  0.
        -13    1    3    3    0    0  0.81301033274E+02  0.24751538259E+03 -0.85293007020E+03  0.89183150788E+03  0.10566000000E+00 0.  1.
          4    1    3    3  501    0  0.28746247839E+03 -0.48852932687E+03 -0.16789112313E+03  0.59117087963E+03  0.00000000000E+00 0.  1.
         13    1    1    2    0    0 -0.36876351167E+03  0.24101394429E+03  0.59553275521E+02  0.44454566994E+03  0.10566000000E+00 0. -1.
<mgrwt>
<rscale>  1 0.86055175E+03</rscale>
<asrwt>0</asrwt>
<pdfrwt beam="2">  1       21 0.22221661E+00 0.10757417E+04</pdfrwt>
<pdfrwt beam="1">  1        4 0.74329243E-01 0.10757417E+04</pdfrwt>
<totfact> 0.52566317E+00</totfact>
</mgrwt>
</event>
<event>
 6    1  0.1431486E-005  0.9975207E+03  0.7818608E-02  0.9895244E-01
          4   -1    0    0  502    0 -0.00000000000E+00  0.00000000000E+00  0.75452330201E+03  0.75452330201E+03  0.00000000000E+00 0.  1.
         21   -1    0    0  501  502  0.00000000000E+00 -0.00000000000E+00 -0.51827620028E+03  0.51827620028E+03  0.00000000000E+00 0.  1.
    9000010    2    1    2  501    0 -0.11742937129E+03 -0.66410446448E+02 -0.37000700112E+01  0.99752752582E+03  0.98835594277E+03 0.  0.
        -13    1    3    3    0    0  0.16727689420E+03 -0.36501043556E+03 -0.29004586417E+03  0.49531887900E+03  0.10566000000E+00 0.  1.
          4    1    3    3  501    0 -0.28470626549E+03  0.29859998911E+03  0.28634579416E+03  0.50220864682E+03  0.00000000000E+00 0.  1.
         13    1    1    2    0    0  0.11742937129E+03  0.66410446448E+02  0.23994717174E+03  0.27527197647E+03  0.10566000000E+00 0. -1.
<mgrwt>
<rscale>  1 0.60492342E+03</rscale>
<asrwt>0</asrwt>
<pdfrwt beam="2">  1       21 0.79734800E-01 0.99752066E+03</pdfrwt>
<pdfrwt beam="1">  1        4 0.11608051E+00 0.99752066E+03</pdfrwt>
<totfact> 0.30463406E+01</totfact>
</mgrwt>
</event>
<event>
 6    1  0.1431486E-005  0.1081160E+04  0.7818608E-02  0.9545592E-01
         21   -1    0    0  501  502  0.00000000000E+00  0.00000000000E+00  0.32484507665E+03  0.32484507665E+03  0.00000000000E+00 0.  1.
          4   -1    0    0  502    0 -0.00000000000E+00 -0.00000000000E+00 -0.16106062663E+04  0.16106062663E+04  0.00000000000E+00 0.  1.
    9000010    2    1    2  501    0  0.18519716490E+03  0.28596187660E+03 -0.81304205795E+03  0.13527545321E+04  0.10260776049E+04 0.  0.
        -13    1    3    3    0    0  0.11301237000E+03  0.29248580902E+03 -0.10547720075E+04  0.11003925405E+04  0.10566000000E+00 0.  1.
          4    1    3    3  501    0  0.72184794895E+02 -0.65239324188E+01  0.24172994952E+03  0.25236199159E+03  0.00000000000E+00 0.  1.
         13    1    1    2    0    0 -0.18519716490E+03 -0.28596187660E+03 -0.47271913165E+03  0.58269681083E+03  0.10566000000E+00 0. -1.
<mgrwt>
<rscale>  1 0.81004393E+03</rscale>
<asrwt>0</asrwt>
<pdfrwt beam="1">  1       21 0.49976167E-01 0.10811602E+04</pdfrwt>
<pdfrwt beam="2">  1        4 0.24778557E+00 0.10811602E+04</pdfrwt>
<totfact> 0.97335415E+00</totfact>
</mgrwt>
</event>
<event>
 6    1  0.1431486E-005  0.1016584E+04  0.7818608E-02  0.9743454E-01
         21   -1    0    0  501  502  0.00000000000E+00  0.00000000000E+00  0.24666435563E+04  0.24666435563E+04  0.00000000000E+00 0.  1.
          4   -1    0    0  502    0 -0.00000000000E+00 -0.00000000000E+00 -0.18250211945E+03  0.18250211945E+03  0.00000000000E+00 0.  1.
    9000010    2    1    2  501    0 -0.20826111114E+03  0.21985205520E+02  0.21998825875E+04  0.24234121945E+04  0.99477998876E+03 0.  0.
        -13    1    3    3    0    0 -0.12389327444E+03 -0.46836203943E+03  0.77303354543E+03  0.91230116571E+03  0.10566000000E+00 0.  1.
          4    1    3    3  501    0 -0.84367836699E+02  0.49034724495E+03  0.14268490421E+04  0.15111110288E+04  0.00000000000E+00 0.  1.
         13    1    1    2    0    0  0.20826111114E+03 -0.21985205520E+02  0.84258849285E+02  0.22573348117E+03  0.10566000000E+00 0. -1.
<mgrwt>
<rscale>  1 0.68487479E+03</rscale>
<asrwt>0</asrwt>
<pdfrwt beam="1">  1       21 0.37948360E+00 0.10165841E+04</pdfrwt>
<pdfrwt beam="2">  1        4 0.28077251E-01 0.10165841E+04</pdfrwt>
<totfact> 0.41102262E+00</totfact>
</mgrwt>
</event>
<event>
 6    1  0.1431486E-005  0.8497395E+03  0.7818608E-02  0.1042316E+00
         21   -1    0    0  501  502  0.00000000000E+00  0.00000000000E+00  0.49374198647E+03  0.49374198647E+03  0.00000000000E+00 0.  1.
          4   -1    0    0  502    0 -0.00000000000E+00 -0.00000000000E+00 -0.47950020161E+03  0.47950020161E+03  0.00000000000E+00 0.  1.
    9000010    2    1    2  501    0 -0.27900109222E+02  0.33409917527E+02  0.12066259578E+03  0.85826376035E+03  0.84862393415E+03 0.  0.
        -13    1    3    3    0    0  0.88659105603E+02  0.28252194951E+03  0.37898106526E+03  0.48094256201E+03  0.10566000000E+00 0.  1.
          4    1    3    3  501    0 -0.11655921483E+03 -0.24911203198E+03 -0.25831846948E+03  0.37732119834E+03  0.00000000000E+00 0.  1.
         13    1    1    2    0    0  0.27900109222E+02 -0.33409917527E+02 -0.10642081092E+03  0.11497842773E+03  0.10566000000E+00 0. -1.
<mgrwt>
<rscale>  1 0.40425507E+03</rscale>
<asrwt>0</asrwt>
<pdfrwt beam="1">  1       21 0.75960306E-01 0.84973950E+03</pdfrwt>
<pdfrwt beam="2">  1        4 0.73769262E-01 0.84973950E+03</pdfrwt>
<totfact> 0.10106203E+02</totfact>
</mgrwt>
</event>
<event>
 6    1  0.1431486E-005  0.1014547E+04  0.7818608E-02  0.9926151E-01
         21   -1    0    0  501  502  0.00000000000E+00  0.00000000000E+00  0.69436976206E+03  0.69436976206E+03  0.00000000000E+00 0.  1.
          4   -1    0    0  502    0 -0.00000000000E+00 -0.00000000000E+00 -0.47519052264E+03  0.47519052264E+03  0.00000000000E+00 0.  1.
    9000010    2    1    2  501    0  0.69004257607E+02  0.93390589198E+02  0.25850729824E+03  0.10469629883E+04  0.10078799957E+04 0.  0.
        -13    1    3    3    0    0 -0.80720755461E+02  0.36443896862E+02  0.63325258292E+03  0.63941601710E+03  0.10566000000E+00 0.  1.
          4    1    3    3  501    0  0.14972501307E+03  0.56946692336E+02 -0.37474528469E+03  0.40754697116E+03  0.00000000000E+00 0.  1.
         13    1    1    2    0    0 -0.69004257607E+02 -0.93390589198E+02 -0.39328058819E+02  0.12259729644E+03  0.10566000000E+00 0. -1.
<mgrwt>
<rscale>  1 0.59010465E+03</rscale>
<asrwt>0</asrwt>
<pdfrwt beam="1">  1       21 0.10682612E+00 0.10145469E+04</pdfrwt>
<pdfrwt beam="2">  1        4 0.73106234E-01 0.10145469E+04</pdfrwt>
<totfact> 0.44660591E+01</totfact>
</mgrwt>
</event>
<event>
 6    1  0.1431486E-005  0.9985122E+03  0.7818608E-02  0.1005765E+00
         21   -1    0    0  501  502  0.00000000000E+00  0.00000000000E+00  0.61299099943E+03  0.61299099943E+03  0.00000000000E+00 0.  1.
          4   -1    0    0  502    0 -0.00000000000E+00 -0.00000000000E+00 -0.87034312292E+03  0.87034312292E+03  0.00000000000E+00 0.  1.
    9000010    2    1    2  501    0 -0.35180849179E+02  0.72316930495E+02  0.20052494888E+03  0.10184482706E+04  0.99526840309E+03 0.  0.
        -13    1    3    3    0    0  0.12756167726E+03 -0.31372088309E+03  0.42478315599E+03  0.54326192096E+03  0.10566000000E+00 0.  1.
          4    1    3    3  501    0 -0.16274252644E+03  0.38603781359E+03 -0.22425820711E+03  0.47518634964E+03  0.00000000000E+00 0.  1.
         13    1    1    2    0    0  0.35180849179E+02 -0.72316930495E+02 -0.45787707237E+03  0.46488585174E+03  0.10566000000E+00 0. -1.
<mgrwt>
<rscale>  1 0.53193259E+03</rscale>
<asrwt>0</asrwt>
<pdfrwt beam="1">  1       21 0.94306308E-01 0.99851221E+03</pdfrwt>
<pdfrwt beam="2">  1        4 0.13389894E+00 0.99851221E+03</pdfrwt>
<totfact> 0.14176725E+01</totfact>
</mgrwt>
</event>
<event>
 6    1  0.1431486E-005  0.1088101E+04  0.7818608E-02  0.9487135E-01
         21   -1    0    0  501  502  0.00000000000E+00  0.00000000000E+00  0.33666189541E+03  0.33666189541E+03  0.00000000000E+00 0.  1.
          4   -1    0    0  502    0 -0.00000000000E+00 -0.00000000000E+00 -0.19374817361E+04  0.19374817361E+04  0.00000000000E+00 0.  1.
    9000010    2    1    2  501    0 -0.21737339563E+03  0.34736822700E+03 -0.14983330076E+04  0.18517463773E+04  0.10079915504E+04 0.  0.
        -13    1    3    3    0    0 -0.45705266440E+03 -0.10398072865E+03 -0.32050874987E+03  0.56783360227E+03  0.10566000000E+00 0.  1.
          4    1    3    3  501    0  0.23967926877E+03  0.45134895565E+03 -0.11778242578E+04  0.12839127750E+04  0.00000000000E+00 0.  1.
         13    1    1    2    0    0  0.21737339563E+03 -0.34736822700E+03 -0.10248683304E+03  0.42239725421E+03  0.10566000000E+00 0. -1.
<mgrwt>
<rscale>  1 0.85238992E+03</rscale>
<asrwt>0</asrwt>
<pdfrwt beam="1">  1       21 0.51794138E-01 0.10881006E+04</pdfrwt>
<pdfrwt beam="2">  1        4 0.29807411E+00 0.10881006E+04</pdfrwt>
<totfact> 0.44001480E+00</totfact>
</mgrwt>
</event>
<event>
 6    1  0.1431486E-005  0.9948779E+03  0.7818608E-02  0.1002171E+00
          4   -1    0    0  502    0 -0.00000000000E+00  0.00000000000E+00  0.16286559417E+04  0.16286559417E+04  0.00000000000E+00 0.  1.
         21   -1    0    0  501  502  0.00000000000E+00 -0.00000000000E+00 -0.18355648877E+03  0.18355648877E+03  0.00000000000E+00 0.  1.
    9000010    2    1    2  501    0 -0.50663692251E+02  0.75558518444E+02  0.12552931701E+04  0.16017312304E+04  0.99070989300E+03 0.  0.
        -13    1    3    3    0    0 -0.47290239760E+03  0.97761910149E+01  0.99410905434E+03  0.11009019369E+04  0.10566000000E+00 0.  1.
          4    1    3    3  501    0  0.42223870535E+03  0.65782327429E+02  0.26118411574E+03  0.50082929348E+03  0.00000000000E+00 0.  1.
         13    1    1    2    0    0  0.50663692251E+02 -0.75558518444E+02  0.18980628287E+03  0.21048120012E+03  0.10566000000E+00 0. -1.
<mgrwt>
<rscale>  1 0.54708437E+03</rscale>
<asrwt>0</asrwt>
<pdfrwt beam="2">  1       21 0.28239461E-01 0.99487788E+03</pdfrwt>
<pdfrwt beam="1">  1        4 0.25056244E+00 0.99487788E+03</pdfrwt>
<totfact> 0.30947637E+01</totfact>
</mgrwt>
</event>
<event>
 6    1  0.1431486E-005  0.9960532E+03  0.7818608E-02  0.1031342E+00
         21   -1    0    0  501  502  0.00000000000E+00  0.00000000000E+00  0.72879458321E+03  0.72879458321E+03  0.00000000000E+00 0.  1.
          4   -1    0    0  502    0 -0.00000000000E+00 -0.00000000000E+00 -0.39343104346E+03  0.39343104346E+03  0.00000000000E+00 0.  1.
    9000010    2    1    2  501    0 -0.51774784696E+01 -0.36904073870E+02  0.37820950195E+03  0.10654409052E+04  0.99535580481E+03 0.  0.
        -13    1    3    3    0    0  0.11046118522E+03  0.42631829991E+03 -0.24165482148E+02  0.44105889399E+03  0.10566000000E+00 0.  1.
          4    1    3    3  501    0 -0.11563866369E+03 -0.46322237378E+03  0.40237498410E+03  0.62438201122E+03  0.00000000000E+00 0.  1.
         13    1    1    2    0    0  0.51774784696E+01  0.36904073870E+02 -0.42845962200E+02  0.56784721469E+02  0.10566000000E+00 0. -1.
<mgrwt>
<rscale>  1 0.43806549E+03</rscale>
<asrwt>0</asrwt>
<pdfrwt beam="1">  1       21 0.11212224E+00 0.99605316E+03</pdfrwt>
<pdfrwt beam="2">  1        4 0.60527853E-01 0.99605316E+03</pdfrwt>
<totfact> 0.60167475E+01</totfact>
</mgrwt>
</event>
<event>
 6    1  0.1431486E-005  0.9280771E+03  0.7818608E-02  0.9933841E-01
          4   -1    0    0  502    0 -0.00000000000E+00  0.00000000000E+00  0.67338612706E+03  0.67338612706E+03  0.00000000000E+00 0.  1.
         21   -1    0    0  501  502  0.00000000000E+00 -0.00000000000E+00 -0.58238430703E+03  0.58238430703E+03  0.00000000000E+00 0.  1.
    9000010    2    1    2  501    0 -0.28476512835E+02 -0.14524326699E+03 -0.18150880941E+03  0.94565985266E+03  0.91619899075E+03 0.  0.
        -13    1    3    3    0    0 -0.20936150733E+03 -0.45223160576E+03  0.78601884821E+02  0.50450365059E+03  0.10566000000E+00 0.  1.
          4    1    3    3  501    0  0.18088499449E+03  0.30698833877E+03 -0.26011069423E+03  0.44115620207E+03  0.00000000000E+00 0.  1.
         13    1    1    2    0    0  0.28476512835E+02  0.14524326699E+03  0.27251062944E+03  0.31011058143E+03  0.10566000000E+00 0. -1.
<mgrwt>
<rscale>  1 0.58648882E+03</rscale>
<asrwt>0</asrwt>
<pdfrwt beam="2">  1       21 0.89597585E-01 0.92807710E+03</pdfrwt>
<pdfrwt beam="1">  1        4 0.10359787E+00 0.92807710E+03</pdfrwt>
<totfact> 0.30728661E+01</totfact>
</mgrwt>
</event>
<event>
 6    1  0.1431486E-005  0.1294206E+04  0.7818608E-02  0.9231660E-01
          4   -1    0    0  502    0 -0.00000000000E+00  0.00000000000E+00  0.10246294473E+04  0.10246294473E+04  0.00000000000E+00 0.  1.
         21   -1    0    0  501  502  0.00000000000E+00 -0.00000000000E+00 -0.88700947195E+03  0.88700947195E+03  0.00000000000E+00 0.  1.
    9000010    2    1    2  501    0  0.45278915913E+03  0.41183327358E+03  0.11185627941E+03  0.12990310128E+04  0.11403267414E+04 0.  0.
        -13    1    3    3    0    0 -0.27857784441E+03  0.31599134694E+03  0.32407521259E+03  0.53148932380E+03  0.10566000000E+00 0.  1.
          4    1    3    3  501    0  0.73136700354E+03  0.95841926638E+02 -0.21221893318E+03  0.76754168901E+03  0.00000000000E+00 0.  1.
         13    1    1    2    0    0 -0.45278915913E+03 -0.41183327358E+03  0.25763695959E+02  0.61260790645E+03  0.10566000000E+00 0. -1.
<mgrwt>
<rscale>  1 0.10732533E+04</rscale>
<asrwt>0</asrwt>
<pdfrwt beam="2">  1       21 0.13646300E+00 0.12942062E+04</pdfrwt>
<pdfrwt beam="1">  1        4 0.15763530E+00 0.12942062E+04</pdfrwt>
<totfact> 0.34399135E+00</totfact>
</mgrwt>
</event>
<event>
 6    1  0.1431486E-005  0.1103459E+04  0.7818608E-02  0.9432828E-01
          4   -1    0    0  502    0 -0.00000000000E+00  0.00000000000E+00  0.24327047012E+04  0.24327047012E+04  0.00000000000E+00 0.  1.
         21   -1    0    0  501  502  0.00000000000E+00 -0.00000000000E+00 -0.62229455253E+03  0.62229455253E+03  0.00000000000E+00 0.  1.
    9000010    2    1    2  501    0 -0.32732988185E+03  0.34545759422E+03 -0.79279883233E+02  0.11063037340E+04  0.99555856229E+03 0.  0.
        -13    1    3    3    0    0 -0.15051943050E+03  0.69330271983E+03 -0.94990499473E+02  0.71578486044E+03  0.10566000000E+00 0.  1.
          4    1    3    3  501    0 -0.17681045135E+03 -0.34784512561E+03  0.15710616240E+02  0.39051887352E+03  0.00000000000E+00 0.  1.
         13    1    1    2    0    0  0.32732988185E+03 -0.34545759422E+03  0.18896900319E+04  0.19486955198E+04  0.10566000000E+00 0. -1.
<mgrwt>
<rscale>  1 0.89422621E+03</rscale>
<asrwt>0</asrwt>
<pdfrwt beam="2">  1       21 0.95737625E-01 0.11034594E+04</pdfrwt>
<pdfrwt beam="1">  1        4 0.37426226E+00 0.11034594E+04</pdfrwt>
<totfact> 0.34634862E-01</totfact>
</mgrwt>
</event>
<event>
 6    1  0.1431486E-005  0.9675362E+03  0.7818608E-02  0.9758423E-01
         21   -1    0    0  501  502  0.00000000000E+00  0.00000000000E+00  0.53097761403E+03  0.53097761403E+03  0.00000000000E+00 0.  1.
          4   -1    0    0  502    0 -0.00000000000E+00 -0.00000000000E+00 -0.72309280749E+03  0.72309280749E+03  0.00000000000E+00 0.  1.
    9000010    2    1    2  501    0  0.12473720536E+02 -0.23080161779E+03 -0.23245639978E+02  0.96781543425E+03  0.93952188613E+03 0.  0.
        -13    1    3    3    0    0 -0.34358291221E+03  0.91053010035E+02 -0.25240990826E+03  0.43594797987E+03  0.10566000000E+00 0.  1.
          4    1    3    3  501    0  0.35605663274E+03 -0.32185462783E+03  0.22916426828E+03  0.53186745438E+03  0.00000000000E+00 0.  1.
         13    1    1    2    0    0 -0.12473720536E+02  0.23080161779E+03 -0.16886955348E+03  0.28625498727E+03  0.10566000000E+00 0. -1.
<mgrwt>
<rscale>  1 0.67642318E+03</rscale>
<asrwt>0</asrwt>
<pdfrwt beam="1">  1       21 0.81688864E-01 0.96753623E+03</pdfrwt>
<pdfrwt beam="2">  1        4 0.11124505E+00 0.96753623E+03</pdfrwt>
<totfact> 0.32055014E+01</totfact>
</mgrwt>
</event>
<event>
 6    1  0.1431486E-005  0.1008840E+04  0.7818608E-02  0.9966266E-01
          4   -1    0    0  502    0 -0.00000000000E+00  0.00000000000E+00  0.23097949092E+03  0.23097949092E+03  0.00000000000E+00 0.  1.
         21   -1    0    0  501  502  0.00000000000E+00 -0.00000000000E+00 -0.14864824207E+04  0.14864824207E+04  0.00000000000E+00 0.  1.
    9000010    2    1    2  501    0  0.90143715194E+02 -0.51721985044E+02 -0.12591755289E+04  0.16134688720E+04  0.10034728373E+04 0.  0.
        -13    1    3    3    0    0 -0.31915929480E+03  0.60414350131E+02 -0.11210641340E+04  0.11671749453E+04  0.10566000000E+00 0.  1.
          4    1    3    3  501    0  0.40930300999E+03 -0.11213633517E+03 -0.13811139492E+03  0.44629392675E+03  0.00000000000E+00 0.  1.
         13    1    1    2    0    0 -0.90143715194E+02  0.51721985044E+02  0.36725991913E+01  0.10399303955E+03  0.10566000000E+00 0. -1.
<mgrwt>
<rscale>  1 0.57154462E+03</rscale>
<asrwt>0</asrwt>
<pdfrwt beam="2">  1       21 0.22868961E+00 0.10088403E+04</pdfrwt>
<pdfrwt beam="1">  1        4 0.35535306E-01 0.10088403E+04</pdfrwt>
<totfact> 0.23110513E+01</totfact>
</mgrwt>
</event>
<event>
 6    1  0.1431486E-005  0.1040551E+04  0.7818608E-02  0.9713235E-01
         21   -1    0    0  501  502  0.00000000000E+00  0.00000000000E+00  0.13311294799E+04  0.13311294799E+04  0.00000000000E+00 0.  1.
          4   -1    0    0  502    0 -0.00000000000E+00 -0.00000000000E+00 -0.34064158956E+03  0.34064158956E+03  0.00000000000E+00 0.  1.
    9000010    2    1    2  501    0 -0.18267563365E+03 -0.11521672295E+03  0.10159867611E+04  0.14542958204E+04  0.10178909343E+04 0.  0.
        -13    1    3    3    0    0 -0.14179576689E+03  0.26729443137E+03 -0.62753998313E+02  0.30901525532E+03  0.10566000000E+00 0.  1.
          4    1    3    3  501    0 -0.40879866763E+02 -0.38251115432E+03  0.10787407594E+04  0.11452805651E+04  0.00000000000E+00 0.  1.
         13    1    1    2    0    0  0.18267563365E+03  0.11521672295E+03 -0.25498870782E+02  0.21747524906E+03  0.10566000000E+00 0. -1.
<mgrwt>
<rscale>  1 0.70234199E+03</rscale>
<asrwt>0</asrwt>
<pdfrwt beam="1">  1       21 0.20478915E+00 0.10405514E+04</pdfrwt>
<pdfrwt beam="2">  1        4 0.52406399E-01 0.10405514E+04</pdfrwt>
<totfact> 0.14887440E+01</totfact>
</mgrwt>
</event>
<event>
 6    1  0.1431486E-005  0.1147126E+04  0.7818608E-02  0.9368162E-01
         21   -1    0    0  501  502  0.00000000000E+00  0.00000000000E+00  0.10739469014E+04  0.10739469014E+04  0.00000000000E+00 0.  1.
          4   -1    0    0  502    0 -0.00000000000E+00 -0.00000000000E+00 -0.72312204664E+03  0.72312204664E+03  0.00000000000E+00 0.  1.
    9000010    2    1    2  501    0 -0.16187591046E+03 -0.50862833905E+03  0.48697522551E+03  0.12462118592E+04  0.10153780232E+04 0.  0.
        -13    1    3    3    0    0  0.23278061531E+03 -0.15019172509E+03  0.63509517827E+03  0.69288546368E+03  0.10566000000E+00 0.  1.
          4    1    3    3  501    0 -0.39465652577E+03 -0.35843661396E+03 -0.14811995276E+03  0.55332639551E+03  0.00000000000E+00 0.  1.
         13    1    1    2    0    0  0.16187591046E+03  0.50862833905E+03 -0.13615037079E+03  0.55085708882E+03  0.10566000000E+00 0. -1.
<mgrwt>
<rscale>  1 0.94742816E+03</rscale>
<asrwt>0</asrwt>
<pdfrwt beam="1">  1       21 0.16522260E+00 0.11471265E+04</pdfrwt>
<pdfrwt beam="2">  1        4 0.11124955E+00 0.11471265E+04</pdfrwt>
<totfact> 0.50561722E+00</totfact>
</mgrwt>
</event>
<event>
 6    1  0.1431486E-005  0.1018710E+04  0.7818608E-02  0.9750950E-01
         21   -1    0    0  501  502  0.00000000000E+00  0.00000000000E+00  0.88468056093E+03  0.88468056093E+03  0.00000000000E+00 0.  1.
          4   -1    0    0  502    0 -0.00000000000E+00 -0.00000000000E+00 -0.44749209922E+03  0.44749209922E+03  0.00000000000E+00 0.  1.
    9000010    2    1    2  501    0 -0.82764845665E+02 -0.18535530858E+03  0.47773782089E+03  0.11251681390E+04  0.99828017377E+03 0.  0.
        -13    1    3    3    0    0  0.23183877036E+03  0.26244848385E+03 -0.63013344654E+02  0.35580769369E+03  0.10566000000E+00 0.  1.
          4    1    3    3  501    0 -0.31460361602E+03 -0.44780379243E+03  0.54075116554E+03  0.76936044528E+03  0.00000000000E+00 0.  1.
         13    1    1    2    0    0  0.82764845665E+02  0.18535530858E+03 -0.40549359169E+02  0.20700452118E+03  0.10566000000E+00 0. -1.
<mgrwt>
<rscale>  1 0.68062638E+03</rscale>
<asrwt>0</asrwt>
<pdfrwt beam="1">  1       21 0.13610470E+00 0.10187099E+04</pdfrwt>
<pdfrwt beam="2">  1        4 0.68844939E-01 0.10187099E+04</pdfrwt>
<totfact> 0.27212994E+01</totfact>
</mgrwt>
</event>
<event>
 6    1  0.1431486E-005  0.1043159E+04  0.7818608E-02  0.9624575E-01
          4   -1    0    0  502    0 -0.00000000000E+00  0.00000000000E+00  0.32257511629E+03  0.32257511629E+03  0.00000000000E+00 0.  1.
         21   -1    0    0  501  502  0.00000000000E+00 -0.00000000000E+00 -0.13764349653E+04  0.13764349653E+04  0.00000000000E+00 0.  1.
    9000010    2    1    2  501    0 -0.10796096782E+03 -0.26823692192E+03 -0.84136105534E+03  0.13401753490E+04  0.10022848516E+04 0.  0.
        -13    1    3    3    0    0  0.34365482062E+03  0.14289000835E+03 -0.11153618309E+03  0.38853123623E+03  0.10566000000E+00 0.  1.
          4    1    3    3  501    0 -0.45161578844E+03 -0.41112693027E+03 -0.72982487225E+03  0.95164411275E+03  0.00000000000E+00 0.  1.
         13    1    1    2    0    0  0.10796096782E+03  0.26823692192E+03 -0.21249879367E+03  0.35883473261E+03  0.10566000000E+00 0. -1.
<mgrwt>
<rscale>  1 0.75690800E+03</rscale>
<asrwt>0</asrwt>
<pdfrwt beam="2">  1       21 0.21175923E+00 0.10431594E+04</pdfrwt>
<pdfrwt beam="1">  1        4 0.49626941E-01 0.10431594E+04</pdfrwt>
<totfact> 0.14986601E+01</totfact>
</mgrwt>
</event>
<event>
 6    1  0.1431486E-005  0.1070238E+04  0.7818608E-02  0.9539850E-01
         21   -1    0    0  501  502  0.00000000000E+00  0.00000000000E+00  0.54832661520E+03  0.54832661520E+03  0.00000000000E+00 0.  1.
          4   -1    0    0  502    0 -0.00000000000E+00 -0.00000000000E+00 -0.93557762021E+03  0.93557762021E+03  0.00000000000E+00 0.  1.
    9000010    2    1    2  501    0 -0.13917622220E+03 -0.33015769218E+03 -0.33738337777E+03  0.11221572051E+04  0.10084815947E+04 0.  0.
        -13    1    3    3    0    0 -0.47642643122E+03  0.13544016589E+03 -0.16003882446E+03  0.52051764562E+03  0.10566000000E+00 0.  1.
          4    1    3    3  501    0  0.33725020902E+03 -0.46559785807E+03 -0.17734455331E+03  0.60163955946E+03  0.00000000000E+00 0.  1.
         13    1    1    2    0    0  0.13917622220E+03  0.33015769218E+03 -0.49867627245E+02  0.36174703032E+03  0.10566000000E+00 0. -1.
<mgrwt>
<rscale>  1 0.81408547E+03</rscale>
<asrwt>0</asrwt>
<pdfrwt beam="1">  1       21 0.84357942E-01 0.10702379E+04</pdfrwt>
<pdfrwt beam="2">  1        4 0.14393502E+00 0.10702379E+04</pdfrwt>
<totfact> 0.15233867E+01</totfact>
</mgrwt>
</event>
<event>
 6    1  0.1431486E-005  0.1015159E+04  0.7818608E-02  0.9810313E-01
         21   -1    0    0  501  502  0.00000000000E+00  0.00000000000E+00  0.16570831198E+03  0.16570831198E+03  0.00000000000E+00 0.  1.
          4   -1    0    0  502    0 -0.00000000000E+00 -0.00000000000E+00 -0.23225541993E+04  0.23225541993E+04  0.00000000000E+00 0.  1.
    9000010    2    1    2  501    0  0.13313723952E+03  0.10354577865E+03 -0.15080415042E+04  0.18178936639E+04  0.10010499199E+04 0.  0.
        -13    1    3    3    0    0 -0.43225848174E+03 -0.30986759437E+02 -0.67547924160E+03  0.80254581882E+03  0.10566000000E+00 0.  1.
          4    1    3    3  501    0  0.56539572126E+03  0.13453253809E+03 -0.83256226260E+03  0.10153478451E+04  0.00000000000E+00 0.  1.
         13    1    1    2    0    0 -0.13313723952E+03 -0.10354577865E+03 -0.64880438313E+03  0.67036884739E+03  0.10566000000E+00 0. -1.
<mgrwt>
<rscale>  1 0.64812038E+03</rscale>
<asrwt>0</asrwt>
<pdfrwt beam="1">  1       21 0.25493588E-01 0.10151592E+04</pdfrwt>
<pdfrwt beam="2">  1        4 0.35731601E+00 0.10151592E+04</pdfrwt>
<totfact> 0.81286791E+00</totfact>
</mgrwt>
</event>
<event>
 6    1  0.1431486E-005  0.1042704E+04  0.7818608E-02  0.9611159E-01
          4   -1    0    0  502    0 -0.00000000000E+00  0.00000000000E+00  0.22926667170E+04  0.22926667170E+04  0.00000000000E+00 0.  1.
         21   -1    0    0  501  502  0.00000000000E+00 -0.00000000000E+00 -0.21796933944E+03  0.21796933944E+03  0.00000000000E+00 0.  1.
    9000010    2    1    2  501    0 -0.25841428197E+03 -0.15838158860E+03  0.12260049950E+04  0.16094471528E+04  0.99768192377E+03 0.  0.
        -13    1    3    3    0    0 -0.10909920316E+02 -0.42791693155E+03  0.11615059159E+04  0.12378723402E+04  0.10566000000E+00 0.  1.
          4    1    3    3  501    0 -0.24750436166E+03  0.26953534295E+03  0.64499079063E+02  0.37157481258E+03  0.00000000000E+00 0.  1.
         13    1    1    2    0    0  0.25841428197E+03  0.15838158860E+03  0.84869238260E+03  0.90118890372E+03  0.10566000000E+00 0. -1.
<mgrwt>
<rscale>  1 0.76561989E+03</rscale>
<asrwt>0</asrwt>
<pdfrwt beam="2">  1       21 0.33533746E-01 0.10427041E+04</pdfrwt>
<pdfrwt beam="1">  1        4 0.35271794E+00 0.10427041E+04</pdfrwt>
<totfact> 0.49955624E+00</totfact>
</mgrwt>
</event>
<event>
 6    1  0.1431486E-005  0.1010270E+04  0.7818608E-02  0.9841985E-01
          4   -1    0    0  502    0 -0.00000000000E+00  0.00000000000E+00  0.35396097127E+03  0.35396097127E+03  0.00000000000E+00 0.  1.
         21   -1    0    0  501  502  0.00000000000E+00 -0.00000000000E+00 -0.95979674671E+03  0.95979674671E+03  0.00000000000E+00 0.  1.
    9000010    2    1    2  501    0  0.13855737601E+03 -0.67911380865E+02 -0.54495373559E+03  0.11478760251E+04  0.99841609208E+03 0.  0.
        -13    1    3    3    0    0  0.34023079339E+03 -0.40054340400E+03 -0.64181990435E+02  0.52944437887E+03  0.10566000000E+00 0.  1.
          4    1    3    3  501    0 -0.20167341738E+03  0.33263202314E+03 -0.48077174515E+03  0.61843164621E+03  0.00000000000E+00 0.  1.
         13    1    1    2    0    0 -0.13855737601E+03  0.67911380865E+02 -0.60882039856E+02  0.16588169290E+03  0.10566000000E+00 0. -1.
<mgrwt>
<rscale>  1 0.63157244E+03</rscale>
<asrwt>0</asrwt>
<pdfrwt beam="2">  1       21 0.14766104E+00 0.10102697E+04</pdfrwt>
<pdfrwt beam="1">  1        4 0.54455535E-01 0.10102697E+04</pdfrwt>
<totfact> 0.36381448E+01</totfact>
</mgrwt>
</event>
<event>
 6    1  0.1431486E-005  0.8165649E+03  0.7818608E-02  0.9824114E-01
         21   -1    0    0  501  502  0.00000000000E+00  0.00000000000E+00  0.88892452586E+03  0.88892452586E+03  0.00000000000E+00 0.  1.
          4   -1    0    0  502    0 -0.00000000000E+00 -0.00000000000E+00 -0.85105364015E+03  0.85105364015E+03  0.00000000000E+00 0.  1.
    9000010    2    1    2  501    0  0.16882751793E+03  0.25971703544E+03  0.65675109013E+03  0.10479027453E+04  0.75552796110E+03 0.  0.
        -13    1    3    3    0    0  0.31124590043E+03 -0.35829292691E+02 -0.52197882827E+00  0.31330182313E+03  0.10566000000E+00 0.  1.
          4    1    3    3  501    0 -0.14241838249E+03  0.29554632813E+03  0.65727306895E+03  0.73460092221E+03  0.00000000000E+00 0.  1.
         13    1    1    2    0    0 -0.16882751793E+03 -0.25971703544E+03 -0.61888020441E+03  0.69207542066E+03  0.10566000000E+00 0. -1.
<mgrwt>
<rscale>  1 0.64084330E+03</rscale>
<asrwt>0</asrwt>
<pdfrwt beam="1">  1       21 0.13675762E+00 0.81656486E+03</pdfrwt>
<pdfrwt beam="2">  1        4 0.13093133E+00 0.81656486E+03</pdfrwt>
<totfact> 0.59505316E+00</totfact>
</mgrwt>
</event>
<event>
 6    1  0.1431486E-005  0.1078725E+04  0.7818608E-02  0.9495594E-01
         21   -1    0    0  501  502  0.00000000000E+00  0.00000000000E+00  0.16346373010E+04  0.16346373010E+04  0.00000000000E+00 0. -1.
          4   -1    0    0  502    0 -0.00000000000E+00 -0.00000000000E+00 -0.36100900330E+03  0.36100900330E+03  0.00000000000E+00 0.  1.
    9000010    2    1    2  501    0  0.22908098471E+03 -0.33794000296E+03  0.11315943991E+04  0.15633788146E+04  0.99848179288E+03 0.  0.
        -13    1    3    3    0    0 -0.95121761918E+02  0.28129081531E+03  0.92388022428E+02  0.31097946913E+03  0.10566000000E+00 0.  1.
          4    1    3    3  501    0  0.32420274663E+03 -0.61923081827E+03  0.10392063767E+04  0.12523993455E+04  0.00000000000E+00 0.  1.
         13    1    1    2    0    0 -0.22908098471E+03  0.33794000296E+03  0.14203389864E+03  0.43226748974E+03  0.10566000000E+00 0. -1.
<mgrwt>
<rscale>  1 0.84609470E+03</rscale>
<asrwt>0</asrwt>
<pdfrwt beam="1">  1       21 0.25148266E+00 0.10787249E+04</pdfrwt>
<pdfrwt beam="2">  1        4 0.55539848E-01 0.10787249E+04</pdfrwt>
<totfact> 0.64653137E+00</totfact>
</mgrwt>
</event>
<event>
 6    1  0.1431486E-005  0.1006598E+04  0.7818608E-02  0.9951455E-01
         21   -1    0    0  501  502  0.00000000000E+00  0.00000000000E+00  0.37754123580E+03  0.37754123580E+03  0.00000000000E+00 0.  1.
          4   -1    0    0  502    0 -0.00000000000E+00 -0.00000000000E+00 -0.97989395696E+03  0.97989395696E+03  0.00000000000E+00 0.  1.
    9000010    2    1    2  501    0  0.18035645329E+02 -0.10817409332E+03 -0.32271801215E+03  0.10570645873E+04  0.10006056703E+04 0.  0.
        -13    1    3    3    0    0 -0.23852539317E+03 -0.32590352045E+03  0.18798338698E+03  0.44547192141E+03  0.10566000000E+00 0.  1.
          4    1    3    3  501    0  0.25656103850E+03  0.21772942713E+03 -0.51070139913E+03  0.61159266590E+03  0.00000000000E+00 0.  1.
         13    1    1    2    0    0 -0.18035645329E+02  0.10817409332E+03 -0.27963470900E+03  0.30037060544E+03  0.10566000000E+00 0. -1.
<mgrwt>
<rscale>  1 0.57831073E+03</rscale>
<asrwt>0</asrwt>
<pdfrwt beam="1">  1       21 0.58083268E-01 0.10065975E+04</pdfrwt>
<pdfrwt beam="2">  1        4 0.15075291E+00 0.10065975E+04</pdfrwt>
<totfact> 0.31893688E+01</totfact>
</mgrwt>
</event>
<event>
 6    1  0.1431486E-005  0.1003946E+04  0.7818608E-02  0.1009165E+00
         21   -1    0    0  501  502  0.00000000000E+00  0.00000000000E+00  0.47069271039E+03  0.47069271039E+03  0.00000000000E+00 0.  1.
          4   -1    0    0  502    0 -0.00000000000E+00 -0.00000000000E+00 -0.70144950066E+03  0.70144950066E+03  0.00000000000E+00 0.  1.
    9000010    2    1    2  501    0  0.46946962067E+02  0.53521933302E+02 -0.82075914094E+02  0.10072949220E+04  0.10014179895E+04 0.  0.
        -13    1    3    3    0    0 -0.25580469047E+03 -0.54204434129E+02 -0.44897333428E+03  0.51956830774E+03  0.10566000000E+00 0.  1.
          4    1    3    3  501    0  0.30275165253E+03  0.10772636743E+03  0.36689742019E+03  0.48772661430E+03  0.00000000000E+00 0.  1.
         13    1    1    2    0    0 -0.46946962067E+02 -0.53521933302E+02 -0.14868087617E+03  0.16484728901E+03  0.10566000000E+00 0. -1.
<mgrwt>
<rscale>  1 0.51807649E+03</rscale>
<asrwt>0</asrwt>
<pdfrwt beam="1">  1       21 0.72414264E-01 0.10039455E+04</pdfrwt>
<pdfrwt beam="2">  1        4 0.10791531E+00 0.10039455E+04</pdfrwt>
<totfact> 0.45613273E+01</totfact>
</mgrwt>
</event>
<event>
 6    1  0.1431486E-005  0.7638220E+03  0.7818608E-02  0.1007996E+00
         21   -1    0    0  501  502  0.00000000000E+00  0.00000000000E+00  0.20466632646E+03  0.20466632646E+03  0.00000000000E+00 0.  1.
          4   -1    0    0  502    0 -0.00000000000E+00 -0.00000000000E+00 -0.10631802148E+04  0.10631802148E+04  0.00000000000E+00 0.  1.
    9000010    2    1    2  501    0  0.16415605416E+03  0.33900299604E+02 -0.67545465106E+03  0.10196386930E+04  0.74520308515E+03 0.  0.
        -13    1    3    3    0    0 -0.27134755832E+03  0.14818834596E+03 -0.32939259014E+03  0.45176185418E+03  0.10566000000E+00 0.  1.
          4    1    3    3  501    0  0.43550361248E+03 -0.11428804635E+03 -0.34606206092E+03  0.56787683879E+03  0.00000000000E+00 0.  1.
         13    1    1    2    0    0 -0.16415605416E+03 -0.33900299604E+02 -0.18305923726E+03  0.24820784826E+03  0.10566000000E+00 0. -1.
<mgrwt>
<rscale>  1 0.52278795E+03</rscale>
<asrwt>0</asrwt>
<pdfrwt beam="1">  1       21 0.31487127E-01 0.76382202E+03</pdfrwt>
<pdfrwt beam="2">  1        4 0.16356619E+00 0.76382202E+03</pdfrwt>
<totfact> 0.95031734E+01</totfact>
</mgrwt>
</event>
<event>
 6    1  0.1431486E-005  0.1061483E+04  0.7818608E-02  0.9564636E-01
         21   -1    0    0  501  502  0.00000000000E+00  0.00000000000E+00  0.12357881983E+04  0.12357881983E+04  0.00000000000E+00 0.  1.
          4   -1    0    0  502    0 -0.00000000000E+00 -0.00000000000E+00 -0.49920730599E+03  0.49920730599E+03  0.00000000000E+00 0.  1.
    9000010    2    1    2  501    0 -0.19451262810E+03 -0.27525929805E+03  0.87003954831E+03  0.13724847214E+04  0.10065498752E+04 0.  0.
        -13    1    3    3    0    0 -0.34691006039E+03  0.11415610583E+03 -0.43492713713E+02  0.36779047542E+03  0.10566000000E+00 0.  1.
          4    1    3    3  501    0  0.15239743229E+03 -0.38941540389E+03  0.91353226202E+03  0.10046942460E+04  0.00000000000E+00 0.  1.
         13    1    1    2    0    0  0.19451262810E+03  0.27525929805E+03 -0.13345865603E+03  0.36251078286E+03  0.10566000000E+00 0. -1.
<mgrwt>
<rscale>  1 0.79681654E+03</rscale>
<asrwt>0</asrwt>
<pdfrwt beam="1">  1       21 0.19012126E+00 0.10614827E+04</pdfrwt>
<pdfrwt beam="2">  1        4 0.76801124E-01 0.10614827E+04</pdfrwt>
<totfact> 0.80880099E+00</totfact>
</mgrwt>
</event>
<event>
 6    1  0.1431486E-005  0.1126984E+04  0.7818608E-02  0.9393961E-01
          4   -1    0    0  502    0 -0.00000000000E+00  0.00000000000E+00  0.30849424024E+03  0.30849424024E+03  0.00000000000E+00 0.  1.
         21   -1    0    0  501  502  0.00000000000E+00 -0.00000000000E+00 -0.21876517776E+04  0.21876517776E+04  0.00000000000E+00 0.  1.
    9000010    2    1    2  501    0 -0.30111454779E+03 -0.41546436639E+03 -0.12209376947E+04  0.16615599030E+04  0.10034001427E+04 0.  0.
        -13    1    3    3    0    0 -0.54717120418E+03  0.35718672937E+02 -0.35066553965E+03  0.65087516633E+03  0.10566000000E+00 0.  1.
          4    1    3    3  501    0  0.24605665639E+03 -0.45118303933E+03 -0.87027215500E+03  0.10106847367E+04  0.00000000000E+00 0.  1.
         13    1    1    2    0    0  0.30111454779E+03  0.41546436639E+03 -0.65821984272E+03  0.83458611488E+03  0.10566000000E+00 0. -1.
<mgrwt>
<rscale>  1 0.92574349E+03</rscale>
<asrwt>0</asrwt>
<pdfrwt beam="2">  1       21 0.33656182E+00 0.11269838E+04</pdfrwt>
<pdfrwt beam="1">  1        4 0.47460651E-01 0.11269838E+04</pdfrwt>
<totfact> 0.26228031E+00</totfact>
</mgrwt>
</event>
<event>
 6    1  0.1431486E-005  0.1028432E+04  0.7818608E-02  0.9774722E-01
         21   -1    0    0  501  502  0.00000000000E+00  0.00000000000E+00  0.12971853863E+04  0.12971853863E+04  0.00000000000E+00 0.  1.
          4   -1    0    0  502    0 -0.00000000000E+00 -0.00000000000E+00 -0.42217289641E+03  0.42217289641E+03  0.00000000000E+00 0.  1.
    9000010    2    1    2  501    0  0.52620770512E+02 -0.17460707311E+03  0.10477682390E+04  0.14681588888E+04  0.10121342127E+04 0.  0.
        -13    1    3    3    0    0  0.34289899591E+03 -0.38654262605E+03  0.21223923654E+03  0.55860578930E+03  0.10566000000E+00 0.  1.
          4    1    3    3  501    0 -0.29027822540E+03  0.21193555294E+03  0.83552900250E+03  0.90955309948E+03  0.00000000000E+00 0.  1.
         13    1    1    2    0    0 -0.52620770512E+02  0.17460707311E+03 -0.17275574916E+03  0.25119939391E+03  0.10566000000E+00 0. -1.
<mgrwt>
<rscale>  1 0.66736953E+03</rscale>
<asrwt>0</asrwt>
<pdfrwt beam="1">  1       21 0.19956698E+00 0.10284319E+04</pdfrwt>
<pdfrwt beam="2">  1        4 0.64949677E-01 0.10284319E+04</pdfrwt>
<totfact> 0.10167034E+01</totfact>
</mgrwt>
</event>
<event>
 6    1  0.1431486E-005  0.1069116E+04  0.7818608E-02  0.9522046E-01
         21   -1    0    0  501  502  0.00000000000E+00  0.00000000000E+00  0.65065595582E+03  0.65065595582E+03  0.00000000000E+00 0.  1.
          4   -1    0    0  502    0 -0.00000000000E+00 -0.00000000000E+00 -0.90194436325E+03  0.90194436325E+03  0.00000000000E+00 0.  1.
    9000010    2    1    2  501    0 -0.37502730229E+03 -0.74559300783E+02 -0.40117260240E+03  0.11419059682E+04  0.99840133034E+03 0.  0.
        -13    1    3    3    0    0  0.96655306748E+02 -0.23266427242E+03  0.22801980178E+03  0.33980575797E+03  0.10566000000E+00 0.  1.
          4    1    3    3  501    0 -0.47168260904E+03  0.15810497164E+03 -0.62919240418E+03  0.80210021020E+03  0.00000000000E+00 0.  1.
         13    1    1    2    0    0  0.37502730229E+03  0.74559300783E+02  0.14988419497E+03  0.41069435090E+03  0.10566000000E+00 0. -1.
<mgrwt>
<rscale>  1 0.82677799E+03</rscale>
<asrwt>0</asrwt>
<pdfrwt beam="1">  1       21 0.10010092E+00 0.10691164E+04</pdfrwt>
<pdfrwt beam="2">  1        4 0.13876067E+00 0.10691164E+04</pdfrwt>
<totfact> 0.11074136E+01</totfact>
</mgrwt>
</event>
<event>
 6    1  0.1431486E-005  0.9999806E+03  0.7818608E-02  0.9830801E-01
         21   -1    0    0  501  502  0.00000000000E+00  0.00000000000E+00  0.32998486735E+03  0.32998486735E+03  0.00000000000E+00 0.  1.
          4   -1    0    0  502    0 -0.00000000000E+00 -0.00000000000E+00 -0.13536904942E+04  0.13536904942E+04  0.00000000000E+00 0.  1.
    9000010    2    1    2  501    0  0.12097539714E+03  0.11224155831E+03 -0.46817303350E+03  0.11041499630E+04  0.98626970823E+03 0.  0.
        -13    1    3    3    0    0  0.19403095614E+03  0.50109112182E+03 -0.46168450738E+03  0.70844401319E+03  0.10566000000E+00 0.  1.
          4    1    3    3  501    0 -0.73055558998E+02 -0.38884956351E+03 -0.64885261148E+01  0.39570594981E+03  0.00000000000E+00 0.  1.
         13    1    1    2    0    0 -0.12097539714E+03 -0.11224155831E+03 -0.55553259335E+03  0.57952539855E+03  0.10566000000E+00 0. -1.
<mgrwt>
<rscale>  1 0.63735450E+03</rscale>
<asrwt>0</asrwt>
<pdfrwt beam="1">  1       21 0.50766901E-01 0.99998058E+03</pdfrwt>
<pdfrwt beam="2">  1        4 0.20826008E+00 0.99998058E+03</pdfrwt>
<totfact> 0.16890122E+01</totfact>
</mgrwt>
</event>
<event>
 6    1  0.1431486E-005  0.1021930E+04  0.7818608E-02  0.9696337E-01
         21   -1    0    0  501  502  0.00000000000E+00  0.00000000000E+00  0.64299826516E+03  0.64299826516E+03  0.00000000000E+00 0.  1.
          4   -1    0    0  502    0 -0.00000000000E+00 -0.00000000000E+00 -0.62960085237E+03  0.62960085237E+03  0.00000000000E+00 0.  1.
    9000010    2    1    2  501    0 -0.17005601979E+03 -0.17116137538E+03  0.71485265447E+02  0.10244268466E+04  0.99303824422E+03 0.  0.
        -13    1    3    3    0    0 -0.57842049749E+03 -0.13358700861E+03  0.13670622934E+03  0.60918335917E+03  0.10566000000E+00 0.  1.
          4    1    3    3  501    0  0.40836447770E+03 -0.37574366771E+02 -0.65220963889E+02  0.41524348738E+03  0.00000000000E+00 0.  1.
         13    1    1    2    0    0  0.17005601979E+03  0.17116137538E+03 -0.58087852662E+02  0.24817227097E+03  0.10566000000E+00 0. -1.
<mgrwt>
<rscale>  1 0.71235319E+03</rscale>
<asrwt>0</asrwt>
<pdfrwt beam="1">  1       21 0.98922811E-01 0.10219297E+04</pdfrwt>
<pdfrwt beam="2">  1        4 0.96861669E-01 0.10219297E+04</pdfrwt>
<totfact> 0.28139732E+01</totfact>
</mgrwt>
</event>
<event>
 6    1  0.1431486E-005  0.1080943E+04  0.7818608E-02  0.9497713E-01
         21   -1    0    0  501  502  0.00000000000E+00  0.00000000000E+00  0.14998171052E+04  0.14998171052E+04  0.00000000000E+00 0.  1.
          4   -1    0    0  502    0 -0.00000000000E+00 -0.00000000000E+00 -0.46139261094E+03  0.46139261094E+03  0.00000000000E+00 0.  1.
    9000010    2    1    2  501    0 -0.25518940870E+03  0.31159712883E+03  0.11130976569E+04  0.15515873322E+04  0.10031064005E+04 0.  0.
        -13    1    3    3    0    0  0.23176374910E+03  0.38868544488E+03  0.16265267224E+03  0.48088118430E+03  0.10566000000E+00 0.  1.
          4    1    3    3  501    0 -0.48695315780E+03 -0.77088316051E+02  0.95044498465E+03  0.10707061479E+04  0.00000000000E+00 0.  1.
         13    1    1    2    0    0  0.25518940870E+03 -0.31159712883E+03 -0.74673162643E+02  0.40962238390E+03  0.10566000000E+00 0. -1.
<mgrwt>
<rscale>  1 0.84452624E+03</rscale>
<asrwt>0</asrwt>
<pdfrwt beam="1">  1       21 0.23074109E+00 0.10809426E+04</pdfrwt>
<pdfrwt beam="2">  1        4 0.70983479E-01 0.10809426E+04</pdfrwt>
<totfact> 0.51247456E+00</totfact>
</mgrwt>
</event>
<event>
 6    1  0.1431486E-005  0.9275483E+03  0.7818608E-02  0.9702844E-01
         21   -1    0    0  501  502  0.00000000000E+00  0.00000000000E+00  0.71812878408E+03  0.71812878408E+03  0.00000000000E+00 0.  1.
          4   -1    0    0  502    0 -0.00000000000E+00 -0.00000000000E+00 -0.81393698515E+03  0.81393698515E+03  0.00000000000E+00 0.  1.
    9000010    2    1    2  501    0 -0.19795832718E+03  0.24594266142E+03  0.34519649286E+03  0.98970017000E+03  0.87216427111E+03 0.  0.
        -13    1    3    3    0    0 -0.74470566224E+02 -0.26503355546E+03  0.37263491066E+03  0.46329843358E+03  0.10566000000E+00 0.  1.
          4    1    3    3  501    0 -0.12348776096E+03  0.51097621688E+03 -0.27438417801E+02  0.52640173641E+03  0.00000000000E+00 0.  1.
         13    1    1    2    0    0  0.19795832718E+03 -0.24594266142E+03 -0.44100469393E+03  0.54236559924E+03  0.10566000000E+00 0. -1.
<mgrwt>
<rscale>  1 0.70847713E+03</rscale>
<asrwt>0</asrwt>
<pdfrwt beam="1">  1       21 0.11048135E+00 0.92754828E+03</pdfrwt>
<pdfrwt beam="2">  1        4 0.12522107E+00 0.92754828E+03</pdfrwt>
<totfact> 0.11442467E+01</totfact>
</mgrwt>
</event>
<event>
 6    1  0.1431486E-005  0.1026707E+04  0.7818608E-02  0.9680454E-01
         21   -1    0    0  501  502  0.00000000000E+00  0.00000000000E+00  0.54367291607E+03  0.54367291607E+03  0.00000000000E+00 0.  1.
          4   -1    0    0  502    0 -0.00000000000E+00 -0.00000000000E+00 -0.83935984939E+03  0.83935984939E+03  0.00000000000E+00 0.  1.
    9000010    2    1    2  501    0 -0.20226712629E+03  0.14858163194E+03 -0.44079412936E+02  0.10276529022E+04  0.99555964212E+03 0.  0.
        -13    1    3    3    0    0  0.93949688076E+02  0.41035352562E+03  0.28908577897E+03  0.51067324058E+03  0.10566000000E+00 0.  1.
          4    1    3    3  501    0 -0.29621681437E+03 -0.26177189368E+03 -0.33316519190E+03  0.51697966162E+03  0.00000000000E+00 0.  1.
         13    1    1    2    0    0  0.20226712629E+03 -0.14858163194E+03 -0.25160752039E+03  0.35537986326E+03  0.10566000000E+00 0. -1.
<mgrwt>
<rscale>  1 0.72192584E+03</rscale>
<asrwt>0</asrwt>
<pdfrwt beam="1">  1       21 0.83641988E-01 0.10267071E+04</pdfrwt>
<pdfrwt beam="2">  1        4 0.12913228E+00 0.10267071E+04</pdfrwt>
<totfact> 0.20719304E+01</totfact>
</mgrwt>
</event>
<event>
 6    1  0.1431486E-005  0.9663422E+03  0.7818608E-02  0.9859505E-01
         21   -1    0    0  501  502  0.00000000000E+00  0.00000000000E+00  0.14021827439E+04  0.14021827439E+04  0.00000000000E+00 0.  1.
          4   -1    0    0  502    0 -0.00000000000E+00 -0.00000000000E+00 -0.26172555216E+03  0.26172555216E+03  0.00000000000E+00 0.  1.
    9000010    2    1    2  501    0  0.11648029270E+03 -0.11905827014E+03  0.11437374023E+04  0.14973150753E+04  0.95187954016E+03 0.  0.
        -13    1    3    3    0    0 -0.28077170246E+03 -0.24930408868E+02  0.10380011604E+04  0.10755931826E+04  0.10566000000E+00 0.  1.
          4    1    3    3  501    0  0.39725199516E+03 -0.94127861271E+02  0.10573624182E+03  0.42172189267E+03  0.00000000000E+00 0.  1.
         13    1    1    2    0    0 -0.11648029270E+03  0.11905827014E+03 -0.32802105097E+01  0.16659322081E+03  0.10566000000E+00 0. -1.
<mgrwt>
<rscale>  1 0.62264640E+03</rscale>
<asrwt>0</asrwt>
<pdfrwt beam="1">  1       21 0.21572042E+00 0.96634217E+03</pdfrwt>
<pdfrwt beam="2">  1        4 0.40265470E-01 0.96634217E+03</pdfrwt>
<totfact> 0.21972411E+01</totfact>
</mgrwt>
</event>
<event>
 6    1  0.1431486E-005  0.8669654E+03  0.7818608E-02  0.9887695E-01
          4   -1    0    0  502    0 -0.00000000000E+00  0.00000000000E+00  0.18392097767E+04  0.18392097767E+04  0.00000000000E+00 0.  1.
         21   -1    0    0  501  502  0.00000000000E+00 -0.00000000000E+00 -0.15891061243E+03  0.15891061243E+03  0.00000000000E+00 0.  1.
    9000010    2    1    2  501    0  0.20084899389E+03  0.63183497241E+02  0.12826296977E+04  0.15481498474E+04  0.84100923641E+03 0.  0.
        -13    1    3    3    0    0 -0.17796182173E+02  0.34229000566E+03  0.10942229179E+04  0.11466485762E+04  0.10566000000E+00 0.  1.
          4    1    3    3  501    0  0.21864517606E+03 -0.27910650842E+03  0.18840677983E+03  0.40150127116E+03  0.00000000000E+00 0.  1.
         13    1    1    2    0    0 -0.20084899389E+03 -0.63183497241E+02  0.39766946652E+03  0.44997054174E+03  0.10566000000E+00 0. -1.
<mgrwt>
<rscale>  1 0.60861350E+03</rscale>
<asrwt>0</asrwt>
<pdfrwt beam="2">  1       21 0.24447788E-01 0.86696540E+03</pdfrwt>
<pdfrwt beam="1">  1        4 0.28295534E+00 0.86696540E+03</pdfrwt>
<totfact> 0.26427843E+01</totfact>
</mgrwt>
</event>
<event>
 6    1  0.1431486E-005  0.1017146E+04  0.7818608E-02  0.9852072E-01
         21   -1    0    0  501  502  0.00000000000E+00  0.00000000000E+00  0.42366856460E+03  0.42366856460E+03  0.00000000000E+00 0.  1.
          4   -1    0    0  502    0 -0.00000000000E+00 -0.00000000000E+00 -0.82918415006E+03  0.82918415006E+03  0.00000000000E+00 0.  1.
    9000010    2    1    2  501    0  0.13624345944E+03 -0.53353298863E+02 -0.26754506334E+03  0.10517439608E+04  0.10065665122E+04 0.  0.
        -13    1    3    3    0    0 -0.38893797439E+03 -0.19029614837E+03 -0.26757729407E+03  0.50900195626E+03  0.10566000000E+00 0.  1.
          4    1    3    3  501    0  0.52518143383E+03  0.13694284950E+03  0.32230730360E-01  0.54274200455E+03  0.00000000000E+00 0.  1.
         13    1    1    2    0    0 -0.13624345944E+03  0.53353298863E+02 -0.13797052212E+03  0.20110875385E+03  0.10566000000E+00 0. -1.
<mgrwt>
<rscale>  1 0.62641410E+03</rscale>
<asrwt>0</asrwt>
<pdfrwt beam="1">  1       21 0.65179779E-01 0.10171455E+04</pdfrwt>
<pdfrwt beam="2">  1        4 0.12756679E+00 0.10171455E+04</pdfrwt>
<totfact> 0.38131438E+01</totfact>
</mgrwt>
</event>
<event>
 6    1  0.1431486E-005  0.1016604E+04  0.7818608E-02  0.9788084E-01
         21   -1    0    0  501  502  0.00000000000E+00  0.00000000000E+00  0.11009735038E+04  0.11009735038E+04  0.00000000000E+00 0.  1.
          4   -1    0    0  502    0 -0.00000000000E+00 -0.00000000000E+00 -0.46965220197E+03  0.46965220197E+03  0.00000000000E+00 0.  1.
    9000010    2    1    2  501    0 -0.12173522829E+03  0.13349535699E+03  0.82244144106E+03  0.13076287572E+04  0.10004211946E+04 0.  0.
        -13    1    3    3    0    0  0.35931316340E+03  0.21345337027E+03  0.89698216487E+02  0.42745066601E+03  0.10566000000E+00 0.  1.
          4    1    3    3  501    0 -0.48104839169E+03 -0.79958013286E+02  0.73274322458E+03  0.88017809118E+03  0.00000000000E+00 0.  1.
         13    1    1    2    0    0  0.12173522829E+03 -0.13349535699E+03 -0.19112013926E+03  0.26299694854E+03  0.10566000000E+00 0. -1.
<mgrwt>
<rscale>  1 0.66005988E+03</rscale>
<asrwt>0</asrwt>
<pdfrwt beam="1">  1       21 0.16938054E+00 0.10166037E+04</pdfrwt>
<pdfrwt beam="2">  1        4 0.72254185E-01 0.10166037E+04</pdfrwt>
<totfact> 0.13218131E+01</totfact>
</mgrwt>
</event>
<event>
 6    1  0.1431486E-005  0.1025314E+04  0.7818608E-02  0.9633350E-01
          4   -1    0    0  502    0 -0.00000000000E+00  0.00000000000E+00  0.24481877892E+03  0.24481877892E+03  0.00000000000E+00 0.  1.
         21   -1    0    0  501  502  0.00000000000E+00 -0.00000000000E+00 -0.18594186118E+04  0.18594186118E+04  0.00000000000E+00 0.  1.
    9000010    2    1    2  501    0  0.14791007181E+03 -0.25587378977E+03 -0.14157056105E+04  0.17479963087E+04  0.98179424220E+03 0.  0.
        -13    1    3    3    0    0 -0.15143776111E+03 -0.10170552432E+03  0.91187057872E+02  0.20394239347E+03  0.10566000000E+00 0.  1.
          4    1    3    3  501    0  0.29934783293E+03 -0.15416826546E+03 -0.15068926684E+04  0.15440539153E+04  0.00000000000E+00 0.  1.
         13    1    1    2    0    0 -0.14791007181E+03  0.25587378977E+03 -0.19889422231E+03  0.35624108195E+03  0.10566000000E+00 0. -1.
<mgrwt>
<rscale>  1 0.75127644E+03</rscale>
<asrwt>0</asrwt>
<pdfrwt beam="2">  1       21 0.28606439E+00 0.10253140E+04</pdfrwt>
<pdfrwt beam="1">  1        4 0.37664429E-01 0.10253140E+04</pdfrwt>
<totfact> 0.88770934E+00</totfact>
</mgrwt>
</event>
<event>
 6    1  0.1431486E-005  0.1014417E+04  0.7818608E-02  0.9758146E-01
         21   -1    0    0  501  502  0.00000000000E+00  0.00000000000E+00  0.94090585823E+03  0.94090585823E+03  0.00000000000E+00 0.  1.
          4   -1    0    0  502    0 -0.00000000000E+00 -0.00000000000E+00 -0.39746052112E+03  0.39746052112E+03  0.00000000000E+00 0.  1.
    9000010    2    1    2  501    0 -0.74284966497E+02 -0.18648416970E+03  0.50807028962E+03  0.11345380031E+04  0.99435730982E+03 0.  0.
        -13    1    3    3    0    0 -0.24795734349E+03 -0.97643062152E+02 -0.24172046403E+03  0.35978577747E+03  0.10566000000E+00 0.  1.
          4    1    3    3  501    0  0.17367237699E+03 -0.88841107551E+02  0.74979075365E+03  0.77475222567E+03  0.00000000000E+00 0.  1.
         13    1    1    2    0    0  0.74284966497E+02  0.18648416970E+03  0.35375047488E+02  0.20382837620E+03  0.10566000000E+00 0. -1.
<mgrwt>
<rscale>  1 0.67657841E+03</rscale>
<asrwt>0</asrwt>
<pdfrwt beam="1">  1       21 0.14475475E+00 0.10144166E+04</pdfrwt>
<pdfrwt beam="2">  1        4 0.61147773E-01 0.10144166E+04</pdfrwt>
<totfact> 0.29899551E+01</totfact>
</mgrwt>
</event>
<event>
 6    1  0.1431486E-005  0.9894460E+03  0.7818608E-02  0.9944830E-01
          4   -1    0    0  502    0 -0.00000000000E+00  0.00000000000E+00  0.74913727348E+03  0.74913727348E+03  0.00000000000E+00 0.  1.
         21   -1    0    0  501  502  0.00000000000E+00 -0.00000000000E+00 -0.47124772276E+03  0.47124772276E+03  0.00000000000E+00 0. -1.
    9000010    2    1    2  501    0 -0.42863780876E+02 -0.10986681454E+03  0.38438249169E+03  0.10614863547E+04  0.98239267130E+03 0.  0.
        -13    1    3    3    0    0 -0.81244204627E+02  0.42260664896E+03  0.54124968801E+02  0.43373554609E+03  0.10566000000E+00 0.  1.
          4    1    3    3  501    0  0.38380423751E+02 -0.53247346351E+03  0.33025752289E+03  0.62775080859E+03  0.00000000000E+00 0.  1.
         13    1    1    2    0    0  0.42863780876E+02  0.10986681454E+03 -0.10649294096E+03  0.15889864155E+03  0.10566000000E+00 0. -1.
<mgrwt>
<rscale>  1 0.58136962E+03</rscale>
<asrwt>0</asrwt>
<pdfrwt beam="2">  1       21 0.72499650E-01 0.98944600E+03</pdfrwt>
<pdfrwt beam="1">  1        4 0.11525189E+00 0.98944600E+03</pdfrwt>
<totfact> 0.38724358E+01</totfact>
</mgrwt>
</event>
<event>
 6    1  0.1431486E-005  0.1027959E+04  0.7818608E-02  0.1009434E+00
         21   -1    0    0  501  502  0.00000000000E+00  0.00000000000E+00  0.18495084697E+04  0.18495084697E+04  0.00000000000E+00 0.  1.
          4   -1    0    0  502    0 -0.00000000000E+00 -0.00000000000E+00 -0.18619773252E+03  0.18619773252E+03  0.00000000000E+00 0.  1.
    9000010    2    1    2  501    0 -0.60068259612E+02  0.26791910128E+02  0.16784434983E+04  0.19682153593E+04  0.10258523876E+04 0.  0.
        -13    1    3    3    0    0 -0.26465734790E+03 -0.41202068666E+03  0.11585418372E+04  0.12577852590E+04  0.10566000000E+00 0.  1.
          4    1    3    3  501    0  0.20458908829E+03  0.43881259679E+03  0.51990166114E+03  0.71043010030E+03  0.00000000000E+00 0.  1.
         13    1    1    2    0    0  0.60068259612E+02 -0.26791910128E+02 -0.15132761120E+02  0.67490842966E+02  0.10566000000E+00 0. -1.
<mgrwt>
<rscale>  1 0.51700261E+03</rscale>
<asrwt>0</asrwt>
<pdfrwt beam="1">  1       21 0.28453975E+00 0.10279587E+04</pdfrwt>
<pdfrwt beam="2">  1        4 0.28645806E-01 0.10279587E+04</pdfrwt>
<totfact> 0.15606051E+01</totfact>
</mgrwt>
</event>
<event>
 6    1  0.1431486E-005  0.1034455E+04  0.7818608E-02  0.9602218E-01
          4   -1    0    0  502    0 -0.00000000000E+00  0.00000000000E+00  0.15416346795E+04  0.15416346795E+04  0.00000000000E+00 0.  1.
         21   -1    0    0  501  502  0.00000000000E+00 -0.00000000000E+00 -0.41973884011E+03  0.41973884011E+03  0.00000000000E+00 0.  1.
    9000010    2    1    2  501    0  0.17321683973E+02 -0.31956679646E+03  0.29650557136E+03  0.10761096698E+04  0.98370396429E+03 0.  0.
        -13    1    3    3    0    0 -0.18032691510E+03 -0.79641049832E+02 -0.32562193240E+03  0.38064438411E+03  0.10566000000E+00 0.  1.
          4    1    3    3  501    0  0.19764859907E+03 -0.23992574663E+03  0.62212750376E+03  0.69546528565E+03  0.00000000000E+00 0.  1.
         13    1    1    2    0    0 -0.17321683973E+02  0.31956679646E+03  0.82539026804E+03  0.88526384986E+03  0.10566000000E+00 0. -1.
<mgrwt>
<rscale>  1 0.77149529E+03</rscale>
<asrwt>0</asrwt>
<pdfrwt beam="2">  1       21 0.64575207E-01 0.10344547E+04</pdfrwt>
<pdfrwt beam="1">  1        4 0.23717456E+00 0.10344547E+04</pdfrwt>
<totfact> 0.64671587E+00</totfact>
</mgrwt>
</event>
<event>
 6    1  0.1431486E-005  0.1006097E+04  0.7818608E-02  0.9824373E-01
          4   -1    0    0  502    0 -0.00000000000E+00  0.00000000000E+00  0.62886244246E+03  0.62886244246E+03  0.00000000000E+00 0.  1.
         21   -1    0    0  501  502  0.00000000000E+00 -0.00000000000E+00 -0.55862774221E+03  0.55862774221E+03  0.00000000000E+00 0.  1.
    9000010    2    1    2  501    0 -0.15384527466E+03 -0.60927219722E+02 -0.40611503406E+01  0.10061055678E+04  0.99239680878E+03 0.  0.
        -13    1    3    3    0    0 -0.26654504612E+03  0.14032562964E+03 -0.42806140883E+03  0.52342537657E+03  0.10566000000E+00 0.  1.
          4    1    3    3  501    0  0.11269977145E+03 -0.20125284936E+03  0.42400025848E+03  0.48268019128E+03  0.00000000000E+00 0.  1.
         13    1    1    2    0    0  0.15384527466E+03  0.60927219722E+02  0.74295850598E+02  0.18138461682E+03  0.10566000000E+00 0. -1.
<mgrwt>
<rscale>  1 0.64070807E+03</rscale>
<asrwt>0</asrwt>
<pdfrwt beam="2">  1       21 0.85942729E-01 0.10060974E+04</pdfrwt>
<pdfrwt beam="1">  1        4 0.96748068E-01 0.10060974E+04</pdfrwt>
<totfact> 0.39765496E+01</totfact>
</mgrwt>
</event>
<event>
 6    1  0.1431486E-005  0.1026593E+04  0.7818608E-02  0.9739598E-01
          4   -1    0    0  502    0 -0.00000000000E+00  0.00000000000E+00  0.71014924489E+03  0.71014924489E+03  0.00000000000E+00 0.  1.
         21   -1    0    0  501  502  0.00000000000E+00 -0.00000000000E+00 -0.53737188420E+03  0.53737188420E+03  0.00000000000E+00 0.  1.
    9000010    2    1    2  501    0 -0.12768750183E+03 -0.16162291202E+03  0.17572305279E+03  0.10415241581E+04  0.10057176128E+04 0.  0.
        -13    1    3    3    0    0 -0.22410972302E+03  0.20057477884E+03  0.47478036315E+03  0.56202474524E+03  0.10566000000E+00 0.  1.
          4    1    3    3  501    0  0.96422221191E+02 -0.36219769086E+03 -0.29905731036E+03  0.47949941281E+03  0.00000000000E+00 0.  1.
         13    1    1    2    0    0  0.12768750183E+03  0.16162291202E+03 -0.29456920971E+01  0.20599697104E+03  0.10566000000E+00 0. -1.
<mgrwt>
<rscale>  1 0.68707320E+03</rscale>
<asrwt>0</asrwt>
<pdfrwt beam="2">  1       21 0.82672598E-01 0.10265934E+04</pdfrwt>
<pdfrwt beam="1">  1        4 0.10925373E+00 0.10265934E+04</pdfrwt>
<totfact> 0.32405725E+01</totfact>
</mgrwt>
</event>
<event>
 6    1  0.1431486E-005  0.1039379E+04  0.7818608E-02  0.9647533E-01
         21   -1    0    0  501  502  0.00000000000E+00  0.00000000000E+00  0.70836814265E+03  0.70836814265E+03  0.00000000000E+00 0.  1.
          4   -1    0    0  502    0 -0.00000000000E+00 -0.00000000000E+00 -0.60816990431E+03  0.60816990431E+03  0.00000000000E+00 0.  1.
    9000010    2    1    2  501    0 -0.25312819619E+03  0.95007066918E+02  0.11524904180E+03  0.10457488959E+04  0.10035976212E+04 0.  0.
        -13    1    3    3    0    0  0.10534081857E+03 -0.10310407228E+03  0.47702438914E+03  0.49927889678E+03  0.10566000000E+00 0.  1.
          4    1    3    3  501    0 -0.35846901477E+03  0.19811113920E+03 -0.36177534733E+03  0.54646999914E+03  0.00000000000E+00 0.  1.
         13    1    1    2    0    0  0.25312819619E+03 -0.95007066918E+02 -0.15050803464E+02  0.27078915104E+03  0.10566000000E+00 0. -1.
<mgrwt>
<rscale>  1 0.74228427E+03</rscale>
<asrwt>0</asrwt>
<pdfrwt beam="1">  1       21 0.10897971E+00 0.10393789E+04</pdfrwt>
<pdfrwt beam="2">  1        4 0.93564601E-01 0.10393789E+04</pdfrwt>
<totfact> 0.23936207E+01</totfact>
</mgrwt>
</event>
<event>
 6    1  0.1431486E-005  0.1106933E+04  0.7818608E-02  0.9433107E-01
          4   -1    0    0  502    0 -0.00000000000E+00  0.00000000000E+00  0.14693789486E+04  0.14693789486E+04  0.00000000000E+00 0.  1.
         21   -1    0    0  501  502  0.00000000000E+00 -0.00000000000E+00 -0.42404330668E+03  0.42404330668E+03  0.00000000000E+00 0. -1.
    9000010    2    1    2  501    0 -0.32753048027E+03 -0.33843577872E+03  0.76074887908E+03  0.13431453899E+04  0.10017413287E+04 0.  0.
        -13    1    3    3    0    0  0.34074969193E+03 -0.21141265830E+03  0.14747406987E+03  0.42726370907E+03  0.10566000000E+00 0.  1.
          4    1    3    3  501    0 -0.66828017221E+03 -0.12702312042E+03  0.61327480921E+03  0.91588168084E+03  0.00000000000E+00 0.  1.
         13    1    1    2    0    0  0.32753048027E+03  0.33843577872E+03  0.28458676286E+03  0.55027686539E+03  0.10566000000E+00 0. -1.
<mgrwt>
<rscale>  1 0.89400495E+03</rscale>
<asrwt>0</asrwt>
<pdfrwt beam="2">  1       21 0.65237432E-01 0.11069330E+04</pdfrwt>
<pdfrwt beam="1">  1        4 0.22605830E+00 0.11069330E+04</pdfrwt>
<totfact> 0.73618162E+00</totfact>
</mgrwt>
</event>
<event>
 6    1  0.1431486E-005  0.1066020E+04  0.7818608E-02  0.9561139E-01
          4   -1    0    0  502    0 -0.00000000000E+00  0.00000000000E+00  0.16072578607E+04  0.16072578607E+04  0.00000000000E+00 0.  1.
         21   -1    0    0  501  502  0.00000000000E+00 -0.00000000000E+00 -0.33757140112E+03  0.33757140112E+03  0.00000000000E+00 0.  1.
    9000010    2    1    2  501    0  0.29944073972E+03 -0.15418875945E+03  0.11920659977E+04  0.15991937928E+04  0.10114151046E+04 0.  0.
        -13    1    3    3    0    0  0.25874344778E+03  0.41706852616E+03  0.60497732947E+03  0.77903267430E+03  0.10566000000E+00 0.  1.
          4    1    3    3  501    0  0.40697291936E+02 -0.57125728561E+03  0.58708866827E+03  0.82016111853E+03  0.00000000000E+00 0.  1.
         13    1    1    2    0    0 -0.29944073972E+03  0.15418875945E+03  0.77620461801E+02  0.34563546895E+03  0.10566000000E+00 0. -1.
<mgrwt>
<rscale>  1 0.79922573E+03</rscale>
<asrwt>0</asrwt>
<pdfrwt beam="2">  1       21 0.51934062E-01 0.10660204E+04</pdfrwt>
<pdfrwt beam="1">  1        4 0.24727044E+00 0.10660204E+04</pdfrwt>
<totfact> 0.90360932E+00</totfact>
</mgrwt>
</event>
<event>
 6    1  0.1431486E-005  0.1064746E+04  0.7818608E-02  0.9583747E-01
          4   -1    0    0  502    0 -0.00000000000E+00  0.00000000000E+00  0.37669577489E+03  0.37669577489E+03  0.00000000000E+00 0.  1.
         21   -1    0    0  501  502  0.00000000000E+00 -0.00000000000E+00 -0.17338022862E+04  0.17338022862E+04  0.00000000000E+00 0.  1.
    9000010    2    1    2  501    0  0.31007700588E+03  0.40325463733E+02 -0.14363204439E+04  0.17879321750E+04  0.10177972058E+04 0.  0.
        -13    1    3    3    0    0 -0.21003533943E+03 -0.13287016301E+03  0.21521226619E+01  0.24854369198E+03  0.10566000000E+00 0.  1.
          4    1    3    3  501    0  0.52011234531E+03  0.17319562674E+03 -0.14384725666E+04  0.15393884830E+04  0.00000000000E+00 0.  1.
         13    1    1    2    0    0 -0.31007700588E+03 -0.40325463733E+02  0.79213932591E+02  0.32256588611E+03  0.10566000000E+00 0. -1.
<mgrwt>
<rscale>  1 0.78381312E+03</rscale>
<asrwt>0</asrwt>
<pdfrwt beam="2">  1       21 0.26673882E+00 0.10647465E+04</pdfrwt>
<pdfrwt beam="1">  1        4 0.57953196E-01 0.10647465E+04</pdfrwt>
<totfact> 0.47330729E+00</totfact>
</mgrwt>
</event>
<event>
 6    1  0.1431486E-005  0.1040779E+04  0.7818608E-02  0.9624026E-01
          4   -1    0    0  502    0 -0.00000000000E+00  0.00000000000E+00  0.12066049060E+04  0.12066049060E+04  0.00000000000E+00 0.  1.
         21   -1    0    0  501  502  0.00000000000E+00 -0.00000000000E+00 -0.63005634557E+03  0.63005634557E+03  0.00000000000E+00 0.  1.
    9000010    2    1    2  501    0 -0.19147019829E+03 -0.22003898724E+03 -0.15206838767E+03  0.10518296384E+04  0.99907096897E+03 0.  0.
        -13    1    3    3    0    0  0.92347206790E+02 -0.42735044291E+03  0.26121606779E+03  0.50930369417E+03  0.10566000000E+00 0.  1.
          4    1    3    3  501    0 -0.28381740508E+03  0.20731145567E+03 -0.41328445547E+03  0.54252594427E+03  0.00000000000E+00 0.  1.
         13    1    1    2    0    0  0.19147019829E+03  0.22003898724E+03  0.72861694810E+03  0.78483161313E+03  0.10566000000E+00 0. -1.
<mgrwt>
<rscale>  1 0.75726177E+03</rscale>
<asrwt>0</asrwt>
<pdfrwt beam="2">  1       21 0.96931745E-01 0.10407789E+04</pdfrwt>
<pdfrwt beam="1">  1        4 0.18563152E+00 0.10407789E+04</pdfrwt>
<totfact> 0.53783515E+00</totfact>
</mgrwt>
</event>
<event>
 6    1  0.1431486E-005  0.1007553E+04  0.7818608E-02  0.9898755E-01
          4   -1    0    0  502    0 -0.00000000000E+00  0.00000000000E+00  0.45103701070E+03  0.45103701070E+03  0.00000000000E+00 0.  1.
         21   -1    0    0  501  502  0.00000000000E+00 -0.00000000000E+00 -0.11835176414E+04  0.11835176414E+04  0.00000000000E+00 0.  1.
    9000010    2    1    2  501    0 -0.11674892940E+02  0.12891881188E+03 -0.94782048842E+03  0.13833025303E+04  0.99920260658E+03 0.  0.
        -13    1    3    3    0    0  0.21704465644E+02  0.53248098287E+03 -0.27923174415E+03  0.60164562581E+03  0.10566000000E+00 0.  1.
          4    1    3    3  501    0 -0.33379358583E+02 -0.40356217100E+03 -0.66858874427E+03  0.78165690453E+03  0.00000000000E+00 0.  1.
         13    1    1    2    0    0  0.11674892940E+02 -0.12891881188E+03  0.21533985774E+03  0.25125212174E+03  0.10566000000E+00 0. -1.
<mgrwt>
<rscale>  1 0.60321662E+03</rscale>
<asrwt>0</asrwt>
<pdfrwt beam="2">  1       21 0.18207964E+00 0.10075526E+04</pdfrwt>
<pdfrwt beam="1">  1        4 0.69390310E-01 0.10075526E+04</pdfrwt>
<totfact> 0.11686665E+01</totfact>
</mgrwt>
</event>
<event>
 6    1  0.1431486E-005  0.9950172E+03  0.7818608E-02  0.1003137E+00
         21   -1    0    0  501  502  0.00000000000E+00  0.00000000000E+00  0.35030516926E+03  0.35030516926E+03  0.00000000000E+00 0.  1.
          4   -1    0    0  502    0 -0.00000000000E+00 -0.00000000000E+00 -0.86708172827E+03  0.86708172827E+03  0.00000000000E+00 0.  1.
    9000010    2    1    2  501    0  0.64700694840E+02  0.59973777992E+02 -0.40328137482E+03  0.10736364125E+04  0.99109850414E+03 0.  0.
        -13    1    3    3    0    0 -0.29739249918E+03  0.39658161492E+03 -0.25528662945E+03  0.55757560044E+03  0.10566000000E+00 0.  1.
          4    1    3    3  501    0  0.36209319402E+03 -0.33660783693E+03 -0.14799474537E+03  0.51606081202E+03  0.00000000000E+00 0.  1.
         13    1    1    2    0    0 -0.64700694840E+02 -0.59973777992E+02 -0.11349518419E+03  0.14375048507E+03  0.10566000000E+00 0. -1.
<mgrwt>
<rscale>  1 0.54295851E+03</rscale>
<asrwt>0</asrwt>
<pdfrwt beam="1">  1       21 0.53893103E-01 0.99501723E+03</pdfrwt>
<pdfrwt beam="2">  1        4 0.13339719E+00 0.99501723E+03</pdfrwt>
<totfact> 0.51985790E+01</totfact>
</mgrwt>
</event>
<event>
 6    1  0.1431486E-005  0.1048599E+04  0.7818608E-02  0.9517434E-01
         21   -1    0    0  501  502  0.00000000000E+00  0.00000000000E+00  0.60577387775E+03  0.60577387775E+03  0.00000000000E+00 0.  1.
          4   -1    0    0  502    0 -0.00000000000E+00 -0.00000000000E+00 -0.10689961648E+04  0.10689961648E+04  0.00000000000E+00 0.  1.
    9000010    2    1    2  501    0 -0.41014501321E+03  0.37088525146E+02  0.84273481817E+01  0.10486327731E+04  0.96434702372E+03 0.  0.
        -13    1    3    3    0    0  0.48699149556E+02  0.33722140360E+03 -0.26904211315E+03  0.43413540748E+03  0.10566000000E+00 0.  1.
          4    1    3    3  501    0 -0.45884416277E+03 -0.30013287846E+03  0.27746946133E+03  0.61449736567E+03  0.00000000000E+00 0.  1.
         13    1    1    2    0    0  0.41014501321E+03 -0.37088525146E+02 -0.47164963527E+03  0.62613726943E+03  0.10566000000E+00 0. -1.
<mgrwt>
<rscale>  1 0.83010594E+03</rscale>
<asrwt>0</asrwt>
<pdfrwt beam="1">  1       21 0.93195982E-01 0.10485989E+04</pdfrwt>
<pdfrwt beam="2">  1        4 0.16446095E+00 0.10485989E+04</pdfrwt>
<totfact> 0.83607298E+00</totfact>
</mgrwt>
</event>
<event>
 6    1  0.1431486E-005  0.1163323E+04  0.7818608E-02  0.9327418E-01
          4   -1    0    0  502    0 -0.00000000000E+00  0.00000000000E+00  0.14399917038E+04  0.14399917038E+04  0.00000000000E+00 0.  1.
         21   -1    0    0  501  502  0.00000000000E+00 -0.00000000000E+00 -0.71121996833E+03  0.71121996833E+03  0.00000000000E+00 0.  1.
    9000010    2    1    2  501    0 -0.40532944174E+02 -0.59163120189E+03 -0.59428211130E+02  0.11648397516E+04  0.10008244282E+04 0.  0.
        -13    1    3    3    0    0 -0.38935737472E+03 -0.18227382003E+03  0.29441214815E+03  0.52105799567E+03  0.10566000000E+00 0.  1.
          4    1    3    3  501    0  0.34882443054E+03 -0.40935738186E+03 -0.35384035928E+03  0.64378175594E+03  0.00000000000E+00 0.  1.
         13    1    1    2    0    0  0.40532944174E+02  0.59163120189E+03  0.78819994664E+03  0.98637192056E+03  0.10566000000E+00 0. -1.
<mgrwt>
<rscale>  1 0.98297429E+03</rscale>
<asrwt>0</asrwt>
<pdfrwt beam="2">  1       21 0.10941846E+00 0.11633228E+04</pdfrwt>
<pdfrwt beam="1">  1        4 0.22153718E+00 0.11633228E+04</pdfrwt>
<totfact> 0.22657183E+00</totfact>
</mgrwt>
</event>
<event>
 6    1  0.1431486E-005  0.1000923E+04  0.7818608E-02  0.9633053E-01
         21   -1    0    0  501  502  0.00000000000E+00  0.00000000000E+00  0.44339431734E+03  0.44339431734E+03  0.00000000000E+00 0. -1.
          4   -1    0    0  502    0 -0.00000000000E+00 -0.00000000000E+00 -0.14344003921E+04  0.14344003921E+04  0.00000000000E+00 0.  1.
    9000010    2    1    2  501    0  0.15724012268E+03  0.27641221533E+03 -0.19381321077E+03  0.10195146604E+04  0.94906185953E+03 0.  0.
        -13    1    3    3    0    0 -0.36770857022E+03  0.10365133809E+03  0.98208628124E+02  0.39445929867E+03  0.10566000000E+00 0.  1.
          4    1    3    3  501    0  0.52494869290E+03  0.17276087724E+03 -0.29202183890E+03  0.62505536177E+03  0.00000000000E+00 0.  1.
         13    1    1    2    0    0 -0.15724012268E+03 -0.27641221533E+03 -0.79719286398E+03  0.85828004900E+03  0.10566000000E+00 0. -1.
<mgrwt>
<rscale>  1 0.75146625E+03</rscale>
<asrwt>0</asrwt>
<pdfrwt beam="1">  1       21 0.68214510E-01 0.10009229E+04</pdfrwt>
<pdfrwt beam="2">  1        4 0.22067698E+00 0.10009229E+04</pdfrwt>
<totfact> 0.72873177E+00</totfact>
</mgrwt>
</event>
<event>
 6    1  0.1431486E-005  0.1013991E+04  0.7818608E-02  0.9624002E-01
          4   -1    0    0  502    0 -0.00000000000E+00  0.00000000000E+00  0.74549974248E+03  0.74549974248E+03  0.00000000000E+00 0.  1.
         21   -1    0    0  501  502  0.00000000000E+00 -0.00000000000E+00 -0.59360239552E+03  0.59360239552E+03  0.00000000000E+00 0.  1.
    9000010    2    1    2  501    0  0.11701947744E+03  0.29293202869E+03  0.93396281558E+02  0.10182826914E+04  0.96367735398E+03 0.  0.
        -13    1    3    3    0    0 -0.39010261541E+03  0.31032325318E+03 -0.17902300745E+02  0.49879963468E+03  0.10566000000E+00 0.  1.
          4    1    3    3  501    0  0.50712209286E+03 -0.17391224497E+02  0.11129858230E+03  0.51948305668E+03  0.00000000000E+00 0.  1.
         13    1    1    2    0    0 -0.11701947744E+03 -0.29293202869E+03  0.58501065406E+02  0.32081944665E+03  0.10566000000E+00 0. -1.
<mgrwt>
<rscale>  1 0.75727706E+03</rscale>
<asrwt>0</asrwt>
<pdfrwt beam="2">  1       21 0.91323445E-01 0.10139905E+04</pdfrwt>
<pdfrwt beam="1">  1        4 0.11469227E+00 0.10139905E+04</pdfrwt>
<totfact> 0.22669269E+01</totfact>
</mgrwt>
</event>
<event>
 6    1  0.1431486E-005  0.1029581E+04  0.7818608E-02  0.9834679E-01
         21   -1    0    0  501  502  0.00000000000E+00  0.00000000000E+00  0.78292835983E+03  0.78292835983E+03  0.00000000000E+00 0.  1.
          4   -1    0    0  502    0 -0.00000000000E+00 -0.00000000000E+00 -0.44528610258E+03  0.44528610258E+03  0.00000000000E+00 0.  1.
    9000010    2    1    2  501    0  0.64451918287E+02 -0.13466747247E+03  0.27054299048E+03  0.10645327570E+04  0.10186987303E+04 0.  0.
        -13    1    3    3    0    0 -0.32807638524E+03 -0.41119238203E+03  0.25387257975E+03  0.58409296135E+03  0.10566000000E+00 0.  1.
          4    1    3    3  501    0  0.39252830352E+03  0.27652490956E+03  0.16670410731E+02  0.48043979568E+03  0.00000000000E+00 0.  1.
         13    1    1    2    0    0 -0.64451918287E+02  0.13466747247E+03  0.67099266771E+02  0.16368170538E+03  0.10566000000E+00 0. -1.
<mgrwt>
<rscale>  1 0.63534209E+03</rscale>
<asrwt>0</asrwt>
<pdfrwt beam="1">  1       21 0.12045052E+00 0.10295807E+04</pdfrwt>
<pdfrwt beam="2">  1        4 0.68505554E-01 0.10295807E+04</pdfrwt>
<totfact> 0.37983751E+01</totfact>
</mgrwt>
</event>
<event>
 6    1  0.1431486E-005  0.1022746E+04  0.7818608E-02  0.9761618E-01
          4   -1    0    0  502    0 -0.00000000000E+00  0.00000000000E+00  0.91745585994E+03  0.91745585994E+03  0.00000000000E+00 0.  1.
         21   -1    0    0  501  502  0.00000000000E+00 -0.00000000000E+00 -0.53959793613E+03  0.53959793613E+03  0.00000000000E+00 0.  1.
    9000010    2    1    2  501    0  0.67171785714E+02 -0.18160734026E+03 -0.10832655534E+02  0.10228031168E+04  0.10042487712E+04 0.  0.
        -13    1    3    3    0    0 -0.12671790656E+03  0.49124116026E+02  0.45116724303E+03  0.47119263467E+03  0.10566000000E+00 0.  1.
          4    1    3    3  501    0  0.19388969228E+03 -0.23073145629E+03 -0.46199989857E+03  0.55161048211E+03  0.00000000000E+00 0.  1.
         13    1    1    2    0    0 -0.67171785714E+02  0.18160734026E+03  0.38869057934E+03  0.43425067929E+03  0.10566000000E+00 0. -1.
<mgrwt>
<rscale>  1 0.67463668E+03</rscale>
<asrwt>0</asrwt>
<pdfrwt beam="2">  1       21 0.83015067E-01 0.10227458E+04</pdfrwt>
<pdfrwt beam="1">  1        4 0.14114706E+00 0.10227458E+04</pdfrwt>
<totfact> 0.16746184E+01</totfact>
</mgrwt>
</event>
<event>
 6    1  0.1431486E-005  0.1014957E+04  0.7818608E-02  0.9860467E-01
         21   -1    0    0  501  502  0.00000000000E+00  0.00000000000E+00  0.55356098848E+03  0.55356098848E+03  0.00000000000E+00 0.  1.
          4   -1    0    0  502    0 -0.00000000000E+00 -0.00000000000E+00 -0.61598539021E+03  0.61598539021E+03  0.00000000000E+00 0.  1.
    9000010    2    1    2  501    0 -0.14322774246E+03  0.47658072874E+01 -0.10415534527E+03  0.10202869336E+04  0.10047886304E+04 0.  0.
        -13    1    3    3    0    0 -0.42699528404E+03 -0.29954759377E+03  0.13711179084E+03  0.53930824940E+03  0.10566000000E+00 0.  1.
          4    1    3    3  501    0  0.28376754158E+03  0.30431340105E+03 -0.24126713611E+03  0.48097868423E+03  0.00000000000E+00 0.  1.
         13    1    1    2    0    0  0.14322774246E+03 -0.47658072874E+01  0.41730943537E+02  0.14925944506E+03  0.10566000000E+00 0. -1.
<mgrwt>
<rscale>  1 0.62216070E+03</rscale>
<asrwt>0</asrwt>
<pdfrwt beam="1">  1       21 0.85163229E-01 0.10149567E+04</pdfrwt>
<pdfrwt beam="2">  1        4 0.94766983E-01 0.10149567E+04</pdfrwt>
<totfact> 0.42663765E+01</totfact>
</mgrwt>
</event>
<event>
 6    1  0.1431486E-005  0.1040709E+04  0.7818608E-02  0.9550790E-01
         21   -1    0    0  501  502  0.00000000000E+00  0.00000000000E+00  0.77521195916E+03  0.77521195916E+03  0.00000000000E+00 0. -1.
          4   -1    0    0  502    0 -0.00000000000E+00 -0.00000000000E+00 -0.65875608209E+03  0.65875608209E+03  0.00000000000E+00 0.  1.
    9000010    2    1    2  501    0  0.30530001767E+03 -0.21804739359E+03 -0.14400695078E+01  0.10407095613E+04  0.97073248149E+03 0.  0.
        -13    1    3    3    0    0  0.52946571052E+03 -0.39012037644E+03  0.20709322040E+03  0.68950377797E+03  0.10566000000E+00 0.  1.
          4    1    3    3  501    0 -0.22416569284E+03  0.17207298285E+03 -0.20853328991E+03  0.35120578338E+03  0.00000000000E+00 0.  1.
         13    1    1    2    0    0 -0.30530001767E+03  0.21804739359E+03  0.11789594658E+03  0.39325847992E+03  0.10566000000E+00 0. -1.
<mgrwt>
<rscale>  1 0.80640651E+03</rscale>
<asrwt>0</asrwt>
<pdfrwt beam="1">  1       21 0.11926338E+00 0.10407086E+04</pdfrwt>
<pdfrwt beam="2">  1        4 0.10134709E+00 0.10407086E+04</pdfrwt>
<totfact> 0.15695403E+01</totfact>
</mgrwt>
</event>
<event>
 6    1  0.1431486E-005  0.1001209E+04  0.7818608E-02  0.9870771E-01
          4   -1    0    0  502    0 -0.00000000000E+00  0.00000000000E+00  0.16323905628E+04  0.16323905628E+04  0.00000000000E+00 0.  1.
         21   -1    0    0  501  502  0.00000000000E+00 -0.00000000000E+00 -0.27557977795E+03  0.27557977795E+03  0.00000000000E+00 0.  1.
    9000010    2    1    2  501    0  0.12458564271E+03  0.72986624061E+02  0.66660318991E+03  0.12028213034E+04  0.99074247176E+03 0.  0.
        -13    1    3    3    0    0  0.32111081881E+03 -0.34673475094E+03  0.12271801515E+03  0.48825901720E+03  0.10566000000E+00 0.  1.
          4    1    3    3  501    0 -0.19652517610E+03  0.41972137500E+03  0.54388517477E+03  0.71456228616E+03  0.00000000000E+00 0.  1.
         13    1    1    2    0    0 -0.12458564271E+03 -0.72986624061E+02  0.69020759490E+03  0.70514903735E+03  0.10566000000E+00 0. -1.
<mgrwt>
<rscale>  1 0.61699017E+03</rscale>
<asrwt>0</asrwt>
<pdfrwt beam="2">  1       21 0.42396890E-01 0.10012089E+04</pdfrwt>
<pdfrwt beam="1">  1        4 0.25113700E+00 0.10012089E+04</pdfrwt>
<totfact> 0.13310048E+01</totfact>
</mgrwt>
</event>
<event>
 6    1  0.1431486E-005  0.1012887E+04  0.7818608E-02  0.9711772E-01
         21   -1    0    0  501  502  0.00000000000E+00  0.00000000000E+00  0.42018996975E+03  0.42018996975E+03  0.00000000000E+00 0.  1.
          4   -1    0    0  502    0 -0.00000000000E+00 -0.00000000000E+00 -0.94179310264E+03  0.94179310264E+03  0.00000000000E+00 0.  1.
    9000010    2    1    2  501    0  0.58810841244E+02  0.22784015366E+03 -0.35351610573E+03  0.10728064645E+04  0.98517522435E+03 0.  0.
        -13    1    3    3    0    0 -0.25535421694E+02  0.38833262206E+03 -0.63098841520E+03  0.74135057456E+03  0.10566000000E+00 0.  1.
          4    1    3    3  501    0  0.84346262938E+02 -0.16049246841E+03  0.27747230946E+03  0.33145588998E+03  0.00000000000E+00 0.  1.
         13    1    1    2    0    0 -0.58810841244E+02 -0.22784015366E+03 -0.16808702715E+03  0.28917660785E+03  0.10566000000E+00 0. -1.
<mgrwt>
<rscale>  1 0.70320173E+03</rscale>
<asrwt>0</asrwt>
<pdfrwt beam="1">  1       21 0.64644611E-01 0.10128870E+04</pdfrwt>
<pdfrwt beam="2">  1        4 0.14489125E+00 0.10128870E+04</pdfrwt>
<totfact> 0.27892089E+01</totfact>
</mgrwt>
</event>
<event>
 6    1  0.1431486E-005  0.1261171E+04  0.7818608E-02  0.9376535E-01
         21   -1    0    0  501  502  0.00000000000E+00  0.00000000000E+00  0.21472226225E+04  0.21472226225E+04  0.00000000000E+00 0.  1.
          4   -1    0    0  502    0 -0.00000000000E+00 -0.00000000000E+00 -0.32724742383E+03  0.32724742383E+03  0.00000000000E+00 0.  1.
    9000010    2    1    2  501    0  0.34175463468E+03  0.18737033789E+03  0.15597412215E+04  0.20058277436E+04  0.11994366950E+04 0.  0.
        -13    1    3    3    0    0  0.69218890401E+03 -0.20316718754E+03  0.74735582233E+03  0.10387218691E+04  0.10566000000E+00 0.  1.
          4    1    3    3  501    0 -0.35043426933E+03  0.39053752542E+03  0.81238539914E+03  0.96710587457E+03  0.00000000000E+00 0.  1.
         13    1    1    2    0    0 -0.34175463468E+03 -0.18737033789E+03  0.26023397721E+03  0.46864230273E+03  0.10566000000E+00 0. -1.
<mgrwt>
<rscale>  1 0.94032198E+03</rscale>
<asrwt>0</asrwt>
<pdfrwt beam="1">  1       21 0.33034193E+00 0.12611710E+04</pdfrwt>
<pdfrwt beam="2">  1        4 0.50345759E-01 0.12611710E+04</pdfrwt>
<totfact> 0.24786221E+00</totfact>
</mgrwt>
</event>
<event>
 6    1  0.1431486E-005  0.9985872E+03  0.7818608E-02  0.1004546E+00
         21   -1    0    0  501  502  0.00000000000E+00  0.00000000000E+00  0.53495899544E+03  0.53495899544E+03  0.00000000000E+00 0.  1.
          4   -1    0    0  502    0 -0.00000000000E+00 -0.00000000000E+00 -0.69686167079E+03  0.69686167079E+03  0.00000000000E+00 0.  1.
    9000010    2    1    2  501    0  0.75520328475E+02 -0.35661785040E+02  0.54285119499E+02  0.10000616174E+04  0.99508857968E+03 0.  0.
        -13    1    3    3    0    0  0.23870394782E+03 -0.91651075372E+02  0.47826484718E+03  0.54232533551E+03  0.10566000000E+00 0.  1.
          4    1    3    3  501    0 -0.16318361934E+03  0.55989290332E+02 -0.42397972768E+03  0.45773628187E+03  0.00000000000E+00 0.  1.
         13    1    1    2    0    0 -0.75520328475E+02  0.35661785040E+02 -0.21618779485E+03  0.23175904886E+03  0.10566000000E+00 0. -1.
<mgrwt>
<rscale>  1 0.53701108E+03</rscale>
<asrwt>0</asrwt>
<pdfrwt beam="1">  1       21 0.82301384E-01 0.99858718E+03</pdfrwt>
<pdfrwt beam="2">  1        4 0.10720949E+00 0.99858718E+03</pdfrwt>
<totfact> 0.34391408E+01</totfact>
</mgrwt>
</event>
<event>
 6    1  0.1431486E-005  0.1089148E+04  0.7818608E-02  0.9492307E-01
         21   -1    0    0  501  502  0.00000000000E+00  0.00000000000E+00  0.55833500181E+03  0.55833500181E+03  0.00000000000E+00 0.  1.
          4   -1    0    0  502    0 -0.00000000000E+00 -0.00000000000E+00 -0.99802354052E+03  0.99802354052E+03  0.00000000000E+00 0.  1.
    9000010    2    1    2  501    0  0.20327376193E+03  0.34595095564E+03 -0.28053698051E+03  0.11246971986E+04  0.10125416066E+04 0.  0.
        -13    1    3    3    0    0 -0.28529132408E+03  0.49536950278E+03 -0.20974534568E+03  0.60891313426E+03  0.10566000000E+00 0.  1.
          4    1    3    3  501    0  0.48856508601E+03 -0.14941854714E+03 -0.70791634831E+02  0.51578406437E+03  0.00000000000E+00 0.  1.
         13    1    1    2    0    0 -0.20327376193E+03 -0.34595095564E+03 -0.15915155820E+03  0.43166134369E+03  0.10566000000E+00 0. -1.
<mgrwt>
<rscale>  1 0.84853372E+03</rscale>
<asrwt>0</asrwt>
<pdfrwt beam="1">  1       21 0.85897692E-01 0.10891477E+04</pdfrwt>
<pdfrwt beam="2">  1        4 0.15354208E+00 0.10891477E+04</pdfrwt>
<totfact> 0.12245650E+01</totfact>
</mgrwt>
</event>
<event>
 6    1  0.1431486E-005  0.1071659E+04  0.7818608E-02  0.9480496E-01
          4   -1    0    0  502    0 -0.00000000000E+00  0.00000000000E+00  0.15709952031E+04  0.15709952031E+04  0.00000000000E+00 0.  1.
         21   -1    0    0  501  502  0.00000000000E+00 -0.00000000000E+00 -0.38205403800E+03  0.38205403800E+03  0.00000000000E+00 0.  1.
    9000010    2    1    2  501    0 -0.36232143802E+03  0.24795538558E+03  0.63298300008E+03  0.12446367976E+04  0.97759632869E+03 0.  0.
        -13    1    3    3    0    0  0.32312420554E+03  0.20659516196E+03  0.19611753330E+03  0.43075853002E+03  0.10566000000E+00 0.  1.
          4    1    3    3  501    0 -0.68544564356E+03  0.41360223624E+02  0.43686546678E+03  0.81387826758E+03  0.00000000000E+00 0.  1.
         13    1    1    2    0    0  0.36232143802E+03 -0.24795538558E+03  0.55595816507E+03  0.70841244354E+03  0.10566000000E+00 0. -1.
<mgrwt>
<rscale>  1 0.85737191E+03</rscale>
<asrwt>0</asrwt>
<pdfrwt beam="2">  1       21 0.58777545E-01 0.10716591E+04</pdfrwt>
<pdfrwt beam="1">  1        4 0.24169157E+00 0.10716591E+04</pdfrwt>
<totfact> 0.74496693E+00</totfact>
</mgrwt>
</event>
<event>
 6    1  0.1431486E-005  0.1004710E+04  0.7818608E-02  0.9726086E-01
         21   -1    0    0  501  502  0.00000000000E+00  0.00000000000E+00  0.85229989552E+03  0.85229989552E+03  0.00000000000E+00 0.  1.
          4   -1    0    0  502    0 -0.00000000000E+00 -0.00000000000E+00 -0.11124540022E+04  0.11124540022E+04  0.00000000000E+00 0.  1.
    9000010    2    1    2  501    0  0.21957029472E+03  0.67949988916E+02  0.53414257629E+03  0.11378708667E+04  0.97806620536E+03 0.  0.
        -13    1    3    3    0    0 -0.84041442075E+02 -0.25023932350E+03  0.63410204817E+03  0.68685377022E+03  0.10566000000E+00 0.  1.
          4    1    3    3  501    0  0.30361173680E+03  0.31818931242E+03 -0.99959471883E+02  0.45101709644E+03  0.00000000000E+00 0.  1.
         13    1    1    2    0    0 -0.21957029472E+03 -0.67949988916E+02 -0.79429668295E+03  0.82688303104E+03  0.10566000000E+00 0. -1.
<mgrwt>
<rscale>  1 0.69484645E+03</rscale>
<asrwt>0</asrwt>
<pdfrwt beam="1">  1       21 0.13112306E+00 0.10047098E+04</pdfrwt>
<pdfrwt beam="2">  1        4 0.17114677E+00 0.10047098E+04</pdfrwt>
<totfact> 0.31540039E+00</totfact>
</mgrwt>
</event>
<event>
 6    1  0.1431486E-005  0.1119731E+04  0.7818608E-02  0.9495179E-01
         21   -1    0    0  501  502  0.00000000000E+00  0.00000000000E+00  0.13459396583E+04  0.13459396583E+04  0.00000000000E+00 0.  1.
          4   -1    0    0  502    0 -0.00000000000E+00 -0.00000000000E+00 -0.42538329994E+03  0.42538329994E+03  0.00000000000E+00 0.  1.
    9000010    2    1    2  501    0  0.58618916515E+02 -0.36083578539E+03  0.83251168048E+03  0.13953036531E+04  0.10583751437E+04 0.  0.
        -13    1    3    3    0    0 -0.24315056071E+02 -0.66932707007E+03  0.22083518742E+03  0.70523622981E+03  0.10566000000E+00 0.  1.
          4    1    3    3  501    0  0.82933972585E+02  0.30849128468E+03  0.61167649306E+03  0.69006742330E+03  0.00000000000E+00 0.  1.
         13    1    1    2    0    0 -0.58618916515E+02  0.36083578539E+03  0.88044677935E+02  0.37601930518E+03  0.10566000000E+00 0. -1.
<mgrwt>
<rscale>  1 0.84640197E+03</rscale>
<asrwt>0</asrwt>
<pdfrwt beam="1">  1       21 0.20706764E+00 0.11197306E+04</pdfrwt>
<pdfrwt beam="2">  1        4 0.65443585E-01 0.11197306E+04</pdfrwt>
<totfact> 0.87819376E+00</totfact>
</mgrwt>
</event>
<event>
 6    1  0.1431486E-005  0.1097710E+04  0.7818608E-02  0.9512716E-01
         21   -1    0    0  501  502  0.00000000000E+00  0.00000000000E+00  0.14282406937E+04  0.14282406937E+04  0.00000000000E+00 0.  1.
          4   -1    0    0  502    0 -0.00000000000E+00 -0.00000000000E+00 -0.38100863703E+03  0.38100863703E+03  0.00000000000E+00 0.  1.
    9000010    2    1    2  501    0  0.34399944321E+03  0.12183259081E+03  0.88429595958E+03  0.14095907514E+04  0.10352719185E+04 0.  0.
        -13    1    3    3    0    0  0.49580070895E+02  0.51767134205E+03  0.18123462647E+03  0.55071571868E+03  0.10566000000E+00 0.  1.
          4    1    3    3  501    0  0.29441937231E+03 -0.39583875124E+03  0.70306133311E+03  0.85887503276E+03  0.00000000000E+00 0.  1.
         13    1    1    2    0    0 -0.34399944321E+03 -0.12183259081E+03  0.16293609713E+03  0.39965857932E+03  0.10566000000E+00 0. -1.
<mgrwt>
<rscale>  1 0.83352770E+03</rscale>
<asrwt>0</asrwt>
<pdfrwt beam="1">  1       21 0.21972934E+00 0.10977098E+04</pdfrwt>
<pdfrwt beam="2">  1        4 0.58616714E-01 0.10977098E+04</pdfrwt>
<totfact> 0.92200276E+00</totfact>
</mgrwt>
</event>
<event>
 6    1  0.1431486E-005  0.9633337E+03  0.7818608E-02  0.9739112E-01
         21   -1    0    0  501  502  0.00000000000E+00  0.00000000000E+00  0.70468874420E+03  0.70468874420E+03  0.00000000000E+00 0.  1.
          4   -1    0    0  502    0 -0.00000000000E+00 -0.00000000000E+00 -0.66122707766E+03  0.66122707766E+03  0.00000000000E+00 0.  1.
    9000010    2    1    2  501    0  0.79077307069E+02  0.23682667283E+03  0.29897987266E+03  0.10086628887E+04  0.93041483503E+03 0.  0.
        -13    1    3    3    0    0  0.14076188909E+03 -0.34762014413E+03  0.13390464882E+03  0.39822624244E+03  0.10566000000E+00 0.  1.
          4    1    3    3  501    0 -0.61684582026E+02  0.58444681697E+03  0.16507522384E+03  0.61043664622E+03  0.00000000000E+00 0.  1.
         13    1    1    2    0    0 -0.79077307069E+02 -0.23682667283E+03 -0.25551820612E+03  0.35725293320E+03  0.10566000000E+00 0. -1.
<mgrwt>
<rscale>  1 0.68735091E+03</rscale>
<asrwt>0</asrwt>
<pdfrwt beam="1">  1       21 0.10841365E+00 0.96333372E+03</pdfrwt>
<pdfrwt beam="2">  1        4 0.10172724E+00 0.96333372E+03</pdfrwt>
<totfact> 0.19998898E+01</totfact>
</mgrwt>
</event>
<event>
 6    1  0.1431486E-005  0.1090447E+04  0.7818608E-02  0.9485881E-01
          4   -1    0    0  502    0 -0.00000000000E+00  0.00000000000E+00  0.61069767797E+03  0.61069767797E+03  0.00000000000E+00 0.  1.
         21   -1    0    0  501  502  0.00000000000E+00 -0.00000000000E+00 -0.92538667308E+03  0.92538667308E+03  0.00000000000E+00 0.  1.
    9000010    2    1    2  501    0  0.34508938397E+03  0.21940441576E+03 -0.27915545848E+03  0.11256119111E+04  0.10108656804E+04 0.  0.
        -13    1    3    3    0    0 -0.21743691557E+03  0.13944259538E+03 -0.46151392247E+03  0.52888388277E+03  0.10566000000E+00 0.  1.
          4    1    3    3  501    0  0.56252629953E+03  0.79961820387E+02  0.18235846400E+03  0.59672802832E+03  0.00000000000E+00 0.  1.
         13    1    1    2    0    0 -0.34508938397E+03 -0.21940441576E+03 -0.35533536637E+02  0.41047243997E+03  0.10566000000E+00 0. -1.
<mgrwt>
<rscale>  1 0.85332808E+03</rscale>
<asrwt>0</asrwt>
<pdfrwt beam="2">  1       21 0.14236718E+00 0.10904469E+04</pdfrwt>
<pdfrwt beam="1">  1        4 0.93953489E-01 0.10904469E+04</pdfrwt>
<totfact> 0.11677232E+01</totfact>
</mgrwt>
</event>
<event>
 6    1  0.1431486E-005  0.1061944E+04  0.7818608E-02  0.9555397E-01
         21   -1    0    0  501  502  0.00000000000E+00  0.00000000000E+00  0.17970530831E+04  0.17970530831E+04  0.00000000000E+00 0.  1.
          4   -1    0    0  502    0 -0.00000000000E+00 -0.00000000000E+00 -0.29624849209E+03  0.29624849209E+03  0.00000000000E+00 0.  1.
    9000010    2    1    2  501    0  0.29331480751E+03 -0.18639236173E+03  0.86883021836E+03  0.13720753224E+04  0.10034685114E+04 0.  0.
        -13    1    3    3    0    0 -0.16743866572E+03  0.31022804030E+03  0.14643974671E+03  0.38173518878E+03  0.10566000000E+00 0.  1.
          4    1    3    3  501    0  0.46075347323E+03 -0.49662040203E+03  0.72239047165E+03  0.99034013366E+03  0.00000000000E+00 0.  1.
         13    1    1    2    0    0 -0.29331480751E+03  0.18639236173E+03  0.63197437266E+03  0.72122625277E+03  0.10566000000E+00 0. -1.
<mgrwt>
<rscale>  1 0.80319994E+03</rscale>
<asrwt>0</asrwt>
<pdfrwt beam="1">  1       21 0.27646970E+00 0.10619439E+04</pdfrwt>
<pdfrwt beam="2">  1        4 0.45576692E-01 0.10619439E+04</pdfrwt>
<totfact> 0.68514797E+00</totfact>
</mgrwt>
</event>
<event>
 6    1  0.1431486E-005  0.1002276E+04  0.7818608E-02  0.1000091E+00
         21   -1    0    0  501  502  0.00000000000E+00  0.00000000000E+00  0.17534539659E+04  0.17534539659E+04  0.00000000000E+00 0.  1.
          4   -1    0    0  502    0 -0.00000000000E+00 -0.00000000000E+00 -0.17753411413E+03  0.17753411413E+03  0.00000000000E+00 0.  1.
    9000010    2    1    2  501    0  0.81565596928E+01 -0.94634002878E+02  0.15201906793E+04  0.18208614448E+04  0.99776478979E+03 0.  0.
        -13    1    3    3    0    0 -0.15109314267E+01 -0.97485562956E+01 -0.14907991875E+03  0.14940599253E+03  0.10566000000E+00 0.  1.
          4    1    3    3  501    0  0.96674911195E+01 -0.84885446583E+02  0.16692705980E+04  0.16714554522E+04  0.00000000000E+00 0.  1.
         13    1    1    2    0    0 -0.81565596928E+01  0.94634002878E+02  0.55729172528E+02  0.11012663530E+03  0.10566000000E+00 0. -1.
<mgrwt>
<rscale>  1 0.55610153E+03</rscale>
<asrwt>0</asrwt>
<pdfrwt beam="1">  1       21 0.26976214E+00 0.10022758E+04</pdfrwt>
<pdfrwt beam="2">  1        4 0.27312942E-01 0.10022758E+04</pdfrwt>
<totfact> 0.21254642E+01</totfact>
</mgrwt>
</event>
<event>
 6    1  0.1431486E-005  0.1079414E+04  0.7818608E-02  0.9468756E-01
         21   -1    0    0  501  502  0.00000000000E+00  0.00000000000E+00  0.11098116808E+04  0.11098116808E+04  0.00000000000E+00 0.  1.
          4   -1    0    0  502    0 -0.00000000000E+00 -0.00000000000E+00 -0.62037416473E+03  0.62037416473E+03  0.00000000000E+00 0.  1.
    9000010    2    1    2  501    0  0.18670245362E+02 -0.44737473704E+03  0.64348332617E+03  0.12566640866E+04  0.98216144404E+03 0.  0.
        -13    1    3    3    0    0 -0.17514073445E+03 -0.25477094032E+03  0.85625118103E+03  0.91035630666E+03  0.10566000000E+00 0.  1.
          4    1    3    3  501    0  0.19381097981E+03 -0.19260379672E+03 -0.21276785486E+03  0.34630777997E+03  0.00000000000E+00 0.  1.
         13    1    1    2    0    0 -0.18670245362E+02  0.44737473704E+03 -0.15404581009E+03  0.47352175892E+03  0.10566000000E+00 0. -1.
<mgrwt>
<rscale>  1 0.86626998E+03</rscale>
<asrwt>0</asrwt>
<pdfrwt beam="1">  1       21 0.17074026E+00 0.10794137E+04</pdfrwt>
<pdfrwt beam="2">  1        4 0.95442179E-01 0.10794137E+04</pdfrwt>
<totfact> 0.67234691E+00</totfact>
</mgrwt>
</event>
<event>
 6    1  0.1431486E-005  0.9887843E+03  0.7818608E-02  0.1021765E+00
          4   -1    0    0  502    0 -0.00000000000E+00  0.00000000000E+00  0.85318757687E+03  0.85318757687E+03  0.00000000000E+00 0.  1.
         21   -1    0    0  501  502  0.00000000000E+00 -0.00000000000E+00 -0.32475667181E+03  0.32475667181E+03  0.00000000000E+00 0.  1.
    9000010    2    1    2  501    0  0.18769729719E+01 -0.50678192826E+02  0.45437141695E+03  0.10881855655E+04  0.98748298125E+03 0.  0.
        -13    1    3    3    0    0 -0.15229450033E+03  0.44308213679E+03  0.17379200353E+03  0.49971898746E+03  0.10566000000E+00 0.  1.
          4    1    3    3  501    0  0.15417147330E+03 -0.49376032961E+03  0.28057941343E+03  0.58846657808E+03  0.00000000000E+00 0.  1.
         13    1    1    2    0    0 -0.18769729719E+01  0.50678192826E+02  0.74059488109E+02  0.89758683138E+02  0.10566000000E+00 0. -1.
<mgrwt>
<rscale>  1 0.47055036E+03</rscale>
<asrwt>0</asrwt>
<pdfrwt beam="2">  1       21 0.49962565E-01 0.98878432E+03</pdfrwt>
<pdfrwt beam="1">  1        4 0.13125963E+00 0.98878432E+03</pdfrwt>
<totfact> 0.63927008E+01</totfact>
</mgrwt>
</event>
<event>
 6    1  0.1431486E-005  0.1081570E+04  0.7818608E-02  0.9489638E-01
          4   -1    0    0  502    0 -0.00000000000E+00  0.00000000000E+00  0.88443360871E+03  0.88443360871E+03  0.00000000000E+00 0.  1.
         21   -1    0    0  501  502  0.00000000000E+00 -0.00000000000E+00 -0.70915430564E+03  0.70915430564E+03  0.00000000000E+00 0.  1.
    9000010    2    1    2  501    0  0.24504287713E+03 -0.33318855309E+03 -0.11591925627E+03  0.10877645898E+04  0.99936675214E+03 0.  0.
        -13    1    3    3    0    0  0.23786468643E+03 -0.68202828042E+03 -0.14819004782E+03  0.73736184183E+03  0.10566000000E+00 0.  1.
          4    1    3    3  501    0  0.71781906947E+01  0.34883972734E+03  0.32270791546E+02  0.35040274796E+03  0.00000000000E+00 0.  1.
         13    1    1    2    0    0 -0.24504287713E+03  0.33318855309E+03  0.29119855934E+03  0.50582332456E+03  0.10566000000E+00 0. -1.
<mgrwt>
<rscale>  1 0.85052063E+03</rscale>
<asrwt>0</asrwt>
<pdfrwt beam="2">  1       21 0.10910066E+00 0.10815704E+04</pdfrwt>
<pdfrwt beam="1">  1        4 0.13606671E+00 0.10815704E+04</pdfrwt>
<totfact> 0.93767830E+00</totfact>
</mgrwt>
</event>
<event>
 6    1  0.1431486E-005  0.1023980E+04  0.7818608E-02  0.9719794E-01
         21   -1    0    0  501  502  0.00000000000E+00  0.00000000000E+00  0.59890077266E+03  0.59890077266E+03  0.00000000000E+00 0.  1.
          4   -1    0    0  502    0 -0.00000000000E+00 -0.00000000000E+00 -0.65980987243E+03  0.65980987243E+03  0.00000000000E+00 0.  1.
    9000010    2    1    2  501    0 -0.20429014176E+03 -0.86163779382E+02  0.15788235916E+02  0.10241021385E+04  0.99968858291E+03 0.  0.
        -13    1    3    3    0    0 -0.57428766497E+03 -0.24242127687E+02 -0.17817651746E+03  0.60178142662E+03  0.10566000000E+00 0.  1.
          4    1    3    3  501    0  0.36999752321E+03 -0.61921651695E+02  0.19396475338E+03  0.42232071188E+03  0.00000000000E+00 0.  1.
         13    1    1    2    0    0  0.20429014176E+03  0.86163779382E+02 -0.76697335685E+02  0.23460850658E+03  0.10566000000E+00 0. -1.
<mgrwt>
<rscale>  1 0.69850378E+03</rscale>
<asrwt>0</asrwt>
<pdfrwt beam="1">  1       21 0.92138581E-01 0.10239804E+04</pdfrwt>
<pdfrwt beam="2">  1        4 0.10150921E+00 0.10239804E+04</pdfrwt>
<totfact> 0.29908116E+01</totfact>
</mgrwt>
</event>
<event>
 6    1  0.1431486E-005  0.1026429E+04  0.7818608E-02  0.9738626E-01
         21   -1    0    0  501  502  0.00000000000E+00  0.00000000000E+00  0.39408307911E+03  0.39408307911E+03  0.00000000000E+00 0.  1.
          4   -1    0    0  502    0 -0.00000000000E+00 -0.00000000000E+00 -0.13753765462E+04  0.13753765462E+04  0.00000000000E+00 0.  1.
    9000010    2    1    2  501    0 -0.18066100422E+03 -0.10051864557E+03 -0.31779902335E+03  0.10745011484E+04  0.10053925115E+04 0.  0.
        -13    1    3    3    0    0  0.25022789507E+03  0.29892684700E+03 -0.29075591931E+03  0.48632322082E+03  0.10566000000E+00 0.  1.
          4    1    3    3  501    0 -0.43088889928E+03 -0.39944549257E+03 -0.27043104037E+02  0.58817792761E+03  0.00000000000E+00 0.  1.
         13    1    1    2    0    0  0.18066100422E+03  0.10051864557E+03 -0.66349444374E+03  0.69495847688E+03  0.10566000000E+00 0. -1.
<mgrwt>
<rscale>  1 0.68762880E+03</rscale>
<asrwt>0</asrwt>
<pdfrwt beam="1">  1       21 0.60628165E-01 0.10264290E+04</pdfrwt>
<pdfrwt beam="2">  1        4 0.21159639E+00 0.10264290E+04</pdfrwt>
<totfact> 0.10843068E+01</totfact>
</mgrwt>
</event>
<event>
 6    1  0.1431486E-005  0.1012396E+04  0.7818608E-02  0.9709686E-01
          4   -1    0    0  502    0 -0.00000000000E+00  0.00000000000E+00  0.28481971145E+03  0.28481971145E+03  0.00000000000E+00 0.  1.
         21   -1    0    0  501  502  0.00000000000E+00 -0.00000000000E+00 -0.30801556056E+04  0.30801556056E+04  0.00000000000E+00 0.  1.
    9000010    2    1    2  501    0 -0.21940925918E+03 -0.90398019346E+02 -0.29245149644E+04  0.30947911793E+04  0.98419126265E+03 0.  0.
        -13    1    3    3    0    0 -0.46582766984E+03 -0.24144425711E+03 -0.84045815047E+03  0.99078789917E+03  0.10566000000E+00 0.  1.
          4    1    3    3  501    0  0.24641841066E+03  0.15104623776E+03 -0.20840568140E+04  0.21040032801E+04  0.00000000000E+00 0.  1.
         13    1    1    2    0    0  0.21940925918E+03  0.90398019346E+02  0.12917907029E+03  0.27018413773E+03  0.10566000000E+00 0. -1.
<mgrwt>
<rscale>  1 0.70443026E+03</rscale>
<asrwt>0</asrwt>
<pdfrwt beam="2">  1       21 0.47387008E+00 0.10123955E+04</pdfrwt>
<pdfrwt beam="1">  1        4 0.43818418E-01 0.10123955E+04</pdfrwt>
<totfact> 0.39118575E-01</totfact>
</mgrwt>
</event>
<event>
 6    1  0.1431486E-005  0.1228692E+04  0.7818608E-02  0.9231524E-01
         21   -1    0    0  501  502  0.00000000000E+00  0.00000000000E+00  0.15558609015E+04  0.15558609015E+04  0.00000000000E+00 0. -1.
          4   -1    0    0  502    0 -0.00000000000E+00 -0.00000000000E+00 -0.19068962381E+04  0.19068962381E+04  0.00000000000E+00 0.  1.
    9000010    2    1    2  501    0 -0.18596005078E+03  0.69106515967E+03  0.12230357891E+04  0.17336382556E+04  0.99876567058E+03 0.  0.
        -13    1    3    3    0    0 -0.20959197363E+03  0.85370387400E+03  0.54124764986E+03  0.10323217180E+04  0.10566000000E+00 0.  1.
          4    1    3    3  501    0  0.23631922856E+02 -0.16263871433E+03  0.68178813919E+03  0.70131653760E+03  0.00000000000E+00 0.  1.
         13    1    1    2    0    0  0.18596005078E+03 -0.69106515967E+03 -0.15740711257E+04  0.17291188841E+04  0.10566000000E+00 0. -1.
<mgrwt>
<rscale>  1 0.10733893E+04</rscale>
<asrwt>0</asrwt>
<pdfrwt beam="1">  1       21 0.23936322E+00 0.12286924E+04</pdfrwt>
<pdfrwt beam="2">  1        4 0.29336865E+00 0.12286924E+04</pdfrwt>
<totfact> 0.80043663E-02</totfact>
</mgrwt>
</event>
<event>
 6    1  0.1431486E-005  0.1152439E+04  0.7818608E-02  0.9359614E-01
          4   -1    0    0  502    0 -0.00000000000E+00  0.00000000000E+00  0.68133310980E+03  0.68133310980E+03  0.00000000000E+00 0.  1.
         21   -1    0    0  501  502  0.00000000000E+00 -0.00000000000E+00 -0.15123897895E+04  0.15123897895E+04  0.00000000000E+00 0.  1.
    9000010    2    1    2  501    0  0.11892291060E+02 -0.54275327588E+03 -0.10953358358E+04  0.15899298647E+04  0.10165598046E+04 0.  0.
        -13    1    3    3    0    0 -0.25654070204E+03  0.22009193156E+03 -0.25283440531E+03  0.42211235212E+03  0.10566000000E+00 0.  1.
          4    1    3    3  501    0  0.26843299310E+03 -0.76284520744E+03 -0.84250143048E+03  0.11678175126E+04  0.00000000000E+00 0.  1.
         13    1    1    2    0    0 -0.11892291060E+02  0.54275327588E+03  0.26427915614E+03  0.60379303457E+03  0.10566000000E+00 0. -1.
<mgrwt>
<rscale>  1 0.95475122E+03</rscale>
<asrwt>0</asrwt>
<pdfrwt beam="2">  1       21 0.23267535E+00 0.11524393E+04</pdfrwt>
<pdfrwt beam="1">  1        4 0.10482048E+00 0.11524393E+04</pdfrwt>
<totfact> 0.19788655E+00</totfact>
</mgrwt>
</event>
<event>
 6    1  0.1431486E-005  0.1107482E+04  0.7818608E-02  0.9423631E-01
          4   -1    0    0  502    0 -0.00000000000E+00  0.00000000000E+00  0.41149298629E+03  0.41149298629E+03  0.00000000000E+00 0.  1.
         21   -1    0    0  501  502  0.00000000000E+00 -0.00000000000E+00 -0.15540926544E+04  0.15540926544E+04  0.00000000000E+00 0. -1.
    9000010    2    1    2  501    0 -0.47844121695E+02  0.48401845523E+03 -0.86753182433E+03  0.14068144399E+04  0.99496355568E+03 0.  0.
        -13    1    3    3    0    0 -0.31393513099E+03  0.60425136627E+03 -0.88222794274E+03  0.11144510461E+04  0.10566000000E+00 0.  1.
          4    1    3    3  501    0  0.26609100930E+03 -0.12023291104E+03  0.14696118410E+02  0.29236339378E+03  0.00000000000E+00 0.  1.
         13    1    1    2    0    0  0.47844121695E+02 -0.48401845523E+03 -0.27506784382E+03  0.55877120081E+03  0.10566000000E+00 0. -1.
<mgrwt>
<rscale>  1 0.90156224E+03</rscale>
<asrwt>0</asrwt>
<pdfrwt beam="2">  1       21 0.23909118E+00 0.11074816E+04</pdfrwt>
<pdfrwt beam="1">  1        4 0.63306613E-01 0.11074816E+04</pdfrwt>
<totfact> 0.58141974E+00</totfact>
</mgrwt>
</event>
<event>
 6    1  0.1431486E-005  0.1049643E+04  0.7818608E-02  0.9598207E-01
          4   -1    0    0  502    0 -0.00000000000E+00  0.00000000000E+00  0.34534487911E+03  0.34534487911E+03  0.00000000000E+00 0.  1.
         21   -1    0    0  501  502  0.00000000000E+00 -0.00000000000E+00 -0.13510217915E+04  0.13510217915E+04  0.00000000000E+00 0.  1.
    9000010    2    1    2  501    0  0.30697448199E+03 -0.47192803982E+02 -0.83987964079E+03  0.13443024155E+04  0.10026418502E+04 0.  0.
        -13    1    3    3    0    0 -0.15397846950E+03 -0.42578524924E+03 -0.34470072629E+03  0.56905276505E+03  0.10566000000E+00 0.  1.
          4    1    3    3  501    0  0.46095295149E+03  0.37859244526E+03 -0.49517891450E+03  0.77524965041E+03  0.00000000000E+00 0.  1.
         13    1    1    2    0    0 -0.30697448199E+03  0.47192803982E+02 -0.16579727164E+03  0.35206425519E+03  0.10566000000E+00 0. -1.
<mgrwt>
<rscale>  1 0.77414981E+03</rscale>
<asrwt>0</asrwt>
<pdfrwt beam="2">  1       21 0.20784950E+00 0.10496434E+04</pdfrwt>
<pdfrwt beam="1">  1        4 0.53129982E-01 0.10496434E+04</pdfrwt>
<totfact> 0.13767452E+01</totfact>
</mgrwt>
</event>
<event>
 6    1  0.1431486E-005  0.1002789E+04  0.7818608E-02  0.9833327E-01
          4   -1    0    0  502    0 -0.00000000000E+00  0.00000000000E+00  0.46848621254E+03  0.46848621254E+03  0.00000000000E+00 0.  1.
         21   -1    0    0  501  502  0.00000000000E+00 -0.00000000000E+00 -0.96533054633E+03  0.96533054633E+03  0.00000000000E+00 0.  1.
    9000010    2    1    2  501    0 -0.16153104412E+03  0.15773695008E+02 -0.66252763942E+03  0.12018856126E+04  0.98956812053E+03 0.  0.
        -13    1    3    3    0    0 -0.46559725466E+02 -0.35417547269E+03 -0.72618149413E+03  0.80928835842E+03  0.10566000000E+00 0.  1.
          4    1    3    3  501    0 -0.11497131865E+03  0.36994916770E+03  0.63653854702E+02  0.39259725421E+03  0.00000000000E+00 0.  1.
         13    1    1    2    0    0  0.16153104412E+03 -0.15773695008E+02  0.16568330564E+03  0.23193114625E+03  0.10566000000E+00 0. -1.
<mgrwt>
<rscale>  1 0.63604299E+03</rscale>
<asrwt>0</asrwt>
<pdfrwt beam="2">  1       21 0.14851239E+00 0.10027892E+04</pdfrwt>
<pdfrwt beam="1">  1        4 0.72074803E-01 0.10027892E+04</pdfrwt>
<totfact> 0.19365107E+01</totfact>
</mgrwt>
</event>
<event>
 6    1  0.1431486E-005  0.1226198E+04  0.7818608E-02  0.9233412E-01
          4   -1    0    0  502    0 -0.00000000000E+00  0.00000000000E+00  0.12909173746E+04  0.12909173746E+04  0.00000000000E+00 0.  1.
         21   -1    0    0  501  502  0.00000000000E+00 -0.00000000000E+00 -0.12741520387E+04  0.12741520387E+04  0.00000000000E+00 0. -1.
    9000010    2    1    2  501    0  0.64668163619E+03  0.30500507592E+03 -0.81186283957E+03  0.14706061205E+04  0.99616055751E+03 0.  0.
        -13    1    3    3    0    0  0.37300727270E+03  0.23118630132E+03  0.15317116339E+03  0.46480420379E+03  0.10566000000E+00 0.  1.
          4    1    3    3  501    0  0.27367436350E+03  0.73818774598E+02 -0.96503400296E+03  0.10058019167E+04  0.00000000000E+00 0.  1.
         13    1    1    2    0    0 -0.64668163619E+03 -0.30500507592E+03  0.82862817546E+03  0.10944632928E+04  0.10566000000E+00 0. -1.
<mgrwt>
<rscale>  1 0.10715118E+04</rscale>
<asrwt>0</asrwt>
<pdfrwt beam="2">  1       21 0.19602339E+00 0.12261978E+04</pdfrwt>
<pdfrwt beam="1">  1        4 0.19860267E+00 0.12261978E+04</pdfrwt>
<totfact> 0.61902844E-01</totfact>
</mgrwt>
</event>
<event>
 6    1  0.1431486E-005  0.1012115E+04  0.7818608E-02  0.1000351E+00
         21   -1    0    0  501  502  0.00000000000E+00  0.00000000000E+00  0.61545883912E+03  0.61545883912E+03  0.00000000000E+00 0.  1.
          4   -1    0    0  502    0 -0.00000000000E+00 -0.00000000000E+00 -0.69925358345E+03  0.69925358345E+03  0.00000000000E+00 0.  1.
    9000010    2    1    2  501    0  0.82742857858E+02  0.39038528234E+02  0.18667611697E+03  0.10291867929E+04  0.10079717728E+04 0.  0.
        -13    1    3    3    0    0 -0.18873132388E+03  0.22334585666E+03 -0.31495662863E+03  0.42976804602E+03  0.10566000000E+00 0.  1.
          4    1    3    3  501    0  0.27147418174E+03 -0.18430732843E+03  0.50163274560E+03  0.59941874689E+03  0.00000000000E+00 0.  1.
         13    1    1    2    0    0 -0.82742857858E+02 -0.39038528234E+02 -0.27047086130E+03  0.28552562966E+03  0.10566000000E+00 0. -1.
<mgrwt>
<rscale>  1 0.55496523E+03</rscale>
<asrwt>0</asrwt>
<pdfrwt beam="1">  1       21 0.94685976E-01 0.10121154E+04</pdfrwt>
<pdfrwt beam="2">  1        4 0.10757747E+00 0.10121154E+04</pdfrwt>
<totfact> 0.24315468E+01</totfact>
</mgrwt>
</event>
<event>
 6    1  0.1431486E-005  0.9871698E+03  0.7818608E-02  0.9898983E-01
         21   -1    0    0  501  502  0.00000000000E+00  0.00000000000E+00  0.10944939909E+04  0.10944939909E+04  0.00000000000E+00 0.  1.
          4   -1    0    0  502    0 -0.00000000000E+00 -0.00000000000E+00 -0.37125584107E+03  0.37125584107E+03  0.00000000000E+00 0.  1.
    9000010    2    1    2  501    0 -0.12459252573E+03 -0.58235514929E+02  0.83151919530E+03  0.12907084979E+04  0.97754262402E+03 0.  0.
        -13    1    3    3    0    0 -0.18552252748E+03  0.36966717852E+03  0.74173842834E+03  0.84926340927E+03  0.10566000000E+00 0.  1.
          4    1    3    3  501    0  0.60930001749E+02 -0.42790269345E+03  0.89780766960E+02  0.44144508865E+03  0.00000000000E+00 0.  1.
         13    1    1    2    0    0  0.12459252573E+03  0.58235514929E+02 -0.10828104545E+03  0.17504133407E+03  0.10566000000E+00 0. -1.
<mgrwt>
<rscale>  1 0.60310619E+03</rscale>
<asrwt>0</asrwt>
<pdfrwt beam="1">  1       21 0.16838369E+00 0.98716982E+03</pdfrwt>
<pdfrwt beam="2">  1        4 0.57116284E-01 0.98716982E+03</pdfrwt>
<totfact> 0.22661762E+01</totfact>
</mgrwt>
</event>
<event>
 6    1  0.1431486E-005  0.1003200E+04  0.7818608E-02  0.9808495E-01
          4   -1    0    0  502    0 -0.00000000000E+00  0.00000000000E+00  0.18542866659E+04  0.18542866659E+04  0.00000000000E+00 0.  1.
         21   -1    0    0  501  502  0.00000000000E+00 -0.00000000000E+00 -0.21659858706E+03  0.21659858706E+03  0.00000000000E+00 0.  1.
    9000010    2    1    2  501    0  0.12063759582E+03  0.12789171811E+03  0.10281141607E+04  0.14364641831E+04  0.98767449130E+03 0.  0.
        -13    1    3    3    0    0  0.98903353730E+02 -0.38955686708E+03  0.17480399240E+03  0.43828400951E+03  0.10566000000E+00 0.  1.
          4    1    3    3  501    0  0.21734242087E+02  0.51744858518E+03  0.85331016832E+03  0.99818017359E+03  0.00000000000E+00 0.  1.
         13    1    1    2    0    0 -0.12063759582E+03 -0.12789171811E+03  0.60957391813E+03  0.63442106988E+03  0.10566000000E+00 0. -1.
<mgrwt>
<rscale>  1 0.64908655E+03</rscale>
<asrwt>0</asrwt>
<pdfrwt beam="2">  1       21 0.33322861E-01 0.10032002E+04</pdfrwt>
<pdfrwt beam="1">  1        4 0.28527486E+00 0.10032002E+04</pdfrwt>
<totfact> 0.13518712E+01</totfact>
</mgrwt>
</event>
<event>
 6    1  0.1431486E-005  0.1068963E+04  0.7818608E-02  0.9476322E-01
          4   -1    0    0  502    0 -0.00000000000E+00  0.00000000000E+00  0.51555576250E+03  0.51555576250E+03  0.00000000000E+00 0.  1.
         21   -1    0    0  501  502  0.00000000000E+00 -0.00000000000E+00 -0.11172629777E+04  0.11172629777E+04  0.00000000000E+00 0.  1.
    9000010    2    1    2  501    0 -0.29793817206E+03 -0.33578972243E+03 -0.41879585821E+03  0.11480729638E+04  0.97013383992E+03 0.  0.
        -13    1    3    3    0    0 -0.14476076909E+03  0.38863104886E+02 -0.66006085052E+03  0.67686509641E+03  0.10566000000E+00 0.  1.
          4    1    3    3  501    0 -0.15317740297E+03 -0.37465282732E+03  0.24126499231E+03  0.47120786742E+03  0.00000000000E+00 0.  1.
         13    1    1    2    0    0  0.29793817206E+03  0.33578972243E+03 -0.18291135704E+03  0.48474577642E+03  0.10566000000E+00 0. -1.
<mgrwt>
<rscale>  1 0.86052262E+03</rscale>
<asrwt>0</asrwt>
<pdfrwt beam="2">  1       21 0.17188661E+00 0.10689628E+04</pdfrwt>
<pdfrwt beam="1">  1        4 0.79316271E-01 0.10689628E+04</pdfrwt>
<totfact> 0.10177400E+01</totfact>
</mgrwt>
</event>
<event>
 6    1  0.1431486E-005  0.1068269E+04  0.7818608E-02  0.9581463E-01
         21   -1    0    0  501  502  0.00000000000E+00  0.00000000000E+00  0.11656985925E+04  0.11656985925E+04  0.00000000000E+00 0.  1.
          4   -1    0    0  502    0 -0.00000000000E+00 -0.00000000000E+00 -0.40886509304E+03  0.40886509304E+03  0.00000000000E+00 0.  1.
    9000010    2    1    2  501    0 -0.15875065366E+03 -0.26864611317E+03  0.60203663310E+03  0.12262325426E+04  0.10216778537E+04 0.  0.
        -13    1    3    3    0    0  0.85460576798E+02 -0.50656259107E+03  0.70295688037E+03  0.87066500773E+03  0.10566000000E+00 0.  1.
          4    1    3    3  501    0 -0.24421123046E+03  0.23791647790E+03 -0.10092024727E+03  0.35556753486E+03  0.00000000000E+00 0.  1.
         13    1    1    2    0    0  0.15875065366E+03  0.26864611317E+03  0.15479686639E+03  0.34833114298E+03  0.10566000000E+00 0. -1.
<mgrwt>
<rscale>  1 0.78535307E+03</rscale>
<asrwt>0</asrwt>
<pdfrwt beam="1">  1       21 0.17933824E+00 0.10682688E+04</pdfrwt>
<pdfrwt beam="2">  1        4 0.62902322E-01 0.10682688E+04</pdfrwt>
<totfact> 0.15097965E+01</totfact>
</mgrwt>
</event>
<event>
 6    1  0.1431486E-005  0.1055090E+04  0.7818608E-02  0.9578277E-01
          4   -1    0    0  502    0 -0.00000000000E+00  0.00000000000E+00  0.57860443721E+03  0.57860443721E+03  0.00000000000E+00 0.  1.
         21   -1    0    0  501  502  0.00000000000E+00 -0.00000000000E+00 -0.11547627369E+04  0.11547627369E+04  0.00000000000E+00 0.  1.
    9000010    2    1    2  501    0 -0.32190934444E+03  0.60007215978E+02 -0.81069898141E+03  0.13305820769E+04  0.10029901958E+04 0.  0.
        -13    1    3    3    0    0 -0.38840968351E+03  0.29410378718E+03 -0.93722970554E+03  0.10562947751E+04  0.10566000000E+00 0.  1.
          4    1    3    3  501    0  0.66500339062E+02 -0.23409657121E+03  0.12653072413E+03  0.27428730174E+03  0.00000000000E+00 0.  1.
         13    1    1    2    0    0  0.32190934444E+03 -0.60007215978E+02  0.23454068172E+03  0.40278509724E+03  0.10566000000E+00 0. -1.
<mgrwt>
<rscale>  1 0.78750810E+03</rscale>
<asrwt>0</asrwt>
<pdfrwt beam="2">  1       21 0.17765580E+00 0.10550904E+04</pdfrwt>
<pdfrwt beam="1">  1        4 0.89016068E-01 0.10550904E+04</pdfrwt>
<totfact> 0.70692719E+00</totfact>
</mgrwt>
</event>
<event>
 6    1  0.1431486E-005  0.1091250E+04  0.7818608E-02  0.1006789E+00
         21   -1    0    0  501  502  0.00000000000E+00  0.00000000000E+00  0.82483314890E+03  0.82483314890E+03  0.00000000000E+00 0.  1.
          4   -1    0    0  502    0 -0.00000000000E+00 -0.00000000000E+00 -0.42471246634E+03  0.42471246634E+03  0.00000000000E+00 0.  1.
    9000010    2    1    2  501    0  0.56947548572E+02 -0.17843094195E+02  0.44123208926E+03  0.11770779795E+04  0.10896170951E+04 0.  0.
        -13    1    3    3    0    0 -0.24666880134E+03 -0.42690266944E+03 -0.14928164799E+02  0.49326894084E+03  0.10566000000E+00 0.  1.
          4    1    3    3  501    0  0.30361634991E+03  0.40905957525E+03  0.45616025405E+03  0.68380903870E+03  0.00000000000E+00 0.  1.
         13    1    1    2    0    0 -0.56947548572E+02  0.17843094195E+02 -0.41111406697E+02  0.72467635697E+02  0.10566000000E+00 0. -1.
<mgrwt>
<rscale>  1 0.52771080E+03</rscale>
<asrwt>0</asrwt>
<pdfrwt beam="1">  1       21 0.12689741E+00 0.10912501E+04</pdfrwt>
<pdfrwt beam="2">  1        4 0.65340380E-01 0.10912501E+04</pdfrwt>
<totfact> 0.36594861E+01</totfact>
</mgrwt>
</event>
<event>
 6    1  0.1431486E-005  0.1106402E+04  0.7818608E-02  0.9501434E-01
          4   -1    0    0  502    0 -0.00000000000E+00  0.00000000000E+00  0.11213449751E+04  0.11213449751E+04  0.00000000000E+00 0.  1.
         21   -1    0    0  501  502  0.00000000000E+00 -0.00000000000E+00 -0.48661216536E+03  0.48661216536E+03  0.00000000000E+00 0.  1.
    9000010    2    1    2  501    0  0.21015590368E+03 -0.30541117816E+03  0.48802655066E+03  0.12092539561E+04  0.10424412331E+04 0.  0.
        -13    1    3    3    0    0  0.31351579526E+03 -0.23937668739E+03  0.79017532508E+03  0.88315933323E+03  0.10566000000E+00 0.  1.
          4    1    3    3  501    0 -0.10335989158E+03 -0.66034490773E+02 -0.30214877443E+03  0.32609462284E+03  0.00000000000E+00 0.  1.
         13    1    1    2    0    0 -0.21015590368E+03  0.30541117816E+03  0.14670625903E+03  0.39870318434E+03  0.10566000000E+00 0. -1.
<mgrwt>
<rscale>  1 0.84178171E+03</rscale>
<asrwt>0</asrwt>
<pdfrwt beam="2">  1       21 0.74863410E-01 0.11064019E+04</pdfrwt>
<pdfrwt beam="1">  1        4 0.17251461E+00 0.11064019E+04</pdfrwt>
<totfact> 0.12234638E+01</totfact>
</mgrwt>
</event>
<event>
 6    1  0.1431486E-005  0.1014157E+04  0.7818608E-02  0.9798352E-01
         21   -1    0    0  501  502  0.00000000000E+00  0.00000000000E+00  0.52300552685E+03  0.52300552685E+03  0.00000000000E+00 0.  1.
          4   -1    0    0  502    0 -0.00000000000E+00 -0.00000000000E+00 -0.68381749816E+03  0.68381749816E+03  0.00000000000E+00 0.  1.
    9000010    2    1    2  501    0  0.12868819078E+03  0.11996766892E+03 -0.93525645288E+02  0.10184607335E+04  0.99878041996E+03 0.  0.
        -13    1    3    3    0    0  0.41504359249E+03 -0.50035388881E+02  0.29131454138E+03  0.50953792498E+03  0.10566000000E+00 0.  1.
          4    1    3    3  501    0 -0.28635540170E+03  0.17000305780E+03 -0.38484018667E+03  0.50892280851E+03  0.00000000000E+00 0.  1.
         13    1    1    2    0    0 -0.12868819078E+03 -0.11996766892E+03 -0.67286326023E+02  0.18836229152E+03  0.10566000000E+00 0. -1.
<mgrwt>
<rscale>  1 0.65451062E+03</rscale>
<asrwt>0</asrwt>
<pdfrwt beam="1">  1       21 0.80462388E-01 0.10141574E+04</pdfrwt>
<pdfrwt beam="2">  1        4 0.10520269E+00 0.10141574E+04</pdfrwt>
<totfact> 0.37941863E+01</totfact>
</mgrwt>
</event>
<event>
 6    1  0.1431486E-005  0.1006145E+04  0.7818608E-02  0.1016670E+00
          4   -1    0    0  502    0 -0.00000000000E+00  0.00000000000E+00  0.47859655934E+03  0.47859655934E+03  0.00000000000E+00 0.  1.
         21   -1    0    0  501  502  0.00000000000E+00 -0.00000000000E+00 -0.96702679455E+03  0.96702679455E+03  0.00000000000E+00 0.  1.
    9000010    2    1    2  501    0 -0.44859923152E+02 -0.33808867163E+02 -0.70066881245E+03  0.12260768280E+04  0.10045756075E+04 0.  0.
        -13    1    3    3    0    0  0.47056908739E+03 -0.23857706902E+02 -0.21536128503E+03  0.51805882913E+03  0.10566000000E+00 0.  1.
          4    1    3    3  501    0 -0.51542901055E+03 -0.99511602613E+01 -0.48530752743E+03  0.70801799884E+03  0.00000000000E+00 0.  1.
         13    1    1    2    0    0  0.44859923152E+02  0.33808867163E+02  0.21223857725E+03  0.21954652591E+03  0.10566000000E+00 0. -1.
<mgrwt>
<rscale>  1 0.48907819E+03</rscale>
<asrwt>0</asrwt>
<pdfrwt beam="2">  1       21 0.14877335E+00 0.10061449E+04</pdfrwt>
<pdfrwt beam="1">  1        4 0.73630239E-01 0.10061449E+04</pdfrwt>
<totfact> 0.18357687E+01</totfact>
</mgrwt>
</event>
<event>
 6    1  0.1431486E-005  0.9629450E+03  0.7818608E-02  0.9806292E-01
         21   -1    0    0  501  502  0.00000000000E+00  0.00000000000E+00  0.11867758505E+04  0.11867758505E+04  0.00000000000E+00 0.  1.
          4   -1    0    0  502    0 -0.00000000000E+00 -0.00000000000E+00 -0.29801199506E+03  0.29801199506E+03  0.00000000000E+00 0.  1.
    9000010    2    1    2  501    0 -0.73634961311E+02 -0.18620543718E+03  0.84202874046E+03  0.12791698636E+04  0.94189626171E+03 0.  0.
        -13    1    3    3    0    0  0.31097292367E+03  0.72454070433E+02  0.14862234975E+01  0.31930545188E+03  0.10566000000E+00 0.  1.
          4    1    3    3  501    0 -0.38460788498E+03 -0.25865950761E+03  0.84054251696E+03  0.95986441172E+03  0.00000000000E+00 0.  1.
         13    1    1    2    0    0  0.73634961311E+02  0.18620543718E+03  0.46735114959E+02  0.20561798194E+03  0.10566000000E+00 0. -1.
<mgrwt>
<rscale>  1 0.65025970E+03</rscale>
<asrwt>0</asrwt>
<pdfrwt beam="1">  1       21 0.18258090E+00 0.96294503E+03</pdfrwt>
<pdfrwt beam="2">  1        4 0.45848000E-01 0.96294503E+03</pdfrwt>
<totfact> 0.28468491E+01</totfact>
</mgrwt>
</event>
<event>
 6    1  0.1431486E-005  0.1012323E+04  0.7818608E-02  0.9735098E-01
         21   -1    0    0  501  502  0.00000000000E+00  0.00000000000E+00  0.21661892881E+04  0.21661892881E+04  0.00000000000E+00 0.  1.
          4   -1    0    0  502    0 -0.00000000000E+00 -0.00000000000E+00 -0.20753049665E+03  0.20753049665E+03  0.00000000000E+00 0.  1.
    9000010    2    1    2  501    0 -0.12571324407E+03 -0.17816299563E+03  0.18918422246E+04  0.21456620343E+04  0.98856091868E+03 0.  0.
        -13    1    3    3    0    0  0.26658797160E+03  0.29483854282E+03  0.71701661576E+03  0.81982421980E+03  0.10566000000E+00 0.  1.
          4    1    3    3  501    0 -0.39230121567E+03 -0.47300153845E+03  0.11748256089E+04  0.13258378145E+04  0.00000000000E+00 0.  1.
         13    1    1    2    0    0  0.12571324407E+03  0.17816299563E+03  0.66816566795E+02  0.22805775039E+03  0.10566000000E+00 0. -1.
<mgrwt>
<rscale>  1 0.68964971E+03</rscale>
<asrwt>0</asrwt>
<pdfrwt beam="1">  1       21 0.33325987E+00 0.10123233E+04</pdfrwt>
<pdfrwt beam="2">  1        4 0.31927770E-01 0.10123233E+04</pdfrwt>
<totfact> 0.62872418E+00</totfact>
</mgrwt>
</event>
<event>
 6    1  0.1431486E-005  0.9933116E+03  0.7818608E-02  0.9857982E-01
         21   -1    0    0  501  502  0.00000000000E+00  0.00000000000E+00  0.28359676949E+03  0.28359676949E+03  0.00000000000E+00 0.  1.
          4   -1    0    0  502    0 -0.00000000000E+00 -0.00000000000E+00 -0.13011715249E+04  0.13011715249E+04  0.00000000000E+00 0.  1.
    9000010    2    1    2  501    0 -0.11911083178E+02 -0.15365742470E+03 -0.65238979613E+03  0.11883940474E+04  0.98128257278E+03 0.  0.
        -13    1    3    3    0    0  0.29228388996E+03 -0.45694103016E+03 -0.48415943710E+03  0.72707313874E+03  0.10566000000E+00 0.  1.
          4    1    3    3  501    0 -0.30419497314E+03  0.30328360546E+03 -0.16823035902E+03  0.46132090862E+03  0.00000000000E+00 0.  1.
         13    1    1    2    0    0  0.11911083178E+02  0.15365742470E+03 -0.36518495930E+03  0.39637424706E+03  0.10566000000E+00 0. -1.
<mgrwt>
<rscale>  1 0.62341576E+03</rscale>
<asrwt>0</asrwt>
<pdfrwt beam="1">  1       21 0.43630273E-01 0.99331162E+03</pdfrwt>
<pdfrwt beam="2">  1        4 0.20018023E+00 0.99331162E+03</pdfrwt>
<totfact> 0.26418284E+01</totfact>
</mgrwt>
</event>
<event>
 6    1  0.1431486E-005  0.9950524E+03  0.7818608E-02  0.9794683E-01
          4   -1    0    0  502    0 -0.00000000000E+00  0.00000000000E+00  0.11964400643E+04  0.11964400643E+04  0.00000000000E+00 0.  1.
         21   -1    0    0  501  502  0.00000000000E+00 -0.00000000000E+00 -0.37375508179E+03  0.37375508179E+03  0.00000000000E+00 0.  1.
    9000010    2    1    2  501    0 -0.86850420856E+02 -0.16732648362E+03  0.33923821760E+03  0.10512905948E+04  0.97703029565E+03 0.  0.
        -13    1    3    3    0    0  0.14611524499E+03 -0.51088462427E+03  0.34960730016E+03  0.63606449329E+03  0.10566000000E+00 0.  1.
          4    1    3    3  501    0 -0.23296566584E+03  0.34355814065E+03 -0.10369082554E+02  0.41522610147E+03  0.00000000000E+00 0.  1.
         13    1    1    2    0    0  0.86850420856E+02  0.16732648362E+03  0.48344676494E+03  0.51890455136E+03  0.10566000000E+00 0. -1.
<mgrwt>
<rscale>  1 0.65648669E+03</rscale>
<asrwt>0</asrwt>
<pdfrwt beam="2">  1       21 0.57500782E-01 0.99505243E+03</pdfrwt>
<pdfrwt beam="1">  1        4 0.18406770E+00 0.99505243E+03</pdfrwt>
<totfact> 0.18670681E+01</totfact>
</mgrwt>
</event>
<event>
 6    1  0.1431486E-005  0.1027642E+04  0.7818608E-02  0.9790890E-01
          4   -1    0    0  502    0 -0.00000000000E+00  0.00000000000E+00  0.11718344845E+04  0.11718344845E+04  0.00000000000E+00 0.  1.
         21   -1    0    0  501  502  0.00000000000E+00 -0.00000000000E+00 -0.32642673592E+03  0.32642673592E+03  0.00000000000E+00 0.  1.
    9000010    2    1    2  501    0  0.17327730492E+03  0.27603356386E+01  0.57637207704E+03  0.11782411467E+04  0.10129238791E+04 0.  0.
        -13    1    3    3    0    0  0.18709632399E+03  0.32422359658E+03 -0.13464144132E+03  0.39781189514E+03  0.10566000000E+00 0.  1.
          4    1    3    3  501    0 -0.13819019074E+02 -0.32146326094E+03  0.71101351836E+03  0.78042925158E+03  0.00000000000E+00 0.  1.
         13    1    1    2    0    0 -0.17327730492E+03 -0.27603356386E+01  0.26903567153E+03  0.32002007370E+03  0.10566000000E+00 0. -1.
<mgrwt>
<rscale>  1 0.65853748E+03</rscale>
<asrwt>0</asrwt>
<pdfrwt beam="2">  1       21 0.50219498E-01 0.10276417E+04</pdfrwt>
<pdfrwt beam="1">  1        4 0.18028223E+00 0.10276417E+04</pdfrwt>
<totfact> 0.26585427E+01</totfact>
</mgrwt>
</event>
<event>
 6    1  0.1431486E-005  0.1025739E+04  0.7818608E-02  0.1017190E+00
         21   -1    0    0  501  502  0.00000000000E+00  0.00000000000E+00  0.32803073749E+03  0.32803073749E+03  0.00000000000E+00 0.  1.
          4   -1    0    0  502    0 -0.00000000000E+00 -0.00000000000E+00 -0.89312675756E+03  0.89312675756E+03  0.00000000000E+00 0.  1.
    9000010    2    1    2  501    0 -0.49220024147E+01 -0.51949127421E+02 -0.51093123916E+03  0.11459459760E+04  0.10244112996E+04 0.  0.
        -13    1    3    3    0    0 -0.48788172676E+03  0.90237247334E+01 -0.43413261767E+03  0.65313179972E+03  0.10566000000E+00 0.  1.
          4    1    3    3  501    0  0.48295972435E+03 -0.60972852155E+02 -0.76798621491E+02  0.49281417624E+03  0.00000000000E+00 0.  1.
         13    1    1    2    0    0  0.49220024147E+01  0.51949127421E+02 -0.54164780911E+02  0.75211519083E+02  0.10566000000E+00 0. -1.
<mgrwt>
<rscale>  1 0.48714443E+03</rscale>
<asrwt>0</asrwt>
<pdfrwt beam="1">  1       21 0.50466267E-01 0.10257395E+04</pdfrwt>
<pdfrwt beam="2">  1        4 0.13740412E+00 0.10257395E+04</pdfrwt>
<totfact> 0.55412635E+01</totfact>
</mgrwt>
</event>
<event>
 6    1  0.1431486E-005  0.1002487E+04  0.7818608E-02  0.9874328E-01
         21   -1    0    0  501  502  0.00000000000E+00  0.00000000000E+00  0.67646561089E+03  0.67646561089E+03  0.00000000000E+00 0.  1.
          4   -1    0    0  502    0 -0.00000000000E+00 -0.00000000000E+00 -0.48790803500E+03  0.48790803500E+03  0.00000000000E+00 0.  1.
    9000010    2    1    2  501    0 -0.11306854940E+03  0.86222791552E+02  0.19805581588E+03  0.10218636660E+04  0.99235093541E+03 0.  0.
        -13    1    3    3    0    0 -0.26419382893E+03 -0.16052431681E+03 -0.30961464273E+03  0.43752448353E+03  0.10566000000E+00 0.  1.
          4    1    3    3  501    0  0.15112527953E+03  0.24674710836E+03  0.50767045862E+03  0.58433918245E+03  0.00000000000E+00 0.  1.
         13    1    1    2    0    0  0.11306854940E+03 -0.86222791552E+02 -0.94982399889E+01  0.14250997991E+03  0.10566000000E+00 0. -1.
<mgrwt>
<rscale>  1 0.61521730E+03</rscale>
<asrwt>0</asrwt>
<pdfrwt beam="1">  1       21 0.10407163E+00 0.10024865E+04</pdfrwt>
<pdfrwt beam="2">  1        4 0.75062775E-01 0.10024865E+04</pdfrwt>
<totfact> 0.44971395E+01</totfact>
</mgrwt>
</event>
<event>
 6    1  0.1431486E-005  0.9860749E+03  0.7818608E-02  0.1003013E+00
         21   -1    0    0  501  502  0.00000000000E+00  0.00000000000E+00  0.16305032932E+04  0.16305032932E+04  0.00000000000E+00 0.  1.
          4   -1    0    0  502    0 -0.00000000000E+00 -0.00000000000E+00 -0.18981122661E+03  0.18981122661E+03  0.00000000000E+00 0.  1.
    9000010    2    1    2  501    0  0.84766444667E+02  0.33087854286E+02  0.14169126283E+04  0.17262633151E+04  0.98186734380E+03 0.  0.
        -13    1    3    3    0    0  0.43578681664E+02  0.18794267710E+03  0.15222985556E+04  0.15344753028E+04  0.10566000000E+00 0.  1.
          4    1    3    3  501    0  0.41187763003E+02 -0.15485482281E+03 -0.10538592738E+03  0.19178801229E+03  0.00000000000E+00 0.  1.
         13    1    1    2    0    0 -0.84766444667E+02 -0.33087854286E+02  0.23779438288E+02  0.94051204628E+02  0.10566000000E+00 0. -1.
<mgrwt>
<rscale>  1 0.54348468E+03</rscale>
<asrwt>0</asrwt>
<pdfrwt beam="1">  1       21 0.25084665E+00 0.98607486E+03</pdfrwt>
<pdfrwt beam="2">  1        4 0.29201728E-01 0.98607486E+03</pdfrwt>
<totfact> 0.24618775E+01</totfact>
</mgrwt>
</event>
<event>
 6    1  0.1431486E-005  0.9960539E+03  0.7818608E-02  0.9695058E-01
         21   -1    0    0  501  502  0.00000000000E+00  0.00000000000E+00  0.45218503230E+03  0.45218503230E+03  0.00000000000E+00 0.  1.
          4   -1    0    0  502    0 -0.00000000000E+00 -0.00000000000E+00 -0.10052725759E+04  0.10052725759E+04  0.00000000000E+00 0.  1.
    9000010    2    1    2  501    0 -0.15770146601E+03 -0.20884161110E+03 -0.19667175205E+03  0.10152847929E+04  0.96106132053E+03 0.  0.
        -13    1    3    3    0    0 -0.15021462571E+03  0.26537241168E+03 -0.39686733532E+03  0.50049040317E+03  0.10566000000E+00 0.  1.
          4    1    3    3  501    0 -0.74868402997E+01 -0.47421402278E+03  0.20019558327E+03  0.51479438977E+03  0.00000000000E+00 0.  1.
         13    1    1    2    0    0  0.15770146601E+03  0.20884161110E+03 -0.35641579151E+03  0.44217281521E+03  0.10566000000E+00 0. -1.
<mgrwt>
<rscale>  1 0.71311774E+03</rscale>
<asrwt>0</asrwt>
<pdfrwt beam="1">  1       21 0.69566929E-01 0.99605393E+03</pdfrwt>
<pdfrwt beam="2">  1        4 0.15465732E+00 0.99605393E+03</pdfrwt>
<totfact> 0.19847540E+01</totfact>
</mgrwt>
</event>
<event>
 6    1  0.1431486E-005  0.1016392E+04  0.7818608E-02  0.9826704E-01
          4   -1    0    0  502    0 -0.00000000000E+00  0.00000000000E+00  0.44065182788E+03  0.44065182788E+03  0.00000000000E+00 0.  1.
         21   -1    0    0  501  502  0.00000000000E+00 -0.00000000000E+00 -0.99613297100E+03  0.99613297100E+03  0.00000000000E+00 0.  1.
    9000010    2    1    2  501    0  0.15200565867E+03  0.47570777884E+02 -0.68985802656E+03  0.12283960824E+04  0.10038347171E+04 0.  0.
        -13    1    3    3    0    0  0.34926188931E+03  0.33019011734E+03 -0.27120475661E+02  0.48139891180E+03  0.10566000000E+00 0.  1.
          4    1    3    3  501    0 -0.19725623064E+03 -0.28261933946E+03 -0.66273755090E+03  0.74699717063E+03  0.00000000000E+00 0.  1.
         13    1    1    2    0    0 -0.15200565867E+03 -0.47570777884E+02  0.13437688344E+03  0.20838871645E+03  0.10566000000E+00 0. -1.
<mgrwt>
<rscale>  1 0.63948925E+03</rscale>
<asrwt>0</asrwt>
<pdfrwt beam="2">  1       21 0.15325123E+00 0.10163921E+04</pdfrwt>
<pdfrwt beam="1">  1        4 0.67792589E-01 0.10163921E+04</pdfrwt>
<totfact> 0.20317671E+01</totfact>
</mgrwt>
</event>
<event>
 6    1  0.1431486E-005  0.1007112E+04  0.7818608E-02  0.9848079E-01
          4   -1    0    0  502    0 -0.00000000000E+00  0.00000000000E+00  0.51372654598E+03  0.51372654598E+03  0.00000000000E+00 0.  1.
         21   -1    0    0  501  502  0.00000000000E+00 -0.00000000000E+00 -0.66962647445E+03  0.66962647445E+03  0.00000000000E+00 0.  1.
    9000010    2    1    2  501    0 -0.66643524204E+02  0.13739326881E+03 -0.19478623418E+03  0.10257762913E+04  0.99546825820E+03 0.  0.
        -13    1    3    3    0    0 -0.85041670339E+02 -0.42795580554E+01  0.40262003609E+03  0.41152558236E+03  0.10566000000E+00 0.  1.
          4    1    3    3  501    0  0.18398146135E+02  0.14167282687E+03 -0.59740627027E+03  0.61425070892E+03  0.00000000000E+00 0.  1.
         13    1    1    2    0    0  0.66643524204E+02 -0.13739326881E+03  0.38886305715E+02  0.15757672915E+03  0.10566000000E+00 0. -1.
<mgrwt>
<rscale>  1 0.62844969E+03</rscale>
<asrwt>0</asrwt>
<pdfrwt beam="2">  1       21 0.10301946E+00 0.10071124E+04</pdfrwt>
<pdfrwt beam="1">  1        4 0.79034853E-01 0.10071124E+04</pdfrwt>
<totfact> 0.40996197E+01</totfact>
</mgrwt>
</event>
<event>
 6    1  0.1431486E-005  0.1062763E+04  0.7818608E-02  0.9545420E-01
          4   -1    0    0  502    0 -0.00000000000E+00  0.00000000000E+00  0.24452823770E+03  0.24452823770E+03  0.00000000000E+00 0.  1.
         21   -1    0    0  501  502  0.00000000000E+00 -0.00000000000E+00 -0.20764921527E+04  0.20764921527E+04  0.00000000000E+00 0.  1.
    9000010    2    1    2  501    0  0.31122208195E+03  0.17876111998E+03 -0.14377021352E+04  0.17878627360E+04  0.10003254524E+04 0.  0.
        -13    1    3    3    0    0 -0.31957534497E+03  0.11641045797E+03 -0.19301951758E+03  0.39107076236E+03  0.10566000000E+00 0.  1.
          4    1    3    3  501    0  0.63079742692E+03  0.62350662015E+02 -0.12446826177E+04  0.13967919736E+04  0.00000000000E+00 0.  1.
         13    1    1    2    0    0 -0.31122208195E+03 -0.17876111998E+03 -0.39426177971E+03  0.53315765437E+03  0.10566000000E+00 0. -1.
<mgrwt>
<rscale>  1 0.81016428E+03</rscale>
<asrwt>0</asrwt>
<pdfrwt beam="2">  1       21 0.31946031E+00 0.10627633E+04</pdfrwt>
<pdfrwt beam="1">  1        4 0.37619731E-01 0.10627633E+04</pdfrwt>
<totfact> 0.54767243E+00</totfact>
</mgrwt>
</event>
<event>
 6    1  0.1431486E-005  0.1020820E+04  0.7818608E-02  0.9697839E-01
          4   -1    0    0  502    0 -0.00000000000E+00  0.00000000000E+00  0.35580271640E+03  0.35580271640E+03  0.00000000000E+00 0.  1.
         21   -1    0    0  501  502  0.00000000000E+00 -0.00000000000E+00 -0.11516992087E+04  0.11516992087E+04  0.00000000000E+00 0.  1.
    9000010    2    1    2  501    0  0.10013876051E+03  0.21904360060E+03 -0.73840391872E+03  0.12598867448E+04  0.99200120577E+03 0.  0.
        -13    1    3    3    0    0  0.43180887570E+03 -0.36802516982E+02 -0.72028949273E+03  0.84061304706E+03  0.10566000000E+00 0.  1.
          4    1    3    3  501    0 -0.33167011519E+03  0.25584611758E+03 -0.18114425986E+02  0.41927369774E+03  0.00000000000E+00 0.  1.
         13    1    1    2    0    0 -0.10013876051E+03 -0.21904360060E+03 -0.57492573566E+02  0.24761518027E+03  0.10566000000E+00 0. -1.
<mgrwt>
<rscale>  1 0.71145572E+03</rscale>
<asrwt>0</asrwt>
<pdfrwt beam="2">  1       21 0.17718449E+00 0.10208204E+04</pdfrwt>
<pdfrwt beam="1">  1        4 0.54738880E-01 0.10208204E+04</pdfrwt>
<totfact> 0.21284300E+01</totfact>
</mgrwt>
</event>
<event>
 6    1  0.1431486E-005  0.1089366E+04  0.7818608E-02  0.9477719E-01
         21   -1    0    0  501  502  0.00000000000E+00  0.00000000000E+00  0.35636799752E+03  0.35636799752E+03  0.00000000000E+00 0.  1.
          4   -1    0    0  502    0 -0.00000000000E+00 -0.00000000000E+00 -0.16233275398E+04  0.16233275398E+04  0.00000000000E+00 0.  1.
    9000010    2    1    2  501    0  0.41891909683E+03 -0.51550820001E+02 -0.10100903025E+04  0.14855978605E+04  0.10042748066E+04 0.  0.
        -13    1    3    3    0    0 -0.43751066674E+02 -0.44130858350E+03 -0.23350794494E+03  0.50119197243E+03  0.10566000000E+00 0.  1.
          4    1    3    3  501    0  0.46267016351E+03  0.38975776350E+03 -0.77658235758E+03  0.98440588809E+03  0.00000000000E+00 0.  1.
         13    1    1    2    0    0 -0.41891909683E+03  0.51550820001E+02 -0.25686923980E+03  0.49409767683E+03  0.10566000000E+00 0. -1.
<mgrwt>
<rscale>  1 0.85946640E+03</rscale>
<asrwt>0</asrwt>
<pdfrwt beam="1">  1       21 0.54825846E-01 0.10893661E+04</pdfrwt>
<pdfrwt beam="2">  1        4 0.24974270E+00 0.10893661E+04</pdfrwt>
<totfact> 0.77263608E+00</totfact>
</mgrwt>
</event>
<event>
 6    1  0.1431486E-005  0.9997670E+03  0.7818608E-02  0.9827985E-01
          4   -1    0    0  502    0 -0.00000000000E+00  0.00000000000E+00  0.23488059482E+04  0.23488059482E+04  0.00000000000E+00 0.  1.
         21   -1    0    0  501  502  0.00000000000E+00 -0.00000000000E+00 -0.19412860516E+03  0.19412860516E+03  0.00000000000E+00 0.  1.
    9000010    2    1    2  501    0  0.11140193760E+03 -0.12395039697E+03  0.11469592240E+04  0.15215287030E+04  0.98577890008E+03 0.  0.
        -13    1    3    3    0    0  0.29397624174E+03  0.36542376481E+03  0.64170793317E+03  0.79482428325E+03  0.10566000000E+00 0.  1.
          4    1    3    3  501    0 -0.18257430415E+03 -0.48937416178E+03  0.50525129087E+03  0.72670441974E+03  0.00000000000E+00 0.  1.
         13    1    1    2    0    0 -0.11140193760E+03  0.12395039697E+03  0.10077181190E+04  0.10214058503E+04  0.10566000000E+00 0. -1.
<mgrwt>
<rscale>  1 0.63882090E+03</rscale>
<asrwt>0</asrwt>
<pdfrwt beam="2">  1       21 0.29865941E-01 0.99976704E+03</pdfrwt>
<pdfrwt beam="1">  1        4 0.36135474E+00 0.99976704E+03</pdfrwt>
<totfact> 0.55861808E+00</totfact>
</mgrwt>
</event>
<event>
 6    1  0.1431486E-005  0.1007700E+04  0.7818608E-02  0.9885423E-01
         21   -1    0    0  501  502  0.00000000000E+00  0.00000000000E+00  0.11707254814E+04  0.11707254814E+04  0.00000000000E+00 0.  1.
          4   -1    0    0  502    0 -0.00000000000E+00 -0.00000000000E+00 -0.33550699076E+03  0.33550699076E+03  0.00000000000E+00 0.  1.
    9000010    2    1    2  501    0  0.13373258467E+03 -0.18951694164E+02  0.90479703509E+03  0.13542957882E+04  0.99860694792E+03 0.  0.
        -13    1    3    3    0    0 -0.27447123791E+03 -0.30445751391E+03  0.12423600007E+03  0.42832631614E+03  0.10566000000E+00 0.  1.
          4    1    3    3  501    0  0.40820382258E+03  0.28550581975E+03  0.78056103502E+03  0.92596947210E+03  0.00000000000E+00 0.  1.
         13    1    1    2    0    0 -0.13373258467E+03  0.18951694164E+02 -0.69578544428E+02  0.15193668392E+03  0.10566000000E+00 0. -1.
<mgrwt>
<rscale>  1 0.60972953E+03</rscale>
<asrwt>0</asrwt>
<pdfrwt beam="1">  1       21 0.18011161E+00 0.10077001E+04</pdfrwt>
<pdfrwt beam="2">  1        4 0.51616461E-01 0.10077001E+04</pdfrwt>
<totfact> 0.23002678E+01</totfact>
</mgrwt>
</event>
<event>
 6    1  0.1431486E-005  0.1013374E+04  0.7818608E-02  0.9835776E-01
          4   -1    0    0  502    0 -0.00000000000E+00  0.00000000000E+00  0.15711296010E+04  0.15711296010E+04  0.00000000000E+00 0.  1.
         21   -1    0    0  501  502  0.00000000000E+00 -0.00000000000E+00 -0.32589059558E+03  0.32589059558E+03  0.00000000000E+00 0.  1.
    9000010    2    1    2  501    0 -0.60462385037E+02  0.14382341239E+03  0.48960984022E+03  0.11254527527E+04  0.10012917802E+04 0.  0.
        -13    1    3    3    0    0 -0.23248105019E+03 -0.30014254441E+03  0.52514212797E+03  0.64800250879E+03  0.10566000000E+00 0.  1.
          4    1    3    3  501    0  0.17201866515E+03  0.44396595680E+03 -0.35532287747E+02  0.47745024394E+03  0.00000000000E+00 0.  1.
         13    1    1    2    0    0  0.60462385037E+02 -0.14382341239E+03  0.75562916523E+03  0.77156744389E+03  0.10566000000E+00 0. -1.
<mgrwt>
<rscale>  1 0.63477417E+03</rscale>
<asrwt>0</asrwt>
<pdfrwt beam="2">  1       21 0.50137015E-01 0.10133736E+04</pdfrwt>
<pdfrwt beam="1">  1        4 0.24171224E+00 0.10133736E+04</pdfrwt>
<totfact> 0.10626919E+01</totfact>
</mgrwt>
</event>
<event>
 6    1  0.1431486E-005  0.1443817E+04  0.7818608E-02  0.8994921E-01
         21   -1    0    0  501  502  0.00000000000E+00  0.00000000000E+00  0.27106893398E+04  0.27106893398E+04  0.00000000000E+00 0. -1.
          4   -1    0    0  502    0 -0.00000000000E+00 -0.00000000000E+00 -0.59809696190E+03  0.59809696190E+03  0.00000000000E+00 0.  1.
    9000010    2    1    2  501    0  0.67291401762E+03  0.85244480064E+03  0.10163514190E+04  0.17656661948E+04  0.95138398728E+03 0.  0.
        -13    1    3    3    0    0  0.70862243502E+03  0.46650445421E+03  0.21455543612E+03  0.87510354104E+03  0.10566000000E+00 0.  1.
          4    1    3    3  501    0 -0.35708417399E+02  0.38594034644E+03  0.80179598289E+03  0.89056265375E+03  0.00000000000E+00 0.  1.
         13    1    1    2    0    0 -0.67291401762E+03 -0.85244480064E+03  0.10962409589E+04  0.15431201070E+04  0.10566000000E+00 0. -1.
<mgrwt>
<rscale>  1 0.13446066E+04</rscale>
<asrwt>0</asrwt>
<pdfrwt beam="1">  1       21 0.41702912E+00 0.14438168E+04</pdfrwt>
<pdfrwt beam="2">  1        4 0.92014919E-01 0.14438168E+04</pdfrwt>
<totfact> 0.17062126E-01</totfact>
</mgrwt>
</event>
<event>
 6    1  0.1431486E-005  0.8509230E+03  0.7818608E-02  0.9986767E-01
         21   -1    0    0  501  502  0.00000000000E+00  0.00000000000E+00  0.81442049743E+03  0.81442049743E+03  0.00000000000E+00 0.  1.
          4   -1    0    0  502    0 -0.00000000000E+00 -0.00000000000E+00 -0.57798411746E+03  0.57798411746E+03  0.00000000000E+00 0.  1.
    9000010    2    1    2  501    0 -0.11818953295E+03 -0.11124069260E+03  0.56811415071E+03  0.10231439859E+04  0.83530034729E+03 0.  0.
        -13    1    3    3    0    0 -0.37298988182E+03  0.14004828543E+03  0.53029181749E+03  0.66328304445E+03  0.10566000000E+00 0.  1.
          4    1    3    3  501    0  0.25480034887E+03 -0.25128897803E+03  0.37822333212E+02  0.35986094141E+03  0.00000000000E+00 0.  1.
         13    1    1    2    0    0  0.11818953295E+03  0.11124069260E+03 -0.33167777073E+03  0.36926062903E+03  0.10566000000E+00 0. -1.
<mgrwt>
<rscale>  1 0.56234314E+03</rscale>
<asrwt>0</asrwt>
<pdfrwt beam="1">  1       21 0.12529546E+00 0.85092299E+03</pdfrwt>
<pdfrwt beam="2">  1        4 0.88920633E-01 0.85092299E+03</pdfrwt>
<totfact> 0.19237358E+01</totfact>
</mgrwt>
</event>
<event>
 6    1  0.1431486E-005  0.9997029E+03  0.7818608E-02  0.1036256E+00
          4   -1    0    0  502    0 -0.00000000000E+00  0.00000000000E+00  0.36078386056E+03  0.36078386056E+03  0.00000000000E+00 0.  1.
         21   -1    0    0  501  502  0.00000000000E+00 -0.00000000000E+00 -0.94252394229E+03  0.94252394229E+03  0.00000000000E+00 0.  1.
    9000010    2    1    2  501    0  0.29821173377E+02 -0.11304983695E+02 -0.67400258038E+03  0.12056887224E+04  0.99919403122E+03 0.  0.
        -13    1    3    3    0    0  0.37181519912E+03 -0.68030864915E+02 -0.75974188540E+03  0.84857674047E+03  0.10566000000E+00 0.  1.
          4    1    3    3  501    0 -0.34199402574E+03  0.56725881220E+02  0.85739305015E+02  0.35711198197E+03  0.00000000000E+00 0.  1.
         13    1    1    2    0    0 -0.29821173377E+02  0.11304983695E+02  0.92262498653E+02  0.97619080408E+02  0.10566000000E+00 0. -1.
<mgrwt>
<rscale>  1 0.42249787E+03</rscale>
<asrwt>0</asrwt>
<pdfrwt beam="2">  1       21 0.14500368E+00 0.99970286E+03</pdfrwt>
<pdfrwt beam="1">  1        4 0.55505210E-01 0.99970286E+03</pdfrwt>
<totfact> 0.36758055E+01</totfact>
</mgrwt>
</event>
<event>
 6    1  0.1431486E-005  0.1012550E+04  0.7818608E-02  0.9793373E-01
          4   -1    0    0  502    0 -0.00000000000E+00  0.00000000000E+00  0.33207678540E+03  0.33207678540E+03  0.00000000000E+00 0.  1.
         21   -1    0    0  501  502  0.00000000000E+00 -0.00000000000E+00 -0.11522531193E+04  0.11522531193E+04  0.00000000000E+00 0.  1.
    9000010    2    1    2  501    0 -0.60610379459E+02  0.16915983481E+03 -0.82266711591E+03  0.13046221337E+04  0.99647832908E+03 0.  0.
        -13    1    3    3    0    0 -0.51729479101E+02 -0.47576906009E+01  0.23094503175E+03  0.23671542722E+03  0.10566000000E+00 0.  1.
          4    1    3    3  501    0 -0.88809003576E+01  0.17391752541E+03 -0.10536121477E+04  0.10679067065E+04  0.00000000000E+00 0.  1.
         13    1    1    2    0    0  0.60610379459E+02 -0.16915983481E+03  0.24907819782E+01  0.17970777103E+03  0.10566000000E+00 0. -1.
<mgrwt>
<rscale>  1 0.65719413E+03</rscale>
<asrwt>0</asrwt>
<pdfrwt beam="2">  1       21 0.17726971E+00 0.10125501E+04</pdfrwt>
<pdfrwt beam="1">  1        4 0.51088737E-01 0.10125501E+04</pdfrwt>
<totfact> 0.24644542E+01</totfact>
</mgrwt>
</event>
<event>
 6    1  0.1431486E-005  0.1024091E+04  0.7818608E-02  0.9731239E-01
         21   -1    0    0  501  502  0.00000000000E+00  0.00000000000E+00  0.20389471374E+03  0.20389471374E+03  0.00000000000E+00 0.  1.
          4   -1    0    0  502    0 -0.00000000000E+00 -0.00000000000E+00 -0.24887262047E+04  0.24887262047E+04  0.00000000000E+00 0.  1.
    9000010    2    1    2  501    0 -0.11504884362E+03  0.17966452766E+03 -0.11584403401E+04  0.15462036232E+04  0.10016217070E+04 0.  0.
        -13    1    3    3    0    0  0.34626667695E+03  0.38414338267E+03 -0.63827734804E+03  0.82150151199E+03  0.10566000000E+00 0.  1.
          4    1    3    3  501    0 -0.46131552057E+03 -0.20447885501E+03 -0.52016299203E+03  0.72470211118E+03  0.00000000000E+00 0.  1.
         13    1    1    2    0    0  0.11504884362E+03 -0.17966452766E+03 -0.11263911509E+04  0.11464172952E+04  0.10566000000E+00 0. -1.
<mgrwt>
<rscale>  1 0.69186891E+03</rscale>
<asrwt>0</asrwt>
<pdfrwt beam="1">  1       21 0.31368419E-01 0.10240906E+04</pdfrwt>
<pdfrwt beam="2">  1        4 0.38288093E+00 0.10240906E+04</pdfrwt>
<totfact> 0.36230173E+00</totfact>
</mgrwt>
</event>
<event>
 6    1  0.1431486E-005  0.1067012E+04  0.7818608E-02  0.9543651E-01
          4   -1    0    0  502    0 -0.00000000000E+00  0.00000000000E+00  0.11951778960E+04  0.11951778960E+04  0.00000000000E+00 0.  1.
         21   -1    0    0  501  502  0.00000000000E+00 -0.00000000000E+00 -0.46860518546E+03  0.46860518546E+03  0.00000000000E+00 0.  1.
    9000010    2    1    2  501    0 -0.15813960552E+02 -0.35646768867E+03  0.30148110935E+03  0.11087856265E+04  0.10055821259E+04 0.  0.
        -13    1    3    3    0    0 -0.45664342784E+03 -0.42057061013E+03  0.15515937438E+03  0.63990413416E+03  0.10566000000E+00 0.  1.
          4    1    3    3  501    0  0.44082946729E+03  0.64102921463E+02  0.14632173497E+03  0.46888149238E+03  0.00000000000E+00 0.  1.
         13    1    1    2    0    0  0.15813960552E+02  0.35646768867E+03  0.42509160119E+03  0.55499745493E+03  0.10566000000E+00 0. -1.
<mgrwt>
<rscale>  1 0.81140705E+03</rscale>
<asrwt>0</asrwt>
<pdfrwt beam="2">  1       21 0.72093106E-01 0.10670120E+04</pdfrwt>
<pdfrwt beam="1">  1        4 0.18387352E+00 0.10670120E+04</pdfrwt>
<totfact> 0.11152710E+01</totfact>
</mgrwt>
</event>
<event>
 6    1  0.1431486E-005  0.9960082E+03  0.7818608E-02  0.1018411E+00
          4   -1    0    0  502    0 -0.00000000000E+00  0.00000000000E+00  0.81039302705E+03  0.81039302705E+03  0.00000000000E+00 0.  1.
         21   -1    0    0  501  502  0.00000000000E+00 -0.00000000000E+00 -0.41083024929E+03  0.41083024929E+03  0.00000000000E+00 0.  1.
    9000010    2    1    2  501    0  0.44549857179E+02 -0.32114307235E+02  0.20215186713E+03  0.10163157428E+04  0.99449298295E+03 0.  0.
        -13    1    3    3    0    0 -0.21612576005E+03 -0.35162558628E+03  0.38574505387E+03  0.56493376145E+03  0.10566000000E+00 0.  1.
          4    1    3    3  501    0  0.26067561723E+03  0.31951127904E+03 -0.18359318674E+03  0.45138198133E+03  0.00000000000E+00 0.  1.
         13    1    1    2    0    0 -0.44549857179E+02  0.32114307235E+02  0.19741091064E+03  0.20490753355E+03  0.10566000000E+00 0. -1.
<mgrwt>
<rscale>  1 0.48264369E+03</rscale>
<asrwt>0</asrwt>
<pdfrwt beam="2">  1       21 0.63204654E-01 0.99600819E+03</pdfrwt>
<pdfrwt beam="1">  1        4 0.12467585E+00 0.99600819E+03</pdfrwt>
<totfact> 0.43410267E+01</totfact>
</mgrwt>
</event>
<event>
 6    1  0.1431486E-005  0.9803226E+03  0.7818608E-02  0.9850366E-01
         21   -1    0    0  501  502  0.00000000000E+00  0.00000000000E+00  0.35127568685E+03  0.35127568685E+03  0.00000000000E+00 0.  1.
          4   -1    0    0  502    0 -0.00000000000E+00 -0.00000000000E+00 -0.11959748912E+04  0.11959748912E+04  0.00000000000E+00 0.  1.
    9000010    2    1    2  501    0 -0.16087279495E+03 -0.33585185649E+02 -0.37494509475E+03  0.10495790443E+04  0.96644933925E+03 0.  0.
        -13    1    3    3    0    0  0.32149338343E+03 -0.28322451669E+03 -0.23514057090E+03  0.48873839801E+03  0.10566000000E+00 0.  1.
          4    1    3    3  501    0 -0.48236617838E+03  0.24963933104E+03 -0.13980452386E+03  0.56084064630E+03  0.00000000000E+00 0.  1.
         13    1    1    2    0    0  0.16087279495E+03  0.33585185649E+02 -0.46975410962E+03  0.49767153376E+03  0.10566000000E+00 0. -1.
<mgrwt>
<rscale>  1 0.62728279E+03</rscale>
<asrwt>0</asrwt>
<pdfrwt beam="1">  1       21 0.54042414E-01 0.98032257E+03</pdfrwt>
<pdfrwt beam="2">  1        4 0.18399614E+00 0.98032257E+03</pdfrwt>
<totfact> 0.21455969E+01</totfact>
</mgrwt>
</event>
<event>
 6    1  0.1431486E-005  0.1009823E+04  0.7818608E-02  0.9945847E-01
          4   -1    0    0  502    0 -0.00000000000E+00  0.00000000000E+00  0.41653315914E+03  0.41653315914E+03  0.00000000000E+00 0.  1.
         21   -1    0    0  501  502  0.00000000000E+00 -0.00000000000E+00 -0.12823843543E+04  0.12823843543E+04  0.00000000000E+00 0.  1.
    9000010    2    1    2  501    0  0.10644182236E+03 -0.29956948822E+02 -0.10671786029E+04  0.14692220267E+04  0.10037509217E+04 0.  0.
        -13    1    3    3    0    0  0.54122693631E+02  0.31220262909E+03 -0.10773062081E+04  0.11229374091E+04  0.10566000000E+00 0.  1.
          4    1    3    3  501    0  0.52319128729E+02 -0.34215957791E+03  0.10127605179E+02  0.34628461758E+03  0.00000000000E+00 0.  1.
         13    1    1    2    0    0 -0.10644182236E+03  0.29956948822E+02  0.20132740780E+03  0.22969548673E+03  0.10566000000E+00 0. -1.
<mgrwt>
<rscale>  1 0.58089861E+03</rscale>
<asrwt>0</asrwt>
<pdfrwt beam="2">  1       21 0.19728990E+00 0.10098233E+04</pdfrwt>
<pdfrwt beam="1">  1        4 0.64082025E-01 0.10098233E+04</pdfrwt>
<totfact> 0.10886601E+01</totfact>
</mgrwt>
</event>
<event>
 6    1  0.1431486E-005  0.1010194E+04  0.7818608E-02  0.1002177E+00
         21   -1    0    0  501  502  0.00000000000E+00  0.00000000000E+00  0.13097615273E+04  0.13097615273E+04  0.00000000000E+00 0.  1.
          4   -1    0    0  502    0 -0.00000000000E+00 -0.00000000000E+00 -0.36402042497E+03  0.36402042497E+03  0.00000000000E+00 0.  1.
    9000010    2    1    2  501    0 -0.77864351410E+02  0.38541051909E+02  0.11020231229E+04  0.14949738120E+04  0.10064509254E+04 0.  0.
        -13    1    3    3    0    0 -0.74826757826E+02 -0.32197652313E+03  0.10847855677E+04  0.11340315975E+04  0.10566000000E+00 0.  1.
          4    1    3    3  501    0 -0.30375935840E+01  0.36051757504E+03  0.17237555238E+02  0.36094221449E+03  0.00000000000E+00 0.  1.
         13    1    1    2    0    0  0.77864351410E+02 -0.38541051909E+02 -0.15628202059E+03  0.17880814027E+03  0.10566000000E+00 0. -1.
<mgrwt>
<rscale>  1 0.54705950E+03</rscale>
<asrwt>0</asrwt>
<pdfrwt beam="1">  1       21 0.20150177E+00 0.10101939E+04</pdfrwt>
<pdfrwt beam="2">  1        4 0.56003143E-01 0.10101939E+04</pdfrwt>
<totfact> 0.13654701E+01</totfact>
</mgrwt>
</event>
<event>
 6    1  0.1431486E-005  0.1020307E+04  0.7818608E-02  0.9742169E-01
         21   -1    0    0  501  502  0.00000000000E+00  0.00000000000E+00  0.23872810629E+04  0.23872810629E+04  0.00000000000E+00 0.  1.
          4   -1    0    0  502    0 -0.00000000000E+00 -0.00000000000E+00 -0.24642925548E+03  0.24642925548E+03  0.00000000000E+00 0.  1.
    9000010    2    1    2  501    0 -0.23347024895E+02 -0.20670654756E+03  0.21934504297E+04  0.24191425981E+04  0.99887608932E+03 0.  0.
        -13    1    3    3    0    0 -0.47903568458E+03  0.71395771150E+02  0.11216785255E+04  0.12217754577E+04  0.10566000000E+00 0.  1.
          4    1    3    3  501    0  0.45568865969E+03 -0.27810231871E+03  0.10717719042E+04  0.11973671404E+04  0.00000000000E+00 0.  1.
         13    1    1    2    0    0  0.23347024895E+02  0.20670654756E+03 -0.52598622280E+02  0.21456772033E+03  0.10566000000E+00 0. -1.
<mgrwt>
<rscale>  1 0.68560638E+03</rscale>
<asrwt>0</asrwt>
<pdfrwt beam="1">  1       21 0.36727399E+00 0.10203069E+04</pdfrwt>
<pdfrwt beam="2">  1        4 0.37912195E-01 0.10203069E+04</pdfrwt>
<totfact> 0.27138804E+00</totfact>
</mgrwt>
</event>
<event>
 6    1  0.1431486E-005  0.1068412E+04  0.7818608E-02  0.9554544E-01
          4   -1    0    0  502    0 -0.00000000000E+00  0.00000000000E+00  0.93309068386E+03  0.93309068386E+03  0.00000000000E+00 0.  1.
         21   -1    0    0  501  502  0.00000000000E+00 -0.00000000000E+00 -0.53317691237E+03  0.53317691237E+03  0.00000000000E+00 0.  1.
    9000010    2    1    2  501    0 -0.81372912182E+02  0.33244873644E+03  0.30407676532E+03  0.11108404502E+04  0.10121067698E+04 0.  0.
        -13    1    3    3    0    0  0.74049339393E+02 -0.27453019231E+03  0.38548943532E+03  0.47901174001E+03  0.10566000000E+00 0.  1.
          4    1    3    3  501    0 -0.15542225157E+03  0.60697892875E+03 -0.81412669995E+02  0.63182871023E+03  0.00000000000E+00 0.  1.
         13    1    1    2    0    0  0.81372912182E+02 -0.33244873644E+03  0.95837006172E+02  0.35542714600E+03  0.10566000000E+00 0. -1.
<mgrwt>
<rscale>  1 0.80379250E+03</rscale>
<asrwt>0</asrwt>
<pdfrwt beam="2">  1       21 0.82027217E-01 0.10684118E+04</pdfrwt>
<pdfrwt beam="1">  1        4 0.14355241E+00 0.10684118E+04</pdfrwt>
<totfact> 0.16400940E+01</totfact>
</mgrwt>
</event>
<event>
 6    1  0.1431486E-005  0.1060525E+04  0.7818608E-02  0.9602753E-01
         21   -1    0    0  501  502  0.00000000000E+00  0.00000000000E+00  0.99946343872E+03  0.99946343872E+03  0.00000000000E+00 0.  1.
          4   -1    0    0  502    0 -0.00000000000E+00 -0.00000000000E+00 -0.49319427381E+03  0.49319427381E+03  0.00000000000E+00 0.  1.
    9000010    2    1    2  501    0 -0.15172460080E+03 -0.25470062463E+03  0.54720811899E+03  0.11933772892E+04  0.10182435201E+04 0.  0.
        -13    1    3    3    0    0 -0.47477612482E+03  0.12626211894E+03  0.48444035011E+03  0.68995431396E+03  0.10566000000E+00 0.  1.
          4    1    3    3  501    0  0.32305152403E+03 -0.38096274357E+03  0.62767768884E+02  0.50342297522E+03  0.00000000000E+00 0.  1.
         13    1    1    2    0    0  0.15172460080E+03  0.25470062463E+03 -0.40938954080E+02  0.29928042335E+03  0.10566000000E+00 0. -1.
<mgrwt>
<rscale>  1 0.77114267E+03</rscale>
<asrwt>0</asrwt>
<pdfrwt beam="1">  1       21 0.15376361E+00 0.10605247E+04</pdfrwt>
<pdfrwt beam="2">  1        4 0.75876042E-01 0.10605247E+04</pdfrwt>
<totfact> 0.15545114E+01</totfact>
</mgrwt>
</event>
<event>
 6    1  0.1431486E-005  0.1108320E+04  0.7818608E-02  0.9432754E-01
          4   -1    0    0  502    0 -0.00000000000E+00  0.00000000000E+00  0.23799425738E+04  0.23799425738E+04  0.00000000000E+00 0.  1.
         21   -1    0    0  501  502  0.00000000000E+00 -0.00000000000E+00 -0.27049987335E+03  0.27049987335E+03  0.00000000000E+00 0.  1.
    9000010    2    1    2  501    0  0.46978807198E+03 -0.24749943837E+01  0.12470119899E+04  0.16683560458E+04  0.10038256991E+04 0.  0.
        -13    1    3    3    0    0  0.39221896849E+03  0.47508417463E+03  0.59536413947E+03  0.85673751054E+03  0.10566000000E+00 0.  1.
          4    1    3    3  501    0  0.77569103496E+02 -0.47755916902E+03  0.65164785045E+03  0.81161853523E+03  0.00000000000E+00 0.  1.
         13    1    1    2    0    0 -0.46978807198E+03  0.24749943837E+01  0.86243071055E+03  0.98208640141E+03  0.10566000000E+00 0. -1.
<mgrwt>
<rscale>  1 0.89428481E+03</rscale>
<asrwt>0</asrwt>
<pdfrwt beam="2">  1       21 0.41615367E-01 0.11083199E+04</pdfrwt>
<pdfrwt beam="1">  1        4 0.36614500E+00 0.11083199E+04</pdfrwt>
<totfact> 0.25805943E+00</totfact>
</mgrwt>
</event>
<event>
 6    1  0.1431486E-005  0.1064291E+04  0.7818608E-02  0.9540023E-01
         21   -1    0    0  501  502  0.00000000000E+00  0.00000000000E+00  0.11007021553E+04  0.11007021553E+04  0.00000000000E+00 0.  1.
          4   -1    0    0  502    0 -0.00000000000E+00 -0.00000000000E+00 -0.57117039194E+03  0.57117039194E+03  0.00000000000E+00 0.  1.
    9000010    2    1    2  501    0  0.35649738154E+03  0.74085427645E+02  0.69583813970E+03  0.12715765872E+04  0.10000686310E+04 0.  0.
        -13    1    3    3    0    0  0.26982346744E+03  0.53260282322E+03  0.41175563905E+03  0.72526766668E+03  0.10566000000E+00 0.  1.
          4    1    3    3  501    0  0.86673914108E+02 -0.45851739557E+03  0.28408250065E+03  0.54630892049E+03  0.00000000000E+00 0.  1.
         13    1    1    2    0    0 -0.35649738154E+03 -0.74085427645E+02 -0.16630637637E+03  0.40029596004E+03  0.10566000000E+00 0. -1.
<mgrwt>
<rscale>  1 0.81396324E+03</rscale>
<asrwt>0</asrwt>
<pdfrwt beam="1">  1       21 0.16933879E+00 0.10642915E+04</pdfrwt>
<pdfrwt beam="2">  1        4 0.87872368E-01 0.10642915E+04</pdfrwt>
<totfact> 0.83893766E+00</totfact>
</mgrwt>
</event>
<event>
 6    1  0.1431486E-005  0.1041324E+04  0.7818608E-02  0.9628967E-01
          4   -1    0    0  502    0 -0.00000000000E+00  0.00000000000E+00  0.12456801467E+04  0.12456801467E+04  0.00000000000E+00 0.  1.
         21   -1    0    0  501  502  0.00000000000E+00 -0.00000000000E+00 -0.35846001043E+03  0.35846001043E+03  0.00000000000E+00 0.  1.
    9000010    2    1    2  501    0  0.27984195999E+02  0.28499260544E+03  0.61688492728E+03  0.12103317815E+04  0.10011753629E+04 0.  0.
        -13    1    3    3    0    0  0.36612772471E+03  0.29727555604E+02 -0.97239725236E+02  0.37998528089E+03  0.10566000000E+00 0.  1.
          4    1    3    3  501    0 -0.33814352871E+03  0.25526504984E+03  0.71412465251E+03  0.83034650056E+03  0.00000000000E+00 0.  1.
         13    1    1    2    0    0 -0.27984195999E+02 -0.28499260544E+03  0.27033520904E+03  0.39380837573E+03  0.10566000000E+00 0. -1.
<mgrwt>
<rscale>  1 0.75408236E+03</rscale>
<asrwt>0</asrwt>
<pdfrwt beam="2">  1       21 0.55147695E-01 0.10413242E+04</pdfrwt>
<pdfrwt beam="1">  1        4 0.19164310E+00 0.10413242E+04</pdfrwt>
<totfact> 0.18091657E+01</totfact>
</mgrwt>
</event>
<event>
 6    1  0.1431486E-005  0.1041168E+04  0.7818608E-02  0.9611503E-01
         21   -1    0    0  501  502  0.00000000000E+00  0.00000000000E+00  0.12196061556E+04  0.12196061556E+04  0.00000000000E+00 0.  1.
          4   -1    0    0  502    0 -0.00000000000E+00 -0.00000000000E+00 -0.37291527419E+03  0.37291527419E+03  0.00000000000E+00 0.  1.
    9000010    2    1    2  501    0 -0.19782216791E+03 -0.23092816854E+03  0.70243060017E+03  0.12559616742E+04  0.99577585329E+03 0.  0.
        -13    1    3    3    0    0 -0.12921112079E+03  0.36534338717E+03  0.47757383873E+03  0.61501876954E+03  0.10566000000E+00 0.  1.
          4    1    3    3  501    0 -0.68611047115E+02 -0.59627155571E+03  0.22485676144E+03  0.64094290471E+03  0.00000000000E+00 0.  1.
         13    1    1    2    0    0  0.19782216791E+03  0.23092816854E+03  0.14426028122E+03  0.33655975553E+03  0.10566000000E+00 0. -1.
<mgrwt>
<rscale>  1 0.76539517E+03</rscale>
<asrwt>0</asrwt>
<pdfrwt beam="1">  1       21 0.18763171E+00 0.10411681E+04</pdfrwt>
<pdfrwt beam="2">  1        4 0.57371581E-01 0.10411681E+04</pdfrwt>
<totfact> 0.16134930E+01</totfact>
</mgrwt>
</event>
<event>
 6    1  0.1431486E-005  0.1048287E+04  0.7818608E-02  0.9623785E-01
         21   -1    0    0  501  502  0.00000000000E+00  0.00000000000E+00  0.11453854311E+04  0.11453854311E+04  0.00000000000E+00 0.  1.
          4   -1    0    0  502    0 -0.00000000000E+00 -0.00000000000E+00 -0.39015505648E+03  0.39015505648E+03  0.00000000000E+00 0.  1.
    9000010    2    1    2  501    0  0.22943403491E+02  0.28477071717E+03  0.63472523193E+03  0.12254723311E+04  0.10086057471E+04 0.  0.
        -13    1    3    3    0    0 -0.19752245191E+03 -0.28723630080E+03  0.47999353803E+03  0.59322307712E+03  0.10566000000E+00 0.  1.
          4    1    3    3  501    0  0.22046585541E+03  0.57200701797E+03  0.15473169390E+03  0.63224925394E+03  0.00000000000E+00 0.  1.
         13    1    1    2    0    0 -0.22943403491E+02 -0.28477071717E+03  0.12050514270E+03  0.31006815654E+03  0.10566000000E+00 0. -1.
<mgrwt>
<rscale>  1 0.75741751E+03</rscale>
<asrwt>0</asrwt>
<pdfrwt beam="1">  1       21 0.17621314E+00 0.10482873E+04</pdfrwt>
<pdfrwt beam="2">  1        4 0.60023855E-01 0.10482873E+04</pdfrwt>
<totfact> 0.17672757E+01</totfact>
</mgrwt>
</event>
<event>
 6    1  0.1431486E-005  0.1103812E+04  0.7818608E-02  0.9443918E-01
          4   -1    0    0  502    0 -0.00000000000E+00  0.00000000000E+00  0.10800809175E+04  0.10800809175E+04  0.00000000000E+00 0.  1.
         21   -1    0    0  501  502  0.00000000000E+00 -0.00000000000E+00 -0.60831058299E+03  0.60831058299E+03  0.00000000000E+00 0. -1.
    9000010    2    1    2  501    0  0.35603173889E+03 -0.28670022501E+03  0.11746884684E+03  0.11100445687E+04  0.10047111010E+04 0.  0.
        -13    1    3    3    0    0  0.27508583593E+03 -0.40407554670E+03  0.50154656240E+03  0.70035578815E+03  0.10566000000E+00 0.  1.
          4    1    3    3  501    0  0.80945902967E+02  0.11737532169E+03 -0.38407771557E+03  0.40968878059E+03  0.00000000000E+00 0.  1.
         13    1    1    2    0    0 -0.35603173889E+03  0.28670022501E+03  0.35430148763E+03  0.57834693171E+03  0.10566000000E+00 0. -1.
<mgrwt>
<rscale>  1 0.88547840E+03</rscale>
<asrwt>0</asrwt>
<pdfrwt beam="2">  1       21 0.93586243E-01 0.11038116E+04</pdfrwt>
<pdfrwt beam="1">  1        4 0.16616630E+00 0.11038116E+04</pdfrwt>
<totfact> 0.79927576E+00</totfact>
</mgrwt>
</event>
<event>
 6    1  0.1431486E-005  0.1040173E+04  0.7818608E-02  0.9639121E-01
          4   -1    0    0  502    0 -0.00000000000E+00  0.00000000000E+00  0.66470148227E+03  0.66470148227E+03  0.00000000000E+00 0.  1.
         21   -1    0    0  501  502  0.00000000000E+00 -0.00000000000E+00 -0.76667572421E+03  0.76667572421E+03  0.00000000000E+00 0.  1.
    9000010    2    1    2  501    0  0.15077013219E+03  0.23304581303E+03 -0.30901074805E+03  0.10851025904E+04  0.10024559868E+04 0.  0.
        -13    1    3    3    0    0  0.23184630211E+03 -0.27861243768E+03 -0.42054516810E+03  0.55518992048E+03  0.10566000000E+00 0.  1.
          4    1    3    3  501    0 -0.81076169916E+02  0.51165825071E+03  0.11153442004E+03  0.52991266989E+03  0.00000000000E+00 0.  1.
         13    1    1    2    0    0 -0.15077013219E+03 -0.23304581303E+03  0.20703650612E+03  0.34627461611E+03  0.10566000000E+00 0. -1.
<mgrwt>
<rscale>  1 0.74760146E+03</rscale>
<asrwt>0</asrwt>
<pdfrwt beam="2">  1       21 0.11795011E+00 0.10401731E+04</pdfrwt>
<pdfrwt beam="1">  1        4 0.10226177E+00 0.10401731E+04</pdfrwt>
<totfact> 0.15804358E+01</totfact>
</mgrwt>
</event>
<event>
 6    1  0.1431486E-005  0.9936107E+03  0.7818608E-02  0.1016579E+00
         21   -1    0    0  501  502  0.00000000000E+00  0.00000000000E+00  0.17404054547E+03  0.17404054547E+03  0.00000000000E+00 0.  1.
          4   -1    0    0  502    0 -0.00000000000E+00 -0.00000000000E+00 -0.17829001312E+04  0.17829001312E+04  0.00000000000E+00 0.  1.
    9000010    2    1    2  501    0 -0.49138024672E+02  0.31721958065E+02 -0.12671319398E+04  0.16102439457E+04  0.99188778790E+03 0.  0.
        -13    1    3    3    0    0  0.25558776388E+03  0.13223706101E+03  0.15399365878E+02  0.28818205527E+03  0.10566000000E+00 0.  1.
          4    1    3    3  501    0 -0.30472578855E+03 -0.10051510294E+03 -0.12825313057E+04  0.13220618905E+04  0.00000000000E+00 0.  1.
         13    1    1    2    0    0  0.49138024672E+02 -0.31721958065E+02 -0.34172764594E+03  0.34669673096E+03  0.10566000000E+00 0. -1.
<mgrwt>
<rscale>  1 0.48941669E+03</rscale>
<asrwt>0</asrwt>
<pdfrwt beam="1">  1       21 0.26775469E-01 0.99361069E+03</pdfrwt>
<pdfrwt beam="2">  1        4 0.27429232E+00 0.99361069E+03</pdfrwt>
<totfact> 0.24583918E+01</totfact>
</mgrwt>
</event>
<event>
 6    1  0.1431486E-005  0.9746353E+03  0.7818608E-02  0.9826210E-01
          4   -1    0    0  502    0 -0.00000000000E+00  0.00000000000E+00  0.16131961120E+04  0.16131961120E+04  0.00000000000E+00 0.  1.
         21   -1    0    0  501  502  0.00000000000E+00 -0.00000000000E+00 -0.24835973123E+03  0.24835973123E+03  0.00000000000E+00 0.  1.
    9000010    2    1    2  501    0 -0.16952413917E+03  0.63219800491E+02  0.77683924170E+03  0.12463519554E+04  0.95769452973E+03 0.  0.
        -13    1    3    3    0    0 -0.38587661303E+03 -0.44441489339E+02  0.89624935726E+03  0.97680024980E+03  0.10566000000E+00 0.  1.
          4    1    3    3  501    0  0.21635247387E+03  0.10766128983E+03 -0.11941011556E+03  0.26955170557E+03  0.00000000000E+00 0.  1.
         13    1    1    2    0    0  0.16952413917E+03 -0.63219800491E+02  0.58799713911E+03  0.61520388791E+03  0.10566000000E+00 0. -1.
<mgrwt>
<rscale>  1 0.63974730E+03</rscale>
<asrwt>0</asrwt>
<pdfrwt beam="2">  1       21 0.38209190E-01 0.97463531E+03</pdfrwt>
<pdfrwt beam="1">  1        4 0.24818401E+00 0.97463531E+03</pdfrwt>
<totfact> 0.17315010E+01</totfact>
</mgrwt>
</event>
<event>
 6    1  0.1431486E-005  0.1022083E+04  0.7818608E-02  0.9741430E-01
          4   -1    0    0  502    0 -0.00000000000E+00  0.00000000000E+00  0.33528307282E+03  0.33528307282E+03  0.00000000000E+00 0.  1.
         21   -1    0    0  501  502  0.00000000000E+00 -0.00000000000E+00 -0.14541525902E+04  0.14541525902E+04  0.00000000000E+00 0.  1.
    9000010    2    1    2  501    0 -0.12364885451E+03 -0.16656952682E+03 -0.11913385621E+04  0.15696944059E+04  0.10008089287E+04 0.  0.
        -13    1    3    3    0    0  0.37995372948E+03 -0.23794152006E+03 -0.83797613174E+03  0.95036046427E+03  0.10566000000E+00 0.  1.
          4    1    3    3  501    0 -0.50360258400E+03  0.71371993244E+02 -0.35336243039E+03  0.61933394162E+03  0.00000000000E+00 0.  1.
         13    1    1    2    0    0  0.12364885451E+03  0.16656952682E+03  0.72469044732E+02  0.21974125716E+03  0.10566000000E+00 0. -1.
<mgrwt>
<rscale>  1 0.68602755E+03</rscale>
<asrwt>0</asrwt>
<pdfrwt beam="2">  1       21 0.22371579E+00 0.10220827E+04</pdfrwt>
<pdfrwt beam="1">  1        4 0.51582010E-01 0.10220827E+04</pdfrwt>
<totfact> 0.11533792E+01</totfact>
</mgrwt>
</event>
<event>
 6    1  0.1431486E-005  0.9553744E+03  0.7818608E-02  0.1001613E+00
         21   -1    0    0  501  502  0.00000000000E+00  0.00000000000E+00  0.65580592120E+03  0.65580592120E+03  0.00000000000E+00 0.  1.
          4   -1    0    0  502    0 -0.00000000000E+00 -0.00000000000E+00 -0.42831758443E+03  0.42831758443E+03  0.00000000000E+00 0.  1.
    9000010    2    1    2  501    0 -0.38395738489E+02 -0.97240135192E+02  0.20141102410E+03  0.97637419461E+03  0.94963692569E+03 0.  0.
        -13    1    3    3    0    0  0.35230084505E+03  0.66681534835E+02 -0.18453181552E+03  0.40325465232E+03  0.10566000000E+00 0.  1.
          4    1    3    3  501    0 -0.39069658354E+03 -0.16392167003E+03  0.38594283962E+03  0.57311954229E+03  0.00000000000E+00 0.  1.
         13    1    1    2    0    0  0.38395738489E+02  0.97240135192E+02  0.26077312671E+02  0.10774931103E+03  0.10566000000E+00 0. -1.
<mgrwt>
<rscale>  1 0.54948672E+03</rscale>
<asrwt>0</asrwt>
<pdfrwt beam="1">  1       21 0.10089322E+00 0.95537436E+03</pdfrwt>
<pdfrwt beam="2">  1        4 0.65895013E-01 0.95537436E+03</pdfrwt>
<totfact> 0.65326659E+01</totfact>
</mgrwt>
</event>
<event>
 6    1  0.1431486E-005  0.1004894E+04  0.7818608E-02  0.9861115E-01
          4   -1    0    0  502    0 -0.00000000000E+00  0.00000000000E+00  0.91327731499E+03  0.91327731499E+03  0.00000000000E+00 0.  1.
         21   -1    0    0  501  502  0.00000000000E+00 -0.00000000000E+00 -0.94599902631E+03  0.94599902631E+03  0.00000000000E+00 0.  1.
    9000010    2    1    2  501    0  0.14439633983E+03 -0.29332532461E+02 -0.66830834765E+03  0.12068339424E+04  0.99403290519E+03 0.  0.
        -13    1    3    3    0    0 -0.36780147688E+03  0.11161629550E+03 -0.53564702765E+03  0.65928284766E+03  0.10566000000E+00 0.  1.
          4    1    3    3  501    0  0.51219781670E+03 -0.14094882796E+03 -0.13266132000E+03  0.54755109475E+03  0.00000000000E+00 0.  1.
         13    1    1    2    0    0 -0.14439633983E+03  0.29332532461E+02  0.63558663634E+03  0.65244239889E+03  0.10566000000E+00 0. -1.
<mgrwt>
<rscale>  1 0.62183401E+03</rscale>
<asrwt>0</asrwt>
<pdfrwt beam="2">  1       21 0.14553831E+00 0.10048941E+04</pdfrwt>
<pdfrwt beam="1">  1        4 0.14050420E+00 0.10048941E+04</pdfrwt>
<totfact> 0.40677449E+00</totfact>
</mgrwt>
</event>
<event>
 6    1  0.1431486E-005  0.1035318E+04  0.7818608E-02  0.9666956E-01
          4   -1    0    0  502    0 -0.00000000000E+00  0.00000000000E+00  0.15114180977E+04  0.15114180977E+04  0.00000000000E+00 0.  1.
         21   -1    0    0  501  502  0.00000000000E+00 -0.00000000000E+00 -0.27604172454E+03  0.27604172454E+03  0.00000000000E+00 0.  1.
    9000010    2    1    2  501    0  0.19484864275E+03  0.16629346745E+03  0.97325732931E+03  0.14209548220E+04  0.10031267448E+04 0.  0.
        -13    1    3    3    0    0 -0.22077868907E+03  0.42410099933E+02 -0.11278396911E+03  0.25151954392E+03  0.10566000000E+00 0.  1.
          4    1    3    3  501    0  0.41562733181E+03  0.12388336752E+03  0.10860412984E+04  0.11694352781E+04  0.00000000000E+00 0.  1.
         13    1    1    2    0    0 -0.19484864275E+03 -0.16629346745E+03  0.26211904383E+03  0.36650500024E+03  0.10566000000E+00 0. -1.
<mgrwt>
<rscale>  1 0.73018746E+03</rscale>
<asrwt>0</asrwt>
<pdfrwt beam="2">  1       21 0.42467959E-01 0.10353177E+04</pdfrwt>
<pdfrwt beam="1">  1        4 0.23252586E+00 0.10353177E+04</pdfrwt>
<totfact> 0.17256238E+01</totfact>
</mgrwt>
</event>
<event>
 6    1  0.1431486E-005  0.9951658E+03  0.7818608E-02  0.1002727E+00
         21   -1    0    0  501  502  0.00000000000E+00  0.00000000000E+00  0.82770156345E+03  0.82770156345E+03  0.00000000000E+00 0.  1.
          4   -1    0    0  502    0 -0.00000000000E+00 -0.00000000000E+00 -0.35548018179E+03  0.35548018179E+03  0.00000000000E+00 0.  1.
    9000010    2    1    2  501    0 -0.87625880463E+02  0.17322492441E+02  0.44174635391E+03  0.10888043001E+04  0.99114913057E+03 0.  0.
        -13    1    3    3    0    0  0.40214722855E+03 -0.13329649653E+03  0.18278530720E+02  0.42405714859E+03  0.10566000000E+00 0.  1.
          4    1    3    3  501    0 -0.48977310902E+03  0.15061898897E+03  0.42346782319E+03  0.66474715150E+03  0.00000000000E+00 0.  1.
         13    1    1    2    0    0  0.87625880463E+02 -0.17322492441E+02  0.30475027755E+02  0.94377445145E+02  0.10566000000E+00 0. -1.
<mgrwt>
<rscale>  1 0.54470440E+03</rscale>
<asrwt>0</asrwt>
<pdfrwt beam="1">  1       21 0.12733870E+00 0.99516580E+03</pdfrwt>
<pdfrwt beam="2">  1        4 0.54689259E-01 0.99516580E+03</pdfrwt>
<totfact> 0.53875899E+01</totfact>
</mgrwt>
</event>
<event>
 6    1  0.1431486E-005  0.9170579E+03  0.7818608E-02  0.1017987E+00
          4   -1    0    0  502    0 -0.00000000000E+00  0.00000000000E+00  0.10258383850E+04  0.10258383850E+04  0.00000000000E+00 0.  1.
         21   -1    0    0  501  502  0.00000000000E+00 -0.00000000000E+00 -0.32852893965E+03  0.32852893965E+03  0.00000000000E+00 0.  1.
    9000010    2    1    2  501    0  0.17215355757E+02 -0.69159618001E+02  0.32137870988E+03  0.97174041725E+03  0.91428427861E+03 0.  0.
        -13    1    3    3    0    0  0.25691342426E+02  0.24046741735E+02  0.63933152631E+03  0.64029922892E+03  0.10566000000E+00 0.  1.
          4    1    3    3  501    0 -0.84759866689E+01 -0.93206359735E+02 -0.31795281643E+03  0.33144118833E+03  0.00000000000E+00 0.  1.
         13    1    1    2    0    0 -0.17215355757E+02  0.69159618001E+02  0.37593073548E+03  0.38262690742E+03  0.10566000000E+00 0. -1.
<mgrwt>
<rscale>  1 0.48419964E+03</rscale>
<asrwt>0</asrwt>
<pdfrwt beam="2">  1       21 0.50542914E-01 0.91705788E+03</pdfrwt>
<pdfrwt beam="1">  1        4 0.15782129E+00 0.91705788E+03</pdfrwt>
<totfact> 0.38499915E+01</totfact>
</mgrwt>
</event>
<event>
 6    1  0.1431486E-005  0.1045400E+04  0.7818608E-02  0.9703187E-01
         21   -1    0    0  501  502  0.00000000000E+00  0.00000000000E+00  0.45584792582E+03  0.45584792582E+03  0.00000000000E+00 0.  1.
          4   -1    0    0  502    0 -0.00000000000E+00 -0.00000000000E+00 -0.89697072991E+03  0.89697072991E+03  0.00000000000E+00 0.  1.
    9000010    2    1    2  501    0 -0.17458502766E+03 -0.13430968993E+03 -0.28731764226E+03  0.10841644846E+04  0.10219306128E+04 0.  0.
        -13    1    3    3    0    0 -0.44431084017E+03 -0.98668650188E+02 -0.54457618114E+03  0.70972590022E+03  0.10566000000E+00 0.  1.
          4    1    3    3  501    0  0.26972581251E+03 -0.35641039746E+02  0.25725853888E+03  0.37443858438E+03  0.00000000000E+00 0.  1.
         13    1    1    2    0    0  0.17458502766E+03  0.13430968993E+03 -0.15380516183E+03  0.26865417113E+03  0.10566000000E+00 0. -1.
<mgrwt>
<rscale>  1 0.70827335E+03</rscale>
<asrwt>0</asrwt>
<pdfrwt beam="1">  1       21 0.70130451E-01 0.10454000E+04</pdfrwt>
<pdfrwt beam="2">  1        4 0.13799550E+00 0.10454000E+04</pdfrwt>
<totfact> 0.26280174E+01</totfact>
</mgrwt>
</event>
<event>
 6    1  0.1431486E-005  0.9474899E+03  0.7818608E-02  0.9861355E-01
          4   -1    0    0  502    0 -0.00000000000E+00  0.00000000000E+00  0.67426806632E+03  0.67426806632E+03  0.00000000000E+00 0.  1.
         21   -1    0    0  501  502  0.00000000000E+00 -0.00000000000E+00 -0.59450588187E+03  0.59450588187E+03  0.00000000000E+00 0.  1.
    9000010    2    1    2  501    0 -0.75884675911E+02 -0.15840699830E+03 -0.17081788847E+03  0.96276472406E+03  0.93106707692E+03 0.  0.
        -13    1    3    3    0    0  0.11469059492E+03  0.16214071302E+03 -0.45332318309E+03  0.49491965294E+03  0.10566000000E+00 0.  1.
          4    1    3    3  501    0 -0.19057527083E+03 -0.32054771132E+03  0.28250529462E+03  0.46784507112E+03  0.00000000000E+00 0.  1.
         13    1    1    2    0    0  0.75884675911E+02  0.15840699830E+03  0.25058007291E+03  0.30600922413E+03  0.10566000000E+00 0. -1.
<mgrwt>
<rscale>  1 0.62171320E+03</rscale>
<asrwt>0</asrwt>
<pdfrwt beam="2">  1       21 0.91462443E-01 0.94748993E+03</pdfrwt>
<pdfrwt beam="1">  1        4 0.10373355E+00 0.94748993E+03</pdfrwt>
<totfact> 0.29090320E+01</totfact>
</mgrwt>
</event>
<event>
 6    1  0.1431486E-005  0.9045386E+03  0.7818608E-02  0.9809272E-01
         21   -1    0    0  501  502  0.00000000000E+00  0.00000000000E+00  0.69684033728E+03  0.69684033728E+03  0.00000000000E+00 0.  1.
          4   -1    0    0  502    0 -0.00000000000E+00 -0.00000000000E+00 -0.54433048839E+03  0.54433048839E+03  0.00000000000E+00 0.  1.
    9000010    2    1    2  501    0  0.10592998775E+03 -0.21450336960E+03  0.30835457208E+03  0.95565296847E+03  0.87232860559E+03 0.  0.
        -13    1    3    3    0    0  0.43866027129E+03 -0.28266131165E+03  0.41075246937E+02  0.52345719766E+03  0.10566000000E+00 0.  1.
          4    1    3    3  501    0 -0.33273028354E+03  0.68157942054E+02  0.26727932515E+03  0.43219577080E+03  0.00000000000E+00 0.  1.
         13    1    1    2    0    0 -0.10592998775E+03  0.21450336960E+03 -0.15584472319E+03  0.28551785721E+03  0.10566000000E+00 0. -1.
<mgrwt>
<rscale>  1 0.64867329E+03</rscale>
<asrwt>0</asrwt>
<pdfrwt beam="1">  1       21 0.10720621E+00 0.90453859E+03</pdfrwt>
<pdfrwt beam="2">  1        4 0.83743152E-01 0.90453859E+03</pdfrwt>
<totfact> 0.32780811E+01</totfact>
</mgrwt>
</event>
<event>
 6    1  0.1431486E-005  0.7699498E+03  0.7818608E-02  0.1003483E+00
          4   -1    0    0  502    0 -0.00000000000E+00  0.00000000000E+00  0.14303568126E+03  0.14303568126E+03  0.00000000000E+00 0.  1.
         21   -1    0    0  501  502  0.00000000000E+00 -0.00000000000E+00 -0.16470801389E+04  0.16470801389E+04  0.00000000000E+00 0.  1.
    9000010    2    1    2  501    0  0.18724932275E+03  0.20378189842E+02 -0.13111985858E+04  0.15205474226E+04  0.74655552612E+03 0.  0.
        -13    1    3    3    0    0 -0.23555951084E+03 -0.10112260657E+03 -0.19905367369E+03  0.32455575928E+03  0.10566000000E+00 0.  1.
          4    1    3    3  501    0  0.42280883359E+03  0.12150079641E+03 -0.11121449121E+04  0.11959916633E+04  0.00000000000E+00 0.  1.
         13    1    1    2    0    0 -0.18724932275E+03 -0.20378189842E+02 -0.19284587187E+03  0.26956839754E+03  0.10566000000E+00 0. -1.
<mgrwt>
<rscale>  1 0.54149080E+03</rscale>
<asrwt>0</asrwt>
<pdfrwt beam="2">  1       21 0.25339694E+00 0.76994983E+03</pdfrwt>
<pdfrwt beam="1">  1        4 0.22005490E-01 0.76994983E+03</pdfrwt>
<totfact> 0.42138237E+01</totfact>
</mgrwt>
</event>
<event>
 6    1  0.1431486E-005  0.1377870E+04  0.7818608E-02  0.9088463E-01
         21   -1    0    0  501  502  0.00000000000E+00  0.00000000000E+00  0.17783393322E+04  0.17783393322E+04  0.00000000000E+00 0. -1.
          4   -1    0    0  502    0 -0.00000000000E+00 -0.00000000000E+00 -0.71556660999E+03  0.71556660999E+03  0.00000000000E+00 0.  1.
    9000010    2    1    2  501    0 -0.78727163478E+03 -0.37044131385E+03  0.75392051113E+03  0.15706437403E+04  0.10684110763E+04 0.  0.
        -13    1    3    3    0    0  0.49061116532E+02  0.15474267806E+03 -0.15793762587E+03  0.22648751489E+03  0.10566000000E+00 0.  1.
          4    1    3    3  501    0 -0.83633275132E+03 -0.52518399191E+03  0.91185813700E+03  0.13441562254E+04  0.00000000000E+00 0.  1.
         13    1    1    2    0    0  0.78727163478E+03  0.37044131385E+03  0.30885221104E+03  0.92326220186E+03  0.10566000000E+00 0. -1.
<mgrwt>
<rscale>  1 0.12282728E+04</rscale>
<asrwt>0</asrwt>
<pdfrwt beam="1">  1       21 0.27359066E+00 0.13778700E+04</pdfrwt>
<pdfrwt beam="2">  1        4 0.11008717E+00 0.13778700E+04</pdfrwt>
<totfact> 0.92884170E-01</totfact>
</mgrwt>
</event>
<event>
 6    1  0.1431486E-005  0.1018401E+04  0.7818608E-02  0.9762376E-01
          4   -1    0    0  502    0 -0.00000000000E+00  0.00000000000E+00  0.34583162039E+03  0.34583162039E+03  0.00000000000E+00 0.  1.
         21   -1    0    0  501  502  0.00000000000E+00 -0.00000000000E+00 -0.11658970445E+04  0.11658970445E+04  0.00000000000E+00 0.  1.
    9000010    2    1    2  501    0 -0.13505090154E+03  0.14153453486E+03 -0.83298090193E+03  0.13156735928E+04  0.99943436468E+03 0.  0.
        -13    1    3    3    0    0 -0.35095214593E+03  0.42360982460E+03 -0.78304937366E+03  0.95696343973E+03  0.10566000000E+00 0.  1.
          4    1    3    3  501    0  0.21590124439E+03 -0.28207528974E+03 -0.49931528265E+02  0.35871015308E+03  0.00000000000E+00 0.  1.
         13    1    1    2    0    0  0.13505090154E+03 -0.14153453486E+03  0.12915477789E+02  0.19605507210E+03  0.10566000000E+00 0. -1.
<mgrwt>
<rscale>  1 0.67421344E+03</rscale>
<asrwt>0</asrwt>
<pdfrwt beam="2">  1       21 0.17936878E+00 0.10184006E+04</pdfrwt>
<pdfrwt beam="1">  1        4 0.53204865E-01 0.10184006E+04</pdfrwt>
<totfact> 0.21808686E+01</totfact>
</mgrwt>
</event>
<event>
 6    1  0.1431486E-005  0.9944841E+03  0.7818608E-02  0.9632953E-01
          4   -1    0    0  502    0 -0.00000000000E+00  0.00000000000E+00  0.57241151991E+03  0.57241151991E+03  0.00000000000E+00 0.  1.
         21   -1    0    0  501  502  0.00000000000E+00 -0.00000000000E+00 -0.89844806492E+03  0.89844806492E+03  0.00000000000E+00 0.  1.
    9000010    2    1    2  501    0  0.69490818906E+02  0.31680156800E+03 -0.48864163912E+03  0.11080474638E+04  0.94010973990E+03 0.  0.
        -13    1    3    3    0    0 -0.59763060074E+02  0.71360216631E+02 -0.73268960301E+03  0.73857834343E+03  0.10566000000E+00 0.  1.
          4    1    3    3  501    0  0.12925387898E+03  0.24544135137E+03  0.24404796389E+03  0.36946912032E+03  0.00000000000E+00 0.  1.
         13    1    1    2    0    0 -0.69490818906E+02 -0.31680156800E+03  0.16260509411E+03  0.36281212107E+03  0.10566000000E+00 0. -1.
<mgrwt>
<rscale>  1 0.75153000E+03</rscale>
<asrwt>0</asrwt>
<pdfrwt beam="2">  1       21 0.13822278E+00 0.99448405E+03</pdfrwt>
<pdfrwt beam="1">  1        4 0.88063311E-01 0.99448405E+03</pdfrwt>
<totfact> 0.14903969E+01</totfact>
</mgrwt>
</event>
<event>
 6    1  0.1431486E-005  0.1007482E+04  0.7818608E-02  0.9777888E-01
          4   -1    0    0  502    0 -0.00000000000E+00  0.00000000000E+00  0.61506900905E+03  0.61506900905E+03  0.00000000000E+00 0.  1.
         21   -1    0    0  501  502  0.00000000000E+00 -0.00000000000E+00 -0.58495723151E+03  0.58495723151E+03  0.00000000000E+00 0.  1.
    9000010    2    1    2  501    0  0.95065562155E+02  0.16676935142E+03  0.33413060508E+02  0.10080356488E+04  0.98902475146E+03 0.  0.
        -13    1    3    3    0    0 -0.32974229708E+02 -0.41251778851E+03  0.12204990121E+00  0.41383360391E+03  0.10566000000E+00 0.  1.
          4    1    3    3  501    0  0.12803979186E+03  0.57928713993E+03  0.33291010607E+02  0.59420204491E+03  0.00000000000E+00 0.  1.
         13    1    1    2    0    0 -0.95065562155E+02 -0.16676935142E+03 -0.33012829749E+01  0.19199059174E+03  0.10566000000E+00 0. -1.
<mgrwt>
<rscale>  1 0.66562844E+03</rscale>
<asrwt>0</asrwt>
<pdfrwt beam="2">  1       21 0.89993420E-01 0.10074817E+04</pdfrwt>
<pdfrwt beam="1">  1        4 0.94626002E-01 0.10074817E+04</pdfrwt>
<totfact> 0.37528949E+01</totfact>
</mgrwt>
</event>
<event>
 6    1  0.1431486E-005  0.1017067E+04  0.7818608E-02  0.9569179E-01
         21   -1    0    0  501  502  0.00000000000E+00  0.00000000000E+00  0.91331443417E+03  0.91331443417E+03  0.00000000000E+00 0.  1.
          4   -1    0    0  502    0 -0.00000000000E+00 -0.00000000000E+00 -0.53264777182E+03  0.53264777182E+03  0.00000000000E+00 0.  1.
    9000010    2    1    2  501    0 -0.15477545821E+03  0.34399187203E+03  0.29765538001E+03  0.10597281647E+04  0.94453121036E+03 0.  0.
        -13    1    3    3    0    0 -0.33843059429E+03 -0.18933827080E+03  0.30853352625E+03  0.49555745976E+03  0.10566000000E+00 0.  1.
          4    1    3    3  501    0  0.18365513608E+03  0.53333014283E+03 -0.10878146237E+02  0.56417070495E+03  0.00000000000E+00 0.  1.
         13    1    1    2    0    0  0.15477545821E+03 -0.34399187203E+03  0.83011282334E+02  0.38623404128E+03  0.10566000000E+00 0. -1.
<mgrwt>
<rscale>  1 0.79370178E+03</rscale>
<asrwt>0</asrwt>
<pdfrwt beam="1">  1       21 0.14050991E+00 0.10170669E+04</pdfrwt>
<pdfrwt beam="2">  1        4 0.81945811E-01 0.10170669E+04</pdfrwt>
<totfact> 0.16807322E+01</totfact>
</mgrwt>
</event>
<event>
 6    1  0.1431486E-005  0.1123317E+04  0.7818608E-02  0.9557051E-01
          4   -1    0    0  502    0 -0.00000000000E+00  0.00000000000E+00  0.58588608001E+03  0.58588608001E+03  0.00000000000E+00 0.  1.
         21   -1    0    0  501  502  0.00000000000E+00 -0.00000000000E+00 -0.10740793069E+04  0.10740793069E+04  0.00000000000E+00 0.  1.
    9000010    2    1    2  501    0  0.11391144436E+03  0.26880673431E+03 -0.67769159385E+03  0.13119100468E+04  0.10847161826E+04 0.  0.
        -13    1    3    3    0    0  0.16276231411E+03 -0.29224528909E+03  0.10234318956E+03  0.34981855226E+03  0.10566000000E+00 0.  1.
          4    1    3    3  501    0 -0.48850869746E+02  0.56105202340E+03 -0.78003478342E+03  0.96209149449E+03  0.00000000000E+00 0.  1.
         13    1    1    2    0    0 -0.11391144436E+03 -0.26880673431E+03  0.18949836695E+03  0.34805534015E+03  0.10566000000E+00 0. -1.
<mgrwt>
<rscale>  1 0.80205246E+03</rscale>
<asrwt>0</asrwt>
<pdfrwt beam="2">  1       21 0.16524297E+00 0.11233174E+04</pdfrwt>
<pdfrwt beam="1">  1        4 0.90136321E-01 0.11233174E+04</pdfrwt>
<totfact> 0.84295970E+00</totfact>
</mgrwt>
</event>
<event>
 6    1  0.1431486E-005  0.1198794E+04  0.7818608E-02  0.9271519E-01
          4   -1    0    0  502    0 -0.00000000000E+00  0.00000000000E+00  0.54628034049E+03  0.54628034049E+03  0.00000000000E+00 0.  1.
         21   -1    0    0  501  502  0.00000000000E+00 -0.00000000000E+00 -0.15946946915E+04  0.15946946915E+04  0.00000000000E+00 0. -1.
    9000010    2    1    2  501    0 -0.61876339850E+03 -0.24290737015E+03 -0.61408164495E+03  0.13469239981E+04  0.99761508414E+03 0.  0.
        -13    1    3    3    0    0 -0.32764167528E+03  0.33582574503E+03 -0.22646512429E+02  0.46972425325E+03  0.10566000000E+00 0.  1.
          4    1    3    3  501    0 -0.29112172322E+03 -0.57873311517E+03 -0.59143513252E+03  0.87719974482E+03  0.00000000000E+00 0.  1.
         13    1    1    2    0    0  0.61876339850E+03  0.24290737015E+03 -0.43433270610E+03  0.79405103397E+03  0.10566000000E+00 0. -1.
<mgrwt>
<rscale>  1 0.10344766E+04</rscale>
<asrwt>0</asrwt>
<pdfrwt beam="2">  1       21 0.24533765E+00 0.11987944E+04</pdfrwt>
<pdfrwt beam="1">  1        4 0.84043129E-01 0.11987944E+04</pdfrwt>
<totfact> 0.27559610E+00</totfact>
</mgrwt>
</event>
<event>
 6    1  0.1431486E-005  0.1010559E+04  0.7818608E-02  0.9906253E-01
          4   -1    0    0  502    0 -0.00000000000E+00  0.00000000000E+00  0.20314843044E+03  0.20314843044E+03  0.00000000000E+00 0.  1.
         21   -1    0    0  501  502  0.00000000000E+00 -0.00000000000E+00 -0.15875558251E+04  0.15875558251E+04  0.00000000000E+00 0.  1.
    9000010    2    1    2  501    0  0.10934341248E+03 -0.61062533900E+02 -0.12323518321E+04  0.15937130878E+04  0.10027690428E+04 0.  0.
        -13    1    3    3    0    0 -0.37143278327E+03 -0.18960729454E+03 -0.23399167262E+03  0.47818966180E+03  0.10566000000E+00 0.  1.
          4    1    3    3  501    0  0.48077619576E+03  0.12854476064E+03 -0.99836015952E+03  0.11155234260E+04  0.00000000000E+00 0.  1.
         13    1    1    2    0    0 -0.10934341248E+03  0.61062533900E+02 -0.15205556248E+03  0.19699116768E+03  0.10566000000E+00 0. -1.
<mgrwt>
<rscale>  1 0.59959177E+03</rscale>
<asrwt>0</asrwt>
<pdfrwt beam="2">  1       21 0.24423936E+00 0.10105594E+04</pdfrwt>
<pdfrwt beam="1">  1        4 0.31253605E-01 0.10105594E+04</pdfrwt>
<totfact> 0.23663727E+01</totfact>
</mgrwt>
</event>
<event>
 6    1  0.1431486E-005  0.1036632E+04  0.7818608E-02  0.9609715E-01
          4   -1    0    0  502    0 -0.00000000000E+00  0.00000000000E+00  0.23799365573E+04  0.23799365573E+04  0.00000000000E+00 0.  1.
         21   -1    0    0  501  502  0.00000000000E+00 -0.00000000000E+00 -0.30400395778E+03  0.30400395778E+03  0.00000000000E+00 0.  1.
    9000010    2    1    2  501    0  0.17128307406E+03 -0.25834955742E+03  0.64744226180E+03  0.12222062569E+04  0.98920385506E+03 0.  0.
        -13    1    3    3    0    0  0.37619533815E+03  0.17898883921E+03  0.26746968545E+01  0.41661385259E+03  0.10566000000E+00 0.  1.
          4    1    3    3  501    0 -0.20491226409E+03 -0.43733839664E+03  0.64476756494E+03  0.80559240435E+03  0.00000000000E+00 0.  1.
         13    1    1    2    0    0 -0.17128307406E+03  0.25834955742E+03  0.14284903377E+04  0.14617342581E+04  0.10566000000E+00 0. -1.
<mgrwt>
<rscale>  1 0.76656511E+03</rscale>
<asrwt>0</asrwt>
<pdfrwt beam="2">  1       21 0.46769841E-01 0.10366324E+04</pdfrwt>
<pdfrwt beam="1">  1        4 0.36614407E+00 0.10366324E+04</pdfrwt>
<totfact> 0.20352891E+00</totfact>
</mgrwt>
</event>
<event>
 6    1  0.1431486E-005  0.1010556E+04  0.7818608E-02  0.1026670E+00
          4   -1    0    0  502    0 -0.00000000000E+00  0.00000000000E+00  0.20354109096E+03  0.20354109096E+03  0.00000000000E+00 0.  1.
         21   -1    0    0  501  502  0.00000000000E+00 -0.00000000000E+00 -0.13584786790E+04  0.13584786790E+04  0.00000000000E+00 0.  1.
    9000010    2    1    2  501    0  0.11969189543E+02  0.39215251313E+02 -0.11052239371E+04  0.14975794434E+04  0.10097242895E+04 0.  0.
        -13    1    3    3    0    0  0.10253037050E+03 -0.47559337237E+03 -0.49456426144E+03  0.69375453337E+03  0.10566000000E+00 0.  1.
          4    1    3    3  501    0 -0.90561180952E+02  0.51480862369E+03 -0.61065967569E+03  0.80382491006E+03  0.00000000000E+00 0.  1.
         13    1    1    2    0    0 -0.11969189543E+02 -0.39215251313E+02 -0.49713650954E+02  0.64440326575E+02  0.10566000000E+00 0. -1.
<mgrwt>
<rscale>  1 0.45354454E+03</rscale>
<asrwt>0</asrwt>
<pdfrwt beam="2">  1       21 0.20899672E+00 0.10105564E+04</pdfrwt>
<pdfrwt beam="1">  1        4 0.31314014E-01 0.10105564E+04</pdfrwt>
<totfact> 0.40112938E+01</totfact>
</mgrwt>
</event>
<event>
 6    1  0.1431486E-005  0.1629451E+04  0.7818608E-02  0.8860533E-01
         21   -1    0    0  501  502  0.00000000000E+00  0.00000000000E+00  0.15224312072E+04  0.15224312072E+04  0.00000000000E+00 0. -1.
          4   -1    0    0  502    0 -0.00000000000E+00 -0.00000000000E+00 -0.16388684198E+04  0.16388684198E+04  0.00000000000E+00 0.  1.
    9000010    2    1    2  501    0  0.11935948110E+04  0.48478512118E+03  0.53845240715E+03  0.17161125762E+04  0.99771047544E+03 0.  0.
        -13    1    3    3    0    0  0.10564163027E+04 -0.13705301020E+02  0.56560524206E+03  0.11983791307E+04  0.10566000000E+00 0.  1.
          4    1    3    3  501    0  0.13717850836E+03  0.49849042220E+03 -0.27152834905E+02  0.51773344554E+03  0.00000000000E+00 0.  1.
         13    1    1    2    0    0 -0.11935948110E+04 -0.48478512118E+03 -0.65488961974E+03  0.14451870508E+04  0.10566000000E+00 0. -1.
<mgrwt>
<rscale>  1 0.15365059E+04</rscale>
<asrwt>0</asrwt>
<pdfrwt beam="1">  1       21 0.23422019E+00 0.16294513E+04</pdfrwt>
<pdfrwt beam="2">  1        4 0.25213360E+00 0.16294513E+04</pdfrwt>
<totfact> 0.14601586E-01</totfact>
</mgrwt>
</event>
<event>
 6    1  0.1431486E-005  0.1014781E+04  0.7818608E-02  0.9965731E-01
         21   -1    0    0  501  502  0.00000000000E+00  0.00000000000E+00  0.19587593216E+04  0.19587593216E+04  0.00000000000E+00 0.  1.
          4   -1    0    0  502    0 -0.00000000000E+00 -0.00000000000E+00 -0.16649224224E+03  0.16649224224E+03  0.00000000000E+00 0.  1.
    9000010    2    1    2  501    0  0.66604268667E+02 -0.77630922271E+02  0.17295317397E+04  0.20052581361E+04  0.10096125321E+04 0.  0.
        -13    1    3    3    0    0  0.17203144421E+03 -0.39731376598E+03  0.27643751211E+03  0.51368351705E+03  0.10566000000E+00 0.  1.
          4    1    3    3  501    0 -0.10542717554E+03  0.31968284370E+03  0.14530942276E+04  0.14915746190E+04  0.00000000000E+00 0.  1.
         13    1    1    2    0    0 -0.66604268667E+02  0.77630922271E+02  0.62735339681E+02  0.11999342776E+03  0.10566000000E+00 0. -1.
<mgrwt>
<rscale>  1 0.57178751E+03</rscale>
<asrwt>0</asrwt>
<pdfrwt beam="1">  1       21 0.30134757E+00 0.10147808E+04</pdfrwt>
<pdfrwt beam="2">  1        4 0.25614192E-01 0.10147808E+04</pdfrwt>
<totfact> 0.15256165E+01</totfact>
</mgrwt>
</event>
<event>
 6    1  0.1431486E-005  0.1007325E+04  0.7818608E-02  0.9751405E-01
          4   -1    0    0  502    0 -0.00000000000E+00  0.00000000000E+00  0.10568509497E+04  0.10568509497E+04  0.00000000000E+00 0.  1.
         21   -1    0    0  501  502  0.00000000000E+00 -0.00000000000E+00 -0.76029445137E+03  0.76029445137E+03  0.00000000000E+00 0.  1.
    9000010    2    1    2  501    0  0.12218113888E+03  0.17035261697E+03 -0.40443218703E+03  0.10854805919E+04  0.98526873322E+03 0.  0.
        -13    1    3    3    0    0 -0.37833009426E+03  0.15311439706E+03  0.47514735634E+02  0.41089577763E+03  0.10566000000E+00 0.  1.
          4    1    3    3  501    0  0.50051123314E+03  0.17238219909E+02 -0.45194692266E+03  0.67458481426E+03  0.00000000000E+00 0.  1.
         13    1    1    2    0    0 -0.12218113888E+03 -0.17035261697E+03  0.70098868534E+03  0.73166480915E+03  0.10566000000E+00 0. -1.
<mgrwt>
<rscale>  1 0.68036939E+03</rscale>
<asrwt>0</asrwt>
<pdfrwt beam="2">  1       21 0.11696838E+00 0.10073245E+04</pdfrwt>
<pdfrwt beam="1">  1        4 0.16259245E+00 0.10073245E+04</pdfrwt>
<totfact> 0.49097289E+00</totfact>
</mgrwt>
</event>
<event>
 6    1  0.1431486E-005  0.1018918E+04  0.7818608E-02  0.9763430E-01
          4   -1    0    0  502    0 -0.00000000000E+00  0.00000000000E+00  0.11956303900E+04  0.11956303900E+04  0.00000000000E+00 0.  1.
         21   -1    0    0  501  502  0.00000000000E+00 -0.00000000000E+00 -0.34286566274E+03  0.34286566274E+03  0.00000000000E+00 0.  1.
    9000010    2    1    2  501    0  0.19220196147E+03 -0.30780346125E+02  0.87436562589E+03  0.13426501090E+04  0.10001525103E+04 0.  0.
        -13    1    3    3    0    0 -0.25278843583E+03 -0.25021207426E+03  0.75163682945E+03  0.83154435236E+03  0.10566000000E+00 0.  1.
          4    1    3    3  501    0  0.44499039730E+03  0.21943172814E+03  0.12272879644E+03  0.51110575665E+03  0.00000000000E+00 0.  1.
         13    1    1    2    0    0 -0.19220196147E+03  0.30780346125E+02 -0.21600898617E+02  0.19584594376E+03  0.10566000000E+00 0. -1.
<mgrwt>
<rscale>  1 0.67362578E+03</rscale>
<asrwt>0</asrwt>
<pdfrwt beam="2">  1       21 0.52748564E-01 0.10189181E+04</pdfrwt>
<pdfrwt beam="1">  1        4 0.18394313E+00 0.10189181E+04</pdfrwt>
<totfact> 0.22554943E+01</totfact>
</mgrwt>
</event>
<event>
 6    1  0.1431486E-005  0.1197457E+04  0.7818608E-02  0.9282818E-01
         21   -1    0    0  501  502  0.00000000000E+00  0.00000000000E+00  0.39472738693E+03  0.39472738693E+03  0.00000000000E+00 0.  1.
          4   -1    0    0  502    0 -0.00000000000E+00 -0.00000000000E+00 -0.25230126068E+04  0.25230126068E+04  0.00000000000E+00 0.  1.
    9000010    2    1    2  501    0  0.25284694888E+03 -0.58778119240E+03 -0.79061842212E+03  0.14349147233E+04  0.10121681995E+04 0.  0.
        -13    1    3    3    0    0 -0.79548278839E+02 -0.22782269692E+03 -0.90093573239E+03  0.93269304434E+03  0.10566000000E+00 0.  1.
          4    1    3    3  501    0  0.33239522772E+03 -0.35995849547E+03  0.11031731026E+03  0.50222167896E+03  0.00000000000E+00 0.  1.
         13    1    1    2    0    0 -0.25284694888E+03  0.58778119240E+03 -0.13376667978E+04  0.14828252704E+04  0.10566000000E+00 0. -1.
<mgrwt>
<rscale>  1 0.10238016E+04</rscale>
<asrwt>0</asrwt>
<pdfrwt beam="1">  1       21 0.60727291E-01 0.11974568E+04</pdfrwt>
<pdfrwt beam="2">  1        4 0.38815578E+00 0.11974568E+04</pdfrwt>
<totfact> 0.79710366E-01</totfact>
</mgrwt>
</event>
<event>
 6    1  0.1431486E-005  0.1016334E+04  0.7818608E-02  0.9754098E-01
         21   -1    0    0  501  502  0.00000000000E+00  0.00000000000E+00  0.29929700035E+03  0.29929700035E+03  0.00000000000E+00 0.  1.
          4   -1    0    0  502    0 -0.00000000000E+00 -0.00000000000E+00 -0.16498826000E+04  0.16498826000E+04  0.00000000000E+00 0.  1.
    9000010    2    1    2  501    0  0.15866569226E+03 -0.12549638456E+03 -0.61868218611E+03  0.11898333273E+04  0.99599776856E+03 0.  0.
        -13    1    3    3    0    0  0.40142410336E+03  0.31142636660E+03 -0.23532338061E+03  0.55991499104E+03  0.10566000000E+00 0.  1.
          4    1    3    3  501    0 -0.24275841109E+03 -0.43692275116E+03 -0.38335880551E+03  0.62991833629E+03  0.00000000000E+00 0.  1.
         13    1    1    2    0    0 -0.15866569226E+03  0.12549638456E+03 -0.73190341357E+03  0.75934627306E+03  0.10566000000E+00 0. -1.
<mgrwt>
<rscale>  1 0.67885176E+03</rscale>
<asrwt>0</asrwt>
<pdfrwt beam="1">  1       21 0.46045691E-01 0.10163344E+04</pdfrwt>
<pdfrwt beam="2">  1        4 0.25382810E+00 0.10163344E+04</pdfrwt>
<totfact> 0.10730019E+01</totfact>
</mgrwt>
</event>
<event>
 6    1  0.1431486E-005  0.1124423E+04  0.7818608E-02  0.9418956E-01
          4   -1    0    0  502    0 -0.00000000000E+00  0.00000000000E+00  0.76316279844E+03  0.76316279844E+03  0.00000000000E+00 0.  1.
         21   -1    0    0  501  502  0.00000000000E+00 -0.00000000000E+00 -0.83713186378E+03  0.83713186378E+03  0.00000000000E+00 0.  1.
    9000010    2    1    2  501    0  0.43607718766E+03  0.18195895198E+03 -0.18925487944E+02  0.11245823748E+04  0.10203210131E+04 0.  0.
        -13    1    3    3    0    0  0.61849926130E+03 -0.12572722356E+03 -0.27112053929E+03  0.68691704664E+03  0.10566000000E+00 0.  1.
          4    1    3    3  501    0 -0.18242207364E+03  0.30768617554E+03  0.25219505134E+03  0.43766532818E+03  0.00000000000E+00 0.  1.
         13    1    1    2    0    0 -0.43607718766E+03 -0.18195895198E+03 -0.55043577393E+02  0.47571228740E+03  0.10566000000E+00 0. -1.
<mgrwt>
<rscale>  1 0.90531925E+03</rscale>
<asrwt>0</asrwt>
<pdfrwt beam="2">  1       21 0.12878952E+00 0.11244231E+04</pdfrwt>
<pdfrwt beam="1">  1        4 0.11740966E+00 0.11244231E+04</pdfrwt>
<totfact> 0.88508349E+00</totfact>
</mgrwt>
</event>
<event>
 6    1  0.1431486E-005  0.9996590E+03  0.7818608E-02  0.9480252E-01
          4   -1    0    0  502    0 -0.00000000000E+00  0.00000000000E+00  0.12390916001E+04  0.12390916001E+04  0.00000000000E+00 0.  1.
         21   -1    0    0  501  502  0.00000000000E+00 -0.00000000000E+00 -0.56459109507E+03  0.56459109507E+03  0.00000000000E+00 0.  1.
    9000010    2    1    2  501    0 -0.46033232624E+03 -0.28490999624E+03  0.84927043767E+02  0.10032600356E+04  0.84037999725E+03 0.  0.
        -13    1    3    3    0    0 -0.23245600704E+03  0.14269785078E+03 -0.28436808183E+03  0.39403513670E+03  0.10566000000E+00 0.  1.
          4    1    3    3  501    0 -0.22787631920E+03 -0.42760784702E+03  0.36929512559E+03  0.60922489893E+03  0.00000000000E+00 0.  1.
         13    1    1    2    0    0  0.46033232624E+03  0.28490999624E+03  0.58957346132E+03  0.80042265959E+03  0.10566000000E+00 0. -1.
<mgrwt>
<rscale>  1 0.85755523E+03</rscale>
<asrwt>0</asrwt>
<pdfrwt beam="2">  1       21 0.86860169E-01 0.99965899E+03</pdfrwt>
<pdfrwt beam="1">  1        4 0.19062948E+00 0.99965899E+03</pdfrwt>
<totfact> 0.65226115E+00</totfact>
</mgrwt>
</event>
<event>
 6    1  0.1431486E-005  0.1127925E+04  0.7818608E-02  0.9388337E-01
         21   -1    0    0  501  502  0.00000000000E+00  0.00000000000E+00  0.75803896163E+03  0.75803896163E+03  0.00000000000E+00 0. -1.
          4   -1    0    0  502    0 -0.00000000000E+00 -0.00000000000E+00 -0.92319504907E+03  0.92319504907E+03  0.00000000000E+00 0.  1.
    9000010    2    1    2  501    0  0.51561915484E+03  0.82897188717E+02  0.17243852422E+02  0.11280569993E+04  0.99974005943E+03 0.  0.
        -13    1    3    3    0    0 -0.25756272090E+03  0.17266210808E+03 -0.12938225196E+03  0.33599187051E+03  0.10566000000E+00 0.  1.
          4    1    3    3  501    0  0.77318187574E+03 -0.89764919360E+02  0.14662610438E+03  0.79206512876E+03  0.00000000000E+00 0.  1.
         13    1    1    2    0    0 -0.51561915484E+03 -0.82897188717E+02 -0.18239993986E+03  0.55317701142E+03  0.10566000000E+00 0. -1.
<mgrwt>
<rscale>  1 0.93041745E+03</rscale>
<asrwt>0</asrwt>
<pdfrwt beam="1">  1       21 0.11662138E+00 0.11279252E+04</pdfrwt>
<pdfrwt beam="2">  1        4 0.14203001E+00 0.11279252E+04</pdfrwt>
<totfact> 0.70311203E+00</totfact>
</mgrwt>
</event>
<event>
 6    1  0.1431486E-005  0.1019665E+04  0.7818608E-02  0.9771953E-01
          4   -1    0    0  502    0 -0.00000000000E+00  0.00000000000E+00  0.52494607348E+03  0.52494607348E+03  0.00000000000E+00 0.  1.
         21   -1    0    0  501  502  0.00000000000E+00 -0.00000000000E+00 -0.10808610157E+04  0.10808610157E+04  0.00000000000E+00 0.  1.
    9000010    2    1    2  501    0 -0.64097974207E+02 -0.17761457046E+03 -0.80083027171E+03  0.12965515059E+04  0.10020285413E+04 0.  0.
        -13    1    3    3    0    0  0.46489127250E+03 -0.77633153714E+02 -0.28406290639E+03  0.55031131894E+03  0.10566000000E+00 0.  1.
          4    1    3    3  501    0 -0.52898924671E+03 -0.99981416744E+02 -0.51676736532E+03  0.74624018700E+03  0.00000000000E+00 0.  1.
         13    1    1    2    0    0  0.64097974207E+02  0.17761457046E+03  0.24491532953E+03  0.30925558320E+03  0.10566000000E+00 0. -1.
<mgrwt>
<rscale>  1 0.66889653E+03</rscale>
<asrwt>0</asrwt>
<pdfrwt beam="2">  1       21 0.16628631E+00 0.10196650E+04</pdfrwt>
<pdfrwt beam="1">  1        4 0.80760935E-01 0.10196650E+04</pdfrwt>
<totfact> 0.10820273E+01</totfact>
</mgrwt>
</event>
<event>
 6    1  0.1431486E-005  0.9861276E+03  0.7818608E-02  0.1018116E+00
         21   -1    0    0  501  502  0.00000000000E+00  0.00000000000E+00  0.81976712522E+03  0.81976712522E+03  0.00000000000E+00 0.  1.
          4   -1    0    0  502    0 -0.00000000000E+00 -0.00000000000E+00 -0.38022275693E+03  0.38022275693E+03  0.00000000000E+00 0.  1.
    9000010    2    1    2  501    0  0.47286539838E+02 -0.31996221164E+02  0.50927350673E+03  0.11098680816E+04  0.98447340185E+03 0.  0.
        -13    1    3    3    0    0 -0.40091081615E+03  0.13603000543E+03  0.46548094589E+03  0.62921074930E+03  0.10566000000E+00 0.  1.
          4    1    3    3  501    0  0.44819735599E+03 -0.16802622660E+03  0.43792560835E+02  0.48065733233E+03  0.00000000000E+00 0.  1.
         13    1    1    2    0    0 -0.47286539838E+02  0.31996221164E+02 -0.69729138436E+02  0.90121800524E+02  0.10566000000E+00 0. -1.
<mgrwt>
<rscale>  1 0.48372494E+03</rscale>
<asrwt>0</asrwt>
<pdfrwt beam="1">  1       21 0.12611802E+00 0.98612761E+03</pdfrwt>
<pdfrwt beam="2">  1        4 0.58495809E-01 0.98612761E+03</pdfrwt>
<totfact> 0.47842191E+01</totfact>
</mgrwt>
</event>
<event>
 6    1  0.1431486E-005  0.1123656E+04  0.7818608E-02  0.9362905E-01
         21   -1    0    0  501  502  0.00000000000E+00  0.00000000000E+00  0.10705674918E+04  0.10705674918E+04  0.00000000000E+00 0. -1.
          4   -1    0    0  502    0 -0.00000000000E+00 -0.00000000000E+00 -0.72303672420E+03  0.72303672420E+03  0.00000000000E+00 0.  1.
    9000010    2    1    2  501    0  0.86592742633E+01 -0.57870790708E+03  0.10202354839E+02  0.11237025113E+04  0.96313312742E+03 0.  0.
        -13    1    3    3    0    0 -0.39345007056E+03 -0.59196826023E+03 -0.67313717747E+02  0.71397515846E+03  0.10566000000E+00 0.  1.
          4    1    3    3  501    0  0.40210934483E+03  0.13260353147E+02  0.77516072587E+02  0.40972735285E+03  0.00000000000E+00 0.  1.
         13    1    1    2    0    0 -0.86592742633E+01  0.57870790708E+03  0.33732841280E+03  0.66990170473E+03  0.10566000000E+00 0. -1.
<mgrwt>
<rscale>  1 0.95192373E+03</rscale>
<asrwt>0</asrwt>
<pdfrwt beam="1">  1       21 0.16470269E+00 0.11236562E+04</pdfrwt>
<pdfrwt beam="2">  1        4 0.11123642E+00 0.11236562E+04</pdfrwt>
<totfact> 0.51184925E+00</totfact>
</mgrwt>
</event>
<event>
 6    1  0.1431486E-005  0.1154329E+04  0.7818608E-02  0.9348965E-01
          4   -1    0    0  502    0 -0.00000000000E+00  0.00000000000E+00  0.13461381443E+04  0.13461381443E+04  0.00000000000E+00 0.  1.
         21   -1    0    0  501  502  0.00000000000E+00 -0.00000000000E+00 -0.83611782900E+03  0.83611782900E+03  0.00000000000E+00 0.  1.
    9000010    2    1    2  501    0 -0.45839764199E+03  0.32409824590E+03 -0.30375073795E+03  0.11936248947E+04  0.10086167792E+04 0.  0.
        -13    1    3    3    0    0  0.15578228874E+03  0.20519795419E+03 -0.47906023978E+03  0.54394213515E+03  0.10566000000E+00 0.  1.
          4    1    3    3  501    0 -0.61417993073E+03  0.11890029172E+03  0.17530950183E+03  0.64968275960E+03  0.00000000000E+00 0.  1.
         13    1    1    2    0    0  0.45839764199E+03 -0.32409824590E+03  0.81377105320E+03  0.98863107850E+03  0.10566000000E+00 0. -1.
<mgrwt>
<rscale>  1 0.96397337E+03</rscale>
<asrwt>0</asrwt>
<pdfrwt beam="2">  1       21 0.12863351E+00 0.11543292E+04</pdfrwt>
<pdfrwt beam="1">  1        4 0.20709817E+00 0.11543292E+04</pdfrwt>
<totfact> 0.18477462E+00</totfact>
</mgrwt>
</event>
<event>
 6    1  0.1431486E-005  0.1023503E+04  0.7818608E-02  0.9883411E-01
         21   -1    0    0  501  502  0.00000000000E+00  0.00000000000E+00  0.43073059630E+03  0.43073059630E+03  0.00000000000E+00 0.  1.
          4   -1    0    0  502    0 -0.00000000000E+00 -0.00000000000E+00 -0.92977312888E+03  0.92977312888E+03  0.00000000000E+00 0.  1.
    9000010    2    1    2  501    0  0.35471123979E+02 -0.12480557581E+03 -0.21161828756E+03  0.10451510018E+04  0.10152456276E+04 0.  0.
        -13    1    3    3    0    0  0.21750985866E+03 -0.65933621221E+02  0.36924571476E+03  0.43358988694E+03  0.10566000000E+00 0.  1.
          4    1    3    3  501    0 -0.18203873468E+03 -0.58871954593E+02 -0.58086400232E+03  0.61156111481E+03  0.00000000000E+00 0.  1.
         13    1    1    2    0    0 -0.35471123979E+02  0.12480557581E+03 -0.28742424502E+03  0.31535272344E+03  0.10566000000E+00 0. -1.
<mgrwt>
<rscale>  1 0.61072025E+03</rscale>
<asrwt>0</asrwt>
<pdfrwt beam="1">  1       21 0.66266246E-01 0.10235030E+04</pdfrwt>
<pdfrwt beam="2">  1        4 0.14304202E+00 0.10235030E+04</pdfrwt>
<totfact> 0.27258848E+01</totfact>
</mgrwt>
</event>
<event>
 6    1  0.1431486E-005  0.1032505E+04  0.7818608E-02  0.9690624E-01
          4   -1    0    0  502    0 -0.00000000000E+00  0.00000000000E+00  0.21945854856E+04  0.21945854856E+04  0.00000000000E+00 0.  1.
         21   -1    0    0  501  502  0.00000000000E+00 -0.00000000000E+00 -0.21150182656E+03  0.21150182656E+03  0.00000000000E+00 0.  1.
    9000010    2    1    2  501    0  0.23650539324E+03 -0.30558854146E+02  0.11780859551E+04  0.15665100619E+04  0.10045887775E+04 0.  0.
        -13    1    3    3    0    0  0.14794489726E+02  0.43818841471E+03  0.83986886200E+03  0.94742159583E+03  0.10566000000E+00 0.  1.
          4    1    3    3  501    0  0.22171090352E+03 -0.46874726886E+03  0.33821709313E+03  0.61908846612E+03  0.00000000000E+00 0.  1.
         13    1    1    2    0    0 -0.23650539324E+03  0.30558854146E+02  0.80499770386E+03  0.83957725016E+03  0.10566000000E+00 0. -1.
<mgrwt>
<rscale>  1 0.71577800E+03</rscale>
<asrwt>0</asrwt>
<pdfrwt beam="2">  1       21 0.32538744E-01 0.10325053E+04</pdfrwt>
<pdfrwt beam="1">  1        4 0.33762852E+00 0.10325053E+04</pdfrwt>
<totfact> 0.66549623E+00</totfact>
</mgrwt>
</event>
<event>
 6    1  0.1431486E-005  0.1065296E+04  0.7818608E-02  0.9528258E-01
         21   -1    0    0  501  502  0.00000000000E+00  0.00000000000E+00  0.11151571631E+04  0.11151571631E+04  0.00000000000E+00 0.  1.
          4   -1    0    0  502    0 -0.00000000000E+00 -0.00000000000E+00 -0.46899224378E+03  0.46899224378E+03  0.00000000000E+00 0.  1.
    9000010    2    1    2  501    0  0.30959339625E+03 -0.21727831360E+03  0.43252569879E+03  0.11497536607E+04  0.99589008614E+03 0.  0.
        -13    1    3    3    0    0  0.51955663115E+03  0.22604692240E+03  0.16073811668E+03  0.58895930031E+03  0.10566000000E+00 0.  1.
          4    1    3    3  501    0 -0.20996323490E+03 -0.44332523600E+03  0.27178758211E+03  0.56079436042E+03  0.00000000000E+00 0.  1.
         13    1    1    2    0    0 -0.30959339625E+03  0.21727831360E+03  0.21363922052E+03  0.43439574615E+03  0.10566000000E+00 0. -1.
<mgrwt>
<rscale>  1 0.82232159E+03</rscale>
<asrwt>0</asrwt>
<pdfrwt beam="1">  1       21 0.17156264E+00 0.10652957E+04</pdfrwt>
<pdfrwt beam="2">  1        4 0.72152653E-01 0.10652957E+04</pdfrwt>
<totfact> 0.12698793E+01</totfact>
</mgrwt>
</event>
<event>
 6    1  0.1431486E-005  0.1073709E+04  0.7818608E-02  0.9485315E-01
          4   -1    0    0  502    0 -0.00000000000E+00  0.00000000000E+00  0.94098930787E+03  0.94098930787E+03  0.00000000000E+00 0.  1.
         21   -1    0    0  501  502  0.00000000000E+00 -0.00000000000E+00 -0.61199938676E+03  0.61199938676E+03  0.00000000000E+00 0.  1.
    9000010    2    1    2  501    0  0.34484721097E+03  0.25553784323E+03  0.13564631178E+03  0.10822435931E+04  0.98419108133E+03 0.  0.
        -13    1    3    3    0    0 -0.30561601732E+03  0.29130152956E+03  0.47865406747E+02  0.42491038996E+03  0.10566000000E+00 0.  1.
          4    1    3    3  501    0  0.65046322828E+03 -0.35763686334E+02  0.87780905037E+02  0.65733320310E+03  0.00000000000E+00 0.  1.
         13    1    1    2    0    0 -0.34484721097E+03 -0.25553784323E+03  0.19334360933E+03  0.47074510158E+03  0.10566000000E+00 0. -1.
<mgrwt>
<rscale>  1 0.85375221E+03</rscale>
<asrwt>0</asrwt>
<pdfrwt beam="2">  1       21 0.94153751E-01 0.10737091E+04</pdfrwt>
<pdfrwt beam="1">  1        4 0.14476759E+00 0.10737091E+04</pdfrwt>
<totfact> 0.11504566E+01</totfact>
</mgrwt>
</event>
<event>
 6    1  0.1431486E-005  0.1073415E+04  0.7818608E-02  0.9503278E-01
         21   -1    0    0  501  502  0.00000000000E+00  0.00000000000E+00  0.35544031087E+03  0.35544031087E+03  0.00000000000E+00 0.  1.
          4   -1    0    0  502    0 -0.00000000000E+00 -0.00000000000E+00 -0.16980311206E+04  0.16980311206E+04  0.00000000000E+00 0.  1.
    9000010    2    1    2  501    0  0.16531983741E+03 -0.36792656590E+03 -0.65845651363E+03  0.12592797967E+04  0.99474620853E+03 0.  0.
        -13    1    3    3    0    0  0.11065809297E+03  0.69541209589E+02  0.23164943227E+03  0.26597493116E+03  0.10566000000E+00 0.  1.
          4    1    3    3  501    0  0.54661744436E+02 -0.43746777549E+03 -0.89010594590E+03  0.99330486550E+03  0.00000000000E+00 0.  1.
         13    1    1    2    0    0 -0.16531983741E+03  0.36792656590E+03 -0.68413429610E+03  0.79419163481E+03  0.10566000000E+00 0. -1.
<mgrwt>
<rscale>  1 0.84042607E+03</rscale>
<asrwt>0</asrwt>
<pdfrwt beam="1">  1       21 0.54683125E-01 0.10734154E+04</pdfrwt>
<pdfrwt beam="2">  1        4 0.26123556E+00 0.10734154E+04</pdfrwt>
<totfact> 0.66092825E+00</totfact>
</mgrwt>
</event>
<event>
 6    1  0.1431486E-005  0.1097469E+04  0.7818608E-02  0.9732421E-01
          4   -1    0    0  502    0 -0.00000000000E+00  0.00000000000E+00  0.17057599721E+03  0.17057599721E+03  0.00000000000E+00 0.  1.
         21   -1    0    0  501  502  0.00000000000E+00 -0.00000000000E+00 -0.24254023832E+04  0.24254023832E+04  0.00000000000E+00 0.  1.
    9000010    2    1    2  501    0 -0.60383003529E+02 -0.16176464934E+03 -0.17845730413E+04  0.20950271570E+04  0.10838006920E+04 0.  0.
        -13    1    3    3    0    0  0.39137499753E+03 -0.39731902878E+03 -0.68628110787E+03  0.88431813818E+03  0.10566000000E+00 0.  1.
          4    1    3    3  501    0 -0.45175800106E+03  0.23555437944E+03 -0.10982919334E+04  0.12107090188E+04  0.00000000000E+00 0.  1.
         13    1    1    2    0    0  0.60383003529E+02  0.16176464934E+03 -0.47025334467E+03  0.50095122341E+03  0.10566000000E+00 0. -1.
<mgrwt>
<rscale>  1 0.69118863E+03</rscale>
<asrwt>0</asrwt>
<pdfrwt beam="2">  1       21 0.37313880E+00 0.10974688E+04</pdfrwt>
<pdfrwt beam="1">  1        4 0.26242463E-01 0.10974688E+04</pdfrwt>
<totfact> 0.50684894E+00</totfact>
</mgrwt>
</event>
<event>
 6    1  0.1431486E-005  0.1012255E+04  0.7818608E-02  0.9825376E-01
          4   -1    0    0  502    0 -0.00000000000E+00  0.00000000000E+00  0.69116326894E+03  0.69116326894E+03  0.00000000000E+00 0.  1.
         21   -1    0    0  501  502  0.00000000000E+00 -0.00000000000E+00 -0.51478600887E+03  0.51478600887E+03  0.00000000000E+00 0.  1.
    9000010    2    1    2  501    0  0.13703379254E+03  0.86286736488E+02  0.75292020106E+02  0.10150516663E+04  0.99921836236E+03 0.  0.
        -13    1    3    3    0    0 -0.21757671121E+03  0.36013913828E+03  0.29712775857E+03  0.51509682610E+03  0.10566000000E+00 0.  1.
          4    1    3    3  501    0  0.35461050375E+03 -0.27385240179E+03 -0.22183573846E+03  0.49995484016E+03  0.00000000000E+00 0.  1.
         13    1    1    2    0    0 -0.13703379254E+03 -0.86286736488E+02  0.10108523996E+03  0.19089761155E+03  0.10566000000E+00 0. -1.
<mgrwt>
<rscale>  1 0.64018319E+03</rscale>
<asrwt>0</asrwt>
<pdfrwt beam="2">  1       21 0.79197848E-01 0.10122554E+04</pdfrwt>
<pdfrwt beam="1">  1        4 0.10633281E+00 0.10122554E+04</pdfrwt>
<totfact> 0.38372569E+01</totfact>
</mgrwt>
</event>
<event>
 6    1  0.1431486E-005  0.1028678E+04  0.7818608E-02  0.9752289E-01
          4   -1    0    0  502    0 -0.00000000000E+00  0.00000000000E+00  0.74977096934E+03  0.74977096934E+03  0.00000000000E+00 0.  1.
         21   -1    0    0  501  502  0.00000000000E+00 -0.00000000000E+00 -0.88373259636E+03  0.88373259636E+03  0.00000000000E+00 0.  1.
    9000010    2    1    2  501    0  0.13627573955E+02 -0.19580200162E+03 -0.55508422877E+03  0.11688871740E+04  0.10097794758E+04 0.  0.
        -13    1    3    3    0    0 -0.35189826497E+03  0.25627108395E+03 -0.15051392912E+03  0.46061015119E+03  0.10566000000E+00 0.  1.
          4    1    3    3  501    0  0.36552583892E+03 -0.45207308558E+03 -0.40457029965E+03  0.70827702277E+03  0.00000000000E+00 0.  1.
         13    1    1    2    0    0 -0.13627573955E+02  0.19580200162E+03  0.42112260175E+03  0.46461639175E+03  0.10566000000E+00 0. -1.
<mgrwt>
<rscale>  1 0.67987060E+03</rscale>
<asrwt>0</asrwt>
<pdfrwt beam="2">  1       21 0.13595886E+00 0.10286781E+04</pdfrwt>
<pdfrwt beam="1">  1        4 0.11534938E+00 0.10286781E+04</pdfrwt>
<totfact> 0.80888713E+00</totfact>
</mgrwt>
</event>
<event>
 6    1  0.1431486E-005  0.1046896E+04  0.7818608E-02  0.9563500E-01
         21   -1    0    0  501  502  0.00000000000E+00  0.00000000000E+00  0.12677870869E+04  0.12677870869E+04  0.00000000000E+00 0.  1.
          4   -1    0    0  502    0 -0.00000000000E+00 -0.00000000000E+00 -0.40360239805E+03  0.40360239805E+03  0.00000000000E+00 0.  1.
    9000010    2    1    2  501    0 -0.10483965020E+03 -0.33677637262E+03  0.78856141655E+03  0.13106561099E+04  0.98568790864E+03 0.  0.
        -13    1    3    3    0    0 -0.12328993769E+02 -0.61775904069E+03  0.80451345387E+03  0.10144063018E+04  0.10566000000E+00 0.  1.
          4    1    3    3  501    0 -0.92510656431E+02  0.28098266806E+03 -0.15952037320E+02  0.29624980810E+03  0.00000000000E+00 0.  1.
         13    1    1    2    0    0  0.10483965020E+03  0.33677637262E+03  0.75623272290E+02  0.36073337507E+03  0.10566000000E+00 0. -1.
<mgrwt>
<rscale>  1 0.79759844E+03</rscale>
<asrwt>0</asrwt>
<pdfrwt beam="1">  1       21 0.19504416E+00 0.10468956E+04</pdfrwt>
<pdfrwt beam="2">  1        4 0.62092678E-01 0.10468956E+04</pdfrwt>
<totfact> 0.12037413E+01</totfact>
</mgrwt>
</event>
<event>
 6    1  0.1431486E-005  0.9391504E+03  0.7818608E-02  0.9819024E-01
         21   -1    0    0  501  502  0.00000000000E+00  0.00000000000E+00  0.13046466167E+04  0.13046466167E+04  0.00000000000E+00 0.  1.
          4   -1    0    0  502    0 -0.00000000000E+00 -0.00000000000E+00 -0.32029332184E+03  0.32029332184E+03  0.00000000000E+00 0.  1.
    9000010    2    1    2  501    0  0.94736183885E+02  0.18408086188E+03  0.10490711119E+04  0.14080318584E+04  0.91604738316E+03 0.  0.
        -13    1    3    3    0    0  0.33641209649E+03 -0.26502957393E+03  0.44866106229E+03  0.62025037985E+03  0.10566000000E+00 0.  1.
          4    1    3    3  501    0 -0.24167591260E+03  0.44911043580E+03  0.60041004962E+03  0.78778147856E+03  0.00000000000E+00 0.  1.
         13    1    1    2    0    0 -0.94736183885E+02 -0.18408086188E+03 -0.64717816997E+02  0.21690808018E+03  0.10566000000E+00 0. -1.
<mgrwt>
<rscale>  1 0.64351519E+03</rscale>
<asrwt>0</asrwt>
<pdfrwt beam="1">  1       21 0.20071486E+00 0.93915042E+03</pdfrwt>
<pdfrwt beam="2">  1        4 0.49275896E-01 0.93915042E+03</pdfrwt>
<totfact> 0.18322874E+01</totfact>
</mgrwt>
</event>
<event>
 6    1  0.1431486E-005  0.1039907E+04  0.7818608E-02  0.9594942E-01
          4   -1    0    0  502    0 -0.00000000000E+00  0.00000000000E+00  0.68426960219E+03  0.68426960219E+03  0.00000000000E+00 0.  1.
         21   -1    0    0  501  502  0.00000000000E+00 -0.00000000000E+00 -0.13354563325E+04  0.13354563325E+04  0.00000000000E+00 0.  1.
    9000010    2    1    2  501    0  0.23136762696E+03  0.22535593387E+03  0.24392046350E+03  0.10681308657E+04  0.98847866847E+03 0.  0.
        -13    1    3    3    0    0 -0.88104780809E+02  0.34709968981E+03 -0.27166625956E+03  0.44949217436E+03  0.10566000000E+00 0.  1.
          4    1    3    3  501    0  0.31947240777E+03 -0.12174375594E+03  0.51558672306E+03  0.61863869134E+03  0.00000000000E+00 0.  1.
         13    1    1    2    0    0 -0.23136762696E+03 -0.22535593387E+03 -0.89510719384E+03  0.95159506901E+03  0.10566000000E+00 0. -1.
<mgrwt>
<rscale>  1 0.77631846E+03</rscale>
<asrwt>0</asrwt>
<pdfrwt beam="2">  1       21 0.20545482E+00 0.10399069E+04</pdfrwt>
<pdfrwt beam="1">  1        4 0.10527225E+00 0.10399069E+04</pdfrwt>
<totfact> 0.30200064E+00</totfact>
</mgrwt>
</event>
<event>
 6    1  0.1431486E-005  0.1095779E+04  0.7818608E-02  0.9497127E-01
          4   -1    0    0  502    0 -0.00000000000E+00  0.00000000000E+00  0.20925022078E+04  0.20925022078E+04  0.00000000000E+00 0.  1.
         21   -1    0    0  501  502  0.00000000000E+00 -0.00000000000E+00 -0.26308031397E+03  0.26308031397E+03  0.00000000000E+00 0.  1.
    9000010    2    1    2  501    0  0.13331692738E+03  0.36375251859E+03  0.13190119139E+04  0.17147957736E+04  0.10250086917E+04 0.  0.
        -13    1    3    3    0    0 -0.12146652500E+03  0.50279866411E+03  0.19319444668E+03  0.55216367023E+03  0.10566000000E+00 0.  1.
          4    1    3    3  501    0  0.25478345238E+03 -0.13904614553E+03  0.11258174672E+04  0.11626321033E+04  0.00000000000E+00 0.  1.
         13    1    1    2    0    0 -0.13331692738E+03 -0.36375251859E+03  0.51040997996E+03  0.64078674823E+03  0.10566000000E+00 0. -1.
<mgrwt>
<rscale>  1 0.84495974E+03</rscale>
<asrwt>0</asrwt>
<pdfrwt beam="2">  1       21 0.40473896E-01 0.10957792E+04</pdfrwt>
<pdfrwt beam="1">  1        4 0.32192341E+00 0.10957792E+04</pdfrwt>
<totfact> 0.52854378E+00</totfact>
</mgrwt>
</event>
<event>
 6    1  0.1431486E-005  0.1022115E+04  0.7818608E-02  0.9758780E-01
         21   -1    0    0  501  502  0.00000000000E+00  0.00000000000E+00  0.10048640298E+04  0.10048640298E+04  0.00000000000E+00 0.  1.
          4   -1    0    0  502    0 -0.00000000000E+00 -0.00000000000E+00 -0.60042128706E+03  0.60042128706E+03  0.00000000000E+00 0.  1.
    9000010    2    1    2  501    0 -0.79617958525E+02 -0.17890580073E+03  0.70847565334E+03  0.12436469246E+04  0.10031817467E+04 0.  0.
        -13    1    3    3    0    0  0.17495237772E+03  0.24433235152E+03 -0.82055189300E+02  0.31151195438E+03  0.10566000000E+00 0.  1.
          4    1    3    3  501    0 -0.25457033624E+03 -0.42323815225E+03  0.79053084264E+03  0.93213497026E+03  0.00000000000E+00 0.  1.
         13    1    1    2    0    0  0.79617958525E+02  0.17890580073E+03 -0.30403291058E+03  0.36163839223E+03  0.10566000000E+00 0. -1.
<mgrwt>
<rscale>  1 0.67622373E+03</rscale>
<asrwt>0</asrwt>
<pdfrwt beam="1">  1       21 0.15459447E+00 0.10221154E+04</pdfrwt>
<pdfrwt beam="2">  1        4 0.92372506E-01 0.10221154E+04</pdfrwt>
<totfact> 0.97426735E+00</totfact>
</mgrwt>
</event>
<event>
 6    1  0.1431486E-005  0.1012341E+04  0.7818608E-02  0.9839166E-01
         21   -1    0    0  501  502  0.00000000000E+00  0.00000000000E+00  0.37082584798E+04  0.37082584798E+04  0.00000000000E+00 0.  1.
          4   -1    0    0  502    0 -0.00000000000E+00 -0.00000000000E+00 -0.92349858779E+02  0.92349858779E+02  0.00000000000E+00 0.  1.
    9000010    2    1    2  501    0 -0.63846696015E+02 -0.14099179001E+03  0.30321841908E+04  0.31967132259E+04  0.10004396017E+04 0.  0.
        -13    1    3    3    0    0 -0.47159958461E+03 -0.19001659045E+03  0.98221712173E+03  0.11060121872E+04  0.10566000000E+00 0.  1.
          4    1    3    3  501    0  0.40775288860E+03  0.49024800443E+02  0.20499670690E+04  0.20907010387E+04  0.00000000000E+00 0.  1.
         13    1    1    2    0    0  0.63846696015E+02  0.14099179001E+03  0.58372443030E+03  0.60389511269E+03  0.10566000000E+00 0. -1.
<mgrwt>
<rscale>  1 0.63302366E+03</rscale>
<asrwt>0</asrwt>
<pdfrwt beam="1">  1       21 0.57050119E+00 0.10123411E+04</pdfrwt>
<pdfrwt beam="2">  1        4 0.14207673E-01 0.10123411E+04</pdfrwt>
<totfact> 0.66385075E-01</totfact>
</mgrwt>
</event>
<event>
 6    1  0.1431486E-005  0.1024704E+04  0.7818608E-02  0.9953922E-01
          4   -1    0    0  502    0 -0.00000000000E+00  0.00000000000E+00  0.41503944571E+03  0.41503944571E+03  0.00000000000E+00 0.  1.
         21   -1    0    0  501  502  0.00000000000E+00 -0.00000000000E+00 -0.10550168815E+04  0.10550168815E+04  0.00000000000E+00 0.  1.
    9000010    2    1    2  501    0 -0.10266586662E+03 -0.99098247004E+01 -0.78588806450E+03  0.12913711080E+04  0.10195002717E+04 0.  0.
        -13    1    3    3    0    0 -0.49511581904E+02 -0.25558392543E+03 -0.95406087454E+03  0.98894221427E+03  0.10566000000E+00 0.  1.
          4    1    3    3  501    0 -0.53154284714E+02  0.24567410073E+03  0.16817281004E+03  0.30242889377E+03  0.00000000000E+00 0.  1.
         13    1    1    2    0    0  0.10266586662E+03  0.99098247004E+01  0.14591062874E+03  0.17868521913E+03  0.10566000000E+00 0. -1.
<mgrwt>
<rscale>  1 0.57717699E+03</rscale>
<asrwt>0</asrwt>
<pdfrwt beam="2">  1       21 0.16231029E+00 0.10247045E+04</pdfrwt>
<pdfrwt beam="1">  1        4 0.63852223E-01 0.10247045E+04</pdfrwt>
<totfact> 0.19682997E+01</totfact>
</mgrwt>
</event>
<event>
 6    1  0.1431486E-005  0.1080167E+04  0.7818608E-02  0.9524463E-01
         21   -1    0    0  501  502  0.00000000000E+00  0.00000000000E+00  0.33233323529E+03  0.33233323529E+03  0.00000000000E+00 0.  1.
          4   -1    0    0  502    0 -0.00000000000E+00 -0.00000000000E+00 -0.15793979440E+04  0.15793979440E+04  0.00000000000E+00 0.  1.
    9000010    2    1    2  501    0 -0.33948681678E+03 -0.14110793746E+03 -0.96333055246E+03  0.14473306718E+04  0.10156759185E+04 0.  0.
        -13    1    3    3    0    0 -0.58688096071E+03 -0.40561159814E+03 -0.57459591847E+03  0.91602975458E+03  0.10566000000E+00 0.  1.
          4    1    3    3  501    0  0.24739414394E+03  0.26450366068E+03 -0.38873463399E+03  0.53130091721E+03  0.00000000000E+00 0.  1.
         13    1    1    2    0    0  0.33948681678E+03  0.14110793746E+03 -0.28373415624E+03  0.46440050749E+03  0.10566000000E+00 0. -1.
<mgrwt>
<rscale>  1 0.82504057E+03</rscale>
<asrwt>0</asrwt>
<pdfrwt beam="1">  1       21 0.51128191E-01 0.10801668E+04</pdfrwt>
<pdfrwt beam="2">  1        4 0.24298429E+00 0.10801668E+04</pdfrwt>
<totfact> 0.99245343E+00</totfact>
</mgrwt>
</event>
<event>
 6    1  0.1431486E-005  0.9446536E+03  0.7818608E-02  0.9701304E-01
          4   -1    0    0  502    0 -0.00000000000E+00  0.00000000000E+00  0.29591290875E+03  0.29591290875E+03  0.00000000000E+00 0.  1.
         21   -1    0    0  501  502  0.00000000000E+00 -0.00000000000E+00 -0.14713229940E+04  0.14713229940E+04  0.00000000000E+00 0.  1.
    9000010    2    1    2  501    0  0.29365870124E+03 -0.63375533732E+02 -0.11139985927E+04  0.14606037556E+04  0.89561072754E+03 0.  0.
        -13    1    3    3    0    0  0.32605053434E+03  0.60852668206E+02 -0.12382730791E+04  0.12819252036E+04  0.10566000000E+00 0.  1.
          4    1    3    3  501    0 -0.32391833094E+02 -0.12422820194E+03  0.12427448632E+03  0.17867855204E+03  0.00000000000E+00 0.  1.
         13    1    1    2    0    0 -0.29365870124E+03  0.63375533732E+02 -0.61411492562E+02  0.30663214716E+03  0.10566000000E+00 0. -1.
<mgrwt>
<rscale>  1 0.70939233E+03</rscale>
<asrwt>0</asrwt>
<pdfrwt beam="2">  1       21 0.22635739E+00 0.94465362E+03</pdfrwt>
<pdfrwt beam="1">  1        4 0.45525062E-01 0.94465362E+03</pdfrwt>
<totfact> 0.14567778E+01</totfact>
</mgrwt>
</event>
<event>
 6    1  0.1431486E-005  0.1046106E+04  0.7818608E-02  0.9518649E-01
         21   -1    0    0  501  502  0.00000000000E+00  0.00000000000E+00  0.26026881238E+03  0.26026881238E+03  0.00000000000E+00 0.  1.
          4   -1    0    0  502    0 -0.00000000000E+00 -0.00000000000E+00 -0.20690408314E+04  0.20690408314E+04  0.00000000000E+00 0.  1.
    9000010    2    1    2  501    0 -0.36281830957E+03  0.19734615036E+03 -0.14054022905E+04  0.17519970959E+04  0.96112205119E+03 0.  0.
        -13    1    3    3    0    0  0.24405833604E+03  0.29516908473E+03 -0.29743562809E+03  0.48493012279E+03  0.10566000000E+00 0.  1.
          4    1    3    3  501    0 -0.60687664561E+03 -0.97822934370E+02 -0.11079666624E+04  0.12670669731E+04  0.00000000000E+00 0.  1.
         13    1    1    2    0    0  0.36281830957E+03 -0.19734615036E+03 -0.40336972857E+03  0.57731254786E+03  0.10566000000E+00 0. -1.
<mgrwt>
<rscale>  1 0.82922760E+03</rscale>
<asrwt>0</asrwt>
<pdfrwt beam="1">  1       21 0.40041356E-01 0.10461062E+04</pdfrwt>
<pdfrwt beam="2">  1        4 0.31831397E+00 0.10461062E+04</pdfrwt>
<totfact> 0.57335019E+00</totfact>
</mgrwt>
</event>
<event>
 6    1  0.1431486E-005  0.1089800E+04  0.7818608E-02  0.9682985E-01
          4   -1    0    0  502    0 -0.00000000000E+00  0.00000000000E+00  0.59778472207E+03  0.59778472207E+03  0.00000000000E+00 0.  1.
         21   -1    0    0  501  502  0.00000000000E+00 -0.00000000000E+00 -0.87439687033E+03  0.87439687033E+03  0.00000000000E+00 0.  1.
    9000010    2    1    2  501    0 -0.51777200999E+02 -0.20153444394E+03 -0.47118847760E+03  0.11873009687E+04  0.10697513722E+04 0.  0.
        -13    1    3    3    0    0 -0.67983495737E+02 -0.40681353559E+03  0.21904136717E+03  0.46700978590E+03  0.10566000000E+00 0.  1.
          4    1    3    3  501    0  0.16206294739E+02  0.20527909166E+03 -0.69022984476E+03  0.72029118283E+03  0.00000000000E+00 0.  1.
         13    1    1    2    0    0  0.51777200999E+02  0.20153444394E+03  0.19457632933E+03  0.28488062366E+03  0.10566000000E+00 0. -1.
<mgrwt>
<rscale>  1 0.72038969E+03</rscale>
<asrwt>0</asrwt>
<pdfrwt beam="2">  1       21 0.13452260E+00 0.10898004E+04</pdfrwt>
<pdfrwt beam="1">  1        4 0.91966880E-01 0.10898004E+04</pdfrwt>
<totfact> 0.14332760E+01</totfact>
</mgrwt>
</event>
<event>
 6    1  0.1431486E-005  0.9936678E+03  0.7818608E-02  0.9805630E-01
         21   -1    0    0  501  502  0.00000000000E+00  0.00000000000E+00  0.25933925587E+03  0.25933925587E+03  0.00000000000E+00 0.  1.
          4   -1    0    0  502    0 -0.00000000000E+00 -0.00000000000E+00 -0.14674812244E+04  0.14674812244E+04  0.00000000000E+00 0.  1.
    9000010    2    1    2  501    0  0.18118938273E+03  0.22877439161E+02 -0.78629026188E+03  0.12671338009E+04  0.97674086830E+03 0.  0.
        -13    1    3    3    0    0  0.34956794272E+02 -0.24931609103E+02  0.23268306041E+03  0.23661145442E+03  0.10566000000E+00 0.  1.
          4    1    3    3  501    0  0.14623258846E+03  0.47809048264E+02 -0.10189733223E+04  0.10305223465E+04  0.00000000000E+00 0.  1.
         13    1    1    2    0    0 -0.18118938273E+03 -0.22877439161E+02 -0.42185170668E+03  0.45968667941E+03  0.10566000000E+00 0. -1.
<mgrwt>
<rscale>  1 0.65061301E+03</rscale>
<asrwt>0</asrwt>
<pdfrwt beam="1">  1       21 0.39898348E-01 0.99366780E+03</pdfrwt>
<pdfrwt beam="2">  1        4 0.22576634E+00 0.99366780E+03</pdfrwt>
<totfact> 0.21801252E+01</totfact>
</mgrwt>
</event>
<event>
 6    1  0.1431486E-005  0.1017918E+04  0.7818608E-02  0.9752267E-01
         21   -1    0    0  501  502  0.00000000000E+00  0.00000000000E+00  0.26285210316E+04  0.26285210316E+04  0.00000000000E+00 0.  1.
          4   -1    0    0  502    0 -0.00000000000E+00 -0.00000000000E+00 -0.17593696758E+03  0.17593696758E+03  0.00000000000E+00 0.  1.
    9000010    2    1    2  501    0 -0.14806399497E+03 -0.13826137530E+03  0.23812359409E+04  0.25896796941E+04  0.99755559103E+03 0.  0.
        -13    1    3    3    0    0  0.31453399843E+03 -0.10409960210E+03  0.18710143745E+04  0.19001218814E+04  0.10566000000E+00 0.  1.
          4    1    3    3  501    0 -0.46259799341E+03 -0.34161773206E+02  0.51022156643E+03  0.68955781273E+03  0.00000000000E+00 0.  1.
         13    1    1    2    0    0  0.14806399497E+03  0.13826137530E+03  0.71348123138E+02  0.21477830511E+03  0.10566000000E+00 0. -1.
<mgrwt>
<rscale>  1 0.67988318E+03</rscale>
<asrwt>0</asrwt>
<pdfrwt beam="1">  1       21 0.40438782E+00 0.10179176E+04</pdfrwt>
<pdfrwt beam="2">  1        4 0.27067228E-01 0.10179176E+04</pdfrwt>
<totfact> 0.30354594E+00</totfact>
</mgrwt>
</event>
<event>
 6    1  0.1431486E-005  0.1296001E+04  0.7818608E-02  0.9148269E-01
          4   -1    0    0  502    0 -0.00000000000E+00  0.00000000000E+00  0.13921952196E+04  0.13921952196E+04  0.00000000000E+00 0.  1.
         21   -1    0    0  501  502  0.00000000000E+00 -0.00000000000E+00 -0.81790078601E+03  0.81790078601E+03  0.00000000000E+00 0. -1.
    9000010    2    1    2  501    0  0.78450617782E+02  0.82915310272E+03  0.42542027507E+03  0.13640387419E+04  0.99296017635E+03 0.  0.
        -13    1    3    3    0    0  0.15429750719E+03  0.86575139441E+03  0.66988381776E+03  0.11054761590E+04  0.10566000000E+00 0.  1.
          4    1    3    3  501    0 -0.75846889405E+02 -0.36598291689E+02 -0.24446354268E+03  0.25856258292E+03  0.00000000000E+00 0.  1.
         13    1    1    2    0    0 -0.78450617782E+02 -0.82915310272E+03  0.14887415849E+03  0.84605726367E+03  0.10566000000E+00 0. -1.
<mgrwt>
<rscale>  1 0.11603704E+04</rscale>
<asrwt>0</asrwt>
<pdfrwt beam="2">  1       21 0.12583089E+00 0.12960013E+04</pdfrwt>
<pdfrwt beam="1">  1        4 0.21418388E+00 0.12960013E+04</pdfrwt>
<totfact> 0.17301736E+00</totfact>
</mgrwt>
</event>
<event>
 6    1  0.1431486E-005  0.1432540E+04  0.7818608E-02  0.9016384E-01
         21   -1    0    0  501  502  0.00000000000E+00  0.00000000000E+00  0.10247207491E+04  0.10247207491E+04  0.00000000000E+00 0. -1.
          4   -1    0    0  502    0 -0.00000000000E+00 -0.00000000000E+00 -0.15436629162E+04  0.15436629162E+04  0.00000000000E+00 0.  1.
    9000010    2    1    2  501    0  0.75865574230E+02 -0.10197621126E+04 -0.25004944282E+02  0.14327585763E+04  0.10032455029E+04 0.  0.
        -13    1    3    3    0    0 -0.43962627610E+03 -0.66800354320E+03 -0.92625000985E+02  0.80503378708E+03  0.10566000000E+00 0.  1.
          4    1    3    3  501    0  0.51549185033E+03 -0.35175856936E+03  0.67620056702E+02  0.62772478918E+03  0.00000000000E+00 0.  1.
         13    1    1    2    0    0 -0.75865574230E+02  0.10197621126E+04 -0.49393722276E+03  0.11356250890E+04  0.10566000000E+00 0. -1.
<mgrwt>
<rscale>  1 0.13167536E+04</rscale>
<asrwt>0</asrwt>
<pdfrwt beam="1">  1       21 0.15764935E+00 0.14325404E+04</pdfrwt>
<pdfrwt beam="2">  1        4 0.23748660E+00 0.14325404E+04</pdfrwt>
<totfact> 0.64926934E-01</totfact>
</mgrwt>
</event>
<event>
 6    1  0.1431486E-005  0.1241702E+04  0.7818608E-02  0.9217167E-01
         21   -1    0    0  501  502  0.00000000000E+00  0.00000000000E+00  0.11792403850E+04  0.11792403850E+04  0.00000000000E+00 0. -1.
          4   -1    0    0  502    0 -0.00000000000E+00 -0.00000000000E+00 -0.12107192299E+04  0.12107192299E+04  0.00000000000E+00 0.  1.
    9000010    2    1    2  501    0  0.67031128066E+03 -0.29256397364E+03 -0.67716475320E+03  0.14143463745E+04  0.10034503836E+04 0.  0.
        -13    1    3    3    0    0  0.39031263560E+03  0.21535780586E+03 -0.70452694969E+03  0.83371528237E+03  0.10566000000E+00 0.  1.
          4    1    3    3  501    0  0.27999864506E+03 -0.50792177950E+03  0.27362196493E+02  0.58063109211E+03  0.00000000000E+00 0.  1.
         13    1    1    2    0    0 -0.67031128066E+03  0.29256397364E+03  0.64568590826E+03  0.97561324045E+03  0.10566000000E+00 0. -1.
<mgrwt>
<rscale>  1 0.10877980E+04</rscale>
<asrwt>0</asrwt>
<pdfrwt beam="1">  1       21 0.18142160E+00 0.12417019E+04</pdfrwt>
<pdfrwt beam="2">  1        4 0.18626450E+00 0.12417019E+04</pdfrwt>
<totfact> 0.95147398E-01</totfact>
</mgrwt>
</event>
<event>
 6    1  0.1431486E-005  0.1002215E+04  0.7818608E-02  0.9899883E-01
          4   -1    0    0  502    0 -0.00000000000E+00  0.00000000000E+00  0.30298809840E+03  0.30298809840E+03  0.00000000000E+00 0.  1.
         21   -1    0    0  501  502  0.00000000000E+00 -0.00000000000E+00 -0.14206974786E+04  0.14206974786E+04  0.00000000000E+00 0.  1.
    9000010    2    1    2  501    0  0.35171662200E+02 -0.12624106777E+03 -0.12041796865E+04  0.15666792776E+04  0.99361028005E+03 0.  0.
        -13    1    3    3    0    0  0.19761744849E+03 -0.29919492600E+03 -0.20176528060E+02  0.35913418543E+03  0.10566000000E+00 0.  1.
          4    1    3    3  501    0 -0.16244578629E+03  0.17295385823E+03 -0.11840031584E+04  0.12075450922E+04  0.00000000000E+00 0.  1.
         13    1    1    2    0    0 -0.35171662200E+02  0.12624106777E+03  0.86470306269E+02  0.15700629938E+03  0.10566000000E+00 0. -1.
<mgrwt>
<rscale>  1 0.60266953E+03</rscale>
<asrwt>0</asrwt>
<pdfrwt beam="2">  1       21 0.21856884E+00 0.10022152E+04</pdfrwt>
<pdfrwt beam="1">  1        4 0.46613555E-01 0.10022152E+04</pdfrwt>
<totfact> 0.15477256E+01</totfact>
</mgrwt>
</event>
<event>
 6    1  0.1431486E-005  0.9239449E+03  0.7818608E-02  0.9827838E-01
         21   -1    0    0  501  502  0.00000000000E+00  0.00000000000E+00  0.10856027364E+04  0.10856027364E+04  0.00000000000E+00 0.  1.
          4   -1    0    0  502    0 -0.00000000000E+00 -0.00000000000E+00 -0.30540376210E+03  0.30540376210E+03  0.00000000000E+00 0.  1.
    9000010    2    1    2  501    0  0.17502137813E+03  0.11828807611E+03  0.53617764439E+03  0.10682512160E+04  0.89947186862E+03 0.  0.
        -13    1    3    3    0    0 -0.77975167528E+02  0.47129776682E+03  0.19504734284E+03  0.51598952399E+03  0.10566000000E+00 0.  1.
          4    1    3    3  501    0  0.25299654566E+03 -0.35300969070E+03  0.34113030156E+03  0.55226169203E+03  0.00000000000E+00 0.  1.
         13    1    1    2    0    0 -0.17502137813E+03 -0.11828807611E+03  0.24402132990E+03  0.32275528247E+03  0.10566000000E+00 0. -1.
<mgrwt>
<rscale>  1 0.63889775E+03</rscale>
<asrwt>0</asrwt>
<pdfrwt beam="1">  1       21 0.16701580E+00 0.92394491E+03</pdfrwt>
<pdfrwt beam="2">  1        4 0.46985195E-01 0.92394491E+03</pdfrwt>
<totfact> 0.35373714E+01</totfact>
</mgrwt>
</event>
<event>
 6    1  0.1431486E-005  0.1015143E+04  0.7818608E-02  0.9753579E-01
          4   -1    0    0  502    0 -0.00000000000E+00  0.00000000000E+00  0.10064321057E+04  0.10064321057E+04  0.00000000000E+00 0.  1.
         21   -1    0    0  501  502  0.00000000000E+00 -0.00000000000E+00 -0.36903569465E+03  0.36903569465E+03  0.00000000000E+00 0.  1.
    9000010    2    1    2  501    0 -0.73744668851E+02  0.18951779439E+03  0.51835057211E+03  0.11398257126E+04  0.99456526636E+03 0.  0.
        -13    1    3    3    0    0 -0.51396397978E+02 -0.39958882292E+03  0.33047592171E+03  0.52108268358E+03  0.10566000000E+00 0.  1.
          4    1    3    3  501    0 -0.22348270873E+02  0.58910661731E+03  0.18787465039E+03  0.61874302907E+03  0.00000000000E+00 0.  1.
         13    1    1    2    0    0  0.73744668851E+02 -0.18951779439E+03  0.11904583899E+03  0.23564208775E+03  0.10566000000E+00 0. -1.
<mgrwt>
<rscale>  1 0.67914389E+03</rscale>
<asrwt>0</asrwt>
<pdfrwt beam="2">  1       21 0.56774723E-01 0.10151430E+04</pdfrwt>
<pdfrwt beam="1">  1        4 0.15483571E+00 0.10151430E+04</pdfrwt>
<totfact> 0.31184715E+01</totfact>
</mgrwt>
</event>
<event>
 6    1  0.1431486E-005  0.9907827E+03  0.7818608E-02  0.9966683E-01
          4   -1    0    0  502    0 -0.00000000000E+00  0.00000000000E+00  0.13683416835E+04  0.13683416835E+04  0.00000000000E+00 0.  1.
         21   -1    0    0  501  502  0.00000000000E+00 -0.00000000000E+00 -0.25756442503E+03  0.25756442503E+03  0.00000000000E+00 0.  1.
    9000010    2    1    2  501    0 -0.90462994306E+02 -0.61822176997E+02  0.73270636761E+03  0.12322779279E+04  0.98470540546E+03 0.  0.
        -13    1    3    3    0    0 -0.28770828531E+03  0.35892984081E+03  0.58598656311E+03  0.74497446357E+03  0.10566000000E+00 0.  1.
          4    1    3    3  501    0  0.19724529101E+03 -0.42075201781E+03  0.14671980450E+03  0.48730346433E+03  0.00000000000E+00 0.  1.
         13    1    1    2    0    0  0.90462994306E+02  0.61822176997E+02  0.37807089089E+03  0.39362818066E+03  0.10566000000E+00 0. -1.
<mgrwt>
<rscale>  1 0.57135566E+03</rscale>
<asrwt>0</asrwt>
<pdfrwt beam="2">  1       21 0.39625297E-01 0.99078266E+03</pdfrwt>
<pdfrwt beam="1">  1        4 0.21051410E+00 0.99078266E+03</pdfrwt>
<totfact> 0.27698005E+01</totfact>
</mgrwt>
</event>
<event>
 6    1  0.1431486E-005  0.1031827E+04  0.7818608E-02  0.9605505E-01
         21   -1    0    0  501  502  0.00000000000E+00  0.00000000000E+00  0.55931025618E+03  0.55931025618E+03  0.00000000000E+00 0.  1.
          4   -1    0    0  502    0 -0.00000000000E+00 -0.00000000000E+00 -0.84415136346E+03  0.84415136346E+03  0.00000000000E+00 0.  1.
    9000010    2    1    2  501    0 -0.11902112349E+03  0.29583465034E+03 -0.10446629625E+03  0.10371021626E+04  0.98131723736E+03 0.  0.
        -13    1    3    3    0    0 -0.36448728062E+03 -0.24020401332E+03 -0.98543091085E+02  0.44750385218E+03  0.10566000000E+00 0.  1.
          4    1    3    3  501    0  0.24546615713E+03  0.53603866366E+03 -0.59232051665E+01  0.58959831038E+03  0.00000000000E+00 0.  1.
         13    1    1    2    0    0  0.11902112349E+03 -0.29583465034E+03 -0.18037481103E+03  0.36635945709E+03  0.10566000000E+00 0. -1.
<mgrwt>
<rscale>  1 0.76932873E+03</rscale>
<asrwt>0</asrwt>
<pdfrwt beam="1">  1       21 0.86047732E-01 0.10318274E+04</pdfrwt>
<pdfrwt beam="2">  1        4 0.12986944E+00 0.10318274E+04</pdfrwt>
<totfact> 0.19074224E+01</totfact>
</mgrwt>
</event>
<event>
 6    1  0.1431486E-005  0.1067627E+04  0.7818608E-02  0.9518616E-01
         21   -1    0    0  501  502  0.00000000000E+00  0.00000000000E+00  0.84675783888E+03  0.84675783888E+03  0.00000000000E+00 0.  1.
          4   -1    0    0  502    0 -0.00000000000E+00 -0.00000000000E+00 -0.92865163863E+03  0.92865163863E+03  0.00000000000E+00 0.  1.
    9000010    2    1    2  501    0  0.75285146301E+02  0.38122205362E+03  0.41427487326E+03  0.11451861277E+04  0.99439905924E+03 0.  0.
        -13    1    3    3    0    0  0.43763163954E+03 -0.78155894815E+02  0.30778031062E+02  0.44561989877E+03  0.10566000000E+00 0.  1.
          4    1    3    3  501    0 -0.36234649324E+03  0.45937794844E+03  0.38349684220E+03  0.69956622892E+03  0.00000000000E+00 0.  1.
         13    1    1    2    0    0 -0.75285146301E+02 -0.38122205362E+03 -0.49616867301E+03  0.63022334982E+03  0.10566000000E+00 0. -1.
<mgrwt>
<rscale>  1 0.82925124E+03</rscale>
<asrwt>0</asrwt>
<pdfrwt beam="1">  1       21 0.13027044E+00 0.10676271E+04</pdfrwt>
<pdfrwt beam="2">  1        4 0.14286948E+00 0.10676271E+04</pdfrwt>
<totfact> 0.52129690E+00</totfact>
</mgrwt>
</event>
<event>
 6    1  0.1431486E-005  0.9348221E+03  0.7818608E-02  0.1001045E+00
         21   -1    0    0  501  502  0.00000000000E+00  0.00000000000E+00  0.95750182519E+03  0.95750182519E+03  0.00000000000E+00 0.  1.
          4   -1    0    0  502    0 -0.00000000000E+00 -0.00000000000E+00 -0.28704912357E+03  0.28704912357E+03  0.00000000000E+00 0.  1.
    9000010    2    1    2  501    0 -0.10378720032E+03 -0.46197233664E+02  0.59251135932E+03  0.11067800108E+04  0.92789348203E+03 0.  0.
        -13    1    3    3    0    0 -0.31784216810E+03 -0.37101719930E+03  0.51549677316E+03  0.71022133191E+03  0.10566000000E+00 0.  1.
          4    1    3    3  501    0  0.21405496778E+03  0.32481996564E+03  0.77014586169E+02  0.39655867887E+03  0.00000000000E+00 0.  1.
         13    1    1    2    0    0  0.10378720032E+03  0.46197233664E+02  0.77941342296E+02  0.13777093798E+03  0.10566000000E+00 0. -1.
<mgrwt>
<rscale>  1 0.55194479E+03</rscale>
<asrwt>0</asrwt>
<pdfrwt beam="1">  1       21 0.14730797E+00 0.93482206E+03</pdfrwt>
<pdfrwt beam="2">  1        4 0.44161404E-01 0.93482206E+03</pdfrwt>
<totfact> 0.57338347E+01</totfact>
</mgrwt>
</event>
<event>
 6    1  0.1431486E-005  0.9942732E+03  0.7818608E-02  0.1011928E+00
         21   -1    0    0  501  502  0.00000000000E+00  0.00000000000E+00  0.29050489711E+04  0.29050489711E+04  0.00000000000E+00 0.  1.
          4   -1    0    0  502    0 -0.00000000000E+00 -0.00000000000E+00 -0.10890959637E+03  0.10890959637E+03  0.00000000000E+00 0.  1.
    9000010    2    1    2  501    0  0.66583086040E+02 -0.98356137023E+01  0.27677301495E+04  0.29409028224E+04  0.99199253201E+03 0.  0.
        -13    1    3    3    0    0  0.19915211979E+03 -0.93320711853E+02  0.59085266134E+02  0.22773098585E+03  0.10566000000E+00 0.  1.
          4    1    3    3  501    0 -0.13256903375E+03  0.83485098150E+02  0.27086448834E+04  0.27131718366E+04  0.00000000000E+00 0.  1.
         13    1    1    2    0    0 -0.66583086040E+02  0.98356137023E+01  0.28409225157E+02  0.73055745028E+02  0.10566000000E+00 0. -1.
<mgrwt>
<rscale>  1 0.50715682E+03</rscale>
<asrwt>0</asrwt>
<pdfrwt beam="1">  1       21 0.44693055E+00 0.99427322E+03</pdfrwt>
<pdfrwt beam="2">  1        4 0.16755325E-01 0.99427322E+03</pdfrwt>
<totfact> 0.38888222E+00</totfact>
</mgrwt>
</event>
<event>
 6    1  0.1431486E-005  0.1023402E+04  0.7818608E-02  0.9695089E-01
         21   -1    0    0  501  502  0.00000000000E+00  0.00000000000E+00  0.90609147958E+03  0.90609147958E+03  0.00000000000E+00 0.  1.
          4   -1    0    0  502    0 -0.00000000000E+00 -0.00000000000E+00 -0.46824734418E+03  0.46824734418E+03  0.00000000000E+00 0.  1.
    9000010    2    1    2  501    0 -0.75544673692E+02 -0.22911317164E+03  0.21462654287E+03  0.10456658131E+04  0.99456150976E+03 0.  0.
        -13    1    3    3    0    0 -0.37649601289E+01 -0.49299716311E+02  0.60653227012E+03  0.60854419955E+03  0.10566000000E+00 0.  1.
          4    1    3    3  501    0 -0.71779713563E+02 -0.17981345533E+03 -0.39190572725E+03  0.43712161357E+03  0.00000000000E+00 0.  1.
         13    1    1    2    0    0  0.75544673692E+02  0.22911317164E+03  0.22321759253E+03  0.32867301064E+03  0.10566000000E+00 0. -1.
<mgrwt>
<rscale>  1 0.71309946E+03</rscale>
<asrwt>0</asrwt>
<pdfrwt beam="1">  1       21 0.13939869E+00 0.10234024E+04</pdfrwt>
<pdfrwt beam="2">  1        4 0.72038053E-01 0.10234024E+04</pdfrwt>
<totfact> 0.23027165E+01</totfact>
</mgrwt>
</event>
<event>
 6    1  0.1431486E-005  0.9944773E+03  0.7818608E-02  0.1044066E+00
          4   -1    0    0  502    0 -0.00000000000E+00  0.00000000000E+00  0.34741112647E+03  0.34741112647E+03  0.00000000000E+00 0.  1.
         21   -1    0    0  501  502  0.00000000000E+00 -0.00000000000E+00 -0.75394374041E+03  0.75394374041E+03  0.00000000000E+00 0.  1.
    9000010    2    1    2  501    0 -0.25772818553E+02  0.14605565272E+01 -0.38075936096E+03  0.10648768854E+04  0.99414220242E+03 0.  0.
        -13    1    3    3    0    0 -0.26314412794E+03  0.42485520538E+03 -0.26587831533E+03  0.56607249300E+03  0.10566000000E+00 0.  1.
          4    1    3    3  501    0  0.23737130938E+03 -0.42339464885E+03 -0.11488104563E+03  0.49880439236E+03  0.00000000000E+00 0.  1.
         13    1    1    2    0    0  0.25772818553E+02 -0.14605565272E+01 -0.25773252989E+02  0.36477981513E+02  0.10566000000E+00 0. -1.
<mgrwt>
<rscale>  1 0.39917346E+03</rscale>
<asrwt>0</asrwt>
<pdfrwt beam="2">  1       21 0.11599134E+00 0.99447729E+03</pdfrwt>
<pdfrwt beam="1">  1        4 0.53447867E-01 0.99447729E+03</pdfrwt>
<totfact> 0.72177443E+01</totfact>
</mgrwt>
</event>
<event>
 6    1  0.1431486E-005  0.1191831E+04  0.7818608E-02  0.9277669E-01
          4   -1    0    0  502    0 -0.00000000000E+00  0.00000000000E+00  0.60690569660E+03  0.60690569660E+03  0.00000000000E+00 0.  1.
         21   -1    0    0  501  502  0.00000000000E+00 -0.00000000000E+00 -0.14453048155E+04  0.14453048155E+04  0.00000000000E+00 0. -1.
    9000010    2    1    2  501    0  0.54762587367E+03  0.37077723447E+03 -0.39334002733E+03  0.12550609268E+04  0.99150980723E+03 0.  0.
        -13    1    3    3    0    0  0.44443750192E+03 -0.27810458889E+03 -0.25762569987E+03  0.58415568805E+03  0.10566000000E+00 0.  1.
          4    1    3    3  501    0  0.10318837174E+03  0.64888182336E+03 -0.13571432745E+03  0.67090523878E+03  0.00000000000E+00 0.  1.
         13    1    1    2    0    0 -0.54762587367E+03 -0.37077723447E+03 -0.44505909154E+03  0.79714958523E+03  0.10566000000E+00 0. -1.
<mgrwt>
<rscale>  1 0.10286490E+04</rscale>
<asrwt>0</asrwt>
<pdfrwt beam="2">  1       21 0.22235459E+00 0.11918312E+04</pdfrwt>
<pdfrwt beam="1">  1        4 0.93370107E-01 0.11918312E+04</pdfrwt>
<totfact> 0.30406952E+00</totfact>
</mgrwt>
</event>
<event>
 6    1  0.1431486E-005  0.1023076E+04  0.7818608E-02  0.9676324E-01
          4   -1    0    0  502    0 -0.00000000000E+00  0.00000000000E+00  0.20840159695E+03  0.20840159695E+03  0.00000000000E+00 0.  1.
         21   -1    0    0  501  502  0.00000000000E+00 -0.00000000000E+00 -0.20752809807E+04  0.20752809807E+04  0.00000000000E+00 0.  1.
    9000010    2    1    2  501    0  0.23726557967E+03 -0.99308628856E+02 -0.16752163492E+04  0.19629149218E+04  0.99021614534E+03 0.  0.
        -13    1    3    3    0    0  0.16638840835E+03 -0.35585258731E+03 -0.16493734108E+04  0.16955084270E+04  0.10566000000E+00 0.  1.
          4    1    3    3  501    0  0.70877171324E+02  0.25654395846E+03 -0.25842938410E+02  0.26740649487E+03  0.00000000000E+00 0.  1.
         13    1    1    2    0    0 -0.23726557967E+03  0.99308628856E+02 -0.19166303451E+03  0.32076765582E+03  0.10566000000E+00 0. -1.
<mgrwt>
<rscale>  1 0.72444120E+03</rscale>
<asrwt>0</asrwt>
<pdfrwt beam="2">  1       21 0.31927401E+00 0.10230763E+04</pdfrwt>
<pdfrwt beam="1">  1        4 0.32061783E-01 0.10230763E+04</pdfrwt>
<totfact> 0.76107672E+00</totfact>
</mgrwt>
</event>
<event>
 6    1  0.1431486E-005  0.1056401E+04  0.7818608E-02  0.9548409E-01
         21   -1    0    0  501  502  0.00000000000E+00  0.00000000000E+00  0.53630829968E+03  0.53630829968E+03  0.00000000000E+00 0. -1.
          4   -1    0    0  502    0 -0.00000000000E+00 -0.00000000000E+00 -0.11463563395E+04  0.11463563395E+04  0.00000000000E+00 0.  1.
    9000010    2    1    2  501    0  0.10138058655E+03  0.34716763178E+03 -0.10518462405E+03  0.10616248114E+04  0.99256236441E+03 0.  0.
        -13    1    3    3    0    0  0.10419286742E+03 -0.74462293165E+02 -0.48041904371E+03  0.49719538961E+03  0.10566000000E+00 0.  1.
          4    1    3    3  501    0 -0.28122808673E+01  0.42162992495E+03  0.37523441966E+03  0.56442942183E+03  0.00000000000E+00 0.  1.
         13    1    1    2    0    0 -0.10138058655E+03 -0.34716763178E+03 -0.50486341576E+03  0.62103982772E+03  0.10566000000E+00 0. -1.
<mgrwt>
<rscale>  1 0.80807009E+03</rscale>
<asrwt>0</asrwt>
<pdfrwt beam="1">  1       21 0.82508970E-01 0.10564012E+04</pdfrwt>
<pdfrwt beam="2">  1        4 0.17636251E+00 0.10564012E+04</pdfrwt>
<totfact> 0.91900594E+00</totfact>
</mgrwt>
</event>
<event>
 6    1  0.1431486E-005  0.1012934E+04  0.7818608E-02  0.9795181E-01
          4   -1    0    0  502    0 -0.00000000000E+00  0.00000000000E+00  0.93055313872E+03  0.93055313872E+03  0.00000000000E+00 0.  1.
         21   -1    0    0  501  502  0.00000000000E+00 -0.00000000000E+00 -0.52656132128E+03  0.52656132128E+03  0.00000000000E+00 0.  1.
    9000010    2    1    2  501    0 -0.17839320716E+03 -0.32211169397E+01 -0.27743743962E+01  0.10129374030E+04  0.99709576939E+03 0.  0.
        -13    1    3    3    0    0 -0.18808742747E+02  0.44192446938E+03 -0.21828990924E+03  0.49325601981E+03  0.10566000000E+00 0.  1.
          4    1    3    3  501    0 -0.15958446441E+03 -0.44514558632E+03  0.21551553484E+03  0.51968138321E+03  0.00000000000E+00 0.  1.
         13    1    1    2    0    0  0.17839320716E+03  0.32211169397E+01  0.40676619184E+03  0.44417705698E+03  0.10566000000E+00 0. -1.
<mgrwt>
<rscale>  1 0.65621783E+03</rscale>
<asrwt>0</asrwt>
<pdfrwt beam="2">  1       21 0.81009434E-01 0.10129336E+04</pdfrwt>
<pdfrwt beam="1">  1        4 0.14316202E+00 0.10129336E+04</pdfrwt>
<totfact> 0.17107450E+01</totfact>
</mgrwt>
</event>
<event>
 6    1  0.1431486E-005  0.1134820E+04  0.7818608E-02  0.9366369E-01
          4   -1    0    0  502    0 -0.00000000000E+00  0.00000000000E+00  0.11671757019E+04  0.11671757019E+04  0.00000000000E+00 0.  1.
         21   -1    0    0  501  502  0.00000000000E+00 -0.00000000000E+00 -0.61294837118E+03  0.61294837118E+03  0.00000000000E+00 0.  1.
    9000010    2    1    2  501    0 -0.44997845435E+03 -0.32468979483E+03  0.41200754647E+03  0.12072972664E+04  0.98990524745E+03 0.  0.
        -13    1    3    3    0    0  0.31851895873E+03 -0.10566502746E+03  0.11346052504E+03  0.35424952647E+03  0.10566000000E+00 0.  1.
          4    1    3    3  501    0 -0.76849741308E+03 -0.21902476737E+03  0.29854702143E+03  0.85304773995E+03  0.00000000000E+00 0.  1.
         13    1    1    2    0    0  0.44997845435E+03  0.32468979483E+03  0.14221978429E+03  0.57282680668E+03  0.10566000000E+00 0. -1.
<mgrwt>
<rscale>  1 0.94895851E+03</rscale>
<asrwt>0</asrwt>
<pdfrwt beam="2">  1       21 0.94299750E-01 0.11348200E+04</pdfrwt>
<pdfrwt beam="1">  1        4 0.17956549E+00 0.11348200E+04</pdfrwt>
<totfact> 0.62708205E+00</totfact>
</mgrwt>
</event>
<event>
 6    1  0.1431486E-005  0.1022526E+04  0.7818608E-02  0.9773888E-01
         21   -1    0    0  501  502  0.00000000000E+00  0.00000000000E+00  0.20351082840E+04  0.20351082840E+04  0.00000000000E+00 0.  1.
          4   -1    0    0  502    0 -0.00000000000E+00 -0.00000000000E+00 -0.26679449204E+03  0.26679449204E+03  0.00000000000E+00 0.  1.
    9000010    2    1    2  501    0 -0.91330626034E+02  0.16209427926E+03  0.18379537489E+04  0.21032433353E+04  0.10054564664E+04 0.  0.
        -13    1    3    3    0    0 -0.34731053028E+03 -0.97384890775E+02  0.16579344641E+04  0.16967189277E+04  0.10566000000E+00 0.  1.
          4    1    3    3  501    0  0.25597990425E+03  0.25947917003E+03  0.18001928488E+03  0.40652440762E+03  0.00000000000E+00 0.  1.
         13    1    1    2    0    0  0.91330626034E+02 -0.16209427926E+03 -0.69639956960E+02  0.19865944073E+03  0.10566000000E+00 0. -1.
<mgrwt>
<rscale>  1 0.66782859E+03</rscale>
<asrwt>0</asrwt>
<pdfrwt beam="1">  1       21 0.31309357E+00 0.10225256E+04</pdfrwt>
<pdfrwt beam="2">  1        4 0.41045308E-01 0.10225256E+04</pdfrwt>
<totfact> 0.50617562E+00</totfact>
</mgrwt>
</event>
<event>
 6    1  0.1431486E-005  0.1103455E+04  0.7818608E-02  0.9447163E-01
         21   -1    0    0  501  502  0.00000000000E+00  0.00000000000E+00  0.90849793445E+03  0.90849793445E+03  0.00000000000E+00 0.  1.
          4   -1    0    0  502    0 -0.00000000000E+00 -0.00000000000E+00 -0.68600915000E+03  0.68600915000E+03  0.00000000000E+00 0.  1.
    9000010    2    1    2  501    0 -0.37160321893E+03  0.25791019974E+03  0.28028236661E+03  0.11384953162E+04  0.10064823678E+04 0.  0.
        -13    1    3    3    0    0  0.14708338769E+03 -0.26914993325E+03 -0.78459097138E+02  0.31659287830E+03  0.10566000000E+00 0.  1.
          4    1    3    3  501    0 -0.51868660662E+03  0.52706013298E+03  0.35874146375E+03  0.82190243793E+03  0.00000000000E+00 0.  1.
         13    1    1    2    0    0  0.37160321893E+03 -0.25791019974E+03 -0.57793582160E+02  0.45601176821E+03  0.10566000000E+00 0. -1.
<mgrwt>
<rscale>  1 0.88293960E+03</rscale>
<asrwt>0</asrwt>
<pdfrwt beam="1">  1       21 0.13976891E+00 0.11034552E+04</pdfrwt>
<pdfrwt beam="2">  1        4 0.10553987E+00 0.11034552E+04</pdfrwt>
<totfact> 0.92633411E+00</totfact>
</mgrwt>
</event>
<event>
 6    1  0.1431486E-005  0.1038484E+04  0.7818608E-02  0.9684570E-01
         21   -1    0    0  501  502  0.00000000000E+00  0.00000000000E+00  0.60355480083E+03  0.60355480083E+03  0.00000000000E+00 0.  1.
          4   -1    0    0  502    0 -0.00000000000E+00 -0.00000000000E+00 -0.72202466368E+03  0.72202466368E+03  0.00000000000E+00 0.  1.
    9000010    2    1    2  501    0 -0.18802843539E+03 -0.14785233315E+03  0.38977593093E+02  0.10392148063E+04  0.10105608126E+04 0.  0.
        -13    1    3    3    0    0 -0.58462895098E+03 -0.10398348309E+03 -0.12669305259E+03  0.60716942925E+03  0.10566000000E+00 0.  1.
          4    1    3    3  501    0  0.39660051559E+03 -0.43868850061E+02  0.16567064568E+03  0.43204537703E+03  0.00000000000E+00 0.  1.
         13    1    1    2    0    0  0.18802843539E+03  0.14785233315E+03 -0.15744745595E+03  0.28636465823E+03  0.10566000000E+00 0. -1.
<mgrwt>
<rscale>  1 0.71942990E+03</rscale>
<asrwt>0</asrwt>
<pdfrwt beam="1">  1       21 0.92854585E-01 0.10384836E+04</pdfrwt>
<pdfrwt beam="2">  1        4 0.11108072E+00 0.10384836E+04</pdfrwt>
<totfact> 0.23510483E+01</totfact>
</mgrwt>
</event>
<event>
 6    1  0.1431486E-005  0.1011696E+04  0.7818608E-02  0.9685116E-01
         21   -1    0    0  501  502  0.00000000000E+00  0.00000000000E+00  0.22762884716E+03  0.22762884716E+03  0.00000000000E+00 0.  1.
          4   -1    0    0  502    0 -0.00000000000E+00 -0.00000000000E+00 -0.17712101180E+04  0.17712101180E+04  0.00000000000E+00 0.  1.
    9000010    2    1    2  501    0  0.20322295986E+03 -0.15932022460E+03 -0.12309983933E+04  0.15933878930E+04  0.97818476170E+03 0.  0.
        -13    1    3    3    0    0  0.16319743550E+03 -0.91424172197E+02  0.13147124377E+03  0.22864050673E+03  0.10566000000E+00 0.  1.
          4    1    3    3  501    0  0.40025524364E+02 -0.67896052405E+02 -0.13624696371E+04  0.13647473863E+04  0.00000000000E+00 0.  1.
         13    1    1    2    0    0 -0.20322295986E+03  0.15932022460E+03 -0.31258287755E+03  0.40545107212E+03  0.10566000000E+00 0. -1.
<mgrwt>
<rscale>  1 0.71909942E+03</rscale>
<asrwt>0</asrwt>
<pdfrwt beam="1">  1       21 0.35019821E-01 0.10116956E+04</pdfrwt>
<pdfrwt beam="2">  1        4 0.27249388E+00 0.10116956E+04</pdfrwt>
<totfact> 0.14619005E+01</totfact>
</mgrwt>
</event>
<event>
 6    1  0.1431486E-005  0.9460004E+03  0.7818608E-02  0.9808644E-01
         21   -1    0    0  501  502  0.00000000000E+00  0.00000000000E+00  0.20920931151E+04  0.20920931151E+04  0.00000000000E+00 0.  1.
          4   -1    0    0  502    0 -0.00000000000E+00 -0.00000000000E+00 -0.17250524742E+03  0.17250524742E+03  0.00000000000E+00 0.  1.
    9000010    2    1    2  501    0 -0.18032072131E+03 -0.10678461448E+03  0.12805992384E+04  0.15921216001E+04  0.92249567144E+03 0.  0.
        -13    1    3    3    0    0 -0.34360131198E+02  0.33563269588E+03  0.98304979460E+03  0.10393348041E+04  0.10566000000E+00 0.  1.
          4    1    3    3  501    0 -0.14596059012E+03 -0.44241731037E+03  0.29754944378E+03  0.55278679603E+03  0.00000000000E+00 0.  1.
         13    1    1    2    0    0  0.18032072131E+03  0.10678461448E+03  0.63898862931E+03  0.67247676240E+03  0.10566000000E+00 0. -1.
<mgrwt>
<rscale>  1 0.64900721E+03</rscale>
<asrwt>0</asrwt>
<pdfrwt beam="1">  1       21 0.32186046E+00 0.94600041E+03</pdfrwt>
<pdfrwt beam="2">  1        4 0.26539270E-01 0.94600041E+03</pdfrwt>
<totfact> 0.10751786E+01</totfact>
</mgrwt>
</event>
<event>
 6    1  0.1431486E-005  0.9895137E+03  0.7818608E-02  0.9780308E-01
          4   -1    0    0  502    0 -0.00000000000E+00  0.00000000000E+00  0.54623845599E+03  0.54623845599E+03  0.00000000000E+00 0.  1.
         21   -1    0    0  501  502  0.00000000000E+00 -0.00000000000E+00 -0.96637167690E+03  0.96637167690E+03  0.00000000000E+00 0. -1.
    9000010    2    1    2  501    0 -0.12743745094E+03 -0.15543592103E+03 -0.66770324494E+03  0.11937189956E+04  0.96888430053E+03 0.  0.
        -13    1    3    3    0    0  0.74262472411E+02  0.23743483250E+03 -0.70783170777E+03  0.75027725021E+03  0.10566000000E+00 0.  1.
          4    1    3    3  501    0 -0.20169992335E+03 -0.39287075353E+03  0.40128462831E+02  0.44344174543E+03  0.00000000000E+00 0.  1.
         13    1    1    2    0    0  0.12743745094E+03  0.15543592103E+03  0.24757002404E+03  0.31889113725E+03  0.10566000000E+00 0. -1.
<mgrwt>
<rscale>  1 0.66430099E+03</rscale>
<asrwt>0</asrwt>
<pdfrwt beam="2">  1       21 0.14867257E+00 0.98951373E+03</pdfrwt>
<pdfrwt beam="1">  1        4 0.84036685E-01 0.98951373E+03</pdfrwt>
<totfact> 0.13613892E+01</totfact>
</mgrwt>
</event>
<event>
 6    1  0.1431486E-005  0.1045752E+04  0.7818608E-02  0.9491627E-01
          4   -1    0    0  502    0 -0.00000000000E+00  0.00000000000E+00  0.91855642489E+03  0.91855642489E+03  0.00000000000E+00 0.  1.
         21   -1    0    0  501  502  0.00000000000E+00 -0.00000000000E+00 -0.71942872883E+03  0.71942872883E+03  0.00000000000E+00 0. -1.
    9000010    2    1    2  501    0  0.42174503222E+03  0.16911026606E+03 -0.16115568845E+03  0.10580961276E+04  0.94187531289E+03 0.  0.
        -13    1    3    3    0    0 -0.12269103918E+03  0.11953288186E+03  0.29829531682E+03  0.34397864489E+03  0.10566000000E+00 0.  1.
          4    1    3    3  501    0  0.54443607139E+03  0.49577384205E+02 -0.45945100528E+03  0.71411748271E+03  0.00000000000E+00 0.  1.
         13    1    1    2    0    0 -0.42174503222E+03 -0.16911026606E+03  0.36028338451E+03  0.57988902611E+03  0.10566000000E+00 0. -1.
<mgrwt>
<rscale>  1 0.84903923E+03</rscale>
<asrwt>0</asrwt>
<pdfrwt beam="2">  1       21 0.11068134E+00 0.10457515E+04</pdfrwt>
<pdfrwt beam="1">  1        4 0.14131637E+00 0.10457515E+04</pdfrwt>
<totfact> 0.82170566E+00</totfact>
</mgrwt>
</event>
<event>
 6    1  0.1431486E-005  0.1038712E+04  0.7818608E-02  0.9698854E-01
         21   -1    0    0  501  502  0.00000000000E+00  0.00000000000E+00  0.33786453094E+03  0.33786453094E+03  0.00000000000E+00 0.  1.
          4   -1    0    0  502    0 -0.00000000000E+00 -0.00000000000E+00 -0.13944094935E+04  0.13944094935E+04  0.00000000000E+00 0.  1.
    9000010    2    1    2  501    0 -0.20157160779E+03 -0.10620465364E+03 -0.54661502415E+03  0.11737589443E+04  0.10134157751E+04 0.  0.
        -13    1    3    3    0    0 -0.56102677187E+03 -0.48702577866E+02 -0.57975032262E+03  0.80822857385E+03  0.10566000000E+00 0.  1.
          4    1    3    3  501    0  0.35945516408E+03 -0.57502075777E+02  0.33135298471E+02  0.36553037043E+03  0.00000000000E+00 0.  1.
         13    1    1    2    0    0  0.20157160779E+03  0.10620465364E+03 -0.50992993840E+03  0.55851508016E+03  0.10566000000E+00 0. -1.
<mgrwt>
<rscale>  1 0.71085044E+03</rscale>
<asrwt>0</asrwt>
<pdfrwt beam="1">  1       21 0.51979160E-01 0.10387117E+04</pdfrwt>
<pdfrwt beam="2">  1        4 0.21452453E+00 0.10387117E+04</pdfrwt>
<totfact> 0.14555113E+01</totfact>
</mgrwt>
</event>
<event>
 6    1  0.1431486E-005  0.9845656E+03  0.7818608E-02  0.1013111E+00
         21   -1    0    0  501  502  0.00000000000E+00  0.00000000000E+00  0.95814803878E+03  0.95814803878E+03  0.00000000000E+00 0.  1.
          4   -1    0    0  502    0 -0.00000000000E+00 -0.00000000000E+00 -0.34300617731E+03  0.34300617731E+03  0.00000000000E+00 0.  1.
    9000010    2    1    2  501    0  0.66840405180E+02 -0.32302989401E+00  0.68887672915E+03  0.12016324296E+04  0.98229405157E+03 0.  0.
        -13    1    3    3    0    0 -0.42948144616E+03 -0.42865404811E+01  0.11852750096E+03  0.44555747853E+03  0.10566000000E+00 0.  1.
          4    1    3    3  501    0  0.49632185134E+03  0.39635105871E+01  0.57034922819E+03  0.75607495106E+03  0.00000000000E+00 0.  1.
         13    1    1    2    0    0 -0.66840405180E+02  0.32302989401E+00 -0.73734867681E+02  0.99521786504E+02  0.10566000000E+00 0. -1.
<mgrwt>
<rscale>  1 0.50256779E+03</rscale>
<asrwt>0</asrwt>
<pdfrwt beam="1">  1       21 0.14740739E+00 0.98456556E+03</pdfrwt>
<pdfrwt beam="2">  1        4 0.52770182E-01 0.98456556E+03</pdfrwt>
<totfact> 0.39193655E+01</totfact>
</mgrwt>
</event>
<event>
 6    1  0.1431486E-005  0.1016731E+04  0.7818608E-02  0.9788948E-01
         21   -1    0    0  501  502  0.00000000000E+00  0.00000000000E+00  0.33616549720E+03  0.33616549720E+03  0.00000000000E+00 0.  1.
          4   -1    0    0  502    0 -0.00000000000E+00 -0.00000000000E+00 -0.10685181578E+04  0.10685181578E+04  0.00000000000E+00 0.  1.
    9000010    2    1    2  501    0  0.12038114878E+03 -0.13393720241E+03 -0.64928404411E+03  0.12063626995E+04  0.10006549844E+04 0.  0.
        -13    1    3    3    0    0  0.14147211830E+02  0.35912129102E+03 -0.60023881647E+03  0.69961052967E+03  0.10566000000E+00 0.  1.
          4    1    3    3  501    0  0.10623393695E+03 -0.49305849343E+03 -0.49045227642E+02  0.50675216986E+03  0.00000000000E+00 0.  1.
         13    1    1    2    0    0 -0.12038114878E+03  0.13393720241E+03 -0.83068616515E+02  0.19832095548E+03  0.10566000000E+00 0. -1.
<mgrwt>
<rscale>  1 0.65959022E+03</rscale>
<asrwt>0</asrwt>
<pdfrwt beam="1">  1       21 0.51717769E-01 0.10167306E+04</pdfrwt>
<pdfrwt beam="2">  1        4 0.16438741E+00 0.10167306E+04</pdfrwt>
<totfact> 0.32437872E+01</totfact>
</mgrwt>
</event>
<event>
 6    1  0.1431486E-005  0.1172004E+04  0.7818608E-02  0.9322079E-01
         21   -1    0    0  501  502  0.00000000000E+00  0.00000000000E+00  0.16808573713E+04  0.16808573713E+04  0.00000000000E+00 0. -1.
          4   -1    0    0  502    0 -0.00000000000E+00 -0.00000000000E+00 -0.54638496637E+03  0.54638496637E+03  0.00000000000E+00 0.  1.
    9000010    2    1    2  501    0 -0.55600648269E+03 -0.20122695193E+03  0.30938225716E+03  0.12121515742E+04  0.10119083767E+04 0.  0.
        -13    1    3    3    0    0  0.19231552131E+02 -0.40543366366E+02  0.56191142830E+03  0.56370034732E+03  0.10566000000E+00 0.  1.
          4    1    3    3  501    0 -0.57523803482E+03 -0.16068358556E+03 -0.25252917114E+03  0.64845122689E+03  0.00000000000E+00 0.  1.
         13    1    1    2    0    0  0.55600648269E+03  0.20122695193E+03  0.82509014781E+03  0.10150907635E+04  0.10566000000E+00 0. -1.
<mgrwt>
<rscale>  1 0.98775423E+03</rscale>
<asrwt>0</asrwt>
<pdfrwt beam="1">  1       21 0.25859344E+00 0.11720043E+04</pdfrwt>
<pdfrwt beam="2">  1        4 0.84059226E-01 0.11720043E+04</pdfrwt>
<totfact> 0.22757424E+00</totfact>
</mgrwt>
</event>
<event>
 6    1  0.1431486E-005  0.1041459E+04  0.7818608E-02  0.9866911E-01
          4   -1    0    0  502    0 -0.00000000000E+00  0.00000000000E+00  0.25493813082E+03  0.25493813082E+03  0.00000000000E+00 0.  1.
         21   -1    0    0  501  502  0.00000000000E+00 -0.00000000000E+00 -0.13600277792E+04  0.13600277792E+04  0.00000000000E+00 0.  1.
    9000010    2    1    2  501    0 -0.18694555503E+02 -0.12854875621E+03 -0.10307724061E+04  0.14653085253E+04  0.10333262080E+04 0.  0.
        -13    1    3    3    0    0 -0.49094381258E+03  0.69560551541E+02 -0.69187814899E+03  0.85121083267E+03  0.10566000000E+00 0.  1.
          4    1    3    3  501    0  0.47224925708E+03 -0.19810930775E+03 -0.33889425707E+03  0.61409769264E+03  0.00000000000E+00 0.  1.
         13    1    1    2    0    0  0.18694555503E+02  0.12854875621E+03 -0.74317242339E+02  0.14965738472E+03  0.10566000000E+00 0. -1.
<mgrwt>
<rscale>  1 0.61892049E+03</rscale>
<asrwt>0</asrwt>
<pdfrwt beam="2">  1       21 0.20923505E+00 0.10414592E+04</pdfrwt>
<pdfrwt beam="1">  1        4 0.39221251E-01 0.10414592E+04</pdfrwt>
<totfact> 0.25378422E+01</totfact>
</mgrwt>
</event>
<event>
 6    1  0.1431486E-005  0.1013625E+04  0.7818608E-02  0.1004992E+00
          4   -1    0    0  502    0 -0.00000000000E+00  0.00000000000E+00  0.15429373643E+03  0.15429373643E+03  0.00000000000E+00 0.  1.
         21   -1    0    0  501  502  0.00000000000E+00 -0.00000000000E+00 -0.19818987661E+04  0.19818987661E+04  0.00000000000E+00 0.  1.
    9000010    2    1    2  501    0 -0.64137118041E+02  0.45694610553E+02 -0.17659554825E+04  0.20361812773E+04  0.10105611612E+04 0.  0.
        -13    1    3    3    0    0 -0.68037158308E+02  0.92886849507E+01 -0.18979555013E+04  0.18991973122E+04  0.10566000000E+00 0.  1.
          4    1    3    3  501    0  0.39000402675E+01  0.36405925602E+02  0.13200001879E+03  0.13698396510E+03  0.00000000000E+00 0.  1.
         13    1    1    2    0    0  0.64137118041E+02 -0.45694610553E+02 -0.61649547177E+02  0.10001122525E+03  0.10566000000E+00 0. -1.
<mgrwt>
<rscale>  1 0.53514409E+03</rscale>
<asrwt>0</asrwt>
<pdfrwt beam="2">  1       21 0.30490751E+00 0.10136249E+04</pdfrwt>
<pdfrwt beam="1">  1        4 0.23737498E-01 0.10136249E+04</pdfrwt>
<totfact> 0.16767709E+01</totfact>
</mgrwt>
</event>
<event>
 6    1  0.1431486E-005  0.1267380E+04  0.7818608E-02  0.9188149E-01
         21   -1    0    0  501  502  0.00000000000E+00  0.00000000000E+00  0.10039225237E+04  0.10039225237E+04  0.00000000000E+00 0.  1.
          4   -1    0    0  502    0 -0.00000000000E+00 -0.00000000000E+00 -0.10594826180E+04  0.10594826180E+04  0.00000000000E+00 0.  1.
    9000010    2    1    2  501    0  0.74937152760E+03  0.16117469201E+03  0.13213910828E+03  0.12742499165E+04  0.10093151827E+04 0.  0.
        -13    1    3    3    0    0  0.36895028446E+03 -0.27791881180E+03  0.42140129188E+03  0.62525373915E+03  0.10566000000E+00 0.  1.
          4    1    3    3  501    0  0.38042124315E+03  0.43909350381E+03 -0.28926218360E+03  0.64899617733E+03  0.00000000000E+00 0.  1.
         13    1    1    2    0    0 -0.74937152760E+03 -0.16117469201E+03 -0.18769920250E+03  0.78915522523E+03  0.10566000000E+00 0. -1.
<mgrwt>
<rscale>  1 0.11176591E+04</rscale>
<asrwt>0</asrwt>
<pdfrwt beam="1">  1       21 0.15444962E+00 0.12673800E+04</pdfrwt>
<pdfrwt beam="2">  1        4 0.16299732E+00 0.12673800E+04</pdfrwt>
<totfact> 0.22296246E+00</totfact>
</mgrwt>
</event>
<event>
 6    1  0.1431486E-005  0.1171311E+04  0.7818608E-02  0.9317919E-01
          4   -1    0    0  502    0 -0.00000000000E+00  0.00000000000E+00  0.50202638867E+03  0.50202638867E+03  0.00000000000E+00 0.  1.
         21   -1    0    0  501  502  0.00000000000E+00 -0.00000000000E+00 -0.16887592134E+04  0.16887592134E+04  0.00000000000E+00 0.  1.
    9000010    2    1    2  501    0 -0.52795145404E+03 -0.28797519603E+03 -0.10522526876E+04  0.15745491460E+04  0.10051402108E+04 0.  0.
        -13    1    3    3    0    0 -0.27665956008E+02 -0.56859961133E+03 -0.35184459415E+03  0.66922757917E+03  0.10566000000E+00 0.  1.
          4    1    3    3  501    0 -0.50028549804E+03  0.28062441530E+03 -0.70040809346E+03  0.90532156684E+03  0.00000000000E+00 0.  1.
         13    1    1    2    0    0  0.52795145404E+03  0.28797519603E+03 -0.13448013715E+03  0.61623645608E+03  0.10566000000E+00 0. -1.
<mgrwt>
<rscale>  1 0.99149853E+03</rscale>
<asrwt>0</asrwt>
<pdfrwt beam="2">  1       21 0.25980911E+00 0.11713109E+04</pdfrwt>
<pdfrwt beam="1">  1        4 0.77234830E-01 0.11713109E+04</pdfrwt>
<totfact> 0.27182011E+00</totfact>
</mgrwt>
</event>
<event>
 6    1  0.1431486E-005  0.1042359E+04  0.7818608E-02  0.9677531E-01
          4   -1    0    0  502    0 -0.00000000000E+00  0.00000000000E+00  0.83029762541E+03  0.83029762541E+03  0.00000000000E+00 0.  1.
         21   -1    0    0  501  502  0.00000000000E+00 -0.00000000000E+00 -0.52797026182E+03  0.52797026182E+03  0.00000000000E+00 0.  1.
    9000010    2    1    2  501    0 -0.52882576241E+02  0.23636809595E+03  0.10838666542E+03  0.10479785880E+04  0.10138269122E+04 0.  0.
        -13    1    3    3    0    0  0.30638693423E+03  0.50617552601E+03  0.88260997742E+02  0.59822790932E+03  0.10566000000E+00 0.  1.
          4    1    3    3  501    0 -0.35926951047E+03 -0.26980743007E+03  0.20125667680E+02  0.44975067868E+03  0.00000000000E+00 0.  1.
         13    1    1    2    0    0  0.52882576241E+02 -0.23636809595E+03  0.19394069817E+03  0.31028929924E+03  0.10566000000E+00 0. -1.
<mgrwt>
<rscale>  1 0.72370504E+03</rscale>
<asrwt>0</asrwt>
<pdfrwt beam="2">  1       21 0.81226194E-01 0.10423586E+04</pdfrwt>
<pdfrwt beam="1">  1        4 0.12773810E+00 0.10423586E+04</pdfrwt>
<totfact> 0.22802188E+01</totfact>
</mgrwt>
</event>
<event>
 6    1  0.1431486E-005  0.1024508E+04  0.7818608E-02  0.9845008E-01
          4   -1    0    0  502    0 -0.00000000000E+00  0.00000000000E+00  0.90569493344E+03  0.90569493344E+03  0.00000000000E+00 0.  1.
         21   -1    0    0  501  502  0.00000000000E+00 -0.00000000000E+00 -0.56722447893E+03  0.56722447893E+03  0.00000000000E+00 0.  1.
    9000010    2    1    2  501    0 -0.53135191289E+02  0.13653736294E+03 -0.81872487928E+02  0.10277744916E+04  0.10139780576E+04 0.  0.
        -13    1    3    3    0    0  0.37602637618E+03  0.20733832825E+03 -0.31661834939E+03  0.53350933289E+03  0.10566000000E+00 0.  1.
          4    1    3    3  501    0 -0.42916156747E+03 -0.70800965315E+02  0.23474586147E+03  0.49426515875E+03  0.00000000000E+00 0.  1.
         13    1    1    2    0    0  0.53135191289E+02 -0.13653736294E+03  0.42034294243E+03  0.44514492072E+03  0.10566000000E+00 0. -1.
<mgrwt>
<rscale>  1 0.63002101E+03</rscale>
<asrwt>0</asrwt>
<pdfrwt beam="2">  1       21 0.87265305E-01 0.10245083E+04</pdfrwt>
<pdfrwt beam="1">  1        4 0.13933768E+00 0.10245083E+04</pdfrwt>
<totfact> 0.15376615E+01</totfact>
</mgrwt>
</event>
<event>
 6    1  0.1431486E-005  0.1451411E+04  0.7818608E-02  0.8984690E-01
          4   -1    0    0  502    0 -0.00000000000E+00  0.00000000000E+00  0.11896907681E+04  0.11896907681E+04  0.00000000000E+00 0.  1.
         21   -1    0    0  501  502  0.00000000000E+00 -0.00000000000E+00 -0.14558992698E+04  0.14558992698E+04  0.00000000000E+00 0. -1.
    9000010    2    1    2  501    0  0.10659715310E+04  0.31931077910E+03  0.14642601018E+03  0.14587783721E+04  0.93184713542E+03 0.  0.
        -13    1    3    3    0    0  0.11392689887E+04  0.77304348048E+02  0.27582518664E+03  0.11747294734E+04  0.10566000000E+00 0.  1.
          4    1    3    3  501    0 -0.73297457702E+02  0.24200643106E+03 -0.12939917646E+03  0.28404889869E+03  0.00000000000E+00 0.  1.
         13    1    1    2    0    0 -0.10659715310E+04 -0.31931077910E+03 -0.41263451180E+03  0.11868116658E+04  0.10566000000E+00 0. -1.
<mgrwt>
<rscale>  1 0.13581386E+04</rscale>
<asrwt>0</asrwt>
<pdfrwt beam="2">  1       21 0.22398450E+00 0.14514110E+04</pdfrwt>
<pdfrwt beam="1">  1        4 0.18302935E+00 0.14514110E+04</pdfrwt>
<totfact> 0.49383949E-01</totfact>
</mgrwt>
</event>
<event>
 6    1  0.1431486E-005  0.9890877E+03  0.7818608E-02  0.1022513E+00
          4   -1    0    0  502    0 -0.00000000000E+00  0.00000000000E+00  0.76624519365E+03  0.76624519365E+03  0.00000000000E+00 0.  1.
         21   -1    0    0  501  502  0.00000000000E+00 -0.00000000000E+00 -0.36190580815E+03  0.36190580815E+03  0.00000000000E+00 0.  1.
    9000010    2    1    2  501    0 -0.22846800502E+02 -0.43953292395E+02  0.33776656238E+03  0.10451701597E+04  0.98784641719E+03 0.  0.
        -13    1    3    3    0    0 -0.10702216760E+03 -0.36562890001E+03  0.53634567473E+03  0.65787911568E+03  0.10566000000E+00 0.  1.
          4    1    3    3  501    0  0.84175367098E+02  0.32167560761E+03 -0.19857911234E+03  0.38729104407E+03  0.00000000000E+00 0.  1.
         13    1    1    2    0    0  0.22846800502E+02  0.43953292395E+02  0.66572823123E+02  0.82980842055E+02  0.10566000000E+00 0. -1.
<mgrwt>
<rscale>  1 0.46790506E+03</rscale>
<asrwt>0</asrwt>
<pdfrwt beam="2">  1       21 0.55677817E-01 0.98908767E+03</pdfrwt>
<pdfrwt beam="1">  1        4 0.11788388E+00 0.98908767E+03</pdfrwt>
<totfact> 0.66341998E+01</totfact>
</mgrwt>
</event>
<event>
 6    1  0.1431486E-005  0.1120210E+04  0.7818608E-02  0.9436135E-01
         21   -1    0    0  501  502  0.00000000000E+00  0.00000000000E+00  0.11654063980E+04  0.11654063980E+04  0.00000000000E+00 0. -1.
          4   -1    0    0  502    0 -0.00000000000E+00 -0.00000000000E+00 -0.52877752848E+03  0.52877752848E+03  0.00000000000E+00 0.  1.
    9000010    2    1    2  501    0  0.24394268072E+03  0.37762814580E+03  0.44079977024E+03  0.12038166200E+04  0.10260404325E+04 0.  0.
        -13    1    3    3    0    0  0.37688426893E+03  0.42079001338E+02  0.67452785746E+03  0.77382183749E+03  0.10566000000E+00 0.  1.
          4    1    3    3  501    0 -0.13294158821E+03  0.33554914446E+03 -0.23372808722E+03  0.42999478250E+03  0.00000000000E+00 0.  1.
         13    1    1    2    0    0 -0.24394268072E+03 -0.37762814580E+03  0.19582909927E+03  0.49036730648E+03  0.10566000000E+00 0. -1.
<mgrwt>
<rscale>  1 0.89160674E+03</rscale>
<asrwt>0</asrwt>
<pdfrwt beam="1">  1       21 0.17929329E+00 0.11202098E+04</pdfrwt>
<pdfrwt beam="2">  1        4 0.81350389E-01 0.11202098E+04</pdfrwt>
<totfact> 0.84155010E+00</totfact>
</mgrwt>
</event>
<event>
 6    1  0.1431486E-005  0.1000440E+04  0.7818608E-02  0.1045201E+00
          4   -1    0    0  502    0 -0.00000000000E+00  0.00000000000E+00  0.29628945955E+03  0.29628945955E+03  0.00000000000E+00 0.  1.
         21   -1    0    0  501  502  0.00000000000E+00 -0.00000000000E+00 -0.14149472148E+04  0.14149472148E+04  0.00000000000E+00 0.  1.
    9000010    2    1    2  501    0 -0.22297724419E+02  0.10245699876E+02 -0.12366867193E+04  0.15906837383E+04  0.10001392656E+04 0.  0.
        -13    1    3    3    0    0 -0.43915930360E+03  0.48630922148E+02 -0.10363143038E+04  0.11265758776E+04  0.10566000000E+00 0.  1.
          4    1    3    3  501    0  0.41686157918E+03 -0.38385222272E+02 -0.20037241557E+03  0.46410786074E+03  0.00000000000E+00 0.  1.
         13    1    1    2    0    0  0.22297724419E+02 -0.10245699876E+02  0.11802896405E+03  0.12055293609E+03  0.10566000000E+00 0. -1.
<mgrwt>
<rscale>  1 0.39592108E+03</rscale>
<asrwt>0</asrwt>
<pdfrwt beam="2">  1       21 0.21768419E+00 0.10004403E+04</pdfrwt>
<pdfrwt beam="1">  1        4 0.45582994E-01 0.10004403E+04</pdfrwt>
<totfact> 0.16439783E+01</totfact>
</mgrwt>
</event>
<event>
 6    1  0.1431486E-005  0.1039517E+04  0.7818608E-02  0.9622732E-01
          4   -1    0    0  502    0 -0.00000000000E+00  0.00000000000E+00  0.66220790668E+03  0.66220790668E+03  0.00000000000E+00 0.  1.
         21   -1    0    0  501  502  0.00000000000E+00 -0.00000000000E+00 -0.68999479455E+03  0.68999479455E+03  0.00000000000E+00 0.  1.
    9000010    2    1    2  501    0 -0.29374266884E+03 -0.13206456328E+02 -0.11409134626E+03  0.10457591719E+04  0.99706381153E+03 0.  0.
        -13    1    3    3    0    0 -0.13223008493E+02 -0.48716302654E+03 -0.80878842412E+02  0.49400815854E+03  0.10566000000E+00 0.  1.
          4    1    3    3  501    0 -0.28051966035E+03  0.47395657022E+03 -0.33212503847E+02  0.55175101333E+03  0.00000000000E+00 0.  1.
         13    1    1    2    0    0  0.29374266884E+03  0.13206456328E+02  0.86304458387E+02  0.30644352937E+03  0.10566000000E+00 0. -1.
<mgrwt>
<rscale>  1 0.75809749E+03</rscale>
<asrwt>0</asrwt>
<pdfrwt beam="2">  1       21 0.10615304E+00 0.10395169E+04</pdfrwt>
<pdfrwt beam="1">  1        4 0.10187814E+00 0.10395169E+04</pdfrwt>
<totfact> 0.20854681E+01</totfact>
</mgrwt>
</event>
<event>
 6    1  0.1431486E-005  0.1046189E+04  0.7818608E-02  0.9584587E-01
          4   -1    0    0  502    0 -0.00000000000E+00  0.00000000000E+00  0.29698190320E+04  0.29698190320E+04  0.00000000000E+00 0.  1.
         21   -1    0    0  501  502  0.00000000000E+00 -0.00000000000E+00 -0.24037899144E+03  0.24037899144E+03  0.00000000000E+00 0.  1.
    9000010    2    1    2  501    0 -0.96846542387E+02  0.31408263760E+03  0.99126469622E+03  0.14412207215E+04  0.99321916717E+03 0.  0.
        -13    1    3    3    0    0  0.37802344391E+03  0.71918446549E+02  0.91696508061E+02  0.39557837132E+03  0.10566000000E+00 0.  1.
          4    1    3    3  501    0 -0.47486998629E+03  0.24216419105E+03  0.89956818816E+03  0.10456423502E+04  0.00000000000E+00 0.  1.
         13    1    1    2    0    0  0.96846542387E+02 -0.31408263760E+03  0.17381753444E+04  0.17689773020E+04  0.10566000000E+00 0. -1.
<mgrwt>
<rscale>  1 0.78324791E+03</rscale>
<asrwt>0</asrwt>
<pdfrwt beam="2">  1       21 0.36981385E-01 0.10461890E+04</pdfrwt>
<pdfrwt beam="1">  1        4 0.45689521E+00 0.10461890E+04</pdfrwt>
<totfact> 0.76322096E-01</totfact>
</mgrwt>
</event>
<event>
 6    1  0.1431486E-005  0.1067768E+04  0.7818608E-02  0.9546222E-01
          4   -1    0    0  502    0 -0.00000000000E+00  0.00000000000E+00  0.27022645154E+03  0.27022645154E+03  0.00000000000E+00 0.  1.
         21   -1    0    0  501  502  0.00000000000E+00 -0.00000000000E+00 -0.24598892269E+04  0.24598892269E+04  0.00000000000E+00 0.  1.
    9000010    2    1    2  501    0 -0.26096492008E+03  0.23756517163E+03 -0.21152186752E+04  0.23694470833E+04  0.10077646236E+04 0.  0.
        -13    1    3    3    0    0 -0.52765132765E+03  0.27242069066E+02 -0.18886673859E+04  0.19611788699E+04  0.10566000000E+00 0.  1.
          4    1    3    3  501    0  0.26668640757E+03  0.21032310257E+03 -0.22655128930E+03  0.40826821348E+03  0.00000000000E+00 0.  1.
         13    1    1    2    0    0  0.26096492008E+03 -0.23756517163E+03 -0.74444100169E+02  0.36066859511E+03  0.10566000000E+00 0. -1.
<mgrwt>
<rscale>  1 0.80960164E+03</rscale>
<asrwt>0</asrwt>
<pdfrwt beam="2">  1       21 0.37844449E+00 0.10677684E+04</pdfrwt>
<pdfrwt beam="1">  1        4 0.41573301E-01 0.10677684E+04</pdfrwt>
<totfact> 0.18884016E+00</totfact>
</mgrwt>
</event>
<event>
 6    1  0.1431486E-005  0.1144338E+04  0.7818608E-02  0.9360070E-01
          4   -1    0    0  502    0 -0.00000000000E+00  0.00000000000E+00  0.91218191986E+03  0.91218191986E+03  0.00000000000E+00 0.  1.
         21   -1    0    0  501  502  0.00000000000E+00 -0.00000000000E+00 -0.83848666251E+03  0.83848666251E+03  0.00000000000E+00 0.  1.
    9000010    2    1    2  501    0  0.55341334303E+03 -0.13814415603E+02  0.24680029829E+03  0.11706491580E+04  0.10015247863E+04 0.  0.
        -13    1    3    3    0    0 -0.10848329338E+03 -0.19644416041E+03 -0.24029951223E+03  0.32878990228E+03  0.10566000000E+00 0.  1.
          4    1    3    3  501    0  0.66189663641E+03  0.18262974481E+03  0.48709981052E+03  0.84185925568E+03  0.00000000000E+00 0.  1.
         13    1    1    2    0    0 -0.55341334303E+03  0.13814415603E+02 -0.17310504095E+03  0.58001942440E+03  0.10566000000E+00 0. -1.
<mgrwt>
<rscale>  1 0.95435943E+03</rscale>
<asrwt>0</asrwt>
<pdfrwt beam="2">  1       21 0.12899795E+00 0.11443378E+04</pdfrwt>
<pdfrwt beam="1">  1        4 0.14033568E+00 0.11443378E+04</pdfrwt>
<totfact> 0.55606860E+00</totfact>
</mgrwt>
</event>
<event>
 6    1  0.1431486E-005  0.1027542E+04  0.7818608E-02  0.9773103E-01
          4   -1    0    0  502    0 -0.00000000000E+00  0.00000000000E+00  0.26215398467E+03  0.26215398467E+03  0.00000000000E+00 0.  1.
         21   -1    0    0  501  502  0.00000000000E+00 -0.00000000000E+00 -0.19854386218E+04  0.19854386218E+04  0.00000000000E+00 0.  1.
    9000010    2    1    2  501    0 -0.17926813006E+03  0.40643418135E+02 -0.17799378046E+04  0.20552425547E+04  0.10109670719E+04 0.  0.
        -13    1    3    3    0    0 -0.33483762976E+03  0.12168780970E+03 -0.10538056636E+03  0.37152286103E+03  0.10566000000E+00 0.  1.
          4    1    3    3  501    0  0.15556949971E+03 -0.81044391568E+02 -0.16745572382E+04  0.16837196936E+04  0.00000000000E+00 0.  1.
         13    1    1    2    0    0  0.17926813006E+03 -0.40643418135E+02  0.56653167445E+02  0.19235005183E+03  0.10566000000E+00 0. -1.
<mgrwt>
<rscale>  1 0.66826185E+03</rscale>
<asrwt>0</asrwt>
<pdfrwt beam="2">  1       21 0.30545209E+00 0.10275424E+04</pdfrwt>
<pdfrwt beam="1">  1        4 0.40331383E-01 0.10275424E+04</pdfrwt>
<totfact> 0.58488165E+00</totfact>
</mgrwt>
</event>
<event>
 6    1  0.1431486E-005  0.1046807E+04  0.7818608E-02  0.9617447E-01
         21   -1    0    0  501  502  0.00000000000E+00  0.00000000000E+00  0.13945648128E+04  0.13945648128E+04  0.00000000000E+00 0. -1.
          4   -1    0    0  502    0 -0.00000000000E+00 -0.00000000000E+00 -0.72582325130E+03  0.72582325130E+03  0.00000000000E+00 0.  1.
    9000010    2    1    2  501    0  0.24913518418E+03  0.15454441772E+03  0.11511116161E+04  0.15559120258E+04  0.10049139079E+04 0.  0.
        -13    1    3    3    0    0  0.46444137071E+03  0.16692510711E+03  0.12736665437E+03  0.50969800276E+03  0.10566000000E+00 0.  1.
          4    1    3    3  501    0 -0.21530618653E+03 -0.12380689394E+02  0.10237449617E+04  0.10462140230E+04  0.00000000000E+00 0.  1.
         13    1    1    2    0    0 -0.24913518418E+03 -0.15454441772E+03 -0.48237005459E+03  0.56447603826E+03  0.10566000000E+00 0. -1.
<mgrwt>
<rscale>  1 0.76152134E+03</rscale>
<asrwt>0</asrwt>
<pdfrwt beam="1">  1       21 0.21454843E+00 0.10468067E+04</pdfrwt>
<pdfrwt beam="2">  1        4 0.11166512E+00 0.10468067E+04</pdfrwt>
<totfact> 0.22663433E+00</totfact>
</mgrwt>
</event>
<event>
 6    1  0.1431486E-005  0.1047463E+04  0.7818608E-02  0.9705458E-01
         21   -1    0    0  501  502  0.00000000000E+00  0.00000000000E+00  0.22589427022E+04  0.22589427022E+04  0.00000000000E+00 0.  1.
          4   -1    0    0  502    0 -0.00000000000E+00 -0.00000000000E+00 -0.20757524660E+03  0.20757524660E+03  0.00000000000E+00 0.  1.
    9000010    2    1    2  501    0 -0.12246448445E+03  0.17951886219E+03  0.19760849275E+04  0.22365352493E+04  0.10246724887E+04 0.  0.
        -13    1    3    3    0    0 -0.10410297853E+03  0.48638298477E+03  0.18295972986E+04  0.18960042522E+04  0.10566000000E+00 0.  1.
          4    1    3    3  501    0 -0.18361505922E+02 -0.30686412257E+03  0.14648762885E+03  0.34053099716E+03  0.00000000000E+00 0.  1.
         13    1    1    2    0    0  0.12246448445E+03 -0.17951886219E+03  0.75282528097E+02  0.22998269943E+03  0.10566000000E+00 0. -1.
<mgrwt>
<rscale>  1 0.70692765E+03</rscale>
<asrwt>0</asrwt>
<pdfrwt beam="1">  1       21 0.34752963E+00 0.10474628E+04</pdfrwt>
<pdfrwt beam="2">  1        4 0.31934655E-01 0.10474628E+04</pdfrwt>
<totfact> 0.50773775E+00</totfact>
</mgrwt>
</event>
<event>
 6    1  0.1431486E-005  0.9900681E+03  0.7818608E-02  0.9852397E-01
         21   -1    0    0  501  502  0.00000000000E+00  0.00000000000E+00  0.65648884649E+03  0.65648884649E+03  0.00000000000E+00 0.  1.
          4   -1    0    0  502    0 -0.00000000000E+00 -0.00000000000E+00 -0.53623639534E+03  0.53623639534E+03  0.00000000000E+00 0.  1.
    9000010    2    1    2  501    0 -0.14972181382E+03 -0.51973962185E+02  0.20783745505E+03  0.10116477492E+04  0.97730079626E+03 0.  0.
        -13    1    3    3    0    0  0.26627904924E+03 -0.33308355660E+03  0.27153288402E+03  0.50554851994E+03  0.10566000000E+00 0.  1.
          4    1    3    3  501    0 -0.41600086307E+03  0.28110959442E+03 -0.63695428962E+02  0.50609922922E+03  0.00000000000E+00 0.  1.
         13    1    1    2    0    0  0.14972181382E+03  0.51973962185E+02 -0.87585003904E+02  0.18107749267E+03  0.10566000000E+00 0. -1.
<mgrwt>
<rscale>  1 0.62624859E+03</rscale>
<asrwt>0</asrwt>
<pdfrwt beam="1">  1       21 0.10099828E+00 0.99006806E+03</pdfrwt>
<pdfrwt beam="2">  1        4 0.82497907E-01 0.99006806E+03</pdfrwt>
<totfact> 0.39085576E+01</totfact>
</mgrwt>
</event>
<event>
 6    1  0.1431486E-005  0.8781488E+03  0.7818608E-02  0.9898239E-01
          4   -1    0    0  502    0 -0.00000000000E+00  0.00000000000E+00  0.40288430238E+03  0.40288430238E+03  0.00000000000E+00 0.  1.
         21   -1    0    0  501  502  0.00000000000E+00 -0.00000000000E+00 -0.91012619949E+03  0.91012619949E+03  0.00000000000E+00 0.  1.
    9000010    2    1    2  501    0 -0.18194723278E+03  0.72456214878E+02 -0.63099670217E+03  0.10813427192E+04  0.85603185667E+03 0.  0.
        -13    1    3    3    0    0 -0.36346171775E+03 -0.17911908580E+03 -0.65498953210E+03  0.77019436864E+03  0.10566000000E+00 0.  1.
          4    1    3    3  501    0  0.18151448497E+03  0.25157530068E+03  0.23992829929E+02  0.31114835056E+03  0.00000000000E+00 0.  1.
         13    1    1    2    0    0  0.18194723278E+03 -0.72456214878E+02  0.12375480506E+03  0.23166778268E+03  0.10566000000E+00 0. -1.
<mgrwt>
<rscale>  1 0.60346683E+03</rscale>
<asrwt>0</asrwt>
<pdfrwt beam="2">  1       21 0.14001942E+00 0.87814876E+03</pdfrwt>
<pdfrwt beam="1">  1        4 0.61982200E-01 0.87814876E+03</pdfrwt>
<totfact> 0.32255926E+01</totfact>
</mgrwt>
</event>
<event>
 6    1  0.1431486E-005  0.1031550E+04  0.7818608E-02  0.9885798E-01
         21   -1    0    0  501  502  0.00000000000E+00  0.00000000000E+00  0.11036411474E+04  0.11036411474E+04  0.00000000000E+00 0.  1.
          4   -1    0    0  502    0 -0.00000000000E+00 -0.00000000000E+00 -0.34012884122E+03  0.34012884122E+03  0.00000000000E+00 0.  1.
    9000010    2    1    2  501    0  0.10948005593E+03  0.61890759639E+02  0.80804429112E+03  0.13103553806E+04  0.10238551159E+04 0.  0.
        -13    1    3    3    0    0 -0.42324211586E+03  0.16287675168E+03  0.19991752782E+03  0.49561048613E+03  0.10566000000E+00 0.  1.
          4    1    3    3  501    0  0.53272217178E+03 -0.10098599204E+03  0.60812676329E+03  0.81474489451E+03  0.00000000000E+00 0.  1.
         13    1    1    2    0    0 -0.10948005593E+03 -0.61890759639E+02 -0.44531984943E+02  0.13341460798E+03  0.10566000000E+00 0. -1.
<mgrwt>
<rscale>  1 0.60954541E+03</rscale>
<asrwt>0</asrwt>
<pdfrwt beam="1">  1       21 0.16979094E+00 0.10315501E+04</pdfrwt>
<pdfrwt beam="2">  1        4 0.52327515E-01 0.10315501E+04</pdfrwt>
<totfact> 0.26551507E+01</totfact>
</mgrwt>
</event>
<event>
 6    1  0.1431486E-005  0.1153264E+04  0.7818608E-02  0.9335405E-01
          4   -1    0    0  502    0 -0.00000000000E+00  0.00000000000E+00  0.15502322049E+04  0.15502322049E+04  0.00000000000E+00 0.  1.
         21   -1    0    0  501  502  0.00000000000E+00 -0.00000000000E+00 -0.56432520773E+03  0.56432520773E+03  0.00000000000E+00 0.  1.
    9000010    2    1    2  501    0 -0.49415586893E+02 -0.58921301927E+03  0.26707196845E+03  0.11837847809E+04  0.99015407327E+03 0.  0.
        -13    1    3    3    0    0 -0.41600296498E+03 -0.33670566278E+03  0.45320322294E+03  0.70130046533E+03  0.10566000000E+00 0.  1.
          4    1    3    3  501    0  0.36658737809E+03 -0.25250735649E+03 -0.18613125449E+03  0.48248431555E+03  0.00000000000E+00 0.  1.
         13    1    1    2    0    0  0.49415586893E+02  0.58921301927E+03  0.71883502869E+03  0.93077263171E+03  0.10566000000E+00 0. -1.
<mgrwt>
<rscale>  1 0.97587743E+03</rscale>
<asrwt>0</asrwt>
<pdfrwt beam="2">  1       21 0.86819263E-01 0.11532645E+04</pdfrwt>
<pdfrwt beam="1">  1        4 0.23849726E+00 0.11532645E+04</pdfrwt>
<totfact> 0.31393755E+00</totfact>
</mgrwt>
</event>
<event>
 6    1  0.1431486E-005  0.1036038E+04  0.7818608E-02  0.9570375E-01
          4   -1    0    0  502    0 -0.00000000000E+00  0.00000000000E+00  0.34477627904E+03  0.34477627904E+03  0.00000000000E+00 0.  1.
         21   -1    0    0  501  502  0.00000000000E+00 -0.00000000000E+00 -0.15797913382E+04  0.15797913382E+04  0.00000000000E+00 0.  1.
    9000010    2    1    2  501    0 -0.24715337155E+03 -0.25538343196E+03 -0.11708721931E+04  0.15634307944E+04  0.97317453205E+03 0.  0.
        -13    1    3    3    0    0 -0.37885282247E+03  0.58535474811E+02 -0.43531869917E+02  0.38581199796E+03  0.10566000000E+00 0.  1.
          4    1    3    3  501    0  0.13169945092E+03 -0.31391890677E+03 -0.11273403232E+04  0.11776187964E+04  0.00000000000E+00 0.  1.
         13    1    1    2    0    0  0.24715337155E+03  0.25538343196E+03 -0.64142866060E+02  0.36113682285E+03  0.10566000000E+00 0. -1.
<mgrwt>
<rscale>  1 0.79288364E+03</rscale>
<asrwt>0</asrwt>
<pdfrwt beam="2">  1       21 0.24304482E+00 0.10360377E+04</pdfrwt>
<pdfrwt beam="1">  1        4 0.53042504E-01 0.10360377E+04</pdfrwt>
<totfact> 0.81275315E+00</totfact>
</mgrwt>
</event>
<event>
 6    1  0.1431486E-005  0.1025390E+04  0.7818608E-02  0.9709053E-01
         21   -1    0    0  501  502  0.00000000000E+00  0.00000000000E+00  0.63923143008E+03  0.63923143008E+03  0.00000000000E+00 0.  1.
          4   -1    0    0  502    0 -0.00000000000E+00 -0.00000000000E+00 -0.64523067942E+03  0.64523067942E+03  0.00000000000E+00 0.  1.
    9000010    2    1    2  501    0 -0.22838561829E+03 -0.15007530212E+02  0.10376060092E+03  0.10306266264E+04  0.99951976672E+03 0.  0.
        -13    1    3    3    0    0 -0.34271173763E+02  0.22647414297E+03  0.48678328740E+03  0.53798051158E+03  0.10566000000E+00 0.  1.
          4    1    3    3  501    0 -0.19411444453E+03 -0.24148167318E+03 -0.38302268648E+03  0.49264611479E+03  0.00000000000E+00 0.  1.
         13    1    1    2    0    0  0.22838561829E+03  0.15007530212E+02 -0.10975985026E+03  0.25383548314E+03  0.10566000000E+00 0. -1.
<mgrwt>
<rscale>  1 0.70480336E+03</rscale>
<asrwt>0</asrwt>
<pdfrwt beam="1">  1       21 0.98343297E-01 0.10253902E+04</pdfrwt>
<pdfrwt beam="2">  1        4 0.99266259E-01 0.10253902E+04</pdfrwt>
<totfact> 0.26911797E+01</totfact>
</mgrwt>
</event>
<event>
 6    1  0.1431486E-005  0.1122697E+04  0.7818608E-02  0.9410707E-01
         21   -1    0    0  501  502  0.00000000000E+00  0.00000000000E+00  0.24344741632E+04  0.24344741632E+04  0.00000000000E+00 0.  1.
          4   -1    0    0  502    0 -0.00000000000E+00 -0.00000000000E+00 -0.26942088705E+03  0.26942088705E+03  0.00000000000E+00 0.  1.
    9000010    2    1    2  501    0 -0.48885623622E+03 -0.23326415446E+01  0.13790248839E+04  0.17782458157E+04  0.10106743737E+04 0.  0.
        -13    1    3    3    0    0 -0.48550831460E+03  0.36098213126E+03  0.12569207156E+04  0.13949466367E+04  0.10566000000E+00 0.  1.
          4    1    3    3  501    0 -0.33479216255E+01 -0.36331477281E+03  0.12210416831E+03  0.38329917902E+03  0.00000000000E+00 0.  1.
         13    1    1    2    0    0  0.48885623622E+03  0.23326415446E+01  0.78602839223E+03  0.92564923457E+03  0.10566000000E+00 0. -1.
<mgrwt>
<rscale>  1 0.91199720E+03</rscale>
<asrwt>0</asrwt>
<pdfrwt beam="1">  1       21 0.37453447E+00 0.11226970E+04</pdfrwt>
<pdfrwt beam="2">  1        4 0.41449369E-01 0.11226970E+04</pdfrwt>
<totfact> 0.19927581E+00</totfact>
</mgrwt>
</event>
<event>
 6    1  0.1431486E-005  0.1006866E+04  0.7818608E-02  0.9851509E-01
         21   -1    0    0  501  502  0.00000000000E+00  0.00000000000E+00  0.16099549127E+03  0.16099549127E+03  0.00000000000E+00 0.  1.
          4   -1    0    0  502    0 -0.00000000000E+00 -0.00000000000E+00 -0.21332570119E+04  0.21332570119E+04  0.00000000000E+00 0.  1.
    9000010    2    1    2  501    0  0.14050921388E+03 -0.55630936720E+02 -0.15762448960E+04  0.18703812745E+04  0.99545994381E+03 0.  0.
        -13    1    3    3    0    0 -0.24140101715E+03 -0.36347291520E+03 -0.11138567352E+04  0.11962708092E+04  0.10566000000E+00 0.  1.
          4    1    3    3  501    0  0.38191023103E+03  0.30784197848E+03 -0.46238816077E+03  0.67411046535E+03  0.00000000000E+00 0.  1.
         13    1    1    2    0    0 -0.14050921388E+03  0.55630936720E+02 -0.39601662464E+03  0.42387122863E+03  0.10566000000E+00 0. -1.
<mgrwt>
<rscale>  1 0.62670048E+03</rscale>
<asrwt>0</asrwt>
<pdfrwt beam="1">  1       21 0.24768538E-01 0.10068655E+04</pdfrwt>
<pdfrwt beam="2">  1        4 0.32819338E+00 0.10068655E+04</pdfrwt>
<totfact> 0.13252736E+01</totfact>
</mgrwt>
</event>
<event>
 6    1  0.1431486E-005  0.1094846E+04  0.7818608E-02  0.9546500E-01
          4   -1    0    0  502    0 -0.00000000000E+00  0.00000000000E+00  0.10844001066E+04  0.10844001066E+04  0.00000000000E+00 0.  1.
         21   -1    0    0  501  502  0.00000000000E+00 -0.00000000000E+00 -0.88548987187E+03  0.88548987187E+03  0.00000000000E+00 0.  1.
    9000010    2    1    2  501    0 -0.17982023564E+03  0.27317306223E+03 -0.49593058765E+03  0.12019299413E+04  0.10448586493E+04 0.  0.
        -13    1    3    3    0    0 -0.33390871660E+03  0.74521070844E+02 -0.76236087598E+03  0.83560908169E+03  0.10566000000E+00 0.  1.
          4    1    3    3  501    0  0.15408848096E+03  0.19865199139E+03  0.26643028833E+03  0.36632085961E+03  0.00000000000E+00 0.  1.
         13    1    1    2    0    0  0.17982023564E+03 -0.27317306223E+03  0.69484082236E+03  0.76796003715E+03  0.10566000000E+00 0. -1.
<mgrwt>
<rscale>  1 0.80940701E+03</rscale>
<asrwt>0</asrwt>
<pdfrwt beam="2">  1       21 0.13622921E+00 0.10948463E+04</pdfrwt>
<pdfrwt beam="1">  1        4 0.16683079E+00 0.10948463E+04</pdfrwt>
<totfact> 0.30223486E+00</totfact>
</mgrwt>
</event>
<event>
 6    1  0.1431486E-005  0.1028529E+04  0.7818608E-02  0.9667515E-01
          4   -1    0    0  502    0 -0.00000000000E+00  0.00000000000E+00  0.65202863350E+03  0.65202863350E+03  0.00000000000E+00 0.  1.
         21   -1    0    0  501  502  0.00000000000E+00 -0.00000000000E+00 -0.73263944570E+03  0.73263944570E+03  0.00000000000E+00 0.  1.
    9000010    2    1    2  501    0 -0.46426181031E+02 -0.25661065339E+03 -0.26880664184E+03  0.10630750146E+04  0.99492062917E+03 0.  0.
        -13    1    3    3    0    0 -0.19997673363E+03 -0.53105379395E+03 -0.42783847179E+03  0.71067193216E+03  0.10566000000E+00 0.  1.
          4    1    3    3  501    0  0.15355055260E+03  0.27444314056E+03  0.15903182995E+03  0.35240308248E+03  0.00000000000E+00 0.  1.
         13    1    1    2    0    0  0.46426181031E+02  0.25661065339E+03  0.18819582963E+03  0.32159306456E+03  0.10566000000E+00 0. -1.
<mgrwt>
<rscale>  1 0.72984307E+03</rscale>
<asrwt>0</asrwt>
<pdfrwt beam="2">  1       21 0.11271376E+00 0.10285288E+04</pdfrwt>
<pdfrwt beam="1">  1        4 0.10031210E+00 0.10285288E+04</pdfrwt>
<totfact> 0.18621615E+01</totfact>
</mgrwt>
</event>
<event>
 6    1  0.1431486E-005  0.1054524E+04  0.7818608E-02  0.9625012E-01
          4   -1    0    0  502    0 -0.00000000000E+00  0.00000000000E+00  0.16442471192E+04  0.16442471192E+04  0.00000000000E+00 0.  1.
         21   -1    0    0  501  502  0.00000000000E+00 -0.00000000000E+00 -0.33342969990E+03  0.33342969990E+03  0.00000000000E+00 0.  1.
    9000010    2    1    2  501    0  0.27276257486E+03 -0.60922559895E+02  0.59858009258E+03  0.12125670222E+04  0.10168134910E+04 0.  0.
        -13    1    3    3    0    0  0.25284240450E+03  0.16974330082E+02  0.88214573513E+03  0.91782270541E+03  0.10566000000E+00 0.  1.
          4    1    3    3  501    0  0.19920170358E+02 -0.77896889977E+02 -0.28356564254E+03  0.29474431680E+03  0.00000000000E+00 0.  1.
         13    1    1    2    0    0 -0.27276257486E+03  0.60922559895E+02  0.71223732672E+03  0.76510979688E+03  0.10566000000E+00 0. -1.
<mgrwt>
<rscale>  1 0.75662614E+03</rscale>
<asrwt>0</asrwt>
<pdfrwt beam="2">  1       21 0.51296878E-01 0.10545239E+04</pdfrwt>
<pdfrwt beam="1">  1        4 0.25296109E+00 0.10545239E+04</pdfrwt>
<totfact> 0.85688399E+00</totfact>
</mgrwt>
</event>
<event>
 6    1  0.1431486E-005  0.1022462E+04  0.7818608E-02  0.1001720E+00
         21   -1    0    0  501  502  0.00000000000E+00  0.00000000000E+00  0.32096261024E+03  0.32096261024E+03  0.00000000000E+00 0.  1.
          4   -1    0    0  502    0 -0.00000000000E+00 -0.00000000000E+00 -0.96924808092E+03  0.96924808092E+03  0.00000000000E+00 0.  1.
    9000010    2    1    2  501    0 -0.93844008930E+01  0.84482145621E+02 -0.55265467855E+03  0.11622632040E+04  0.10189225985E+04 0.  0.
        -13    1    3    3    0    0  0.28666396580E+03  0.44640115588E+03 -0.16706384490E+03  0.55620190641E+03  0.10566000000E+00 0.  1.
          4    1    3    3  501    0 -0.29604836669E+03 -0.36191901026E+03 -0.38559083364E+03  0.60606129756E+03  0.00000000000E+00 0.  1.
         13    1    1    2    0    0  0.93844008930E+01 -0.84482145621E+02 -0.95630792139E+02  0.12794748719E+03  0.10566000000E+00 0. -1.
<mgrwt>
<rscale>  1 0.54902542E+03</rscale>
<asrwt>0</asrwt>
<pdfrwt beam="1">  1       21 0.49378864E-01 0.10224620E+04</pdfrwt>
<pdfrwt beam="2">  1        4 0.14911509E+00 0.10224620E+04</pdfrwt>
<totfact> 0.46777102E+01</totfact>
</mgrwt>
</event>
<event>
 6    1  0.1431486E-005  0.1559832E+04  0.7818608E-02  0.8904819E-01
         21   -1    0    0  501  502  0.00000000000E+00  0.00000000000E+00  0.13087534111E+04  0.13087534111E+04  0.00000000000E+00 0. -1.
          4   -1    0    0  502    0 -0.00000000000E+00 -0.00000000000E+00 -0.16626911299E+04  0.16626911299E+04  0.00000000000E+00 0.  1.
    9000010    2    1    2  501    0 -0.46358575420E+03  0.11388058624E+04  0.28521480806E+03  0.15856932980E+04  0.95983603019E+03 0.  0.
        -13    1    3    3    0    0 -0.18691671395E+03  0.79123272887E+03  0.62575599835E+03  0.10259423326E+04  0.10566000000E+00 0.  1.
          4    1    3    3  501    0 -0.27666904024E+03  0.34757313355E+03 -0.34054119029E+03  0.55975096541E+03  0.00000000000E+00 0.  1.
         13    1    1    2    0    0  0.46358575420E+03 -0.11388058624E+04 -0.63915252680E+03  0.13857512430E+04  0.10566000000E+00 0. -1.
<mgrwt>
<rscale>  1 0.14697546E+04</rscale>
<asrwt>0</asrwt>
<pdfrwt beam="1">  1       21 0.20134668E+00 0.15598320E+04</pdfrwt>
<pdfrwt beam="2">  1        4 0.25579863E+00 0.15598320E+04</pdfrwt>
<totfact> 0.23310445E-01</totfact>
</mgrwt>
</event>
<event>
 6    1  0.1431486E-005  0.1050473E+04  0.7818608E-02  0.9564683E-01
         21   -1    0    0  501  502  0.00000000000E+00  0.00000000000E+00  0.12189529268E+04  0.12189529268E+04  0.00000000000E+00 0.  1.
          4   -1    0    0  502    0 -0.00000000000E+00 -0.00000000000E+00 -0.52903387675E+03  0.52903387675E+03  0.00000000000E+00 0.  1.
    9000010    2    1    2  501    0  0.33938251278E+03  0.75611913408E+02  0.86307263860E+03  0.13595542769E+04  0.99125970402E+03 0.  0.
        -13    1    3    3    0    0 -0.15988424573E+03 -0.14509445427E+03  0.77761430939E+03  0.80703122494E+03  0.10566000000E+00 0.  1.
          4    1    3    3  501    0  0.49926675850E+03  0.22070636768E+03  0.85458329213E+02  0.55252305193E+03  0.00000000000E+00 0.  1.
         13    1    1    2    0    0 -0.33938251278E+03 -0.75611913408E+02 -0.17315358852E+03  0.38843252671E+03  0.10566000000E+00 0. -1.
<mgrwt>
<rscale>  1 0.79678454E+03</rscale>
<asrwt>0</asrwt>
<pdfrwt beam="1">  1       21 0.18753122E+00 0.10504730E+04</pdfrwt>
<pdfrwt beam="2">  1        4 0.81389828E-01 0.10504730E+04</pdfrwt>
<totfact> 0.73952727E+00</totfact>
</mgrwt>
</event>
<event>
 6    1  0.1431486E-005  0.1018033E+04  0.7818608E-02  0.9668434E-01
          4   -1    0    0  502    0 -0.00000000000E+00  0.00000000000E+00  0.30746701415E+03  0.30746701415E+03  0.00000000000E+00 0.  1.
         21   -1    0    0  501  502  0.00000000000E+00 -0.00000000000E+00 -0.13884536961E+04  0.13884536961E+04  0.00000000000E+00 0.  1.
    9000010    2    1    2  501    0  0.65358731222E+01  0.26801218814E+03 -0.72287157083E+03  0.12485733121E+04  0.98209915857E+03 0.  0.
        -13    1    3    3    0    0  0.34566367847E+03  0.34944250677E+03 -0.75222355377E+03  0.89857316350E+03  0.10566000000E+00 0.  1.
          4    1    3    3  501    0 -0.33912780535E+03 -0.81430318630E+02  0.29351982936E+02  0.35000014865E+03  0.00000000000E+00 0.  1.
         13    1    1    2    0    0 -0.65358731222E+01 -0.26801218814E+03 -0.35811511116E+03  0.44734739815E+03  0.10566000000E+00 0. -1.
<mgrwt>
<rscale>  1 0.72927696E+03</rscale>
<asrwt>0</asrwt>
<pdfrwt beam="2">  1       21 0.21360826E+00 0.10180334E+04</pdfrwt>
<pdfrwt beam="1">  1        4 0.47302617E-01 0.10180334E+04</pdfrwt>
<totfact> 0.16161896E+01</totfact>
</mgrwt>
</event>
<event>
 6    1  0.1431486E-005  0.1206085E+04  0.7818608E-02  0.9469399E-01
          4   -1    0    0  502    0 -0.00000000000E+00  0.00000000000E+00  0.26090128314E+03  0.26090128314E+03  0.00000000000E+00 0.  1.
         21   -1    0    0  501  502  0.00000000000E+00 -0.00000000000E+00 -0.22710499498E+04  0.22710499498E+04  0.00000000000E+00 0.  1.
    9000010    2    1    2  501    0 -0.31822852366E+03 -0.35967908144E+02 -0.17135727807E+04  0.20954648632E+04  0.11627889897E+04 0.  0.
        -13    1    3    3    0    0 -0.11504940163E+03 -0.20537780897E+03 -0.18014077289E+04  0.18167240369E+04  0.10566000000E+00 0.  1.
          4    1    3    3  501    0 -0.20317912203E+03  0.16940990083E+03  0.87834948216E+02  0.27874082632E+03  0.00000000000E+00 0.  1.
         13    1    1    2    0    0  0.31822852366E+03  0.35967908144E+02 -0.29657588604E+03  0.43648636981E+03  0.10566000000E+00 0. -1.
<mgrwt>
<rscale>  1 0.86577962E+03</rscale>
<asrwt>0</asrwt>
<pdfrwt beam="2">  1       21 0.34939230E+00 0.12060851E+04</pdfrwt>
<pdfrwt beam="1">  1        4 0.40138659E-01 0.12060851E+04</pdfrwt>
<totfact> 0.30373321E+00</totfact>
</mgrwt>
</event>
<event>
 6    1  0.1431486E-005  0.1016532E+04  0.7818608E-02  0.9797770E-01
          4   -1    0    0  502    0 -0.00000000000E+00  0.00000000000E+00  0.39562953584E+03  0.39562953584E+03  0.00000000000E+00 0.  1.
         21   -1    0    0  501  502  0.00000000000E+00 -0.00000000000E+00 -0.96128886074E+03  0.96128886074E+03  0.00000000000E+00 0.  1.
    9000010    2    1    2  501    0 -0.16773118830E+03  0.50047721987E+02 -0.59732388359E+03  0.11790387141E+04  0.10013480621E+04 0.  0.
        -13    1    3    3    0    0  0.32051618580E+03  0.24701376060E+03 -0.50068340468E+03  0.64376261632E+03  0.10566000000E+00 0.  1.
          4    1    3    3  501    0 -0.48824737410E+03 -0.19696603861E+03 -0.96640478909E+02  0.53527609777E+03  0.00000000000E+00 0.  1.
         13    1    1    2    0    0  0.16773118830E+03 -0.50047721987E+02  0.31664558682E+02  0.17787968250E+03  0.10566000000E+00 0. -1.
<mgrwt>
<rscale>  1 0.65482336E+03</rscale>
<asrwt>0</asrwt>
<pdfrwt beam="2">  1       21 0.14789059E+00 0.10165316E+04</pdfrwt>
<pdfrwt beam="1">  1        4 0.60866082E-01 0.10165316E+04</pdfrwt>
<totfact> 0.28458672E+01</totfact>
</mgrwt>
</event>
<event>
 6    1  0.1431486E-005  0.1002028E+04  0.7818608E-02  0.1038861E+00
         21   -1    0    0  501  502  0.00000000000E+00  0.00000000000E+00  0.82631480386E+03  0.82631480386E+03  0.00000000000E+00 0.  1.
          4   -1    0    0  502    0 -0.00000000000E+00 -0.00000000000E+00 -0.39477725030E+03  0.39477725030E+03  0.00000000000E+00 0.  1.
    9000010    2    1    2  501    0  0.27877786802E+02 -0.91756393683E+01  0.51926788969E+03  0.11285826687E+04  0.10015978911E+04 0.  0.
        -13    1    3    3    0    0 -0.29817090209E+02  0.42673793573E+02 -0.30058933305E+03  0.30506404219E+03  0.10566000000E+00 0.  1.
          4    1    3    3  501    0  0.57694877011E+02 -0.51849432941E+02  0.81985722274E+03  0.82351862651E+03  0.00000000000E+00 0.  1.
         13    1    1    2    0    0 -0.27877786802E+02  0.91756393683E+01 -0.87730336135E+02  0.92509385455E+02  0.10566000000E+00 0. -1.
<mgrwt>
<rscale>  1 0.41453273E+03</rscale>
<asrwt>0</asrwt>
<pdfrwt beam="1">  1       21 0.12712535E+00 0.10020278E+04</pdfrwt>
<pdfrwt beam="2">  1        4 0.60734962E-01 0.10020278E+04</pdfrwt>
<totfact> 0.43110228E+01</totfact>
</mgrwt>
</event>
<event>
 6    1  0.1431486E-005  0.1033228E+04  0.7818608E-02  0.9907962E-01
          4   -1    0    0  502    0 -0.00000000000E+00  0.00000000000E+00  0.56556612824E+03  0.56556612824E+03  0.00000000000E+00 0.  1.
         21   -1    0    0  501  502  0.00000000000E+00 -0.00000000000E+00 -0.18861312764E+04  0.18861312764E+04  0.00000000000E+00 0.  1.
    9000010    2    1    2  501    0 -0.75156051484E+02 -0.89059587571E+02 -0.17360086471E+04  0.20202193007E+04  0.10266352604E+04 0.  0.
        -13    1    3    3    0    0 -0.33121543077E+03  0.37251672989E+03 -0.96010648215E+03  0.10817933462E+04  0.10566000000E+00 0.  1.
          4    1    3    3  501    0  0.25605937928E+03 -0.46157631746E+03 -0.77590216491E+03  0.93842595450E+03  0.00000000000E+00 0.  1.
         13    1    1    2    0    0  0.75156051484E+02  0.89059587571E+02  0.41544349892E+03  0.43147810393E+03  0.10566000000E+00 0. -1.
<mgrwt>
<rscale>  1 0.59876967E+03</rscale>
<asrwt>0</asrwt>
<pdfrwt beam="2">  1       21 0.29017404E+00 0.10332280E+04</pdfrwt>
<pdfrwt beam="1">  1        4 0.87010175E-01 0.10332280E+04</pdfrwt>
<totfact> 0.13615542E+00</totfact>
</mgrwt>
</event>
<event>
 6    1  0.1431486E-005  0.1014582E+04  0.7818608E-02  0.9767589E-01
          4   -1    0    0  502    0 -0.00000000000E+00  0.00000000000E+00  0.12150052072E+04  0.12150052072E+04  0.00000000000E+00 0.  1.
         21   -1    0    0  501  502  0.00000000000E+00 -0.00000000000E+00 -0.30152510299E+03  0.30152510299E+03  0.00000000000E+00 0. -1.
    9000010    2    1    2  501    0 -0.17089632428E+03 -0.92792914603E+02  0.79353469542E+03  0.12880505717E+04  0.99577150178E+03 0.  0.
        -13    1    3    3    0    0 -0.31793038339E+03  0.22362834432E+03  0.84994060302E+03  0.93460601586E+03  0.10566000000E+00 0.  1.
          4    1    3    3  501    0  0.14703405911E+03 -0.31642125892E+03 -0.56405907591E+02  0.35344455583E+03  0.00000000000E+00 0.  1.
         13    1    1    2    0    0  0.17089632428E+03  0.92792914603E+02  0.11994540880E+03  0.22847973851E+03  0.10566000000E+00 0. -1.
<mgrwt>
<rscale>  1 0.67131299E+03</rscale>
<asrwt>0</asrwt>
<pdfrwt beam="2">  1       21 0.46388478E-01 0.10145822E+04</pdfrwt>
<pdfrwt beam="1">  1        4 0.18692388E+00 0.10145822E+04</pdfrwt>
<totfact> 0.28409897E+01</totfact>
</mgrwt>
</event>
<event>
 6    1  0.1431486E-005  0.1159371E+04  0.7818608E-02  0.9367329E-01
          4   -1    0    0  502    0 -0.00000000000E+00  0.00000000000E+00  0.17745726527E+04  0.17745726527E+04  0.00000000000E+00 0.  1.
         21   -1    0    0  501  502  0.00000000000E+00 -0.00000000000E+00 -0.47095560174E+03  0.47095560174E+03  0.00000000000E+00 0.  1.
    9000010    2    1    2  501    0 -0.50083305711E+03 -0.13452075718E+03  0.44376205223E+03  0.12413966818E+04  0.10369239979E+04 0.  0.
        -13    1    3    3    0    0 -0.38718393112E+03 -0.59686258332E+01 -0.29257489709E+03  0.48533195092E+03  0.10566000000E+00 0.  1.
          4    1    3    3  501    0 -0.11364912599E+03 -0.12855213135E+03  0.73633694933E+03  0.75606473086E+03  0.00000000000E+00 0.  1.
         13    1    1    2    0    0  0.50083305711E+03  0.13452075718E+03  0.85985499873E+03  0.10041315727E+04  0.10566000000E+00 0. -1.
<mgrwt>
<rscale>  1 0.94813817E+03</rscale>
<asrwt>0</asrwt>
<pdfrwt beam="2">  1       21 0.72454709E-01 0.11593709E+04</pdfrwt>
<pdfrwt beam="1">  1        4 0.27301117E+00 0.11593709E+04</pdfrwt>
<totfact> 0.29336516E+00</totfact>
</mgrwt>
</event>
<event>
 6    1  0.1431486E-005  0.1046639E+04  0.7818608E-02  0.9610958E-01
         21   -1    0    0  501  502  0.00000000000E+00  0.00000000000E+00  0.72149945327E+03  0.72149945327E+03  0.00000000000E+00 0.  1.
          4   -1    0    0  502    0 -0.00000000000E+00 -0.00000000000E+00 -0.68232514266E+03  0.68232514266E+03  0.00000000000E+00 0.  1.
    9000010    2    1    2  501    0  0.15766013186E+03 -0.25510057077E+03  0.19688256426E+03  0.10649958445E+04  0.10027563943E+04 0.  0.
        -13    1    3    3    0    0  0.25050937824E+02 -0.48235966388E+03 -0.25191347396E+03  0.54475572907E+03  0.10566000000E+00 0.  1.
          4    1    3    3  501    0  0.13260919403E+03  0.22725909311E+03  0.44879603822E+03  0.52024011540E+03  0.00000000000E+00 0.  1.
         13    1    1    2    0    0 -0.15766013186E+03  0.25510057077E+03 -0.15770825365E+03  0.33882875146E+03  0.10566000000E+00 0. -1.
<mgrwt>
<rscale>  1 0.76575108E+03</rscale>
<asrwt>0</asrwt>
<pdfrwt beam="1">  1       21 0.11099992E+00 0.10466391E+04</pdfrwt>
<pdfrwt beam="2">  1        4 0.10497310E+00 0.10466391E+04</pdfrwt>
<totfact> 0.17304885E+01</totfact>
</mgrwt>
</event>
<event>
 6    1  0.1431486E-005  0.1041684E+04  0.7818608E-02  0.9618361E-01
          4   -1    0    0  502    0 -0.00000000000E+00  0.00000000000E+00  0.51763770008E+03  0.51763770008E+03  0.00000000000E+00 0.  1.
         21   -1    0    0  501  502  0.00000000000E+00 -0.00000000000E+00 -0.95322927706E+03  0.95322927706E+03  0.00000000000E+00 0.  1.
    9000010    2    1    2  501    0 -0.30736126319E+02 -0.29499972741E+03 -0.51752962072E+03  0.11631602941E+04  0.99856667917E+03 0.  0.
        -13    1    3    3    0    0 -0.16942047305E+03 -0.17514227467E+03 -0.79449981334E+03  0.83102832541E+03  0.10566000000E+00 0.  1.
          4    1    3    3  501    0  0.13868434673E+03 -0.11985745274E+03  0.27697019262E+03  0.33213196866E+03  0.00000000000E+00 0.  1.
         13    1    1    2    0    0  0.30736126319E+02  0.29499972741E+03  0.81938043744E+02  0.30770668308E+03  0.10566000000E+00 0. -1.
<mgrwt>
<rscale>  1 0.76092781E+03</rscale>
<asrwt>0</asrwt>
<pdfrwt beam="2">  1       21 0.14665065E+00 0.10416837E+04</pdfrwt>
<pdfrwt beam="1">  1        4 0.79636571E-01 0.10416837E+04</pdfrwt>
<totfact> 0.15915730E+01</totfact>
</mgrwt>
</event>
<event>
 6    1  0.1431486E-005  0.1013586E+04  0.7818608E-02  0.1002212E+00
          4   -1    0    0  502    0 -0.00000000000E+00  0.00000000000E+00  0.13827867221E+04  0.13827867221E+04  0.00000000000E+00 0.  1.
         21   -1    0    0  501  502  0.00000000000E+00 -0.00000000000E+00 -0.23489170382E+03  0.23489170382E+03  0.00000000000E+00 0.  1.
    9000010    2    1    2  501    0 -0.33295725456E+02 -0.79202957041E+02  0.90062164366E+03  0.13559040064E+04  0.10099379268E+04 0.  0.
        -13    1    3    3    0    0 -0.18137249679E+03 -0.46583972303E+03  0.77681539505E+03  0.92376663682E+03  0.10566000000E+00 0.  1.
          4    1    3    3  501    0  0.14807677133E+03  0.38663676599E+03  0.12380624861E+03  0.43213736962E+03  0.00000000000E+00 0.  1.
         13    1    1    2    0    0  0.33295725456E+02  0.79202957041E+02  0.24727337461E+03  0.26177441947E+03  0.10566000000E+00 0. -1.
<mgrwt>
<rscale>  1 0.54690909E+03</rscale>
<asrwt>0</asrwt>
<pdfrwt beam="2">  1       21 0.36137186E-01 0.10135859E+04</pdfrwt>
<pdfrwt beam="1">  1        4 0.21273641E+00 0.10135859E+04</pdfrwt>
<totfact> 0.32375590E+01</totfact>
</mgrwt>
</event>
<event>
 6    1  0.1431486E-005  0.1003055E+04  0.7818608E-02  0.1000264E+00
         21   -1    0    0  501  502  0.00000000000E+00  0.00000000000E+00  0.58656807199E+03  0.58656807199E+03  0.00000000000E+00 0.  1.
          4   -1    0    0  502    0 -0.00000000000E+00 -0.00000000000E+00 -0.58973777305E+03  0.58973777305E+03  0.00000000000E+00 0.  1.
    9000010    2    1    2  501    0  0.93844313080E+02 -0.87392118315E+01  0.13180844452E+03  0.10116782657E+04  0.99861720313E+03 0.  0.
        -13    1    3    3    0    0  0.38942720352E+03  0.21393182638E+03  0.36435541836E+03  0.57460878451E+03  0.10566000000E+00 0.  1.
          4    1    3    3  501    0 -0.29558289044E+03 -0.22267103822E+03 -0.23254697384E+03  0.43706948123E+03  0.00000000000E+00 0.  1.
         13    1    1    2    0    0 -0.93844313080E+02  0.87392118315E+01 -0.13497814558E+03  0.16462757931E+03  0.10566000000E+00 0. -1.
<mgrwt>
<rscale>  1 0.55534695E+03</rscale>
<asrwt>0</asrwt>
<pdfrwt beam="1">  1       21 0.90241242E-01 0.10030551E+04</pdfrwt>
<pdfrwt beam="2">  1        4 0.90728888E-01 0.10030551E+04</pdfrwt>
<totfact> 0.41199085E+01</totfact>
</mgrwt>
</event>
<event>
 6    1  0.1431486E-005  0.1114700E+04  0.7818608E-02  0.9440019E-01
         21   -1    0    0  501  502  0.00000000000E+00  0.00000000000E+00  0.50637365195E+03  0.50637365195E+03  0.00000000000E+00 0.  1.
          4   -1    0    0  502    0 -0.00000000000E+00 -0.00000000000E+00 -0.12150115405E+04  0.12150115405E+04  0.00000000000E+00 0.  1.
    9000010    2    1    2  501    0  0.41985603010E+03  0.16199867602E+03 -0.44819776532E+03  0.12014316118E+04  0.10198205842E+04 0.  0.
        -13    1    3    3    0    0 -0.12716200936E+03 -0.12468189229E+03 -0.54765806999E+03  0.57588638088E+03  0.10566000000E+00 0.  1.
          4    1    3    3  501    0  0.54701803947E+03  0.28668056832E+03  0.99460304671E+02  0.62554523095E+03  0.00000000000E+00 0.  1.
         13    1    1    2    0    0 -0.41985603010E+03 -0.16199867602E+03 -0.26044012320E+03  0.51995358061E+03  0.10566000000E+00 0. -1.
<mgrwt>
<rscale>  1 0.88854164E+03</rscale>
<asrwt>0</asrwt>
<pdfrwt beam="1">  1       21 0.77903640E-01 0.11147003E+04</pdfrwt>
<pdfrwt beam="2">  1        4 0.18692485E+00 0.11147003E+04</pdfrwt>
<totfact> 0.88292103E+00</totfact>
</mgrwt>
</event>
<event>
 6    1  0.1431486E-005  0.1000049E+04  0.7818608E-02  0.9887466E-01
          4   -1    0    0  502    0 -0.00000000000E+00  0.00000000000E+00  0.14261010317E+04  0.14261010317E+04  0.00000000000E+00 0.  1.
         21   -1    0    0  501  502  0.00000000000E+00 -0.00000000000E+00 -0.24425789055E+03  0.24425789055E+03  0.00000000000E+00 0.  1.
    9000010    2    1    2  501    0 -0.13723326675E+03 -0.37725423887E+01  0.85451330290E+03  0.13154053538E+04  0.99058117203E+03 0.  0.
        -13    1    3    3    0    0  0.22491908568E+03 -0.30826691398E+03  0.73381287824E+03  0.82710243428E+03  0.10566000000E+00 0.  1.
          4    1    3    3  501    0 -0.36215235243E+03  0.30449437159E+03  0.12070042466E+03  0.48830291952E+03  0.00000000000E+00 0.  1.
         13    1    1    2    0    0  0.13723326675E+03  0.37725423887E+01  0.32732983822E+03  0.35495356842E+03  0.10566000000E+00 0. -1.
<mgrwt>
<rscale>  1 0.60872606E+03</rscale>
<asrwt>0</asrwt>
<pdfrwt beam="2">  1       21 0.37578138E-01 0.10000491E+04</pdfrwt>
<pdfrwt beam="1">  1        4 0.21940015E+00 0.10000491E+04</pdfrwt>
<totfact> 0.27091980E+01</totfact>
</mgrwt>
</event>
<event>
 6    1  0.1431486E-005  0.1049924E+04  0.7818608E-02  0.9638018E-01
          4   -1    0    0  502    0 -0.00000000000E+00  0.00000000000E+00  0.38106933733E+03  0.38106933733E+03  0.00000000000E+00 0.  1.
         21   -1    0    0  501  502  0.00000000000E+00 -0.00000000000E+00 -0.11575724816E+04  0.11575724816E+04  0.00000000000E+00 0.  1.
    9000010    2    1    2  501    0  0.10493186103E+03  0.24976967074E+03 -0.68074198649E+03  0.12512991761E+04  0.10143689625E+04 0.  0.
        -13    1    3    3    0    0 -0.26630051237E+03  0.37962945623E+03 -0.71962400892E+03  0.85609182469E+03  0.10566000000E+00 0.  1.
          4    1    3    3  501    0  0.37123237340E+03 -0.12985978548E+03  0.38882022430E+02  0.39520735142E+03  0.00000000000E+00 0.  1.
         13    1    1    2    0    0 -0.10493186103E+03 -0.24976967074E+03 -0.95761157783E+02  0.28734264283E+03  0.10566000000E+00 0. -1.
<mgrwt>
<rscale>  1 0.74830231E+03</rscale>
<asrwt>0</asrwt>
<pdfrwt beam="2">  1       21 0.17808807E+00 0.10499238E+04</pdfrwt>
<pdfrwt beam="1">  1        4 0.58626053E-01 0.10499238E+04</pdfrwt>
<totfact> 0.18018907E+01</totfact>
</mgrwt>
</event>
<event>
 6    1  0.1431486E-005  0.1015220E+04  0.7818608E-02  0.9818615E-01
         21   -1    0    0  501  502  0.00000000000E+00  0.00000000000E+00  0.81185937345E+03  0.81185937345E+03  0.00000000000E+00 0.  1.
          4   -1    0    0  502    0 -0.00000000000E+00 -0.00000000000E+00 -0.47019324324E+03  0.47019324324E+03  0.00000000000E+00 0.  1.
    9000010    2    1    2  501    0 -0.16247475088E+03 -0.23110493108E+02  0.42187919500E+03  0.10993882072E+04  0.10018683723E+04 0.  0.
        -13    1    3    3    0    0  0.34606486422E+03 -0.27668322398E+03  0.13730244964E+03  0.46386039982E+03  0.10566000000E+00 0.  1.
          4    1    3    3  501    0 -0.50853961509E+03  0.25357273087E+03  0.28457674536E+03  0.63552780739E+03  0.00000000000E+00 0.  1.
         13    1    1    2    0    0  0.16247475088E+03  0.23110493108E+02 -0.80213064798E+02  0.18266440949E+03  0.10566000000E+00 0. -1.
<mgrwt>
<rscale>  1 0.64373055E+03</rscale>
<asrwt>0</asrwt>
<pdfrwt beam="1">  1       21 0.12490144E+00 0.10152204E+04</pdfrwt>
<pdfrwt beam="2">  1        4 0.72337422E-01 0.10152204E+04</pdfrwt>
<totfact> 0.30610981E+01</totfact>
</mgrwt>
</event>
<event>
 6    1  0.1431486E-005  0.1114727E+04  0.7818608E-02  0.9413458E-01
          4   -1    0    0  502    0 -0.00000000000E+00  0.00000000000E+00  0.12686659224E+04  0.12686659224E+04  0.00000000000E+00 0.  1.
         21   -1    0    0  501  502  0.00000000000E+00 -0.00000000000E+00 -0.51598260755E+03  0.51598260755E+03  0.00000000000E+00 0. -1.
    9000010    2    1    2  501    0 -0.48207063292E+03  0.11038958461E+03  0.43354537843E+03  0.11960680434E+04  0.99901912586E+03 0.  0.
        -13    1    3    3    0    0 -0.53415903968E+03  0.23719307405E+03 -0.14444878343E+03  0.60203977962E+03  0.10566000000E+00 0.  1.
          4    1    3    3  501    0  0.52088406762E+02 -0.12680348944E+03  0.57799416186E+03  0.59402826380E+03  0.00000000000E+00 0.  1.
         13    1    1    2    0    0  0.48207063292E+03 -0.11038958461E+03  0.31913793645E+03  0.58858048656E+03  0.10566000000E+00 0. -1.
<mgrwt>
<rscale>  1 0.90976384E+03</rscale>
<asrwt>0</asrwt>
<pdfrwt beam="2">  1       21 0.79381940E-01 0.11147274E+04</pdfrwt>
<pdfrwt beam="1">  1        4 0.19517937E+00 0.11147274E+04</pdfrwt>
<totfact> 0.74262199E+00</totfact>
</mgrwt>
</event>
<event>
 6    1  0.1431486E-005  0.1036156E+04  0.7818608E-02  0.9640782E-01
          4   -1    0    0  502    0 -0.00000000000E+00  0.00000000000E+00  0.19585998815E+03  0.19585998815E+03  0.00000000000E+00 0.  1.
         21   -1    0    0  501  502  0.00000000000E+00 -0.00000000000E+00 -0.22384166149E+04  0.22384166149E+04  0.00000000000E+00 0.  1.
    9000010    2    1    2  501    0  0.25367110193E+03  0.11669671423E+03 -0.17165670965E+04  0.20050489991E+04  0.99782350172E+03 0.  0.
        -13    1    3    3    0    0  0.62019724387E+03 -0.70191681884E+01 -0.12759569856E+04  0.14187177768E+04  0.10566000000E+00 0.  1.
          4    1    3    3  501    0 -0.36652614194E+03  0.12371588242E+03 -0.44061011099E+03  0.58633122226E+03  0.00000000000E+00 0.  1.
         13    1    1    2    0    0 -0.25367110193E+03 -0.11669671423E+03 -0.32598953023E+03  0.42922760401E+03  0.10566000000E+00 0. -1.
<mgrwt>
<rscale>  1 0.74654806E+03</rscale>
<asrwt>0</asrwt>
<pdfrwt beam="2">  1       21 0.34437180E+00 0.10361558E+04</pdfrwt>
<pdfrwt beam="1">  1        4 0.30132305E-01 0.10361558E+04</pdfrwt>
<totfact> 0.59722471E+00</totfact>
</mgrwt>
</event>
<event>
 6    1  0.1431486E-005  0.1021180E+04  0.7818608E-02  0.9796044E-01
          4   -1    0    0  502    0 -0.00000000000E+00  0.00000000000E+00  0.12902687472E+04  0.12902687472E+04  0.00000000000E+00 0.  1.
         21   -1    0    0  501  502  0.00000000000E+00 -0.00000000000E+00 -0.28950082604E+03  0.28950082604E+03  0.00000000000E+00 0.  1.
    9000010    2    1    2  501    0 -0.17240720124E+03 -0.20667197696E+02  0.71941103889E+03  0.12491442831E+04  0.10063090087E+04 0.  0.
        -13    1    3    3    0    0  0.32410108910E+03  0.28189908203E+03  0.39381589995E+03  0.58275173327E+03  0.10566000000E+00 0.  1.
          4    1    3    3  501    0 -0.49650829034E+03 -0.30256627973E+03  0.32559513894E+03  0.66639254986E+03  0.00000000000E+00 0.  1.
         13    1    1    2    0    0  0.17240720124E+03  0.20667197696E+02  0.28135688231E+03  0.33062529015E+03  0.10566000000E+00 0. -1.
<mgrwt>
<rscale>  1 0.65575292E+03</rscale>
<asrwt>0</asrwt>
<pdfrwt beam="2">  1       21 0.44538589E-01 0.10211803E+04</pdfrwt>
<pdfrwt beam="1">  1        4 0.19850288E+00 0.10211803E+04</pdfrwt>
<totfact> 0.25873909E+01</totfact>
</mgrwt>
</event>
<event>
 6    1  0.1431486E-005  0.1120034E+04  0.7818608E-02  0.9384106E-01
         21   -1    0    0  501  502  0.00000000000E+00  0.00000000000E+00  0.93742440901E+03  0.93742440901E+03  0.00000000000E+00 0. -1.
          4   -1    0    0  502    0 -0.00000000000E+00 -0.00000000000E+00 -0.76673148146E+03  0.76673148146E+03  0.00000000000E+00 0.  1.
    9000010    2    1    2  501    0 -0.11496748188E+03  0.52916379530E+03 -0.45808757552E+02  0.11209708127E+04  0.98043116866E+03 0.  0.
        -13    1    3    3    0    0 -0.87415413280E+01  0.55530576905E+03  0.38546711618E+03  0.67603684848E+03  0.10566000000E+00 0.  1.
          4    1    3    3  501    0 -0.10622594055E+03 -0.26141973757E+02 -0.43127587373E+03  0.44493396420E+03  0.00000000000E+00 0.  1.
         13    1    1    2    0    0  0.11496748188E+03 -0.52916379530E+03  0.21650168510E+03  0.58318507779E+03  0.10566000000E+00 0. -1.
<mgrwt>
<rscale>  1 0.93395290E+03</rscale>
<asrwt>0</asrwt>
<pdfrwt beam="1">  1       21 0.14421914E+00 0.11200344E+04</pdfrwt>
<pdfrwt beam="2">  1        4 0.11795869E+00 0.11200344E+04</pdfrwt>
<totfact> 0.64439116E+00</totfact>
</mgrwt>
</event>
<event>
 6    1  0.1431486E-005  0.1004068E+04  0.7818608E-02  0.9944589E-01
         21   -1    0    0  501  502  0.00000000000E+00  0.00000000000E+00  0.60878384540E+03  0.60878384540E+03  0.00000000000E+00 0.  1.
          4   -1    0    0  502    0 -0.00000000000E+00 -0.00000000000E+00 -0.68850230666E+03  0.68850230666E+03  0.00000000000E+00 0.  1.
    9000010    2    1    2  501    0  0.30849710136E+02  0.10864660861E+03  0.17449084332E+03  0.10191168297E+04  0.99769547863E+03 0.  0.
        -13    1    3    3    0    0 -0.17898337015E+03  0.48964537612E+03  0.24912834539E+03  0.57779977915E+03  0.10566000000E+00 0.  1.
          4    1    3    3  501    0  0.20983308029E+03 -0.38099876751E+03 -0.74637502063E+02  0.44131705059E+03  0.00000000000E+00 0.  1.
         13    1    1    2    0    0 -0.30849710136E+02 -0.10864660861E+03 -0.25420930459E+03  0.27816932232E+03  0.10566000000E+00 0. -1.
<mgrwt>
<rscale>  1 0.58148127E+03</rscale>
<asrwt>0</asrwt>
<pdfrwt beam="1">  1       21 0.93659053E-01 0.10040678E+04</pdfrwt>
<pdfrwt beam="2">  1        4 0.10592343E+00 0.10040678E+04</pdfrwt>
<totfact> 0.25956531E+01</totfact>
</mgrwt>
</event>
<event>
 6    1  0.1431486E-005  0.9371039E+03  0.7818608E-02  0.9755289E-01
         21   -1    0    0  501  502  0.00000000000E+00  0.00000000000E+00  0.10168168022E+04  0.10168168022E+04  0.00000000000E+00 0. -1.
          4   -1    0    0  502    0 -0.00000000000E+00 -0.00000000000E+00 -0.35691069958E+03  0.35691069958E+03  0.00000000000E+00 0.  1.
    9000010    2    1    2  501    0 -0.13218634759E+03  0.22046038150E+03  0.58989256524E+03  0.11073106914E+04  0.90115909714E+03 0.  0.
        -13    1    3    3    0    0 -0.17123896433E+02 -0.34645366157E+03  0.13826239214E+03  0.37341648021E+03  0.10566000000E+00 0.  1.
          4    1    3    3  501    0 -0.11506245115E+03  0.56691404307E+03  0.45163017309E+03  0.73389421114E+03  0.00000000000E+00 0.  1.
         13    1    1    2    0    0  0.13218634759E+03 -0.22046038150E+03  0.70013537390E+02  0.26641681043E+03  0.10566000000E+00 0. -1.
<mgrwt>
<rscale>  1 0.67818206E+03</rscale>
<asrwt>0</asrwt>
<pdfrwt beam="1">  1       21 0.15643335E+00 0.93710390E+03</pdfrwt>
<pdfrwt beam="2">  1        4 0.54909339E-01 0.93710390E+03</pdfrwt>
<totfact> 0.30647910E+01</totfact>
</mgrwt>
</event>
<event>
 6    1  0.1431486E-005  0.1049788E+04  0.7818608E-02  0.9582172E-01
         21   -1    0    0  501  502  0.00000000000E+00  0.00000000000E+00  0.42470906924E+03  0.42470906924E+03  0.00000000000E+00 0.  1.
          4   -1    0    0  502    0 -0.00000000000E+00 -0.00000000000E+00 -0.11198372310E+04  0.11198372310E+04  0.00000000000E+00 0.  1.
    9000010    2    1    2  501    0 -0.20198773024E+03 -0.25844930492E+03 -0.49879987771E+03  0.11622638227E+04  0.99722654855E+03 0.  0.
        -13    1    3    3    0    0  0.25926195070E+03 -0.11288850353E+02  0.17211888420E+03  0.31139864914E+03  0.10566000000E+00 0.  1.
          4    1    3    3  501    0 -0.46124968094E+03 -0.24716045457E+03 -0.67091876191E+03  0.85086517354E+03  0.00000000000E+00 0.  1.
         13    1    1    2    0    0  0.20198773024E+03  0.25844930492E+03 -0.19632828408E+03  0.38228247759E+03  0.10566000000E+00 0. -1.
<mgrwt>
<rscale>  1 0.78487485E+03</rscale>
<asrwt>0</asrwt>
<pdfrwt beam="1">  1       21 0.65339858E-01 0.10497885E+04</pdfrwt>
<pdfrwt beam="2">  1        4 0.17228265E+00 0.10497885E+04</pdfrwt>
<totfact> 0.16876225E+01</totfact>
</mgrwt>
</event>
<event>
 6    1  0.1431486E-005  0.1138979E+04  0.7818608E-02  0.9363217E-01
         21   -1    0    0  501  502  0.00000000000E+00  0.00000000000E+00  0.11677515847E+04  0.11677515847E+04  0.00000000000E+00 0.  1.
          4   -1    0    0  502    0 -0.00000000000E+00 -0.00000000000E+00 -0.81370068929E+03  0.81370068929E+03  0.00000000000E+00 0.  1.
    9000010    2    1    2  501    0  0.16717317135E+03  0.52933126021E+03  0.69089323541E+03  0.13321440072E+04  0.99455303569E+03 0.  0.
        -13    1    3    3    0    0  0.50410892481E+03 -0.80108701320E+01  0.28516994200E+03  0.57923388117E+03  0.10566000000E+00 0.  1.
          4    1    3    3  501    0 -0.33693575345E+03  0.53734213034E+03  0.40572329341E+03  0.75291012598E+03  0.00000000000E+00 0.  1.
         13    1    1    2    0    0 -0.16717317135E+03 -0.52933126021E+03 -0.33684233997E+03  0.64930826686E+03  0.10566000000E+00 0. -1.
<mgrwt>
<rscale>  1 0.95165636E+03</rscale>
<asrwt>0</asrwt>
<pdfrwt beam="1">  1       21 0.17965409E+00 0.11389795E+04</pdfrwt>
<pdfrwt beam="2">  1        4 0.12518472E+00 0.11389795E+04</pdfrwt>
<totfact> 0.29373757E+00</totfact>
</mgrwt>
</event>
<event>
 6    1  0.1431486E-005  0.1013233E+04  0.7818608E-02  0.1005991E+00
         21   -1    0    0  501  502  0.00000000000E+00  0.00000000000E+00  0.56077297663E+03  0.56077297663E+03  0.00000000000E+00 0.  1.
          4   -1    0    0  502    0 -0.00000000000E+00 -0.00000000000E+00 -0.66924838270E+03  0.66924838270E+03  0.00000000000E+00 0.  1.
    9000010    2    1    2  501    0 -0.12170921146E+02 -0.75449015886E+02  0.90115929288E+02  0.10172322267E+04  0.10103463946E+04 0.  0.
        -13    1    3    3    0    0 -0.43920546362E+03  0.19149266487E+03  0.16780729026E+03  0.50767132852E+03  0.10566000000E+00 0.  1.
          4    1    3    3  501    0  0.42703454247E+03 -0.26694168076E+03 -0.77691360972E+02  0.50956089818E+03  0.00000000000E+00 0.  1.
         13    1    1    2    0    0  0.12170921146E+02  0.75449015886E+02 -0.19859133536E+03  0.21278913262E+03  0.10566000000E+00 0. -1.
<mgrwt>
<rscale>  1 0.53099445E+03</rscale>
<asrwt>0</asrwt>
<pdfrwt beam="1">  1       21 0.86272765E-01 0.10132327E+04</pdfrwt>
<pdfrwt beam="2">  1        4 0.10296129E+00 0.10132327E+04</pdfrwt>
<totfact> 0.33889693E+01</totfact>
</mgrwt>
</event>
<event>
 6    1  0.1431486E-005  0.1039452E+04  0.7818608E-02  0.9700506E-01
          4   -1    0    0  502    0 -0.00000000000E+00  0.00000000000E+00  0.21606406163E+04  0.21606406163E+04  0.00000000000E+00 0.  1.
         21   -1    0    0  501  502  0.00000000000E+00 -0.00000000000E+00 -0.18985636822E+03  0.18985636822E+03  0.00000000000E+00 0.  1.
    9000010    2    1    2  501    0 -0.83000048654E+01  0.22594440302E+03  0.14631597879E+04  0.17947970952E+04  0.10145640859E+04 0.  0.
        -13    1    3    3    0    0 -0.35638123622E+03 -0.24096338639E+03  0.42668237931E+03  0.60591154725E+03  0.10566000000E+00 0.  1.
          4    1    3    3  501    0  0.34808123136E+03  0.46690778941E+03  0.10364774086E+04  0.11888855479E+04  0.00000000000E+00 0.  1.
         13    1    1    2    0    0  0.83000048654E+01 -0.22594440302E+03  0.50762446017E+03  0.55569988939E+03  0.10566000000E+00 0. -1.
<mgrwt>
<rscale>  1 0.70986683E+03</rscale>
<asrwt>0</asrwt>
<pdfrwt beam="2">  1       21 0.29208674E-01 0.10394518E+04</pdfrwt>
<pdfrwt beam="1">  1        4 0.33240623E+00 0.10394518E+04</pdfrwt>
<totfact> 0.89333010E+00</totfact>
</mgrwt>
</event>
<event>
 6    1  0.1431486E-005  0.1027892E+04  0.7818608E-02  0.9710888E-01
          4   -1    0    0  502    0 -0.00000000000E+00  0.00000000000E+00  0.30824241578E+03  0.30824241578E+03  0.00000000000E+00 0.  1.
         21   -1    0    0  501  502  0.00000000000E+00 -0.00000000000E+00 -0.13045512303E+04  0.13045512303E+04  0.00000000000E+00 0.  1.
    9000010    2    1    2  501    0  0.22516891501E+03 -0.17139158214E+02 -0.90391223120E+03  0.13688019848E+04  0.10027795175E+04 0.  0.
        -13    1    3    3    0    0 -0.35491626600E+03  0.14138008240E+03 -0.16509449290E+03  0.41618515870E+03  0.10566000000E+00 0.  1.
          4    1    3    3  501    0  0.58008518102E+03 -0.15851924061E+03 -0.73881773830E+03  0.95261682607E+03  0.00000000000E+00 0.  1.
         13    1    1    2    0    0 -0.22516891501E+03  0.17139158214E+02 -0.92396583367E+02  0.24399166136E+03  0.10566000000E+00 0. -1.
<mgrwt>
<rscale>  1 0.70372226E+03</rscale>
<asrwt>0</asrwt>
<pdfrwt beam="2">  1       21 0.20070019E+00 0.10278918E+04</pdfrwt>
<pdfrwt beam="1">  1        4 0.47421911E-01 0.10278918E+04</pdfrwt>
<totfact> 0.19639216E+01</totfact>
</mgrwt>
</event>
<event>
 6    1  0.1431486E-005  0.1128007E+04  0.7818608E-02  0.9507710E-01
          4   -1    0    0  502    0 -0.00000000000E+00  0.00000000000E+00  0.53708790667E+03  0.53708790667E+03  0.00000000000E+00 0.  1.
         21   -1    0    0  501  502  0.00000000000E+00 -0.00000000000E+00 -0.10395013144E+04  0.10395013144E+04  0.00000000000E+00 0.  1.
    9000010    2    1    2  501    0 -0.33830462348E+03  0.51772708102E+02 -0.26111324516E+03  0.11578336704E+04  0.10748340570E+04 0.  0.
        -13    1    3    3    0    0 -0.34775775619E+03  0.46995483877E+03 -0.40974613215E+03  0.71392220266E+03  0.10566000000E+00 0.  1.
          4    1    3    3  501    0  0.94531327107E+01 -0.41818213067E+03  0.14863288699E+03  0.44391146778E+03  0.00000000000E+00 0.  1.
         13    1    1    2    0    0  0.33830462348E+03 -0.51772708102E+02 -0.24130016262E+03  0.41875555067E+03  0.10566000000E+00 0. -1.
<mgrwt>
<rscale>  1 0.83717737E+03</rscale>
<asrwt>0</asrwt>
<pdfrwt beam="2">  1       21 0.15992328E+00 0.11280065E+04</pdfrwt>
<pdfrwt beam="1">  1        4 0.82628910E-01 0.11280065E+04</pdfrwt>
<totfact> 0.11347529E+01</totfact>
</mgrwt>
</event>
<event>
 6    1  0.1431486E-005  0.1037001E+04  0.7818608E-02  0.9631548E-01
         21   -1    0    0  501  502  0.00000000000E+00  0.00000000000E+00  0.21840476105E+04  0.21840476105E+04  0.00000000000E+00 0.  1.
          4   -1    0    0  502    0 -0.00000000000E+00 -0.00000000000E+00 -0.24360635783E+03  0.24360635783E+03  0.00000000000E+00 0.  1.
    9000010    2    1    2  501    0  0.15902326740E+03 -0.23942494104E+03  0.18594002407E+04  0.21290231616E+04  0.99637225245E+03 0.  0.
        -13    1    3    3    0    0  0.53115688235E+03 -0.22752649528E+03  0.68054850356E+03  0.89277220868E+03  0.10566000000E+00 0.  1.
          4    1    3    3  501    0 -0.37213361495E+03 -0.11898445760E+02  0.11788517372E+04  0.12362509529E+04  0.00000000000E+00 0.  1.
         13    1    1    2    0    0 -0.15902326740E+03  0.23942494104E+03  0.81041011999E+02  0.29863080678E+03  0.10566000000E+00 0. -1.
<mgrwt>
<rscale>  1 0.75242832E+03</rscale>
<asrwt>0</asrwt>
<pdfrwt beam="1">  1       21 0.33600731E+00 0.10370007E+04</pdfrwt>
<pdfrwt beam="2">  1        4 0.37477903E-01 0.10370007E+04</pdfrwt>
<totfact> 0.43674909E+00</totfact>
</mgrwt>
</event>
<event>
 6    1  0.1431486E-005  0.1035068E+04  0.7818608E-02  0.9626219E-01
         21   -1    0    0  501  502  0.00000000000E+00  0.00000000000E+00  0.26169148121E+04  0.26169148121E+04  0.00000000000E+00 0.  1.
          4   -1    0    0  502    0 -0.00000000000E+00 -0.00000000000E+00 -0.32253718566E+03  0.32253718566E+03  0.00000000000E+00 0.  1.
    9000010    2    1    2  501    0 -0.73977075175E+02  0.28488014751E+03  0.24102755565E+04  0.26231267736E+04  0.99233890679E+03 0.  0.
        -13    1    3    3    0    0  0.31514776570E+02  0.99397969118E+02  0.24074684740E+04  0.24097256279E+04  0.10566000000E+00 0.  1.
          4    1    3    3  501    0 -0.10549185174E+03  0.18548217839E+03  0.28070825735E+01  0.21340114573E+03  0.00000000000E+00 0.  1.
         13    1    1    2    0    0  0.73977075175E+02 -0.28488014751E+03 -0.11589793006E+03  0.31632522418E+03  0.10566000000E+00 0. -1.
<mgrwt>
<rscale>  1 0.75584854E+03</rscale>
<asrwt>0</asrwt>
<pdfrwt beam="1">  1       21 0.40260227E+00 0.10350680E+04</pdfrwt>
<pdfrwt beam="2">  1        4 0.49621107E-01 0.10350680E+04</pdfrwt>
<totfact> 0.91565701E-01</totfact>
</mgrwt>
</event>
<event>
 6    1  0.1431486E-005  0.9859948E+03  0.7818608E-02  0.9968024E-01
          4   -1    0    0  502    0 -0.00000000000E+00  0.00000000000E+00  0.53444588135E+03  0.53444588135E+03  0.00000000000E+00 0.  1.
         21   -1    0    0  501  502  0.00000000000E+00 -0.00000000000E+00 -0.77111457642E+03  0.77111457642E+03  0.00000000000E+00 0.  1.
    9000010    2    1    2  501    0 -0.45386839683E+02  0.10096971327E+03 -0.43557782765E+03  0.10779210447E+04  0.97976062707E+03 0.  0.
        -13    1    3    3    0    0  0.15866762375E+03 -0.13260297669E+03  0.25060308622E+03  0.32490134232E+03  0.10566000000E+00 0.  1.
          4    1    3    3  501    0 -0.20405446343E+03  0.23357268996E+03 -0.68618091387E+03  0.75301970234E+03  0.00000000000E+00 0.  1.
         13    1    1    2    0    0  0.45386839683E+02 -0.10096971327E+03  0.19890913258E+03  0.22763941312E+03  0.10566000000E+00 0. -1.
<mgrwt>
<rscale>  1 0.57074814E+03</rscale>
<asrwt>0</asrwt>
<pdfrwt beam="2">  1       21 0.11863301E+00 0.98599479E+03</pdfrwt>
<pdfrwt beam="1">  1        4 0.82222444E-01 0.98599479E+03</pdfrwt>
<totfact> 0.26221351E+01</totfact>
</mgrwt>
</event>
<event>
 6    1  0.1431486E-005  0.1078690E+04  0.7818608E-02  0.9535216E-01
          4   -1    0    0  502    0 -0.00000000000E+00  0.00000000000E+00  0.65331180454E+03  0.65331180454E+03  0.00000000000E+00 0.  1.
         21   -1    0    0  501  502  0.00000000000E+00 -0.00000000000E+00 -0.10411441896E+04  0.10411441896E+04  0.00000000000E+00 0.  1.
    9000010    2    1    2  501    0  0.34016593458E+03 -0.10366224858E+03 -0.64388919818E+03  0.12562507596E+04  0.10183879156E+04 0.  0.
        -13    1    3    3    0    0 -0.30994860406E+03  0.17458968470E+03 -0.31984544421E+03  0.47838354330E+03  0.10566000000E+00 0.  1.
          4    1    3    3  501    0  0.65011453864E+03 -0.27825193328E+03 -0.32404375397E+03  0.77786721631E+03  0.00000000000E+00 0.  1.
         13    1    1    2    0    0 -0.34016593458E+03  0.10366224858E+03  0.25605681313E+03  0.43820523450E+03  0.10566000000E+00 0. -1.
<mgrwt>
<rscale>  1 0.81736525E+03</rscale>
<asrwt>0</asrwt>
<pdfrwt beam="2">  1       21 0.16017603E+00 0.10786903E+04</pdfrwt>
<pdfrwt beam="1">  1        4 0.10050951E+00 0.10786903E+04</pdfrwt>
<totfact> 0.71488949E+00</totfact>
</mgrwt>
</event>
<event>
 6    1  0.1431486E-005  0.9950064E+03  0.7818608E-02  0.1040955E+00
          4   -1    0    0  502    0 -0.00000000000E+00  0.00000000000E+00  0.30921799467E+03  0.30921799467E+03  0.00000000000E+00 0.  1.
         21   -1    0    0  501  502  0.00000000000E+00 -0.00000000000E+00 -0.94105496085E+03  0.94105496085E+03  0.00000000000E+00 0.  1.
    9000010    2    1    2  501    0  0.66831182420E+01 -0.27398954243E+02 -0.67237803375E+03  0.12008871672E+04  0.99460665660E+03 0.  0.
        -13    1    3    3    0    0  0.25668394798E+03  0.28531492673E+03  0.37787789121E+02  0.38564126431E+03  0.10566000000E+00 0.  1.
          4    1    3    3  501    0 -0.25000082974E+03 -0.31271388098E+03 -0.71016582287E+03  0.81524590290E+03  0.00000000000E+00 0.  1.
         13    1    1    2    0    0 -0.66831182420E+01  0.27398954243E+02  0.40541067571E+02  0.49385788309E+02  0.10566000000E+00 0. -1.
<mgrwt>
<rscale>  1 0.40826402E+03</rscale>
<asrwt>0</asrwt>
<pdfrwt beam="2">  1       21 0.14477769E+00 0.99500642E+03</pdfrwt>
<pdfrwt beam="1">  1        4 0.47571999E-01 0.99500642E+03</pdfrwt>
<totfact> 0.51223100E+01</totfact>
</mgrwt>
</event>
<event>
 6    1  0.1431486E-005  0.1143682E+04  0.7818608E-02  0.9449681E-01
          4   -1    0    0  502    0 -0.00000000000E+00  0.00000000000E+00  0.28362196298E+03  0.28362196298E+03  0.00000000000E+00 0.  1.
         21   -1    0    0  501  502  0.00000000000E+00 -0.00000000000E+00 -0.21862323969E+04  0.21862323969E+04  0.00000000000E+00 0. -1.
    9000010    2    1    2  501    0 -0.25091266210E+03 -0.31492601646E+03 -0.11842952784E+04  0.16463786567E+04  0.10704540229E+04 0.  0.
        -13    1    3    3    0    0  0.39186236429E+03  0.30148740802E+01 -0.62178660078E+03  0.73497196551E+03  0.10566000000E+00 0.  1.
          4    1    3    3  501    0 -0.64277502639E+03 -0.31794089054E+03 -0.56250867762E+03  0.91140669123E+03  0.00000000000E+00 0.  1.
         13    1    1    2    0    0  0.25091266210E+03  0.31492601646E+03 -0.71831515556E+03  0.82347570317E+03  0.10566000000E+00 0. -1.
<mgrwt>
<rscale>  1 0.88097516E+03</rscale>
<asrwt>0</asrwt>
<pdfrwt beam="2">  1       21 0.33634344E+00 0.11436815E+04</pdfrwt>
<pdfrwt beam="1">  1        4 0.43634149E-01 0.11436815E+04</pdfrwt>
<totfact> 0.31257913E+00</totfact>
</mgrwt>
</event>
<event>
 6    1  0.1431486E-005  0.9931388E+03  0.7818608E-02  0.9962948E-01
         21   -1    0    0  501  502  0.00000000000E+00  0.00000000000E+00  0.24629229574E+04  0.24629229574E+04  0.00000000000E+00 0.  1.
          4   -1    0    0  502    0 -0.00000000000E+00 -0.00000000000E+00 -0.15356339154E+03  0.15356339154E+03  0.00000000000E+00 0.  1.
    9000010    2    1    2  501    0  0.10795344678E+03 -0.21581367606E+02  0.23008840100E+04  0.25060710044E+04  0.98701821150E+03 0.  0.
        -13    1    3    3    0    0  0.23048443040E+02  0.27929291757E+03  0.12331231187E+03  0.30617266690E+03  0.10566000000E+00 0.  1.
          4    1    3    3  501    0  0.84905003738E+02 -0.30087428518E+03  0.21775716981E+04  0.21998983375E+04  0.00000000000E+00 0.  1.
         13    1    1    2    0    0 -0.10795344678E+03  0.21581367606E+02  0.84755559238E+01  0.11041534455E+03  0.10566000000E+00 0. -1.
<mgrwt>
<rscale>  1 0.57305196E+03</rscale>
<asrwt>0</asrwt>
<pdfrwt beam="1">  1       21 0.37891120E+00 0.99313879E+03</pdfrwt>
<pdfrwt beam="2">  1        4 0.23625139E-01 0.99313879E+03</pdfrwt>
<totfact> 0.58016058E+00</totfact>
</mgrwt>
</event>
<event>
 6    1  0.1431486E-005  0.1028458E+04  0.7818608E-02  0.9519606E-01
          4   -1    0    0  502    0 -0.00000000000E+00  0.00000000000E+00  0.79604534742E+03  0.79604534742E+03  0.00000000000E+00 0.  1.
         21   -1    0    0  501  502  0.00000000000E+00 -0.00000000000E+00 -0.69522331476E+03  0.69522331476E+03  0.00000000000E+00 0. -1.
    9000010    2    1    2  501    0  0.25896073978E+03 -0.34727562212E+03  0.19790064100E+03  0.10473257719E+04  0.93277306259E+03 0.  0.
        -13    1    3    3    0    0  0.44419153878E+03 -0.55282973334E+03  0.27413872527E+03  0.76031499330E+03  0.10566000000E+00 0.  1.
          4    1    3    3  501    0 -0.18523079900E+03  0.20555411122E+03 -0.76238084262E+02  0.28701077859E+03  0.00000000000E+00 0.  1.
         13    1    1    2    0    0 -0.25896073978E+03  0.34727562212E+03 -0.97078608352E+02  0.44394289028E+03  0.10566000000E+00 0. -1.
<mgrwt>
<rscale>  1 0.82853690E+03</rscale>
<asrwt>0</asrwt>
<pdfrwt beam="2">  1       21 0.10695743E+00 0.10284584E+04</pdfrwt>
<pdfrwt beam="1">  1        4 0.12246852E+00 0.10284584E+04</pdfrwt>
<totfact> 0.12991513E+01</totfact>
</mgrwt>
</event>
<event>
 6    1  0.1431486E-005  0.9957883E+03  0.7818608E-02  0.9891463E-01
         21   -1    0    0  501  502  0.00000000000E+00  0.00000000000E+00  0.19482436988E+04  0.19482436988E+04  0.00000000000E+00 0.  1.
          4   -1    0    0  502    0 -0.00000000000E+00 -0.00000000000E+00 -0.18071022192E+03  0.18071022192E+03  0.00000000000E+00 0.  1.
    9000010    2    1    2  501    0  0.12987486625E+03  0.44461994117E+02  0.17126753419E+04  0.19811236939E+04  0.98628084951E+03 0.  0.
        -13    1    3    3    0    0 -0.29741278439E+03 -0.20219054729E+03  0.25135415747E+03  0.43876452155E+03  0.10566000000E+00 0.  1.
          4    1    3    3  501    0  0.42728765063E+03  0.24665254141E+03  0.14613211844E+04  0.15423591724E+04  0.00000000000E+00 0.  1.
         13    1    1    2    0    0 -0.12987486625E+03 -0.44461994117E+02  0.54858134924E+02  0.14783022673E+03  0.10566000000E+00 0. -1.
<mgrwt>
<rscale>  1 0.60676836E+03</rscale>
<asrwt>0</asrwt>
<pdfrwt beam="1">  1       21 0.29972979E+00 0.99578826E+03</pdfrwt>
<pdfrwt beam="2">  1        4 0.27801574E-01 0.99578826E+03</pdfrwt>
<totfact> 0.13373719E+01</totfact>
</mgrwt>
</event>
<event>
 6    1  0.1431486E-005  0.1000400E+04  0.7818608E-02  0.9791120E-01
          4   -1    0    0  502    0 -0.00000000000E+00  0.00000000000E+00  0.59769740137E+03  0.59769740137E+03  0.00000000000E+00 0.  1.
         21   -1    0    0  501  502  0.00000000000E+00 -0.00000000000E+00 -0.60794129907E+03  0.60794129907E+03  0.00000000000E+00 0.  1.
    9000010    2    1    2  501    0 -0.16145622746E+03  0.95730031132E+02  0.67048720089E+02  0.10026448282E+04  0.98263358805E+03 0.  0.
        -13    1    3    3    0    0 -0.78411736802E+01  0.98928637990E+02  0.51738610685E+03  0.52681757198E+03  0.10566000000E+00 0.  1.
          4    1    3    3  501    0 -0.15361505378E+03 -0.31986068579E+01 -0.45033738676E+03  0.47582725621E+03  0.00000000000E+00 0.  1.
         13    1    1    2    0    0  0.16145622746E+03 -0.95730031132E+02 -0.77292617779E+02  0.20299387226E+03  0.10566000000E+00 0. -1.
<mgrwt>
<rscale>  1 0.65841269E+03</rscale>
<asrwt>0</asrwt>
<pdfrwt beam="2">  1       21 0.93529430E-01 0.10004005E+04</pdfrwt>
<pdfrwt beam="1">  1        4 0.91953447E-01 0.10004005E+04</pdfrwt>
<totfact> 0.36605393E+01</totfact>
</mgrwt>
</event>
<event>
 6    1  0.1431486E-005  0.1046829E+04  0.7818608E-02  0.9688130E-01
         21   -1    0    0  501  502  0.00000000000E+00  0.00000000000E+00  0.54509988998E+03  0.54509988998E+03  0.00000000000E+00 0.  1.
          4   -1    0    0  502    0 -0.00000000000E+00 -0.00000000000E+00 -0.80378676995E+03  0.80378676995E+03  0.00000000000E+00 0.  1.
    9000010    2    1    2  501    0  0.19695722336E+03  0.12020684279E+03 -0.67104268792E+02  0.10489771053E+04  0.10210818536E+04 0.  0.
        -13    1    3    3    0    0  0.21768985134E+03 -0.42252151030E+03 -0.15252517718E+03  0.49917656083E+03  0.10566000000E+00 0.  1.
          4    1    3    3  501    0 -0.20732627977E+02  0.54272835309E+03  0.85420908386E+02  0.54980054447E+03  0.00000000000E+00 0.  1.
         13    1    1    2    0    0 -0.19695722336E+03 -0.12020684279E+03 -0.19158261117E+03  0.29990955463E+03  0.10566000000E+00 0. -1.
<mgrwt>
<rscale>  1 0.71727931E+03</rscale>
<asrwt>0</asrwt>
<pdfrwt beam="1">  1       21 0.83861522E-01 0.10468285E+04</pdfrwt>
<pdfrwt beam="2">  1        4 0.12365950E+00 0.10468285E+04</pdfrwt>
<totfact> 0.22955367E+01</totfact>
</mgrwt>
</event>
<event>
 6    1  0.1431486E-005  0.1138508E+04  0.7818608E-02  0.9379012E-01
         21   -1    0    0  501  502  0.00000000000E+00  0.00000000000E+00  0.46725193011E+03  0.46725193011E+03  0.00000000000E+00 0.  1.
          4   -1    0    0  502    0 -0.00000000000E+00 -0.00000000000E+00 -0.15301239977E+04  0.15301239977E+04  0.00000000000E+00 0.  1.
    9000010    2    1    2  501    0 -0.51366046844E+03 -0.10896106402E+03 -0.88822787278E+03  0.14440042659E+04  0.10101880892E+04 0.  0.
        -13    1    3    3    0    0 -0.30701636644E+03 -0.22800652089E+03 -0.10750601350E+04  0.11410522897E+04  0.10566000000E+00 0.  1.
          4    1    3    3  501    0 -0.20664410200E+03  0.11904545687E+03  0.18683226217E+03  0.30295197619E+03  0.00000000000E+00 0.  1.
         13    1    1    2    0    0  0.51366046844E+03  0.10896106402E+03 -0.17464419482E+03  0.55337166196E+03  0.10566000000E+00 0. -1.
<mgrwt>
<rscale>  1 0.93823248E+03</rscale>
<asrwt>0</asrwt>
<pdfrwt beam="1">  1       21 0.71884912E-01 0.11385076E+04</pdfrwt>
<pdfrwt beam="2">  1        4 0.23540369E+00 0.11385076E+04</pdfrwt>
<totfact> 0.51287738E+00</totfact>
</mgrwt>
</event>
<event>
 6    1  0.1431486E-005  0.1069271E+04  0.7818608E-02  0.9524285E-01
         21   -1    0    0  501  502  0.00000000000E+00  0.00000000000E+00  0.11099914446E+04  0.11099914446E+04  0.00000000000E+00 0.  1.
          4   -1    0    0  502    0 -0.00000000000E+00 -0.00000000000E+00 -0.52210426935E+03  0.52210426935E+03  0.00000000000E+00 0.  1.
    9000010    2    1    2  501    0 -0.36758085490E+03 -0.93284595891E+02  0.64475971658E+03  0.12486218584E+04  0.99976184792E+03 0.  0.
        -13    1    3    3    0    0 -0.62344921817E+03 -0.26101739166E+03  0.19279658007E+03  0.70284389365E+03  0.10566000000E+00 0.  1.
          4    1    3    3  501    0  0.25586836327E+03  0.16773279577E+03  0.45196313651E+03  0.54577796480E+03  0.00000000000E+00 0.  1.
         13    1    1    2    0    0  0.36758085490E+03  0.93284595891E+02 -0.56872541337E+02  0.38347385549E+03  0.10566000000E+00 0. -1.
<mgrwt>
<rscale>  1 0.82516829E+03</rscale>
<asrwt>0</asrwt>
<pdfrwt beam="1">  1       21 0.17076791E+00 0.10692715E+04</pdfrwt>
<pdfrwt beam="2">  1        4 0.80323734E-01 0.10692715E+04</pdfrwt>
<totfact> 0.10077671E+01</totfact>
</mgrwt>
</event>
<event>
 6    1  0.1431486E-005  0.1171045E+04  0.7818608E-02  0.9300065E-01
          4   -1    0    0  502    0 -0.00000000000E+00  0.00000000000E+00  0.90476175757E+03  0.90476175757E+03  0.00000000000E+00 0.  1.
         21   -1    0    0  501  502  0.00000000000E+00 -0.00000000000E+00 -0.94767129285E+03  0.94767129285E+03  0.00000000000E+00 0. -1.
    9000010    2    1    2  501    0 -0.25845074924E+03  0.58798289985E+03 -0.20777229077E+03  0.11893339480E+04  0.97919621874E+03 0.  0.
        -13    1    3    3    0    0 -0.43806147382E+03  0.24684391372E+02  0.18854514389E+03  0.47755256932E+03  0.10566000000E+00 0.  1.
          4    1    3    3  501    0  0.17961072458E+03  0.56329850848E+03 -0.39631743466E+03  0.71178137869E+03  0.00000000000E+00 0.  1.
         13    1    1    2    0    0  0.25845074924E+03 -0.58798289985E+03  0.16486275550E+03  0.66309910241E+03  0.10566000000E+00 0. -1.
<mgrwt>
<rscale>  1 0.10077687E+04</rscale>
<asrwt>0</asrwt>
<pdfrwt beam="2">  1       21 0.14579558E+00 0.11710448E+04</pdfrwt>
<pdfrwt beam="1">  1        4 0.13919412E+00 0.11710448E+04</pdfrwt>
<totfact> 0.40631594E+00</totfact>
</mgrwt>
</event>
<event>
 6    1  0.1431486E-005  0.1125159E+04  0.7818608E-02  0.9399417E-01
          4   -1    0    0  502    0 -0.00000000000E+00  0.00000000000E+00  0.74384761436E+03  0.74384761436E+03  0.00000000000E+00 0.  1.
         21   -1    0    0  501  502  0.00000000000E+00 -0.00000000000E+00 -0.92292431411E+03  0.92292431411E+03  0.00000000000E+00 0. -1.
    9000010    2    1    2  501    0 -0.31596938085E+03 -0.39476202936E+03  0.14742857685E+02  0.11252557778E+04  0.10051415344E+04 0.  0.
        -13    1    3    3    0    0 -0.61196775554E+03 -0.45857584420E+03  0.17234095437E+03  0.78389907158E+03  0.10566000000E+00 0.  1.
          4    1    3    3  501    0  0.29599837469E+03  0.63813814848E+02 -0.15759809668E+03  0.34135670619E+03  0.00000000000E+00 0.  1.
         13    1    1    2    0    0  0.31596938085E+03  0.39476202936E+03 -0.19381955743E+03  0.54151615069E+03  0.10566000000E+00 0. -1.
<mgrwt>
<rscale>  1 0.92123684E+03</rscale>
<asrwt>0</asrwt>
<pdfrwt beam="2">  1       21 0.14198836E+00 0.11251592E+04</pdfrwt>
<pdfrwt beam="1">  1        4 0.11443810E+00 0.11251592E+04</pdfrwt>
<totfact> 0.72494987E+00</totfact>
</mgrwt>
</event>
<event>
 6    1  0.1431486E-005  0.9986301E+03  0.7818608E-02  0.9761054E-01
         21   -1    0    0  501  502  0.00000000000E+00  0.00000000000E+00  0.64787233132E+03  0.64787233132E+03  0.00000000000E+00 0.  1.
          4   -1    0    0  502    0 -0.00000000000E+00 -0.00000000000E+00 -0.63071358312E+03  0.63071358312E+03  0.00000000000E+00 0.  1.
    9000010    2    1    2  501    0 -0.10729694326E+03  0.17864367205E+03  0.17923591236E+03  0.10145874033E+04  0.97664522268E+03 0.  0.
        -13    1    3    3    0    0 -0.36175015760E+03 -0.24529813672E+03 -0.97714972631E+02  0.44786446548E+03  0.10566000000E+00 0.  1.
          4    1    3    3  501    0  0.25445321434E+03  0.42394180877E+03  0.27695088499E+03  0.56672293778E+03  0.00000000000E+00 0.  1.
         13    1    1    2    0    0  0.10729694326E+03 -0.17864367205E+03 -0.16207716416E+03  0.26399851118E+03  0.10566000000E+00 0. -1.
<mgrwt>
<rscale>  1 0.67495136E+03</rscale>
<asrwt>0</asrwt>
<pdfrwt beam="1">  1       21 0.99672666E-01 0.99863010E+03</pdfrwt>
<pdfrwt beam="2">  1        4 0.97032859E-01 0.99863010E+03</pdfrwt>
<totfact> 0.27562782E+01</totfact>
</mgrwt>
</event>
<event>
 6    1  0.1431486E-005  0.7905871E+03  0.7818608E-02  0.1057043E+00
         21   -1    0    0  501  502  0.00000000000E+00  0.00000000000E+00  0.82012223533E+03  0.82012223533E+03  0.00000000000E+00 0.  1.
          4   -1    0    0  502    0 -0.00000000000E+00 -0.00000000000E+00 -0.32990973642E+03  0.32990973642E+03  0.00000000000E+00 0.  1.
    9000010    2    1    2  501    0 -0.35186310677E+02  0.46694459148E+01  0.62679649245E+03  0.10089111773E+04  0.78978987108E+03 0.  0.
        -13    1    3    3    0    0 -0.68424729796E+02  0.13209802210E+03 -0.15573704984E+03  0.21537379354E+03  0.10566000000E+00 0.  1.
          4    1    3    3  501    0  0.33238419119E+02 -0.12742857618E+03  0.78253354229E+03  0.79353738371E+03  0.00000000000E+00 0.  1.
         13    1    1    2    0    0  0.35186310677E+02 -0.46694459148E+01 -0.13658399354E+03  0.14112079450E+03  0.10566000000E+00 0. -1.
<mgrwt>
<rscale>  1 0.36391832E+03</rscale>
<asrwt>0</asrwt>
<pdfrwt beam="1">  1       21 0.12617265E+00 0.79058707E+03</pdfrwt>
<pdfrwt beam="2">  1        4 0.50755344E-01 0.79058707E+03</pdfrwt>
<totfact> 0.65981527E+01</totfact>
</mgrwt>
</event>
<event>
 6    1  0.1431486E-005  0.1029174E+04  0.7818608E-02  0.9685612E-01
          4   -1    0    0  502    0 -0.00000000000E+00  0.00000000000E+00  0.10888940027E+04  0.10888940027E+04  0.00000000000E+00 0.  1.
         21   -1    0    0  501  502  0.00000000000E+00 -0.00000000000E+00 -0.38547056022E+03  0.38547056022E+03  0.00000000000E+00 0.  1.
    9000010    2    1    2  501    0 -0.11885349606E+03 -0.21411032848E+03  0.45413683020E+03  0.11249175533E+04  0.99961485332E+03 0.  0.
        -13    1    3    3    0    0 -0.54718608479E+03  0.66668912318E+01  0.23521557439E+03  0.59563700055E+03  0.10566000000E+00 0.  1.
          4    1    3    3  501    0  0.42833258873E+03 -0.22077721971E+03  0.21892125581E+03  0.52928055279E+03  0.00000000000E+00 0.  1.
         13    1    1    2    0    0  0.11885349606E+03  0.21411032848E+03  0.24928661229E+03  0.34944700960E+03  0.10566000000E+00 0. -1.
<mgrwt>
<rscale>  1 0.71879961E+03</rscale>
<asrwt>0</asrwt>
<pdfrwt beam="2">  1       21 0.59303163E-01 0.10291741E+04</pdfrwt>
<pdfrwt beam="1">  1        4 0.16752215E+00 0.10291741E+04</pdfrwt>
<totfact> 0.22748405E+01</totfact>
</mgrwt>
</event>
<event>
 6    1  0.1431486E-005  0.1039330E+04  0.7818608E-02  0.9627153E-01
         21   -1    0    0  501  502  0.00000000000E+00  0.00000000000E+00  0.20131517671E+03  0.20131517671E+03  0.00000000000E+00 0.  1.
          4   -1    0    0  502    0 -0.00000000000E+00 -0.00000000000E+00 -0.23470829229E+04  0.23470829229E+04  0.00000000000E+00 0.  1.
    9000010    2    1    2  501    0  0.10222778783E+03  0.27117083299E+03 -0.13654296290E+04  0.17159849032E+04  0.99810919992E+03 0.  0.
        -13    1    3    3    0    0 -0.39432562956E+03 -0.78063312450E+02 -0.75349046781E+03  0.85401081909E+03  0.10566000000E+00 0.  1.
          4    1    3    3  501    0  0.49655341739E+03  0.34923414544E+03 -0.61193916120E+03  0.86197408411E+03  0.00000000000E+00 0.  1.
         13    1    1    2    0    0 -0.10222778783E+03 -0.27117083299E+03 -0.78033811721E+03  0.83241319644E+03  0.10566000000E+00 0. -1.
<mgrwt>
<rscale>  1 0.75524812E+03</rscale>
<asrwt>0</asrwt>
<pdfrwt beam="1">  1       21 0.30971567E-01 0.10393296E+04</pdfrwt>
<pdfrwt beam="2">  1        4 0.36108966E+00 0.10393296E+04</pdfrwt>
<totfact> 0.51811235E+00</totfact>
</mgrwt>
</event>
<event>
 6    1  0.1431486E-005  0.1030086E+04  0.7818608E-02  0.9701936E-01
         21   -1    0    0  501  502  0.00000000000E+00  0.00000000000E+00  0.73413697978E+03  0.73413697978E+03  0.00000000000E+00 0.  1.
          4   -1    0    0  502    0 -0.00000000000E+00 -0.00000000000E+00 -0.55132967870E+03  0.55132967870E+03  0.00000000000E+00 0.  1.
    9000010    2    1    2  501    0 -0.18692432015E+03  0.13607690686E+03  0.21424479073E+03  0.10521300926E+04  0.10038024086E+04 0.  0.
        -13    1    3    3    0    0 -0.43155620941E+03  0.44841866581E+03  0.20513363806E+03  0.65528610725E+03  0.10566000000E+00 0.  1.
          4    1    3    3  501    0  0.24463188926E+03 -0.31234175895E+03  0.91111526649E+01  0.39684398538E+03  0.00000000000E+00 0.  1.
         13    1    1    2    0    0  0.18692432015E+03 -0.13607690686E+03 -0.31437489651E+02  0.23333656585E+03  0.10566000000E+00 0. -1.
<mgrwt>
<rscale>  1 0.70901642E+03</rscale>
<asrwt>0</asrwt>
<pdfrwt beam="1">  1       21 0.11294415E+00 0.10300859E+04</pdfrwt>
<pdfrwt beam="2">  1        4 0.84819951E-01 0.10300859E+04</pdfrwt>
<totfact> 0.27550428E+01</totfact>
</mgrwt>
</event>
<event>
 6    1  0.1431486E-005  0.1130904E+04  0.7818608E-02  0.9395237E-01
          4   -1    0    0  502    0 -0.00000000000E+00  0.00000000000E+00  0.72048577056E+03  0.72048577056E+03  0.00000000000E+00 0.  1.
         21   -1    0    0  501  502  0.00000000000E+00 -0.00000000000E+00 -0.97076071824E+03  0.97076071824E+03  0.00000000000E+00 0.  1.
    9000010    2    1    2  501    0  0.49158351315E+03  0.11769855117E+03 -0.33329947790E+03  0.11789961758E+04  0.10116502070E+04 0.  0.
        -13    1    3    3    0    0  0.50000089996E+03 -0.36164013626E+03 -0.43073495639E+02  0.61857887557E+03  0.10566000000E+00 0.  1.
          4    1    3    3  501    0 -0.84173868041E+01  0.47933868742E+03 -0.29022598226E+03  0.56041730027E+03  0.00000000000E+00 0.  1.
         13    1    1    2    0    0 -0.49158351315E+03 -0.11769855117E+03  0.83024530224E+02  0.51225031297E+03  0.10566000000E+00 0. -1.
<mgrwt>
<rscale>  1 0.92468682E+03</rscale>
<asrwt>0</asrwt>
<pdfrwt beam="2">  1       21 0.14934780E+00 0.11309038E+04</pdfrwt>
<pdfrwt beam="1">  1        4 0.11084396E+00 0.11309038E+04</pdfrwt>
<totfact> 0.68164711E+00</totfact>
</mgrwt>
</event>
<event>
 6    1  0.1431486E-005  0.1326417E+04  0.7818608E-02  0.9128043E-01
          4   -1    0    0  502    0 -0.00000000000E+00  0.00000000000E+00  0.23913803077E+04  0.23913803077E+04  0.00000000000E+00 0.  1.
         21   -1    0    0  501  502  0.00000000000E+00 -0.00000000000E+00 -0.13352261805E+04  0.13352261805E+04  0.00000000000E+00 0. -1.
    9000010    2    1    2  501    0  0.68906960513E+03 -0.47813466074E+03  0.20403002346E+04  0.24335584434E+04  0.10275952390E+04 0.  0.
        -13    1    3    3    0    0  0.27247794962E+03 -0.55749152529E+03  0.18807254325E+04  0.19804467167E+04  0.10566000000E+00 0.  1.
          4    1    3    3  501    0  0.41659165551E+03  0.79356864555E+02  0.15957480208E+03  0.45311172668E+03  0.00000000000E+00 0.  1.
         13    1    1    2    0    0 -0.68906960513E+03  0.47813466074E+03 -0.98414610737E+03  0.12930480449E+04  0.10566000000E+00 0. -1.
<mgrwt>
<rscale>  1 0.11828037E+04</rscale>
<asrwt>0</asrwt>
<pdfrwt beam="2">  1       21 0.20541941E+00 0.13264168E+04</pdfrwt>
<pdfrwt beam="1">  1        4 0.36790466E+00 0.13264168E+04</pdfrwt>
<totfact> 0.44043651E-02</totfact>
</mgrwt>
</event>
<event>
 6    1  0.1431486E-005  0.9776301E+03  0.7818608E-02  0.1057590E+00
         21   -1    0    0  501  502  0.00000000000E+00  0.00000000000E+00  0.24324881944E+04  0.24324881944E+04  0.00000000000E+00 0.  1.
          4   -1    0    0  502    0 -0.00000000000E+00 -0.00000000000E+00 -0.16487684882E+03  0.16487684882E+03  0.00000000000E+00 0.  1.
    9000010    2    1    2  501    0  0.61072892572E+01  0.17446394658E+02  0.23329249863E+04  0.25294860442E+04  0.97745535996E+03 0.  0.
        -13    1    3    3    0    0 -0.44835091561E+03 -0.15800303874E+03  0.93119633410E+03  0.10455190709E+04  0.10566000000E+00 0.  1.
          4    1    3    3  501    0  0.45445820487E+03  0.17544943340E+03  0.14017286522E+04  0.14839669734E+04  0.00000000000E+00 0.  1.
         13    1    1    2    0    0 -0.61072892572E+01 -0.17446394658E+02 -0.65313640735E+02  0.67878998952E+02  0.10566000000E+00 0. -1.
<mgrwt>
<rscale>  1 0.36252208E+03</rscale>
<asrwt>0</asrwt>
<pdfrwt beam="1">  1       21 0.37422893E+00 0.97763012E+03</pdfrwt>
<pdfrwt beam="2">  1        4 0.25365671E-01 0.97763012E+03</pdfrwt>
<totfact> 0.54471764E+00</totfact>
</mgrwt>
</event>
<event>
 6    1  0.1431486E-005  0.9961289E+03  0.7818608E-02  0.1029481E+00
          4   -1    0    0  502    0 -0.00000000000E+00  0.00000000000E+00  0.28573263816E+03  0.28573263816E+03  0.00000000000E+00 0.  1.
         21   -1    0    0  501  502  0.00000000000E+00 -0.00000000000E+00 -0.11003069189E+04  0.11003069189E+04  0.00000000000E+00 0.  1.
    9000010    2    1    2  501    0  0.33718225681E+02  0.20324807600E+02 -0.86692122729E+03  0.13205397057E+04  0.99535053293E+03 0.  0.
        -13    1    3    3    0    0  0.13667405411E+03 -0.47283336792E+03 -0.43979900521E+03  0.66005633626E+03  0.10566000000E+00 0.  1.
          4    1    3    3  501    0 -0.10295582843E+03  0.49315817552E+03 -0.42712222208E+03  0.66048336942E+03  0.00000000000E+00 0.  1.
         13    1    1    2    0    0 -0.33718225681E+02 -0.20324807600E+02  0.52346946580E+02  0.65499851353E+02  0.10566000000E+00 0. -1.
<mgrwt>
<rscale>  1 0.44414939E+03</rscale>
<asrwt>0</asrwt>
<pdfrwt beam="2">  1       21 0.16927799E+00 0.99612886E+03</pdfrwt>
<pdfrwt beam="1">  1        4 0.43958867E-01 0.99612886E+03</pdfrwt>
<totfact> 0.38755380E+01</totfact>
</mgrwt>
</event>
<event>
 6    1  0.1431486E-005  0.1038239E+04  0.7818608E-02  0.9610902E-01
         21   -1    0    0  501  502  0.00000000000E+00  0.00000000000E+00  0.55408916996E+03  0.55408916996E+03  0.00000000000E+00 0.  1.
          4   -1    0    0  502    0 -0.00000000000E+00 -0.00000000000E+00 -0.88865844954E+03  0.88865844954E+03  0.00000000000E+00 0.  1.
    9000010    2    1    2  501    0 -0.19964267161E+03  0.23359589126E+03 -0.75770595690E+02  0.10410001781E+04  0.99172372708E+03 0.  0.
        -13    1    3    3    0    0  0.23196950143E+03  0.21288037691E+03 -0.39400717788E+03  0.50435064375E+03  0.10566000000E+00 0.  1.
          4    1    3    3  501    0 -0.43161217304E+03  0.20715514350E+02  0.31823658219E+03  0.53664953433E+03  0.00000000000E+00 0.  1.
         13    1    1    2    0    0  0.19964267161E+03 -0.23359589126E+03 -0.25879868389E+03  0.40174744142E+03  0.10566000000E+00 0. -1.
<mgrwt>
<rscale>  1 0.76578780E+03</rscale>
<asrwt>0</asrwt>
<pdfrwt beam="1">  1       21 0.85244488E-01 0.10382390E+04</pdfrwt>
<pdfrwt beam="2">  1        4 0.13671668E+00 0.10382390E+04</pdfrwt>
<totfact> 0.17070938E+01</totfact>
</mgrwt>
</event>
<event>
 6    1  0.1431486E-005  0.1035743E+04  0.7818608E-02  0.9782858E-01
          4   -1    0    0  502    0 -0.00000000000E+00  0.00000000000E+00  0.27520356636E+03  0.27520356636E+03  0.00000000000E+00 0.  1.
         21   -1    0    0  501  502  0.00000000000E+00 -0.00000000000E+00 -0.20435417546E+04  0.20435417546E+04  0.00000000000E+00 0.  1.
    9000010    2    1    2  501    0  0.17374166307E+03  0.45506121347E+01 -0.18549760082E+04  0.21245469776E+04  0.10210568033E+04 0.  0.
        -13    1    3    3    0    0  0.48035892793E+03  0.30805784281E+03 -0.13142893283E+04  0.14328296423E+04  0.10566000000E+00 0.  1.
          4    1    3    3  501    0 -0.30661726486E+03 -0.30350723067E+03 -0.54068667990E+03  0.69171733533E+03  0.00000000000E+00 0.  1.
         13    1    1    2    0    0 -0.17374166307E+03 -0.45506121347E+01  0.86637819932E+02  0.19419834336E+03  0.10566000000E+00 0. -1.
<mgrwt>
<rscale>  1 0.66290653E+03</rscale>
<asrwt>0</asrwt>
<pdfrwt beam="2">  1       21 0.31439103E+00 0.10357431E+04</pdfrwt>
<pdfrwt beam="1">  1        4 0.42339011E-01 0.10357431E+04</pdfrwt>
<totfact> 0.46506120E+00</totfact>
</mgrwt>
</event>
<event>
 6    1  0.1431486E-005  0.1021624E+04  0.7818608E-02  0.9720017E-01
          4   -1    0    0  502    0 -0.00000000000E+00  0.00000000000E+00  0.10079721383E+04  0.10079721383E+04  0.00000000000E+00 0.  1.
         21   -1    0    0  501  502  0.00000000000E+00 -0.00000000000E+00 -0.38475348233E+03  0.38475348233E+03  0.00000000000E+00 0.  1.
    9000010    2    1    2  501    0  0.11958902346E+02 -0.22276846260E+03  0.49221352437E+03  0.11340150508E+04  0.99696899579E+03 0.  0.
        -13    1    3    3    0    0  0.42498310623E+03 -0.17423240462E+03  0.54732227892E+03  0.71451330258E+03  0.10566000000E+00 0.  1.
          4    1    3    3  501    0 -0.41302420389E+03 -0.48536057977E+02 -0.55108754550E+02  0.41950174820E+03  0.00000000000E+00 0.  1.
         13    1    1    2    0    0 -0.11958902346E+02  0.22276846260E+03  0.13100513160E+03  0.25871056983E+03  0.10566000000E+00 0. -1.
<mgrwt>
<rscale>  1 0.69837396E+03</rscale>
<asrwt>0</asrwt>
<pdfrwt beam="2">  1       21 0.59192844E-01 0.10216242E+04</pdfrwt>
<pdfrwt beam="1">  1        4 0.15507264E+00 0.10216242E+04</pdfrwt>
<totfact> 0.28296851E+01</totfact>
</mgrwt>
</event>
<event>
 6    1  0.1431486E-005  0.1037126E+04  0.7818608E-02  0.9731926E-01
         21   -1    0    0  501  502  0.00000000000E+00  0.00000000000E+00  0.76235913264E+03  0.76235913264E+03  0.00000000000E+00 0.  1.
          4   -1    0    0  502    0 -0.00000000000E+00 -0.00000000000E+00 -0.53354247078E+03  0.53354247078E+03  0.00000000000E+00 0.  1.
    9000010    2    1    2  501    0  0.20084646567E+03  0.40711080728E+02  0.29886635814E+03  0.10793290613E+04  0.10166776420E+04 0.  0.
        -13    1    3    3    0    0 -0.24948500517E+03 -0.30718672512E+03  0.32141952964E+03  0.50982053420E+03  0.10566000000E+00 0.  1.
          4    1    3    3  501    0  0.45033147084E+03  0.34789780585E+03 -0.22553171501E+02  0.56950852714E+03  0.00000000000E+00 0.  1.
         13    1    1    2    0    0 -0.20084646567E+03 -0.40711080728E+02 -0.70049696282E+02  0.21657254207E+03  0.10566000000E+00 0. -1.
<mgrwt>
<rscale>  1 0.69147345E+03</rscale>
<asrwt>0</asrwt>
<pdfrwt beam="1">  1       21 0.11728602E+00 0.10371259E+04</pdfrwt>
<pdfrwt beam="2">  1        4 0.82083457E-01 0.10371259E+04</pdfrwt>
<totfact> 0.26975303E+01</totfact>
</mgrwt>
</event>
<event>
 6    1  0.1431486E-005  0.9798442E+03  0.7818608E-02  0.1014526E+00
          4   -1    0    0  502    0 -0.00000000000E+00  0.00000000000E+00  0.15302601255E+03  0.15302601255E+03  0.00000000000E+00 0.  1.
         21   -1    0    0  501  502  0.00000000000E+00 -0.00000000000E+00 -0.18077540427E+04  0.18077540427E+04  0.00000000000E+00 0.  1.
    9000010    2    1    2  501    0  0.59220938090E+02  0.26634347531E+02 -0.14858070573E+04  0.17798081949E+04  0.97769018170E+03 0.  0.
        -13    1    3    3    0    0 -0.32900870536E+02  0.51546376041E+02  0.13917985361E+03  0.15202150828E+03  0.10566000000E+00 0.  1.
          4    1    3    3  501    0  0.92121808627E+02 -0.24912028510E+02 -0.16249869109E+04  0.16277866867E+04  0.00000000000E+00 0.  1.
         13    1    1    2    0    0 -0.59220938090E+02 -0.26634347531E+02 -0.16892097287E+03  0.18097186029E+03  0.10566000000E+00 0. -1.
<mgrwt>
<rscale>  1 0.49714958E+03</rscale>
<asrwt>0</asrwt>
<pdfrwt beam="2">  1       21 0.27811601E+00 0.97984417E+03</pdfrwt>
<pdfrwt beam="1">  1        4 0.23542463E-01 0.97984417E+03</pdfrwt>
<totfact> 0.25134596E+01</totfact>
</mgrwt>
</event>
<event>
 6    1  0.1431486E-005  0.1315163E+04  0.7818608E-02  0.9140319E-01
         21   -1    0    0  501  502  0.00000000000E+00  0.00000000000E+00  0.55118421763E+03  0.55118421763E+03  0.00000000000E+00 0. -1.
          4   -1    0    0  502    0 -0.00000000000E+00 -0.00000000000E+00 -0.23253913711E+04  0.23253913711E+04  0.00000000000E+00 0.  1.
    9000010    2    1    2  501    0 -0.18167933860E+03  0.80095803360E+03 -0.60477897390E+03  0.14475537442E+04  0.10271869750E+04 0.  0.
        -13    1    3    3    0    0  0.12295419066E+03 -0.19568773775E+03 -0.26450305270E+03  0.35124535550E+03  0.10566000000E+00 0.  1.
          4    1    3    3  501    0 -0.30463352926E+03  0.99664577135E+03 -0.34027592120E+03  0.10963083888E+04  0.00000000000E+00 0.  1.
         13    1    1    2    0    0  0.18167933860E+03 -0.80095803360E+03 -0.11694281795E+04  0.14290218445E+04  0.10566000000E+00 0. -1.
<mgrwt>
<rscale>  1 0.11691246E+04</rscale>
<asrwt>0</asrwt>
<pdfrwt beam="1">  1       21 0.84797572E-01 0.13151632E+04</pdfrwt>
<pdfrwt beam="2">  1        4 0.35775252E+00 0.13151632E+04</pdfrwt>
<totfact> 0.57808150E-01</totfact>
</mgrwt>
</event>
<event>
 6    1  0.1431486E-005  0.1209641E+04  0.7818608E-02  0.9482838E-01
         21   -1    0    0  501  502  0.00000000000E+00  0.00000000000E+00  0.23754978308E+04  0.23754978308E+04  0.00000000000E+00 0.  1.
          4   -1    0    0  502    0 -0.00000000000E+00 -0.00000000000E+00 -0.32067058290E+03  0.32067058290E+03  0.00000000000E+00 0.  1.
    9000010    2    1    2  501    0 -0.62989572961E+02  0.29616092752E+03  0.20650021168E+04  0.23932121126E+04  0.11711325681E+04 0.  0.
        -13    1    3    3    0    0 -0.20434405193E+03 -0.36617971467E+03  0.33944335022E+03  0.53950521237E+03  0.10566000000E+00 0.  1.
          4    1    3    3  501    0  0.14135447897E+03  0.66234064219E+03  0.17255587665E+04  0.18537069002E+04  0.00000000000E+00 0.  1.
         13    1    1    2    0    0  0.62989572961E+02 -0.29616092752E+03 -0.10174868844E+02  0.30295630115E+03  0.10566000000E+00 0. -1.
<mgrwt>
<rscale>  1 0.85561030E+03</rscale>
<asrwt>0</asrwt>
<pdfrwt beam="1">  1       21 0.36546119E+00 0.12096406E+04</pdfrwt>
<pdfrwt beam="2">  1        4 0.49333937E-01 0.12096406E+04</pdfrwt>
<totfact> 0.15611938E+00</totfact>
</mgrwt>
</event>
<event>
 6    1  0.1431486E-005  0.9883255E+03  0.7818608E-02  0.1059092E+00
          4   -1    0    0  502    0 -0.00000000000E+00  0.00000000000E+00  0.64646035924E+03  0.64646035924E+03  0.00000000000E+00 0.  1.
         21   -1    0    0  501  502  0.00000000000E+00 -0.00000000000E+00 -0.44640356372E+03  0.44640356372E+03  0.00000000000E+00 0.  1.
    9000010    2    1    2  501    0  0.16779733777E+02 -0.35543751351E+01  0.10229103199E+03  0.99360492472E+03  0.98817665332E+03 0.  0.
        -13    1    3    3    0    0 -0.46698094556E+03 -0.84273393697E+02  0.15768519530E+03  0.50003783895E+03  0.10566000000E+00 0.  1.
          4    1    3    3  501    0  0.48376067934E+03  0.80719018562E+02 -0.55394163317E+02  0.49356708577E+03  0.00000000000E+00 0.  1.
         13    1    1    2    0    0 -0.16779733777E+02  0.35543751351E+01  0.97765763526E+02  0.99258998232E+02  0.10566000000E+00 0. -1.
<mgrwt>
<rscale>  1 0.35872043E+03</rscale>
<asrwt>0</asrwt>
<pdfrwt beam="2">  1       21 0.68677472E-01 0.98832550E+03</pdfrwt>
<pdfrwt beam="1">  1        4 0.99455439E-01 0.98832550E+03</pdfrwt>
<totfact> 0.62911749E+01</totfact>
</mgrwt>
</event>
<event>
 6    1  0.1431486E-005  0.1059416E+04  0.7818608E-02  0.9571483E-01
         21   -1    0    0  501  502  0.00000000000E+00  0.00000000000E+00  0.68470817519E+03  0.68470817519E+03  0.00000000000E+00 0.  1.
          4   -1    0    0  502    0 -0.00000000000E+00 -0.00000000000E+00 -0.72613496635E+03  0.72613496635E+03  0.00000000000E+00 0.  1.
    9000010    2    1    2  501    0 -0.96559221879E+02  0.31672357696E+03  0.69362521126E+02  0.10616844521E+04  0.10063424909E+04 0.  0.
        -13    1    3    3    0    0  0.33607976177E+03 -0.77936965096E+02  0.27482517903E+03  0.44108124760E+03  0.10566000000E+00 0.  1.
          4    1    3    3  501    0 -0.43263898365E+03  0.39466054206E+03 -0.20546265790E+03  0.62060320449E+03  0.00000000000E+00 0.  1.
         13    1    1    2    0    0  0.96559221879E+02 -0.31672357696E+03 -0.11078931228E+03  0.34915868944E+03  0.10566000000E+00 0. -1.
<mgrwt>
<rscale>  1 0.79212708E+03</rscale>
<asrwt>0</asrwt>
<pdfrwt beam="1">  1       21 0.10533972E+00 0.10594162E+04</pdfrwt>
<pdfrwt beam="2">  1        4 0.11171307E+00 0.10594162E+04</pdfrwt>
<totfact> 0.16932086E+01</totfact>
</mgrwt>
</event>
<event>
 6    1  0.1431486E-005  0.1017916E+04  0.7818608E-02  0.9824765E-01
          4   -1    0    0  502    0 -0.00000000000E+00  0.00000000000E+00  0.76300212700E+03  0.76300212700E+03  0.00000000000E+00 0.  1.
         21   -1    0    0  501  502  0.00000000000E+00 -0.00000000000E+00 -0.58368348427E+03  0.58368348427E+03  0.00000000000E+00 0.  1.
    9000010    2    1    2  501    0  0.22225754552E+02 -0.15801344608E+03 -0.10225685186E+03  0.10230391937E+04  0.10053310374E+04 0.  0.
        -13    1    3    3    0    0 -0.49620497118E+02 -0.58355092051E+03 -0.40127099713E+02  0.58702986795E+03  0.10566000000E+00 0.  1.
          4    1    3    3  501    0  0.71846251670E+02  0.42553747443E+03 -0.62129752145E+02  0.43600932573E+03  0.00000000000E+00 0.  1.
         13    1    1    2    0    0 -0.22225754552E+02  0.15801344608E+03  0.28157549459E+03  0.32364641760E+03  0.10566000000E+00 0. -1.
<mgrwt>
<rscale>  1 0.64050275E+03</rscale>
<asrwt>0</asrwt>
<pdfrwt beam="2">  1       21 0.89797459E-01 0.10179159E+04</pdfrwt>
<pdfrwt beam="1">  1        4 0.11738494E+00 0.10179159E+04</pdfrwt>
<totfact> 0.22281329E+01</totfact>
</mgrwt>
</event>
<event>
 6    1  0.1431486E-005  0.1048335E+04  0.7818608E-02  0.9591364E-01
         21   -1    0    0  501  502  0.00000000000E+00  0.00000000000E+00  0.89537706484E+03  0.89537706484E+03  0.00000000000E+00 0.  1.
          4   -1    0    0  502    0 -0.00000000000E+00 -0.00000000000E+00 -0.52647312198E+03  0.52647312198E+03  0.00000000000E+00 0.  1.
    9000010    2    1    2  501    0  0.23163055231E+03 -0.21954815812E+03  0.33672460365E+03  0.11010860561E+04  0.99857545424E+03 0.  0.
        -13    1    3    3    0    0  0.56371466117E+03  0.11428783742E+03  0.22113758808E+03  0.61622866943E+03  0.10566000000E+00 0.  1.
          4    1    3    3  501    0 -0.33208410886E+03 -0.33383599554E+03  0.11558701558E+03  0.48485738671E+03  0.00000000000E+00 0.  1.
         13    1    1    2    0    0 -0.23163055231E+03  0.21954815812E+03  0.32179339209E+02  0.32076413068E+03  0.10566000000E+00 0. -1.
<mgrwt>
<rscale>  1 0.77870417E+03</rscale>
<asrwt>0</asrwt>
<pdfrwt beam="1">  1       21 0.13775032E+00 0.10483354E+04</pdfrwt>
<pdfrwt beam="2">  1        4 0.80995865E-01 0.10483354E+04</pdfrwt>
<totfact> 0.18164137E+01</totfact>
</mgrwt>
</event>
<event>
 6    1  0.1431486E-005  0.1025964E+04  0.7818608E-02  0.9788330E-01
          4   -1    0    0  502    0 -0.00000000000E+00  0.00000000000E+00  0.43214264279E+03  0.43214264279E+03  0.00000000000E+00 0.  1.
         21   -1    0    0  501  502  0.00000000000E+00 -0.00000000000E+00 -0.84351540848E+03  0.84351540848E+03  0.00000000000E+00 0.  1.
    9000010    2    1    2  501    0  0.10123367965E+03 -0.14351210179E+03 -0.39460911100E+03  0.10992352281E+04  0.10108203376E+04 0.  0.
        -13    1    3    3    0    0  0.36002271958E+03 -0.33456883847E+03 -0.55370632551E+03  0.74036705246E+03  0.10566000000E+00 0.  1.
          4    1    3    3  501    0 -0.25878903993E+03  0.19105673668E+03  0.15909721451E+03  0.35886817563E+03  0.00000000000E+00 0.  1.
         13    1    1    2    0    0 -0.10123367965E+03  0.14351210179E+03 -0.16763654693E+02  0.17642282318E+03  0.10566000000E+00 0. -1.
<mgrwt>
<rscale>  1 0.65992617E+03</rscale>
<asrwt>0</asrwt>
<pdfrwt beam="2">  1       21 0.12977160E+00 0.10259638E+04</pdfrwt>
<pdfrwt beam="1">  1        4 0.66483484E-01 0.10259638E+04</pdfrwt>
<totfact> 0.33379844E+01</totfact>
</mgrwt>
</event>
<event>
 6    1  0.1431486E-005  0.1015617E+04  0.7818608E-02  0.9767591E-01
         21   -1    0    0  501  502  0.00000000000E+00  0.00000000000E+00  0.81865118957E+03  0.81865118957E+03  0.00000000000E+00 0.  1.
          4   -1    0    0  502    0 -0.00000000000E+00 -0.00000000000E+00 -0.46344655187E+03  0.46344655187E+03  0.00000000000E+00 0.  1.
    9000010    2    1    2  501    0 -0.54378301583E+02 -0.18608586784E+03  0.38462698389E+03  0.10860094055E+04  0.99694210570E+03 0.  0.
        -13    1    3    3    0    0  0.11597635022E+02  0.29092775857E+03  0.51101877373E+03  0.58814425451E+03  0.10566000000E+00 0.  1.
          4    1    3    3  501    0 -0.65975936605E+02 -0.47701362641E+03 -0.12639178984E+03  0.49786515095E+03  0.00000000000E+00 0.  1.
         13    1    1    2    0    0  0.54378301583E+02  0.18608586784E+03 -0.29422346187E+02  0.19608833599E+03  0.10566000000E+00 0. -1.
<mgrwt>
<rscale>  1 0.67131188E+03</rscale>
<asrwt>0</asrwt>
<pdfrwt beam="1">  1       21 0.12594634E+00 0.10156173E+04</pdfrwt>
<pdfrwt beam="2">  1        4 0.71299470E-01 0.10156173E+04</pdfrwt>
<totfact> 0.30935677E+01</totfact>
</mgrwt>
</event>
<event>
 6    1  0.1431486E-005  0.1068048E+04  0.7818608E-02  0.9704148E-01
         21   -1    0    0  501  502  0.00000000000E+00  0.00000000000E+00  0.57255583017E+03  0.57255583017E+03  0.00000000000E+00 0.  1.
          4   -1    0    0  502    0 -0.00000000000E+00 -0.00000000000E+00 -0.10373756166E+04  0.10373756166E+04  0.00000000000E+00 0.  1.
    9000010    2    1    2  501    0  0.16711039851E+03 -0.12026761026E+03  0.35778550354E+02  0.10686469658E+04  0.10480152907E+04 0.  0.
        -13    1    3    3    0    0  0.28330316938E+03  0.36358919955E+03  0.25287278173E+03  0.52573990406E+03  0.10566000000E+00 0.  1.
          4    1    3    3  501    0 -0.11619277087E+03 -0.48385680981E+03 -0.21709423138E+03  0.54290706175E+03  0.00000000000E+00 0.  1.
         13    1    1    2    0    0 -0.16711039851E+03  0.12026761026E+03 -0.50059833677E+03  0.54128448095E+03  0.10566000000E+00 0. -1.
<mgrwt>
<rscale>  1 0.70770329E+03</rscale>
<asrwt>0</asrwt>
<pdfrwt beam="1">  1       21 0.88085513E-01 0.10680479E+04</pdfrwt>
<pdfrwt beam="2">  1        4 0.15959625E+00 0.10680479E+04</pdfrwt>
<totfact> 0.10393443E+01</totfact>
</mgrwt>
</event>
<event>
 6    1  0.1431486E-005  0.1050681E+04  0.7818608E-02  0.9592658E-01
         21   -1    0    0  501  502  0.00000000000E+00  0.00000000000E+00  0.75063170890E+03  0.75063170890E+03  0.00000000000E+00 0.  1.
          4   -1    0    0  502    0 -0.00000000000E+00 -0.00000000000E+00 -0.72277502240E+03  0.72277502240E+03  0.00000000000E+00 0.  1.
    9000010    2    1    2  501    0 -0.66670630077E+02 -0.30848644936E+03  0.25909074360E+03  0.10821548141E+04  0.10021587529E+04 0.  0.
        -13    1    3    3    0    0  0.16720174963E+03 -0.11507089059E+03  0.59546389750E+03  0.62910650874E+03  0.10566000000E+00 0.  1.
          4    1    3    3  501    0 -0.23387237971E+03 -0.19341555878E+03 -0.33637315390E+03  0.45304830541E+03  0.00000000000E+00 0.  1.
         13    1    1    2    0    0  0.66670630077E+02  0.30848644936E+03 -0.23123405710E+03  0.39125191716E+03  0.10566000000E+00 0. -1.
<mgrwt>
<rscale>  1 0.77784037E+03</rscale>
<asrwt>0</asrwt>
<pdfrwt beam="1">  1       21 0.11548180E+00 0.10506812E+04</pdfrwt>
<pdfrwt beam="2">  1        4 0.11119616E+00 0.10506812E+04</pdfrwt>
<totfact> 0.13574843E+01</totfact>
</mgrwt>
</event>
<event>
 6    1  0.1431486E-005  0.1002031E+04  0.7818608E-02  0.9904634E-01
         21   -1    0    0  501  502  0.00000000000E+00  0.00000000000E+00  0.67250425545E+03  0.67250425545E+03  0.00000000000E+00 0.  1.
          4   -1    0    0  502    0 -0.00000000000E+00 -0.00000000000E+00 -0.48035286952E+03  0.48035286952E+03  0.00000000000E+00 0.  1.
    9000010    2    1    2  501    0 -0.12445419123E+03  0.34447442143E+02  0.20598858853E+03  0.10229842975E+04  0.99367504862E+03 0.  0.
        -13    1    3    3    0    0  0.34323625822E+03 -0.25060938180E+03  0.21266408568E+03  0.47522859310E+03  0.10566000000E+00 0.  1.
          4    1    3    3  501    0 -0.46769044946E+03  0.28505682394E+03 -0.66754971451E+01  0.54775570435E+03  0.00000000000E+00 0.  1.
         13    1    1    2    0    0  0.12445419123E+03 -0.34447442143E+02 -0.13837202600E+02  0.12987282751E+03  0.10566000000E+00 0. -1.
<mgrwt>
<rscale>  1 0.60037221E+03</rscale>
<asrwt>0</asrwt>
<pdfrwt beam="1">  1       21 0.10346219E+00 0.10020307E+04</pdfrwt>
<pdfrwt beam="2">  1        4 0.73900441E-01 0.10020307E+04</pdfrwt>
<totfact> 0.47282874E+01</totfact>
</mgrwt>
</event>
<event>
 6    1  0.1431486E-005  0.1001426E+04  0.7818608E-02  0.9756207E-01
          4   -1    0    0  502    0 -0.00000000000E+00  0.00000000000E+00  0.14792977385E+04  0.14792977385E+04  0.00000000000E+00 0.  1.
         21   -1    0    0  501  502  0.00000000000E+00 -0.00000000000E+00 -0.24801308180E+03  0.24801308180E+03  0.00000000000E+00 0. -1.
    9000010    2    1    2  501    0  0.87015325828E+02  0.19111674997E+03  0.10169805854E+04  0.14272716142E+04  0.97916161616E+03 0.  0.
        -13    1    3    3    0    0  0.26996317183E+03 -0.22573507012E+03  0.88637506842E+03  0.95367563097E+03  0.10566000000E+00 0.  1.
          4    1    3    3  501    0 -0.18294784600E+03  0.41685182009E+03  0.13060551700E+03  0.47359598324E+03  0.00000000000E+00 0.  1.
         13    1    1    2    0    0 -0.87015325828E+02 -0.19111674997E+03  0.21430407124E+03  0.30003920604E+03  0.10566000000E+00 0. -1.
<mgrwt>
<rscale>  1 0.67766609E+03</rscale>
<asrwt>0</asrwt>
<pdfrwt beam="2">  1       21 0.38155860E-01 0.10014264E+04</pdfrwt>
<pdfrwt beam="1">  1        4 0.22758426E+00 0.10014264E+04</pdfrwt>
<totfact> 0.23285969E+01</totfact>
</mgrwt>
</event>
<event>
 6    1  0.1431486E-005  0.9954835E+03  0.7818608E-02  0.1009716E+00
          4   -1    0    0  502    0 -0.00000000000E+00  0.00000000000E+00  0.29618293133E+03  0.29618293133E+03  0.00000000000E+00 0.  1.
         21   -1    0    0  501  502  0.00000000000E+00 -0.00000000000E+00 -0.97395838533E+03  0.97395838533E+03  0.00000000000E+00 0.  1.
    9000010    2    1    2  501    0  0.38868489453E+02  0.60359802223E+02 -0.66513923835E+03  0.11972458414E+04  0.99289140053E+03 0.  0.
        -13    1    3    3    0    0 -0.10663828028E+03 -0.44853137229E+03 -0.24912989141E+03  0.52403991137E+03  0.10566000000E+00 0.  1.
          4    1    3    3  501    0  0.14550676974E+03  0.50889117451E+03 -0.41600934694E+03  0.67320593007E+03  0.00000000000E+00 0.  1.
         13    1    1    2    0    0 -0.38868489453E+02 -0.60359802223E+02 -0.12636215654E+02  0.72895475215E+02  0.10566000000E+00 0. -1.
<mgrwt>
<rscale>  1 0.51587491E+03</rscale>
<asrwt>0</asrwt>
<pdfrwt beam="2">  1       21 0.14983975E+00 0.99548350E+03</pdfrwt>
<pdfrwt beam="1">  1        4 0.45566604E-01 0.99548350E+03</pdfrwt>
<totfact> 0.50950979E+01</totfact>
</mgrwt>
</event>
<event>
 6    1  0.1431486E-005  0.1015594E+04  0.7818608E-02  0.9861758E-01
         21   -1    0    0  501  502  0.00000000000E+00  0.00000000000E+00  0.81259352054E+03  0.81259352054E+03  0.00000000000E+00 0. -1.
          4   -1    0    0  502    0 -0.00000000000E+00 -0.00000000000E+00 -0.41335921508E+03  0.41335921508E+03  0.00000000000E+00 0.  1.
    9000010    2    1    2  501    0 -0.73934613958E+02  0.12174858513E+03  0.36733718564E+03  0.10799853333E+04  0.10055558995E+04 0.  0.
        -13    1    3    3    0    0 -0.37524769998E+03 -0.17138870013E+03  0.49147109077E+03  0.64166094404E+03  0.10566000000E+00 0.  1.
          4    1    3    3  501    0  0.30131308602E+03  0.29313728526E+03 -0.12413390514E+03  0.43832438926E+03  0.00000000000E+00 0.  1.
         13    1    1    2    0    0  0.73934613958E+02 -0.12174858513E+03  0.31897119828E+02  0.14596740232E+03  0.10566000000E+00 0. -1.
<mgrwt>
<rscale>  1 0.62150970E+03</rscale>
<asrwt>0</asrwt>
<pdfrwt beam="1">  1       21 0.12501439E+00 0.10155943E+04</pdfrwt>
<pdfrwt beam="2">  1        4 0.63593726E-01 0.10155943E+04</pdfrwt>
<totfact> 0.40684852E+01</totfact>
</mgrwt>
</event>
<event>
 6    1  0.1431486E-005  0.1182141E+04  0.7818608E-02  0.9379070E-01
         21   -1    0    0  501  502  0.00000000000E+00  0.00000000000E+00  0.13436834778E+04  0.13436834778E+04  0.00000000000E+00 0. -1.
          4   -1    0    0  502    0 -0.00000000000E+00 -0.00000000000E+00 -0.53184141563E+03  0.53184141563E+03  0.00000000000E+00 0.  1.
    9000010    2    1    2  501    0  0.46862167484E+03 -0.18001904319E+02  0.39018355792E+03  0.12448694819E+04  0.10851389199E+04 0.  0.
        -13    1    3    3    0    0  0.56268730555E+03  0.28668690298E+03 -0.12040384525E+03  0.64288683396E+03  0.10566000000E+00 0.  1.
          4    1    3    3  501    0 -0.94065630704E+02 -0.30468880730E+03  0.51058740317E+03  0.60198264796E+03  0.00000000000E+00 0.  1.
         13    1    1    2    0    0 -0.46862167484E+03  0.18001904319E+02  0.42165850426E+03  0.63065541151E+03  0.10566000000E+00 0. -1.
<mgrwt>
<rscale>  1 0.93818309E+03</rscale>
<asrwt>0</asrwt>
<pdfrwt beam="1">  1       21 0.20672053E+00 0.11821408E+04</pdfrwt>
<pdfrwt beam="2">  1        4 0.81821757E-01 0.11821408E+04</pdfrwt>
<totfact> 0.52845748E+00</totfact>
</mgrwt>
</event>
<event>
 6    1  0.1431486E-005  0.1681721E+04  0.7818608E-02  0.8811581E-01
          4   -1    0    0  502    0 -0.00000000000E+00  0.00000000000E+00  0.16008930794E+04  0.16008930794E+04  0.00000000000E+00 0.  1.
         21   -1    0    0  501  502  0.00000000000E+00 -0.00000000000E+00 -0.20584871081E+04  0.20584871081E+04  0.00000000000E+00 0. -1.
    9000010    2    1    2  501    0 -0.13965442140E+04 -0.30358729512E+03  0.69864483667E+03  0.18210686490E+04  0.88638898299E+03 0.  0.
        -13    1    3    3    0    0 -0.57212741638E+03 -0.45208702371E+03  0.65835266986E+03  0.98241575041E+03  0.10566000000E+00 0.  1.
          4    1    3    3  501    0 -0.82441679766E+03  0.14849972859E+03  0.40292166807E+02  0.83865289862E+03  0.00000000000E+00 0.  1.
         13    1    1    2    0    0  0.13965442140E+04  0.30358729512E+03 -0.11562388653E+04  0.18383115384E+04  0.10566000000E+00 0. -1.
<mgrwt>
<rscale>  1 0.16146777E+04</rscale>
<asrwt>0</asrwt>
<pdfrwt beam="2">  1       21 0.31669032E+00 0.16817213E+04</pdfrwt>
<pdfrwt beam="1">  1        4 0.24629124E+00 0.16817213E+04</pdfrwt>
<totfact> 0.46806907E-02</totfact>
</mgrwt>
</event>
<event>
 6    1  0.1431486E-005  0.1206270E+04  0.7818608E-02  0.9264301E-01
          4   -1    0    0  502    0 -0.00000000000E+00  0.00000000000E+00  0.18419506037E+04  0.18419506037E+04  0.00000000000E+00 0.  1.
         21   -1    0    0  501  502  0.00000000000E+00 -0.00000000000E+00 -0.55910074645E+03  0.55910074645E+03  0.00000000000E+00 0. -1.
    9000010    2    1    2  501    0 -0.25627669467E+03  0.61906591166E+03  0.35660684560E+03  0.12578774898E+04  0.10030787555E+04 0.  0.
        -13    1    3    3    0    0 -0.54471524575E+03  0.34720087574E+03 -0.99534441419E+02  0.65358263690E+03  0.10566000000E+00 0.  1.
          4    1    3    3  501    0  0.28843855108E+03  0.27186503592E+03  0.45614128701E+03  0.60429485289E+03  0.00000000000E+00 0.  1.
         13    1    1    2    0    0  0.25627669467E+03 -0.61906591166E+03  0.92624301168E+03  0.11431738604E+04  0.10566000000E+00 0. -1.
<mgrwt>
<rscale>  1 0.10413688E+04</rscale>
<asrwt>0</asrwt>
<pdfrwt beam="2">  1       21 0.86015500E-01 0.12062700E+04</pdfrwt>
<pdfrwt beam="1">  1        4 0.28337701E+00 0.12062700E+04</pdfrwt>
<totfact> 0.16795737E+00</totfact>
</mgrwt>
</event>
<event>
 6    1  0.1431486E-005  0.1017439E+04  0.7818608E-02  0.9830357E-01
         21   -1    0    0  501  502  0.00000000000E+00  0.00000000000E+00  0.80289110780E+03  0.80289110780E+03  0.00000000000E+00 0.  1.
          4   -1    0    0  502    0 -0.00000000000E+00 -0.00000000000E+00 -0.44091909017E+03  0.44091909017E+03  0.00000000000E+00 0.  1.
    9000010    2    1    2  501    0  0.43871595618E+02  0.15064370486E+03  0.37954597303E+03  0.10859270203E+04  0.10052681757E+04 0.  0.
        -13    1    3    3    0    0  0.39158696731E+03  0.77587288224E+02  0.55976336973E+03  0.68752831325E+03  0.10566000000E+00 0.  1.
          4    1    3    3  501    0 -0.34771537169E+03  0.73056416635E+02 -0.18021739669E+03  0.39839870707E+03  0.00000000000E+00 0.  1.
         13    1    1    2    0    0 -0.43871595618E+02 -0.15064370486E+03 -0.17573955407E+02  0.15788317766E+03  0.10566000000E+00 0. -1.
<mgrwt>
<rscale>  1 0.63758557E+03</rscale>
<asrwt>0</asrwt>
<pdfrwt beam="1">  1       21 0.12352171E+00 0.10174391E+04</pdfrwt>
<pdfrwt beam="2">  1        4 0.67833706E-01 0.10174391E+04</pdfrwt>
<totfact> 0.36392251E+01</totfact>
</mgrwt>
</event>
<event>
 6    1  0.1431486E-005  0.1026838E+04  0.7818608E-02  0.9820327E-01
         21   -1    0    0  501  502  0.00000000000E+00  0.00000000000E+00  0.97337267840E+03  0.97337267840E+03  0.00000000000E+00 0.  1.
          4   -1    0    0  502    0 -0.00000000000E+00 -0.00000000000E+00 -0.58853731733E+03  0.58853731733E+03  0.00000000000E+00 0.  1.
    9000010    2    1    2  501    0 -0.36669081346E+02  0.15339543927E+03  0.67697543541E+03  0.12299150914E+04  0.10146529503E+04 0.  0.
        -13    1    3    3    0    0 -0.79076371386E+02  0.28288249313E+02  0.93567694917E+03  0.93943848225E+03  0.10566000000E+00 0.  1.
          4    1    3    3  501    0  0.42407290040E+02  0.12510718996E+03 -0.25870151376E+03  0.29047660913E+03  0.00000000000E+00 0.  1.
         13    1    1    2    0    0  0.36669081346E+02 -0.15339543927E+03 -0.29214007433E+03  0.33199490434E+03  0.10566000000E+00 0. -1.
<mgrwt>
<rscale>  1 0.64283016E+03</rscale>
<asrwt>0</asrwt>
<pdfrwt beam="1">  1       21 0.14974964E+00 0.10268376E+04</pdfrwt>
<pdfrwt beam="2">  1        4 0.90544203E-01 0.10268376E+04</pdfrwt>
<totfact> 0.11159591E+01</totfact>
</mgrwt>
</event>
<event>
 6    1  0.1431486E-005  0.1031795E+04  0.7818608E-02  0.9628046E-01
          4   -1    0    0  502    0 -0.00000000000E+00  0.00000000000E+00  0.15237172440E+04  0.15237172440E+04  0.00000000000E+00 0.  1.
         21   -1    0    0  501  502  0.00000000000E+00 -0.00000000000E+00 -0.30342272021E+03  0.30342272021E+03  0.00000000000E+00 0.  1.
    9000010    2    1    2  501    0 -0.37141382291E+02  0.29295107227E+03  0.76494780781E+03  0.12844241491E+04  0.98863564226E+03 0.  0.
        -13    1    3    3    0    0 -0.99570521631E+02  0.46996426260E+03  0.92202628959E+03  0.10396697489E+04  0.10566000000E+00 0.  1.
          4    1    3    3  501    0  0.62429139339E+02 -0.17701319033E+03 -0.15707848179E+03  0.24475440022E+03  0.00000000000E+00 0.  1.
         13    1    1    2    0    0  0.37141382291E+02 -0.29295107227E+03  0.45534671597E+03  0.54271581507E+03  0.10566000000E+00 0. -1.
<mgrwt>
<rscale>  1 0.75467404E+03</rscale>
<asrwt>0</asrwt>
<pdfrwt beam="2">  1       21 0.46680420E-01 0.10317947E+04</pdfrwt>
<pdfrwt beam="1">  1        4 0.23441803E+00 0.10317947E+04</pdfrwt>
<totfact> 0.13735762E+01</totfact>
</mgrwt>
</event>
<event>
 6    1  0.1431486E-005  0.1043652E+04  0.7818608E-02  0.9639033E-01
         21   -1    0    0  501  502  0.00000000000E+00  0.00000000000E+00  0.19986992759E+04  0.19986992759E+04  0.00000000000E+00 0.  1.
          4   -1    0    0  502    0 -0.00000000000E+00 -0.00000000000E+00 -0.22108645690E+03  0.22108645690E+03  0.00000000000E+00 0.  1.
    9000010    2    1    2  501    0  0.27481532483E+03  0.59843607068E+01  0.15145355932E+04  0.18393006303E+04  0.10068016042E+04 0.  0.
        -13    1    3    3    0    0  0.57391832511E+03 -0.25947519937E+01  0.43803191546E+03  0.72198403498E+03  0.10566000000E+00 0.  1.
          4    1    3    3  501    0 -0.29910300028E+03  0.85791127004E+01  0.10765036777E+04  0.11173165953E+04  0.00000000000E+00 0.  1.
         13    1    1    2    0    0 -0.27481532483E+03 -0.59843607068E+01  0.26307722575E+03  0.38048510248E+03  0.10566000000E+00 0. -1.
<mgrwt>
<rscale>  1 0.74765743E+03</rscale>
<asrwt>0</asrwt>
<pdfrwt beam="1">  1       21 0.30749218E+00 0.10436516E+04</pdfrwt>
<pdfrwt beam="2">  1        4 0.34013302E-01 0.10436516E+04</pdfrwt>
<totfact> 0.79865938E+00</totfact>
</mgrwt>
</event>
<event>
 6    1  0.1431486E-005  0.1345577E+04  0.7818608E-02  0.9099534E-01
          4   -1    0    0  502    0 -0.00000000000E+00  0.00000000000E+00  0.21868385320E+04  0.21868385320E+04  0.00000000000E+00 0.  1.
         21   -1    0    0  501  502  0.00000000000E+00 -0.00000000000E+00 -0.66403332056E+03  0.66403332056E+03  0.00000000000E+00 0.  1.
    9000010    2    1    2  501    0 -0.11173385677E+03 -0.88850384667E+03  0.37845598181E+03  0.13977859257E+04  0.10043171927E+04 0.  0.
        -13    1    3    3    0    0 -0.48696273664E+02 -0.32204623202E+03  0.67926871254E+03  0.75332004993E+03  0.10566000000E+00 0.  1.
          4    1    3    3  501    0 -0.63037583103E+02 -0.56645761465E+03 -0.30081273073E+03  0.64446587578E+03  0.00000000000E+00 0.  1.
         13    1    1    2    0    0  0.11173385677E+03  0.88850384667E+03  0.11443492296E+04  0.14530859268E+04  0.10566000000E+00 0. -1.
<mgrwt>
<rscale>  1 0.12153405E+04</rscale>
<asrwt>0</asrwt>
<pdfrwt beam="2">  1       21 0.10215897E+00 0.13455767E+04</pdfrwt>
<pdfrwt beam="1">  1        4 0.33643669E+00 0.13455767E+04</pdfrwt>
<totfact> 0.50163214E-01</totfact>
</mgrwt>
</event>
<event>
 6    1  0.1431486E-005  0.1255938E+04  0.7818608E-02  0.9185278E-01
         21   -1    0    0  501  502  0.00000000000E+00  0.00000000000E+00  0.51747853279E+03  0.51747853279E+03  0.00000000000E+00 0. -1.
          4   -1    0    0  502    0 -0.00000000000E+00 -0.00000000000E+00 -0.20741773009E+04  0.20741773009E+04  0.00000000000E+00 0.  1.
    9000010    2    1    2  501    0  0.79455345799E+03  0.50682295103E+02 -0.11242611129E+04  0.16856281137E+04  0.97133680822E+03 0.  0.
        -13    1    3    3    0    0  0.90419848432E+03 -0.57320345628E-01 -0.12289645806E+04  0.15257551750E+04  0.10566000000E+00 0.  1.
          4    1    3    3  501    0 -0.10964502633E+03  0.50739615448E+02  0.10470346773E+03  0.15987293871E+03  0.00000000000E+00 0.  1.
         13    1    1    2    0    0 -0.79455345799E+03 -0.50682295103E+02 -0.43243765524E+03  0.90602772004E+03  0.10566000000E+00 0. -1.
<mgrwt>
<rscale>  1 0.11206688E+04</rscale>
<asrwt>0</asrwt>
<pdfrwt beam="1">  1       21 0.79612083E-01 0.12559375E+04</pdfrwt>
<pdfrwt beam="2">  1        4 0.31910419E+00 0.12559375E+04</pdfrwt>
<totfact> 0.12005222E+00</totfact>
</mgrwt>
</event>
<event>
 6    1  0.1431486E-005  0.1068303E+04  0.7818608E-02  0.9519260E-01
          4   -1    0    0  502    0 -0.00000000000E+00  0.00000000000E+00  0.64142445628E+03  0.64142445628E+03  0.00000000000E+00 0.  1.
         21   -1    0    0  501  502  0.00000000000E+00 -0.00000000000E+00 -0.86516562177E+03  0.86516562177E+03  0.00000000000E+00 0. -1.
    9000010    2    1    2  501    0  0.97228866107E+02  0.37456418339E+03 -0.18299692815E+02  0.10684599721E+04  0.99575099967E+03 0.  0.
        -13    1    3    3    0    0 -0.52152777195E+02  0.69138236855E+03  0.96116359320E+02  0.69997704062E+03  0.10566000000E+00 0.  1.
          4    1    3    3  501    0  0.14938164330E+03 -0.31681818516E+03 -0.11441605213E+03  0.36848293148E+03  0.00000000000E+00 0.  1.
         13    1    1    2    0    0 -0.97228866107E+02 -0.37456418339E+03 -0.20544147268E+03  0.43813010595E+03  0.10566000000E+00 0. -1.
<mgrwt>
<rscale>  1 0.82878612E+03</rscale>
<asrwt>0</asrwt>
<pdfrwt beam="2">  1       21 0.13310240E+00 0.10683032E+04</pdfrwt>
<pdfrwt beam="1">  1        4 0.98680685E-01 0.10683032E+04</pdfrwt>
<totfact> 0.12493017E+01</totfact>
</mgrwt>
</event>
<event>
 6    1  0.1431486E-005  0.1003673E+04  0.7818608E-02  0.9909403E-01
         21   -1    0    0  501  502  0.00000000000E+00  0.00000000000E+00  0.18275867457E+03  0.18275867457E+03  0.00000000000E+00 0.  1.
          4   -1    0    0  502    0 -0.00000000000E+00 -0.00000000000E+00 -0.17922905279E+04  0.17922905279E+04  0.00000000000E+00 0.  1.
    9000010    2    1    2  501    0 -0.12022917485E+03 -0.39485274721E+02 -0.15141019090E+04  0.18165530611E+04  0.99566374416E+03 0.  0.
        -13    1    3    3    0    0  0.24250222102E+03 -0.35285599854E+03 -0.33466813031E+03  0.54343118378E+03  0.10566000000E+00 0.  1.
          4    1    3    3  501    0 -0.36273139587E+03  0.31337072382E+03 -0.11794337787E+04  0.12731218773E+04  0.00000000000E+00 0.  1.
         13    1    1    2    0    0  0.12022917485E+03  0.39485274721E+02 -0.95429944332E+02  0.15849614142E+03  0.10566000000E+00 0. -1.
<mgrwt>
<rscale>  1 0.59807739E+03</rscale>
<asrwt>0</asrwt>
<pdfrwt beam="1">  1       21 0.28116719E-01 0.10036735E+04</pdfrwt>
<pdfrwt beam="2">  1        4 0.27573701E+00 0.10036735E+04</pdfrwt>
<totfact> 0.21821464E+01</totfact>
</mgrwt>
</event>
<event>
 6    1  0.1431486E-005  0.9990380E+03  0.7818608E-02  0.1032045E+00
          4   -1    0    0  502    0 -0.00000000000E+00  0.00000000000E+00  0.41731907279E+03  0.41731907279E+03  0.00000000000E+00 0.  1.
         21   -1    0    0  501  502  0.00000000000E+00 -0.00000000000E+00 -0.68147164767E+03  0.68147164767E+03  0.00000000000E+00 0.  1.
    9000010    2    1    2  501    0 -0.32991861329E+02 -0.14831738027E+02 -0.30468326953E+03  0.10444658483E+04  0.99838297766E+03 0.  0.
        -13    1    3    3    0    0 -0.15674706709E+03 -0.72782592939E+02 -0.65026965810E+03  0.67284291502E+03  0.10566000000E+00 0.  1.
          4    1    3    3  501    0  0.12375520576E+03  0.57950854913E+02  0.34558638857E+03  0.37162293324E+03  0.00000000000E+00 0.  1.
         13    1    1    2    0    0  0.32991861329E+02  0.14831738027E+02  0.40530694650E+02  0.54324872202E+02  0.10566000000E+00 0. -1.
<mgrwt>
<rscale>  1 0.43579410E+03</rscale>
<asrwt>0</asrwt>
<pdfrwt beam="2">  1       21 0.10484179E+00 0.99903804E+03</pdfrwt>
<pdfrwt beam="1">  1        4 0.64202935E-01 0.99903804E+03</pdfrwt>
<totfact> 0.62632725E+01</totfact>
</mgrwt>
</event>
<event>
 6    1  0.1431486E-005  0.1015397E+04  0.7818608E-02  0.9798262E-01
         21   -1    0    0  501  502  0.00000000000E+00  0.00000000000E+00  0.35183938669E+04  0.35183938669E+04  0.00000000000E+00 0.  1.
          4   -1    0    0  502    0 -0.00000000000E+00 -0.00000000000E+00 -0.11787872455E+03  0.11787872455E+03  0.00000000000E+00 0.  1.
    9000010    2    1    2  501    0  0.16563685361E+03 -0.57527183480E+02  0.32508584373E+04  0.34057469212E+04  0.10001432736E+04 0.  0.
        -13    1    3    3    0    0  0.36791272758E+03  0.31347769543E+03  0.24800267285E+04  0.25266896576E+04  0.10566000000E+00 0.  1.
          4    1    3    3  501    0 -0.20227587397E+03 -0.37100487891E+03  0.77083170875E+03  0.87905726354E+03  0.00000000000E+00 0.  1.
         13    1    1    2    0    0 -0.16563685361E+03  0.57527183480E+02  0.14965670506E+03  0.23052567026E+03  0.10566000000E+00 0. -1.
<mgrwt>
<rscale>  1 0.65455887E+03</rscale>
<asrwt>0</asrwt>
<pdfrwt beam="1">  1       21 0.54129128E+00 0.10153972E+04</pdfrwt>
<pdfrwt beam="2">  1        4 0.18135191E-01 0.10153972E+04</pdfrwt>
<totfact> 0.70718005E-01</totfact>
</mgrwt>
</event>
<event>
 6    1  0.1431486E-005  0.1026627E+04  0.7818608E-02  0.9749260E-01
         21   -1    0    0  501  502  0.00000000000E+00  0.00000000000E+00  0.87422239471E+03  0.87422239471E+03  0.00000000000E+00 0.  1.
          4   -1    0    0  502    0 -0.00000000000E+00 -0.00000000000E+00 -0.43001572919E+03  0.43001572919E+03  0.00000000000E+00 0.  1.
    9000010    2    1    2  501    0 -0.24492524897E+02 -0.19793955734E+03  0.38026490542E+03  0.10947900110E+04  0.10070669381E+04 0.  0.
        -13    1    3    3    0    0 -0.36603534964E+03 -0.22395345271E+03  0.56195183876E+03  0.70705509433E+03  0.10566000000E+00 0.  1.
          4    1    3    3  501    0  0.34154282474E+03  0.26013895372E+02 -0.18168693335E+03  0.38773491670E+03  0.00000000000E+00 0.  1.
         13    1    1    2    0    0  0.24492524897E+02  0.19793955734E+03  0.63941760105E+02  0.20944811287E+03  0.10566000000E+00 0. -1.
<mgrwt>
<rscale>  1 0.68158132E+03</rscale>
<asrwt>0</asrwt>
<pdfrwt beam="1">  1       21 0.13449575E+00 0.10266274E+04</pdfrwt>
<pdfrwt beam="2">  1        4 0.66156266E-01 0.10266274E+04</pdfrwt>
<totfact> 0.30675571E+01</totfact>
</mgrwt>
</event>
<event>
 6    1  0.1431486E-005  0.9886974E+03  0.7818608E-02  0.9897465E-01
          4   -1    0    0  502    0 -0.00000000000E+00  0.00000000000E+00  0.24385385837E+03  0.24385385837E+03  0.00000000000E+00 0.  1.
         21   -1    0    0  501  502  0.00000000000E+00 -0.00000000000E+00 -0.13053471709E+04  0.13053471709E+04  0.00000000000E+00 0.  1.
    9000010    2    1    2  501    0 -0.10638721706E+03  0.87210705661E+02 -0.96152402564E+03  0.13791486355E+04  0.97908046650E+03 0.  0.
        -13    1    3    3    0    0  0.64649379568E+02 -0.34732583827E+03 -0.52474753220E+02  0.35716717529E+03  0.10566000000E+00 0.  1.
          4    1    3    3  501    0 -0.17103659663E+03  0.43453654394E+03 -0.90904927242E+03  0.10219814602E+04  0.00000000000E+00 0.  1.
         13    1    1    2    0    0  0.10638721706E+03 -0.87210705661E+02 -0.99969286924E+02  0.17005239377E+03  0.10566000000E+00 0. -1.
<mgrwt>
<rscale>  1 0.60384300E+03</rscale>
<asrwt>0</asrwt>
<pdfrwt beam="2">  1       21 0.20082264E+00 0.98869738E+03</pdfrwt>
<pdfrwt beam="1">  1        4 0.37515978E-01 0.98869738E+03</pdfrwt>
<totfact> 0.31881734E+01</totfact>
</mgrwt>
</event>
<event>
 6    1  0.1431486E-005  0.1028647E+04  0.7818608E-02  0.9701962E-01
          4   -1    0    0  502    0 -0.00000000000E+00  0.00000000000E+00  0.27021722662E+04  0.27021722662E+04  0.00000000000E+00 0.  1.
         21   -1    0    0  501  502  0.00000000000E+00 -0.00000000000E+00 -0.20365165182E+03  0.20365165182E+03  0.00000000000E+00 0.  1.
    9000010    2    1    2  501    0 -0.21515486806E+03 -0.87216517961E+02  0.11730698206E+04  0.15601946392E+04  0.10021058676E+04 0.  0.
        -13    1    3    3    0    0  0.24556706705E+02  0.36141763859E+03  0.92674930931E+03  0.99503268027E+03  0.10566000000E+00 0.  1.
          4    1    3    3  501    0 -0.23971157477E+03 -0.44863415655E+03  0.24632051131E+03  0.56516195890E+03  0.00000000000E+00 0.  1.
         13    1    1    2    0    0  0.21515486806E+03  0.87216517961E+02  0.13254507937E+04  0.13456292788E+04  0.10566000000E+00 0. -1.
<mgrwt>
<rscale>  1 0.70900073E+03</rscale>
<asrwt>0</asrwt>
<pdfrwt beam="2">  1       21 0.31331025E-01 0.10286469E+04</pdfrwt>
<pdfrwt beam="1">  1        4 0.41571879E+00 0.10286469E+04</pdfrwt>
<totfact> 0.21510039E+00</totfact>
</mgrwt>
</event>
<event>
 6    1  0.1431486E-005  0.1152245E+04  0.7818608E-02  0.9374900E-01
          4   -1    0    0  502    0 -0.00000000000E+00  0.00000000000E+00  0.96069896307E+03  0.96069896307E+03  0.00000000000E+00 0.  1.
         21   -1    0    0  501  502  0.00000000000E+00 -0.00000000000E+00 -0.76054533741E+03  0.76054533741E+03  0.00000000000E+00 0.  1.
    9000010    2    1    2  501    0  0.44143862068E+03 -0.26344163306E+03 -0.41966214867E+02  0.11530088051E+04  0.10312121952E+04 0.  0.
        -13    1    3    3    0    0 -0.17134843573E+03 -0.18967638951E+02 -0.37590840454E+03  0.41355434651E+03  0.10566000000E+00 0.  1.
          4    1    3    3  501    0  0.61278705641E+03 -0.24447399410E+03  0.33394218967E+03  0.73945445860E+03  0.00000000000E+00 0.  1.
         13    1    1    2    0    0 -0.44143862068E+03  0.26344163306E+03  0.24211984052E+03  0.56823549537E+03  0.10566000000E+00 0. -1.
<mgrwt>
<rscale>  1 0.94170412E+03</rscale>
<asrwt>0</asrwt>
<pdfrwt beam="2">  1       21 0.11700697E+00 0.11522448E+04</pdfrwt>
<pdfrwt beam="1">  1        4 0.14779984E+00 0.11522448E+04</pdfrwt>
<totfact> 0.62532241E+00</totfact>
</mgrwt>
</event>
<event>
 6    1  0.1431486E-005  0.1009791E+04  0.7818608E-02  0.1004049E+00
         21   -1    0    0  501  502  0.00000000000E+00  0.00000000000E+00  0.13989242505E+04  0.13989242505E+04  0.00000000000E+00 0.  1.
          4   -1    0    0  502    0 -0.00000000000E+00 -0.00000000000E+00 -0.22887342118E+03  0.22887342118E+03  0.00000000000E+00 0.  1.
    9000010    2    1    2  501    0  0.53651186305E+02  0.62053465517E+02  0.11703485771E+04  0.15457660791E+04  0.10064531270E+04 0.  0.
        -13    1    3    3    0    0  0.29130911217E+03  0.41503107558E+03  0.92422975935E+03  0.10541880533E+04  0.10566000000E+00 0.  1.
          4    1    3    3  501    0 -0.23765792587E+03 -0.35297761007E+03  0.24611881777E+03  0.49157802575E+03  0.00000000000E+00 0.  1.
         13    1    1    2    0    0 -0.53651186305E+02 -0.62053465517E+02 -0.29774775730E+00  0.82031592648E+02  0.10566000000E+00 0. -1.
<mgrwt>
<rscale>  1 0.53909841E+03</rscale>
<asrwt>0</asrwt>
<pdfrwt beam="1">  1       21 0.21521911E+00 0.10097906E+04</pdfrwt>
<pdfrwt beam="2">  1        4 0.35211296E-01 0.10097906E+04</pdfrwt>
<totfact> 0.28870932E+01</totfact>
</mgrwt>
</event>
<event>
 6    1  0.1431486E-005  0.9970348E+03  0.7818608E-02  0.1021387E+00
          4   -1    0    0  502    0 -0.00000000000E+00  0.00000000000E+00  0.10495824587E+04  0.10495824587E+04  0.00000000000E+00 0.  1.
         21   -1    0    0  501  502  0.00000000000E+00 -0.00000000000E+00 -0.32316980265E+03  0.32316980265E+03  0.00000000000E+00 0.  1.
    9000010    2    1    2  501    0  0.15177821856E+02 -0.47674196110E+02  0.45356200140E+03  0.10953523945E+04  0.99577868207E+03 0.  0.
        -13    1    3    3    0    0 -0.46358037597E+03 -0.95712868751E+01  0.39950467909E+03  0.61204768956E+03  0.10566000000E+00 0.  1.
          4    1    3    3  501    0  0.47875819783E+03 -0.38102909234E+02  0.54057322311E+02  0.48330470489E+03  0.00000000000E+00 0.  1.
         13    1    1    2    0    0 -0.15177821856E+02  0.47674196110E+02  0.27285065467E+03  0.27739986692E+03  0.10566000000E+00 0. -1.
<mgrwt>
<rscale>  1 0.47189439E+03</rscale>
<asrwt>0</asrwt>
<pdfrwt beam="2">  1       21 0.49718432E-01 0.99703479E+03</pdfrwt>
<pdfrwt beam="1">  1        4 0.16147422E+00 0.99703479E+03</pdfrwt>
<totfact> 0.37191366E+01</totfact>
</mgrwt>
</event>
<event>
 6    1  0.1431486E-005  0.1062669E+04  0.7818608E-02  0.9554128E-01
         21   -1    0    0  501  502  0.00000000000E+00  0.00000000000E+00  0.38020961080E+03  0.38020961080E+03  0.00000000000E+00 0.  1.
          4   -1    0    0  502    0 -0.00000000000E+00 -0.00000000000E+00 -0.13119280998E+04  0.13119280998E+04  0.00000000000E+00 0.  1.
    9000010    2    1    2  501    0  0.33102139971E+03 -0.10847886644E+03 -0.66740067970E+03  0.12548657735E+04  0.10039529923E+04 0.  0.
        -13    1    3    3    0    0 -0.13591841772E+03  0.33052666561E+03 -0.42784962799E+02  0.35993368439E+03  0.10566000000E+00 0.  1.
          4    1    3    3  501    0  0.46693981743E+03 -0.43900553206E+03 -0.62461571691E+03  0.89493208909E+03  0.00000000000E+00 0.  1.
         13    1    1    2    0    0 -0.33102139971E+03  0.10847886644E+03 -0.26431780932E+03  0.43727193715E+03  0.10566000000E+00 0. -1.
<mgrwt>
<rscale>  1 0.80408163E+03</rscale>
<asrwt>0</asrwt>
<pdfrwt beam="1">  1       21 0.58493788E-01 0.10626685E+04</pdfrwt>
<pdfrwt beam="2">  1        4 0.20183509E+00 0.10626685E+04</pdfrwt>
<totfact> 0.13548812E+01</totfact>
</mgrwt>
</event>
<event>
 6    1  0.1431486E-005  0.1034328E+04  0.7818608E-02  0.9654438E-01
          4   -1    0    0  502    0 -0.00000000000E+00  0.00000000000E+00  0.18679626972E+04  0.18679626972E+04  0.00000000000E+00 0.  1.
         21   -1    0    0  501  502  0.00000000000E+00 -0.00000000000E+00 -0.25489923631E+03  0.25489923631E+03  0.00000000000E+00 0.  1.
    9000010    2    1    2  501    0 -0.11416433559E+03  0.24247471338E+03  0.93708928865E+03  0.13956971827E+04  0.99900290725E+03 0.  0.
        -13    1    3    3    0    0 -0.11823725520E+03  0.50448332594E+03  0.11216668047E+03  0.53015549610E+03  0.10566000000E+00 0.  1.
          4    1    3    3  501    0  0.40729196133E+01 -0.26200861256E+03  0.82492260817E+03  0.86554168658E+03  0.00000000000E+00 0.  1.
         13    1    1    2    0    0  0.11416433559E+03 -0.24247471338E+03  0.67597417225E+03  0.72716475084E+03  0.10566000000E+00 0. -1.
<mgrwt>
<rscale>  1 0.73795526E+03</rscale>
<asrwt>0</asrwt>
<pdfrwt beam="2">  1       21 0.39215268E-01 0.10343279E+04</pdfrwt>
<pdfrwt beam="1">  1        4 0.28737887E+00 0.10343279E+04</pdfrwt>
<totfact> 0.93380720E+00</totfact>
</mgrwt>
</event>
<event>
 6    1  0.1431486E-005  0.1002598E+04  0.7818608E-02  0.9975025E-01
          4   -1    0    0  502    0 -0.00000000000E+00  0.00000000000E+00  0.14526796824E+03  0.14526796824E+03  0.00000000000E+00 0.  1.
         21   -1    0    0  501  502  0.00000000000E+00 -0.00000000000E+00 -0.24483240068E+04  0.24483240068E+04  0.00000000000E+00 0.  1.
    9000010    2    1    2  501    0 -0.98768260831E+02  0.29155308650E+02 -0.22761107171E+04  0.24871435703E+04  0.99729531304E+03 0.  0.
        -13    1    3    3    0    0 -0.60597073024E+02  0.17372599548E+03  0.20987243499E+02  0.18518423885E+03  0.10566000000E+00 0.  1.
          4    1    3    3  501    0 -0.38171187808E+02 -0.14457068683E+03 -0.22970979606E+04  0.23019593314E+04  0.00000000000E+00 0.  1.
         13    1    1    2    0    0  0.98768260831E+02 -0.29155308650E+02 -0.26945321521E+02  0.10644840481E+03  0.10566000000E+00 0. -1.
<mgrwt>
<rscale>  1 0.56759049E+03</rscale>
<asrwt>0</asrwt>
<pdfrwt beam="2">  1       21 0.37666525E+00 0.10025982E+04</pdfrwt>
<pdfrwt beam="1">  1        4 0.22348917E-01 0.10025982E+04</pdfrwt>
<totfact> 0.66503290E+00</totfact>
</mgrwt>
</event>
<event>
 6    1  0.1431486E-005  0.1009293E+04  0.7818608E-02  0.9817861E-01
          4   -1    0    0  502    0 -0.00000000000E+00  0.00000000000E+00  0.11686141516E+04  0.11686141516E+04  0.00000000000E+00 0.  1.
         21   -1    0    0  501  502  0.00000000000E+00 -0.00000000000E+00 -0.29837339392E+03  0.29837339392E+03  0.00000000000E+00 0.  1.
    9000010    2    1    2  501    0  0.45891742160E+02 -0.16101879207E+03  0.70049787117E+03  0.12285640524E+04  0.99530862545E+03 0.  0.
        -13    1    3    3    0    0  0.34260618180E+03  0.10320303018E+03  0.74726565949E+03  0.82851423540E+03  0.10566000000E+00 0.  1.
          4    1    3    3  501    0 -0.29671443964E+03 -0.26422182225E+03 -0.46767788321E+02  0.40004981698E+03  0.00000000000E+00 0.  1.
         13    1    1    2    0    0 -0.45891742160E+02  0.16101879207E+03  0.16974288653E+03  0.23842349316E+03  0.10566000000E+00 0. -1.
<mgrwt>
<rscale>  1 0.64412754E+03</rscale>
<asrwt>0</asrwt>
<pdfrwt beam="2">  1       21 0.45903600E-01 0.10092930E+04</pdfrwt>
<pdfrwt beam="1">  1        4 0.17978679E+00 0.10092930E+04</pdfrwt>
<totfact> 0.32564106E+01</totfact>
</mgrwt>
</event>
<event>
 6    1  0.1431486E-005  0.1071670E+04  0.7818608E-02  0.9549385E-01
         21   -1    0    0  501  502  0.00000000000E+00  0.00000000000E+00  0.16922048262E+04  0.16922048262E+04  0.00000000000E+00 0. -1.
          4   -1    0    0  502    0 -0.00000000000E+00 -0.00000000000E+00 -0.30236677283E+03  0.30236677283E+03  0.00000000000E+00 0.  1.
    9000010    2    1    2  501    0  0.33415498998E+03 -0.86857290336E+02  0.11629608718E+04  0.15814408535E+04  0.10145311418E+04 0.  0.
        -13    1    3    3    0    0 -0.36422377834E+02 -0.79069608284E+02  0.12052384224E+04  0.12083783590E+04  0.10566000000E+00 0.  1.
          4    1    3    3  501    0  0.37057736782E+03 -0.77876820524E+01 -0.42277550573E+02  0.37306249451E+03  0.00000000000E+00 0.  1.
         13    1    1    2    0    0 -0.33415498998E+03  0.86857290336E+02  0.22687718158E+03  0.41313074553E+03  0.10566000000E+00 0. -1.
<mgrwt>
<rscale>  1 0.80738771E+03</rscale>
<asrwt>0</asrwt>
<pdfrwt beam="1">  1       21 0.26033920E+00 0.10716703E+04</pdfrwt>
<pdfrwt beam="2">  1        4 0.46517966E-01 0.10716703E+04</pdfrwt>
<totfact> 0.82801000E+00</totfact>
</mgrwt>
</event>
<event>
 6    1  0.1431486E-005  0.1037750E+04  0.7818608E-02  0.9646084E-01
         21   -1    0    0  501  502  0.00000000000E+00  0.00000000000E+00  0.38407380248E+03  0.38407380248E+03  0.00000000000E+00 0.  1.
          4   -1    0    0  502    0 -0.00000000000E+00 -0.00000000000E+00 -0.14148842336E+04  0.14148842336E+04  0.00000000000E+00 0.  1.
    9000010    2    1    2  501    0  0.20766960880E+03 -0.17718263788E+03 -0.40099969900E+03  0.11125311113E+04  0.10012014590E+04 0.  0.
        -13    1    3    3    0    0 -0.74257315833E+02  0.29747094335E+03  0.14225731667E+03  0.33799447688E+03  0.10566000000E+00 0.  1.
          4    1    3    3  501    0  0.28192692463E+03 -0.47465358123E+03 -0.54325701567E+03  0.77453663443E+03  0.00000000000E+00 0.  1.
         13    1    1    2    0    0 -0.20766960880E+03  0.17718263788E+03 -0.62981073209E+03  0.68642692474E+03  0.10566000000E+00 0. -1.
<mgrwt>
<rscale>  1 0.74319688E+03</rscale>
<asrwt>0</asrwt>
<pdfrwt beam="1">  1       21 0.59088278E-01 0.10377498E+04</pdfrwt>
<pdfrwt beam="2">  1        4 0.21767450E+00 0.10377498E+04</pdfrwt>
<totfact> 0.10479598E+01</totfact>
</mgrwt>
</event>
<event>
 6    1  0.1431486E-005  0.1069945E+04  0.7818608E-02  0.9769613E-01
         21   -1    0    0  501  502  0.00000000000E+00  0.00000000000E+00  0.12147873287E+04  0.12147873287E+04  0.00000000000E+00 0.  1.
          4   -1    0    0  502    0 -0.00000000000E+00 -0.00000000000E+00 -0.31386529847E+03  0.31386529847E+03  0.00000000000E+00 0.  1.
    9000010    2    1    2  501    0 -0.16270132190E+03 -0.25617971080E+02  0.76900372026E+03  0.13176302296E+04  0.10571918935E+04 0.  0.
        -13    1    3    3    0    0  0.28241703154E+03 -0.22540354214E+02  0.82190863088E+03  0.86936830858E+03  0.10566000000E+00 0.  1.
          4    1    3    3  501    0 -0.44511835345E+03 -0.30776168658E+01 -0.52904910619E+02  0.44826192105E+03  0.00000000000E+00 0.  1.
         13    1    1    2    0    0  0.16270132190E+03  0.25617971080E+02  0.13191830996E+03  0.21102239753E+03  0.10566000000E+00 0. -1.
<mgrwt>
<rscale>  1 0.67019078E+03</rscale>
<asrwt>0</asrwt>
<pdfrwt beam="1">  1       21 0.18689036E+00 0.10699452E+04</pdfrwt>
<pdfrwt beam="2">  1        4 0.48286970E-01 0.10699452E+04</pdfrwt>
<totfact> 0.23505559E+01</totfact>
</mgrwt>
</event>
<event>
 6    1  0.1431486E-005  0.9885205E+03  0.7818608E-02  0.9965106E-01
          4   -1    0    0  502    0 -0.00000000000E+00  0.00000000000E+00  0.44859253056E+03  0.44859253056E+03  0.00000000000E+00 0.  1.
         21   -1    0    0  501  502  0.00000000000E+00 -0.00000000000E+00 -0.68094003343E+03  0.68094003343E+03  0.00000000000E+00 0.  1.
    9000010    2    1    2  501    0  0.23599149289E+02  0.10833677710E+03 -0.24357781702E+03  0.10180879219E+04  0.98228259006E+03 0.  0.
        -13    1    3    3    0    0  0.27222380979E+02  0.36729752506E+03 -0.52134263298E+03  0.63831550355E+03  0.10566000000E+00 0.  1.
          4    1    3    3  501    0 -0.36232316900E+01 -0.25896074796E+03  0.27776481596E+03  0.37977241839E+03  0.00000000000E+00 0.  1.
         13    1    1    2    0    0 -0.23599149289E+02 -0.10833677710E+03  0.11230314152E+02  0.11144464204E+03  0.10566000000E+00 0. -1.
<mgrwt>
<rscale>  1 0.57207108E+03</rscale>
<asrwt>0</asrwt>
<pdfrwt beam="2">  1       21 0.10476001E+00 0.98852054E+03</pdfrwt>
<pdfrwt beam="1">  1        4 0.69014235E-01 0.98852054E+03</pdfrwt>
<totfact> 0.53506132E+01</totfact>
</mgrwt>
</event>
<event>
 6    1  0.1431486E-005  0.1425715E+04  0.7818608E-02  0.9021851E-01
          4   -1    0    0  502    0 -0.00000000000E+00  0.00000000000E+00  0.16306192861E+04  0.16306192861E+04  0.00000000000E+00 0.  1.
         21   -1    0    0  501  502  0.00000000000E+00 -0.00000000000E+00 -0.13837757636E+04  0.13837757636E+04  0.00000000000E+00 0.  1.
    9000010    2    1    2  501    0  0.67508292838E+03  0.75863756116E+03 -0.73311470747E+03  0.16031594020E+04  0.10006972492E+04 0.  0.
        -13    1    3    3    0    0  0.71171463507E+02  0.28829901964E+03  0.22806213674E+03  0.37442496087E+03  0.10566000000E+00 0.  1.
          4    1    3    3  501    0  0.60391146488E+03  0.47033854153E+03 -0.96117684421E+03  0.12287344412E+04  0.00000000000E+00 0.  1.
         13    1    1    2    0    0 -0.67508292838E+03 -0.75863756116E+03  0.97995822996E+03  0.14112356476E+04  0.10566000000E+00 0. -1.
<mgrwt>
<rscale>  1 0.13097727E+04</rscale>
<asrwt>0</asrwt>
<pdfrwt beam="2">  1       21 0.21288858E+00 0.14257149E+04</pdfrwt>
<pdfrwt beam="1">  1        4 0.25086450E+00 0.14257149E+04</pdfrwt>
<totfact> 0.21256284E-01</totfact>
</mgrwt>
</event>
<event>
 6    1  0.1431486E-005  0.1379239E+04  0.7818608E-02  0.9067859E-01
         21   -1    0    0  501  502  0.00000000000E+00  0.00000000000E+00  0.13721479181E+04  0.13721479181E+04  0.00000000000E+00 0. -1.
          4   -1    0    0  502    0 -0.00000000000E+00 -0.00000000000E+00 -0.14217120799E+04  0.14217120799E+04  0.00000000000E+00 0.  1.
    9000010    2    1    2  501    0  0.77566266923E+03 -0.52897630235E+03  0.74170883544E+03  0.15660239046E+04  0.10103615037E+04 0.  0.
        -13    1    3    3    0    0  0.67369746416E+03 -0.54676617586E+03  0.52665444609E+02  0.86924978257E+03  0.10566000000E+00 0.  1.
          4    1    3    3  501    0  0.10196520507E+03  0.17789873515E+02  0.68904339083E+03  0.69677412200E+03  0.00000000000E+00 0.  1.
         13    1    1    2    0    0 -0.77566266923E+03  0.52897630235E+03 -0.79127299726E+03  0.12278360934E+04  0.10566000000E+00 0. -1.
<mgrwt>
<rscale>  1 0.12527961E+04</rscale>
<asrwt>0</asrwt>
<pdfrwt beam="1">  1       21 0.21109968E+00 0.13792385E+04</pdfrwt>
<pdfrwt beam="2">  1        4 0.21872493E+00 0.13792385E+04</pdfrwt>
<totfact> 0.35164956E-01</totfact>
</mgrwt>
</event>
<event>
 6    1  0.1431486E-005  0.1043826E+04  0.7818608E-02  0.9581561E-01
          4   -1    0    0  502    0 -0.00000000000E+00  0.00000000000E+00  0.58258407380E+03  0.58258407380E+03  0.00000000000E+00 0.  1.
         21   -1    0    0  501  502  0.00000000000E+00 -0.00000000000E+00 -0.11644027829E+04  0.11644027829E+04  0.00000000000E+00 0.  1.
    9000010    2    1    2  501    0  0.29073780565E+03 -0.16515452938E+03 -0.82751716582E+03  0.13320504362E+04  0.98882213500E+03 0.  0.
        -13    1    3    3    0    0 -0.16377588635E+03 -0.26472863243E+03 -0.80851223115E+03  0.86636933744E+03  0.10566000000E+00 0.  1.
          4    1    3    3  501    0  0.45451369199E+03  0.99574103044E+02 -0.19004934666E+02  0.46568109877E+03  0.00000000000E+00 0.  1.
         13    1    1    2    0    0 -0.29073780565E+03  0.16515452938E+03  0.24569845675E+03  0.41493642046E+03  0.10566000000E+00 0. -1.
<mgrwt>
<rscale>  1 0.78528742E+03</rscale>
<asrwt>0</asrwt>
<pdfrwt beam="2">  1       21 0.17913889E+00 0.10438265E+04</pdfrwt>
<pdfrwt beam="1">  1        4 0.89628320E-01 0.10438265E+04</pdfrwt>
<totfact> 0.67945827E+00</totfact>
</mgrwt>
</event>
<event>
 6    1  0.1431486E-005  0.1017045E+04  0.7818608E-02  0.9898812E-01
         21   -1    0    0  501  502  0.00000000000E+00  0.00000000000E+00  0.75192275175E+03  0.75192275175E+03  0.00000000000E+00 0.  1.
          4   -1    0    0  502    0 -0.00000000000E+00 -0.00000000000E+00 -0.48685518246E+03  0.48685518246E+03  0.00000000000E+00 0.  1.
    9000010    2    1    2  501    0  0.12047536510E+03  0.36324813826E+02  0.87029924598E+02  0.10207613757E+04  0.10092302872E+04 0.  0.
        -13    1    3    3    0    0  0.48569798863E+03 -0.15365214090E+03 -0.16809504435E+03  0.53643962537E+03  0.10566000000E+00 0.  1.
          4    1    3    3  501    0 -0.36522262354E+03  0.18997695472E+03  0.25512496894E+03  0.48432175034E+03  0.00000000000E+00 0.  1.
         13    1    1    2    0    0 -0.12047536510E+03 -0.36324813826E+02  0.17803764469E+03  0.21801655851E+03  0.10566000000E+00 0. -1.
<mgrwt>
<rscale>  1 0.60318875E+03</rscale>
<asrwt>0</asrwt>
<pdfrwt beam="1">  1       21 0.11568042E+00 0.10170445E+04</pdfrwt>
<pdfrwt beam="2">  1        4 0.74900797E-01 0.10170445E+04</pdfrwt>
<totfact> 0.34527859E+01</totfact>
</mgrwt>
</event>
<event>
 6    1  0.1431486E-005  0.1035193E+04  0.7818608E-02  0.1015091E+00
         21   -1    0    0  501  502  0.00000000000E+00  0.00000000000E+00  0.71651994001E+03  0.71651994001E+03  0.00000000000E+00 0.  1.
          4   -1    0    0  502    0 -0.00000000000E+00 -0.00000000000E+00 -0.48000871971E+03  0.48000871971E+03  0.00000000000E+00 0.  1.
    9000010    2    1    2  501    0  0.52694354966E+02  0.12345228858E+02  0.33169388045E+03  0.10870350541E+04  0.10337771901E+04 0.  0.
        -13    1    3    3    0    0  0.14452353148E+03 -0.32759771340E+03  0.56193410632E+03  0.66631618920E+03  0.10566000000E+00 0.  1.
          4    1    3    3  501    0 -0.91829176515E+02  0.33994294226E+03 -0.23024022586E+03  0.42071886487E+03  0.00000000000E+00 0.  1.
         13    1    1    2    0    0 -0.52694354966E+02 -0.12345228858E+02 -0.95182660160E+02  0.10949360566E+03  0.10566000000E+00 0. -1.
<mgrwt>
<rscale>  1 0.49500313E+03</rscale>
<asrwt>0</asrwt>
<pdfrwt beam="1">  1       21 0.11023384E+00 0.10351929E+04</pdfrwt>
<pdfrwt beam="2">  1        4 0.73847496E-01 0.10351929E+04</pdfrwt>
<totfact> 0.40249117E+01</totfact>
</mgrwt>
</event>
<event>
 6    1  0.1431486E-005  0.9864359E+03  0.7818608E-02  0.9807424E-01
         21   -1    0    0  501  502  0.00000000000E+00  0.00000000000E+00  0.80373306543E+03  0.80373306543E+03  0.00000000000E+00 0.  1.
          4   -1    0    0  502    0 -0.00000000000E+00 -0.00000000000E+00 -0.86719117195E+03  0.86719117195E+03  0.00000000000E+00 0.  1.
    9000010    2    1    2  501    0 -0.16994978179E+03 -0.74542448634E+02  0.47973459413E+03  0.10969052253E+04  0.96882211350E+03 0.  0.
        -13    1    3    3    0    0  0.20101502957E+03  0.75502372951E+02 -0.20945617763E+03  0.29996591798E+03  0.10566000000E+00 0.  1.
          4    1    3    3  501    0 -0.37096481136E+03 -0.15004482158E+03  0.68919077176E+03  0.79693930737E+03  0.00000000000E+00 0.  1.
         13    1    1    2    0    0  0.16994978179E+03  0.74542448634E+02 -0.54319270065E+03  0.57401901204E+03  0.10566000000E+00 0. -1.
<mgrwt>
<rscale>  1 0.64965649E+03</rscale>
<asrwt>0</asrwt>
<pdfrwt beam="1">  1       21 0.12365124E+00 0.98643590E+03</pdfrwt>
<pdfrwt beam="2">  1        4 0.13341403E+00 0.98643590E+03</pdfrwt>
<totfact> 0.72295907E+00</totfact>
</mgrwt>
</event>
<event>
 6    1  0.1431486E-005  0.9985509E+03  0.7818608E-02  0.1005336E+00
         21   -1    0    0  501  502  0.00000000000E+00  0.00000000000E+00  0.95244361543E+03  0.95244361543E+03  0.00000000000E+00 0.  1.
          4   -1    0    0  502    0 -0.00000000000E+00 -0.00000000000E+00 -0.56070069164E+03  0.56070069164E+03  0.00000000000E+00 0.  1.
    9000010    2    1    2  501    0 -0.81128009584E+02 -0.76974884341E+01  0.68359627516E+03  0.12101271539E+04  0.99522000374E+03 0.  0.
        -13    1    3    3    0    0 -0.13926963721E+03 -0.43838487300E+03  0.61833678864E+03  0.77066057644E+03  0.10566000000E+00 0.  1.
          4    1    3    3  501    0  0.58141627628E+02  0.43068738457E+03  0.65259486517E+02  0.43946657742E+03  0.00000000000E+00 0.  1.
         13    1    1    2    0    0  0.81128009584E+02  0.76974884341E+01 -0.29185335137E+03  0.30301715320E+03  0.10566000000E+00 0. -1.
<mgrwt>
<rscale>  1 0.53371200E+03</rscale>
<asrwt>0</asrwt>
<pdfrwt beam="1">  1       21 0.14652979E+00 0.99855088E+03</pdfrwt>
<pdfrwt beam="2">  1        4 0.86261645E-01 0.99855088E+03</pdfrwt>
<totfact> 0.13323024E+01</totfact>
</mgrwt>
</event>
<event>
 6    1  0.1431486E-005  0.9821927E+03  0.7818608E-02  0.9936975E-01
          4   -1    0    0  502    0 -0.00000000000E+00  0.00000000000E+00  0.26283396309E+03  0.26283396309E+03  0.00000000000E+00 0.  1.
         21   -1    0    0  501  502  0.00000000000E+00 -0.00000000000E+00 -0.11834288409E+04  0.11834288409E+04  0.00000000000E+00 0.  1.
    9000010    2    1    2  501    0  0.20219269513E+02  0.12195894679E+03 -0.75107107094E+03  0.12364506599E+04  0.97438168964E+03 0.  0.
        -13    1    3    3    0    0  0.23520053035E+03 -0.25774204029E+03  0.21056872260E+02  0.34956208582E+03  0.10566000000E+00 0.  1.
          4    1    3    3  501    0 -0.21498126084E+03  0.37970098708E+03 -0.77212794320E+03  0.88688857405E+03  0.00000000000E+00 0.  1.
         13    1    1    2    0    0 -0.20219269513E+02 -0.12195894679E+03 -0.16952380686E+03  0.20981214411E+03  0.10566000000E+00 0. -1.
<mgrwt>
<rscale>  1 0.58502307E+03</rscale>
<asrwt>0</asrwt>
<pdfrwt beam="2">  1       21 0.18206598E+00 0.98219269E+03</pdfrwt>
<pdfrwt beam="1">  1        4 0.40435994E-01 0.98219269E+03</pdfrwt>
<totfact> 0.37114552E+01</totfact>
</mgrwt>
</event>
<event>
 6    1  0.1431486E-005  0.9959601E+03  0.7818608E-02  0.9894113E-01
         21   -1    0    0  501  502  0.00000000000E+00  0.00000000000E+00  0.13097775752E+04  0.13097775752E+04  0.00000000000E+00 0.  1.
          4   -1    0    0  502    0 -0.00000000000E+00 -0.00000000000E+00 -0.24940970682E+03  0.24940970682E+03  0.00000000000E+00 0.  1.
    9000010    2    1    2  501    0  0.13603211896E+03  0.11688864972E+01  0.99657578538E+03  0.14089356774E+04  0.98662573617E+03 0.  0.
        -13    1    3    3    0    0  0.13118885080E+03 -0.47233959002E+03  0.68404331625E+03  0.84156430090E+03  0.10566000000E+00 0.  1.
          4    1    3    3  501    0  0.48432681575E+01  0.47350847652E+03  0.31253246913E+03  0.56737137647E+03  0.00000000000E+00 0.  1.
         13    1    1    2    0    0 -0.13603211896E+03 -0.11688864972E+01  0.63792083019E+02  0.15025160467E+03  0.10566000000E+00 0. -1.
<mgrwt>
<rscale>  1 0.60547449E+03</rscale>
<asrwt>0</asrwt>
<pdfrwt beam="1">  1       21 0.20150424E+00 0.99596006E+03</pdfrwt>
<pdfrwt beam="2">  1        4 0.38370725E-01 0.99596006E+03</pdfrwt>
<totfact> 0.30109733E+01</totfact>
</mgrwt>
</event>
<event>
 6    1  0.1431486E-005  0.1036766E+04  0.7818608E-02  0.9674412E-01
          4   -1    0    0  502    0 -0.00000000000E+00  0.00000000000E+00  0.50083668139E+03  0.50083668139E+03  0.00000000000E+00 0.  1.
         21   -1    0    0  501  502  0.00000000000E+00 -0.00000000000E+00 -0.11444759397E+04  0.11444759397E+04  0.00000000000E+00 0.  1.
    9000010    2    1    2  501    0  0.23719265894E+03  0.74951895591E+02 -0.83521361887E+03  0.13313398660E+04  0.10064819450E+04 0.  0.
        -13    1    3    3    0    0  0.18914644331E+03 -0.35920370527E+03 -0.79504257611E+03  0.89269053311E+03  0.10566000000E+00 0.  1.
          4    1    3    3  501    0  0.48046215626E+02  0.43415560087E+03 -0.40171042755E+02  0.43864933292E+03  0.00000000000E+00 0.  1.
         13    1    1    2    0    0 -0.23719265894E+03 -0.74951895591E+02  0.19157436058E+03  0.31397275503E+03  0.10566000000E+00 0. -1.
<mgrwt>
<rscale>  1 0.72560919E+03</rscale>
<asrwt>0</asrwt>
<pdfrwt beam="2">  1       21 0.17607322E+00 0.10367661E+04</pdfrwt>
<pdfrwt beam="1">  1        4 0.77051798E-01 0.10367661E+04</pdfrwt>
<totfact> 0.10165110E+01</totfact>
</mgrwt>
</event>
<event>
 6    1  0.1431486E-005  0.1064904E+04  0.7818608E-02  0.9540079E-01
          4   -1    0    0  502    0 -0.00000000000E+00  0.00000000000E+00  0.63767436100E+03  0.63767436100E+03  0.00000000000E+00 0.  1.
         21   -1    0    0  501  502  0.00000000000E+00 -0.00000000000E+00 -0.10625272808E+04  0.10625272808E+04  0.00000000000E+00 0.  1.
    9000010    2    1    2  501    0  0.24651473803E+03 -0.26702240275E+03 -0.67336928754E+03  0.12599393611E+04  0.10009747832E+04 0.  0.
        -13    1    3    3    0    0 -0.17859318979E+01 -0.51638927899E+03 -0.18755803731E+02  0.51673287910E+03  0.10566000000E+00 0.  1.
          4    1    3    3  501    0  0.24830066993E+03  0.24936687624E+03 -0.65461348381E+03  0.74320648197E+03  0.00000000000E+00 0.  1.
         13    1    1    2    0    0 -0.24651473803E+03  0.26702240275E+03  0.24851636774E+03  0.44026228073E+03  0.10566000000E+00 0. -1.
<mgrwt>
<rscale>  1 0.81392359E+03</rscale>
<asrwt>0</asrwt>
<pdfrwt beam="2">  1       21 0.16346573E+00 0.10649042E+04</pdfrwt>
<pdfrwt beam="1">  1        4 0.98103750E-01 0.10649042E+04</pdfrwt>
<totfact> 0.71593113E+00</totfact>
</mgrwt>
</event>
<event>
 6    1  0.1431486E-005  0.1023962E+04  0.7818608E-02  0.9747513E-01
         21   -1    0    0  501  502  0.00000000000E+00  0.00000000000E+00  0.12372594162E+04  0.12372594162E+04  0.00000000000E+00 0.  1.
          4   -1    0    0  502    0 -0.00000000000E+00 -0.00000000000E+00 -0.30537490520E+03  0.30537490520E+03  0.00000000000E+00 0.  1.
    9000010    2    1    2  501    0  0.80881621794E+02 -0.18529603816E+03  0.81804023160E+03  0.13106063283E+04  0.10038040987E+04 0.  0.
        -13    1    3    3    0    0 -0.26109980696E+03 -0.49370352403E+03  0.38383921805E+03  0.67767900611E+03  0.10566000000E+00 0.  1.
          4    1    3    3  501    0  0.34198142876E+03  0.30840748587E+03  0.43420101355E+03  0.63292732215E+03  0.00000000000E+00 0.  1.
         13    1    1    2    0    0 -0.80881621794E+02  0.18529603816E+03  0.11384427945E+03  0.23202799320E+03  0.10566000000E+00 0. -1.
<mgrwt>
<rscale>  1 0.68257001E+03</rscale>
<asrwt>0</asrwt>
<pdfrwt beam="1">  1       21 0.19034760E+00 0.10239625E+04</pdfrwt>
<pdfrwt beam="2">  1        4 0.46980755E-01 0.10239625E+04</pdfrwt>
<totfact> 0.23654022E+01</totfact>
</mgrwt>
</event>
<event>
 6    1  0.1431486E-005  0.1166708E+04  0.7818608E-02  0.9321111E-01
          4   -1    0    0  502    0 -0.00000000000E+00  0.00000000000E+00  0.27251179481E+04  0.27251179481E+04  0.00000000000E+00 0.  1.
         21   -1    0    0  501  502  0.00000000000E+00 -0.00000000000E+00 -0.36163941009E+03  0.36163941009E+03  0.00000000000E+00 0.  1.
    9000010    2    1    2  501    0 -0.43178539347E+03 -0.41876863549E+03  0.80841583622E+03  0.14194164171E+04  0.99970045757E+03 0.  0.
        -13    1    3    3    0    0 -0.23303794759E+03 -0.49012810094E+03 -0.40895067703E+02  0.54424687236E+03  0.10566000000E+00 0.  1.
          4    1    3    3  501    0 -0.19874744588E+03  0.71359465449E+02  0.84931090393E+03  0.87516954477E+03  0.00000000000E+00 0.  1.
         13    1    1    2    0    0  0.43178539347E+03  0.41876863549E+03  0.15550627018E+04  0.16673409410E+04  0.10566000000E+00 0. -1.
<mgrwt>
<rscale>  1 0.98862362E+03</rscale>
<asrwt>0</asrwt>
<pdfrwt beam="2">  1       21 0.55636834E-01 0.11667077E+04</pdfrwt>
<pdfrwt beam="1">  1        4 0.41924890E+00 0.11667077E+04</pdfrwt>
<totfact> 0.59030654E-01</totfact>
</mgrwt>
</event>
<event>
 6    1  0.1431486E-005  0.1023458E+04  0.7818608E-02  0.9685106E-01
         21   -1    0    0  501  502  0.00000000000E+00  0.00000000000E+00  0.85613662895E+03  0.85613662895E+03  0.00000000000E+00 0.  1.
          4   -1    0    0  502    0 -0.00000000000E+00 -0.00000000000E+00 -0.58189655265E+03  0.58189655265E+03  0.00000000000E+00 0.  1.
    9000010    2    1    2  501    0  0.22608660449E+03 -0.10537153207E+03  0.46487678681E+03  0.11240894302E+04  0.99259674975E+03 0.  0.
        -13    1    3    3    0    0 -0.34803094228E+03  0.16763424344E+03  0.20474493329E+03  0.43720392866E+03  0.10566000000E+00 0.  1.
          4    1    3    3  501    0  0.57411754678E+03 -0.27300577552E+03  0.26013185351E+03  0.68688550152E+03  0.00000000000E+00 0.  1.
         13    1    1    2    0    0 -0.22608660449E+03  0.10537153207E+03 -0.19063671050E+03  0.31394375142E+03  0.10566000000E+00 0. -1.
<mgrwt>
<rscale>  1 0.71910509E+03</rscale>
<asrwt>0</asrwt>
<pdfrwt beam="1">  1       21 0.13171333E+00 0.10234582E+04</pdfrwt>
<pdfrwt beam="2">  1        4 0.89522547E-01 0.10234582E+04</pdfrwt>
<totfact> 0.16271321E+01</totfact>
</mgrwt>
</event>
<event>
 6    1  0.1431486E-005  0.9303129E+03  0.7818608E-02  0.9819116E-01
          4   -1    0    0  502    0 -0.00000000000E+00  0.00000000000E+00  0.54102563839E+03  0.54102563839E+03  0.00000000000E+00 0.  1.
         21   -1    0    0  501  502  0.00000000000E+00 -0.00000000000E+00 -0.10745562820E+04  0.10745562820E+04  0.00000000000E+00 0.  1.
    9000010    2    1    2  501    0  0.19556030681E+03  0.84209077632E+02 -0.83258672809E+03  0.12484721886E+04  0.90561975657E+03 0.  0.
        -13    1    3    3    0    0 -0.26750086461E+03  0.26092269269E+03 -0.58569642146E+03  0.69475007982E+03  0.10566000000E+00 0.  1.
          4    1    3    3  501    0  0.46306117141E+03 -0.17671361505E+03 -0.24689030663E+03  0.55372210875E+03  0.00000000000E+00 0.  1.
         13    1    1    2    0    0 -0.19556030681E+03 -0.84209077632E+02  0.29905608450E+03  0.36710973181E+03  0.10566000000E+00 0. -1.
<mgrwt>
<rscale>  1 0.64346660E+03</rscale>
<asrwt>0</asrwt>
<pdfrwt beam="2">  1       21 0.16531635E+00 0.93031293E+03</pdfrwt>
<pdfrwt beam="1">  1        4 0.83234714E-01 0.93031293E+03</pdfrwt>
<totfact> 0.10382547E+01</totfact>
</mgrwt>
</event>
<event>
 6    1  0.1431486E-005  0.9951945E+03  0.7818608E-02  0.9779545E-01
          4   -1    0    0  502    0 -0.00000000000E+00  0.00000000000E+00  0.42316292634E+03  0.42316292634E+03  0.00000000000E+00 0.  1.
         21   -1    0    0  501  502  0.00000000000E+00 -0.00000000000E+00 -0.84166431842E+03  0.84166431842E+03  0.00000000000E+00 0.  1.
    9000010    2    1    2  501    0  0.16756348581E+03 -0.10562247598E+03 -0.33813909579E+03  0.10510709839E+04  0.97528382330E+03 0.  0.
        -13    1    3    3    0    0  0.25365616846E+02 -0.11763279677E+03  0.33865293086E+03  0.35939770191E+03  0.10566000000E+00 0.  1.
          4    1    3    3  501    0  0.14219786896E+03  0.12010320782E+02 -0.67679202665E+03  0.69167328204E+03  0.00000000000E+00 0.  1.
         13    1    1    2    0    0 -0.16756348581E+03  0.10562247598E+03 -0.80362296289E+02  0.21375626082E+03  0.10566000000E+00 0. -1.
<mgrwt>
<rscale>  1 0.66471942E+03</rscale>
<asrwt>0</asrwt>
<pdfrwt beam="2">  1       21 0.12948682E+00 0.99519454E+03</pdfrwt>
<pdfrwt beam="1">  1        4 0.65101989E-01 0.99519454E+03</pdfrwt>
<totfact> 0.35276326E+01</totfact>
</mgrwt>
</event>
<event>
 6    1  0.1431486E-005  0.1181502E+04  0.7818608E-02  0.9304478E-01
         21   -1    0    0  501  502  0.00000000000E+00  0.00000000000E+00  0.75771734405E+03  0.75771734405E+03  0.00000000000E+00 0. -1.
          4   -1    0    0  502    0 -0.00000000000E+00 -0.00000000000E+00 -0.13430247834E+04  0.13430247834E+04  0.00000000000E+00 0.  1.
    9000010    2    1    2  501    0  0.53091989794E+03  0.31114834947E+03  0.92671437379E+02  0.11851305275E+04  0.10085916610E+04 0.  0.
        -13    1    3    3    0    0 -0.17759567666E+03 -0.22941608640E+03  0.13468248447E+02  0.29043651621E+03  0.10566000000E+00 0.  1.
          4    1    3    3  501    0  0.70851557460E+03  0.54056443587E+03  0.79203188932E+02  0.89469401133E+03  0.00000000000E+00 0.  1.
         13    1    1    2    0    0 -0.53091989794E+03 -0.31114834947E+03 -0.67797887670E+03  0.91561159987E+03  0.10566000000E+00 0. -1.
<mgrwt>
<rscale>  1 0.10037167E+04</rscale>
<asrwt>0</asrwt>
<pdfrwt beam="1">  1       21 0.11657190E+00 0.11815017E+04</pdfrwt>
<pdfrwt beam="2">  1        4 0.20661920E+00 0.11815017E+04</pdfrwt>
<totfact> 0.24012815E+00</totfact>
</mgrwt>
</event>
<event>
 6    1  0.1431486E-005  0.1049250E+04  0.7818608E-02  0.9668085E-01
         21   -1    0    0  501  502  0.00000000000E+00  0.00000000000E+00  0.50211591598E+03  0.50211591598E+03  0.00000000000E+00 0.  1.
          4   -1    0    0  502    0 -0.00000000000E+00 -0.00000000000E+00 -0.11419700841E+04  0.11419700841E+04  0.00000000000E+00 0.  1.
    9000010    2    1    2  501    0 -0.20334467200E+03  0.13694212333E+03 -0.10347940663E+03  0.10543402102E+04  0.10202073762E+04 0.  0.
        -13    1    3    3    0    0 -0.20301272590E+03 -0.33469023448E+03 -0.34739375295E+03  0.52336808337E+03  0.10566000000E+00 0.  1.
          4    1    3    3  501    0 -0.33194610445E+00  0.47163235780E+03  0.24391434632E+03  0.53097212682E+03  0.00000000000E+00 0.  1.
         13    1    1    2    0    0  0.20334467200E+03 -0.13694212333E+03 -0.53637476153E+03  0.58974578994E+03  0.10566000000E+00 0. -1.
<mgrwt>
<rscale>  1 0.72949194E+03</rscale>
<asrwt>0</asrwt>
<pdfrwt beam="1">  1       21 0.77248604E-01 0.10492499E+04</pdfrwt>
<pdfrwt beam="2">  1        4 0.17568770E+00 0.10492499E+04</pdfrwt>
<totfact> 0.10858738E+01</totfact>
</mgrwt>
</event>
<event>
 6    1  0.1431486E-005  0.1031249E+04  0.7818608E-02  0.9634878E-01
         21   -1    0    0  501  502  0.00000000000E+00  0.00000000000E+00  0.45600545164E+03  0.45600545164E+03  0.00000000000E+00 0.  1.
          4   -1    0    0  502    0 -0.00000000000E+00 -0.00000000000E+00 -0.96583996747E+03  0.96583996747E+03  0.00000000000E+00 0.  1.
    9000010    2    1    2  501    0 -0.25766943134E+03  0.13080351668E+03 -0.45749688187E+03  0.11281749662E+04  0.98993548356E+03 0.  0.
        -13    1    3    3    0    0  0.27249501095E+03 -0.25375929297E+03 -0.21369766603E+03  0.42931807951E+03  0.10566000000E+00 0.  1.
          4    1    3    3  501    0 -0.53016444228E+03  0.38456280965E+03 -0.24379921584E+03  0.69885688669E+03  0.00000000000E+00 0.  1.
         13    1    1    2    0    0  0.25766943134E+03 -0.13080351668E+03 -0.52337633966E+02  0.29367045291E+03  0.10566000000E+00 0. -1.
<mgrwt>
<rscale>  1 0.75030125E+03</rscale>
<asrwt>0</asrwt>
<pdfrwt beam="1">  1       21 0.70154685E-01 0.10312494E+04</pdfrwt>
<pdfrwt beam="2">  1        4 0.14859076E+00 0.10312494E+04</pdfrwt>
<totfact> 0.21610367E+01</totfact>
</mgrwt>
</event>
<event>
 6    1  0.1431486E-005  0.1038513E+04  0.7818608E-02  0.9633635E-01
         21   -1    0    0  501  502  0.00000000000E+00  0.00000000000E+00  0.17055806392E+04  0.17055806392E+04  0.00000000000E+00 0.  1.
          4   -1    0    0  502    0 -0.00000000000E+00 -0.00000000000E+00 -0.42403759062E+03  0.42403759062E+03  0.00000000000E+00 0.  1.
    9000010    2    1    2  501    0  0.22091902622E+03  0.17870082228E+03  0.14617807833E+04  0.17931292222E+04  0.99888445239E+03 0.  0.
        -13    1    3    3    0    0  0.13569290452E+03  0.56939376091E+03  0.11336773600E+04  0.12758707564E+04  0.10566000000E+00 0.  1.
          4    1    3    3  501    0  0.85226121694E+02 -0.39069293863E+03  0.32810342331E+03  0.51725846586E+03  0.00000000000E+00 0.  1.
         13    1    1    2    0    0 -0.22091902622E+03 -0.17870082228E+03 -0.18023773473E+03  0.33648900757E+03  0.10566000000E+00 0. -1.
<mgrwt>
<rscale>  1 0.75109441E+03</rscale>
<asrwt>0</asrwt>
<pdfrwt beam="1">  1       21 0.26239702E+00 0.10385130E+04</pdfrwt>
<pdfrwt beam="2">  1        4 0.65236553E-01 0.10385130E+04</pdfrwt>
<totfact> 0.39060633E+00</totfact>
</mgrwt>
</event>
<event>
 6    1  0.1431486E-005  0.1023997E+04  0.7818608E-02  0.9727224E-01
          4   -1    0    0  502    0 -0.00000000000E+00  0.00000000000E+00  0.10647442162E+04  0.10647442162E+04  0.00000000000E+00 0.  1.
         21   -1    0    0  501  502  0.00000000000E+00 -0.00000000000E+00 -0.39093955819E+03  0.39093955819E+03  0.00000000000E+00 0.  1.
    9000010    2    1    2  501    0  0.16978392177E+03  0.13397449703E+03  0.69619920154E+03  0.12382503991E+04  0.10008970860E+04 0.  0.
        -13    1    3    3    0    0 -0.21959738277E+03  0.21777540326E+02 -0.17223135345E+03  0.27993020926E+03  0.10566000000E+00 0.  1.
          4    1    3    3  501    0  0.38938130453E+03  0.11219695671E+03  0.86843055499E+03  0.95832018984E+03  0.00000000000E+00 0.  1.
         13    1    1    2    0    0 -0.16978392177E+03 -0.13397449703E+03 -0.22394543535E+02  0.21743337529E+03  0.10566000000E+00 0. -1.
<mgrwt>
<rscale>  1 0.69418753E+03</rscale>
<asrwt>0</asrwt>
<pdfrwt beam="2">  1       21 0.60144548E-01 0.10239974E+04</pdfrwt>
<pdfrwt beam="1">  1        4 0.16380680E+00 0.10239974E+04</pdfrwt>
<totfact> 0.23480405E+01</totfact>
</mgrwt>
</event>
<event>
 6    1  0.1431486E-005  0.1052652E+04  0.7818608E-02  0.9647852E-01
         21   -1    0    0  501  502  0.00000000000E+00  0.00000000000E+00  0.11209042224E+04  0.11209042224E+04  0.00000000000E+00 0.  1.
          4   -1    0    0  502    0 -0.00000000000E+00 -0.00000000000E+00 -0.46460060515E+03  0.46460060515E+03  0.00000000000E+00 0.  1.
    9000010    2    1    2  501    0 -0.72309918755E+02 -0.24973319525E+03  0.76749256926E+03  0.13027356860E+04  0.10200392299E+04 0.  0.
        -13    1    3    3    0    0 -0.54592759186E+03 -0.12028393405E+03  0.45449504619E+03  0.72046576498E+03  0.10566000000E+00 0.  1.
          4    1    3    3  501    0  0.47361767310E+03 -0.12944926120E+03  0.31299752307E+03  0.58226992104E+03  0.00000000000E+00 0.  1.
         13    1    1    2    0    0  0.72309918755E+02  0.24973319525E+03 -0.11118895204E+03  0.28276914149E+03  0.10566000000E+00 0. -1.
<mgrwt>
<rscale>  1 0.74208413E+03</rscale>
<asrwt>0</asrwt>
<pdfrwt beam="1">  1       21 0.17244680E+00 0.10526516E+04</pdfrwt>
<pdfrwt beam="2">  1        4 0.71477016E-01 0.10526516E+04</pdfrwt>
<totfact> 0.12794275E+01</totfact>
</mgrwt>
</event>
<event>
 6    1  0.1431486E-005  0.8894403E+03  0.7818608E-02  0.9799089E-01
         21   -1    0    0  501  502  0.00000000000E+00  0.00000000000E+00  0.33420524763E+03  0.33420524763E+03  0.00000000000E+00 0.  1.
          4   -1    0    0  502    0 -0.00000000000E+00 -0.00000000000E+00 -0.10112361212E+04  0.10112361212E+04  0.00000000000E+00 0.  1.
    9000010    2    1    2  501    0 -0.17964404401E+03  0.18819938856E+03 -0.43507924055E+03  0.99015050730E+03  0.85053694167E+03 0.  0.
        -13    1    3    3    0    0 -0.52341601038E+03  0.14344395382E+03 -0.27067650721E+03  0.60647033772E+03  0.10566000000E+00 0.  1.
          4    1    3    3  501    0  0.34377196637E+03  0.44755434732E+02 -0.16440273333E+03  0.38368016958E+03  0.00000000000E+00 0.  1.
         13    1    1    2    0    0  0.17964404401E+03 -0.18819938856E+03 -0.24195163298E+03  0.35529086150E+03  0.10566000000E+00 0. -1.
<mgrwt>
<rscale>  1 0.65411480E+03</rscale>
<asrwt>0</asrwt>
<pdfrwt beam="1">  1       21 0.51416192E-01 0.88944032E+03</pdfrwt>
<pdfrwt beam="2">  1        4 0.15557479E+00 0.88944032E+03</pdfrwt>
<totfact> 0.38679386E+01</totfact>
</mgrwt>
</event>
<event>
 6    1  0.1431486E-005  0.1034532E+04  0.7818608E-02  0.9609051E-01
          4   -1    0    0  502    0 -0.00000000000E+00  0.00000000000E+00  0.50887118566E+03  0.50887118566E+03  0.00000000000E+00 0.  1.
         21   -1    0    0  501  502  0.00000000000E+00 -0.00000000000E+00 -0.93090238008E+03  0.93090238008E+03  0.00000000000E+00 0.  1.
    9000010    2    1    2  501    0 -0.15762531994E+03 -0.26991651185E+03 -0.44538236394E+03  0.11263314608E+04  0.98618276434E+03 0.  0.
        -13    1    3    3    0    0 -0.29873470031E+03 -0.26562413942E+03  0.21302007851E+03  0.45296376193E+03  0.10566000000E+00 0.  1.
          4    1    3    3  501    0  0.14110938037E+03 -0.42923724284E+01 -0.65840244245E+03  0.67336769890E+03  0.00000000000E+00 0.  1.
         13    1    1    2    0    0  0.15762531994E+03  0.26991651185E+03  0.23351169523E+02  0.31344210492E+03  0.10566000000E+00 0. -1.
<mgrwt>
<rscale>  1 0.76699978E+03</rscale>
<asrwt>0</asrwt>
<pdfrwt beam="2">  1       21 0.14321575E+00 0.10345323E+04</pdfrwt>
<pdfrwt beam="1">  1        4 0.78287875E-01 0.10345323E+04</pdfrwt>
<totfact> 0.17683665E+01</totfact>
</mgrwt>
</event>
<event>
 6    1  0.1431486E-005  0.1063779E+04  0.7818608E-02  0.9609906E-01
         21   -1    0    0  501  502  0.00000000000E+00  0.00000000000E+00  0.41819219530E+03  0.41819219530E+03  0.00000000000E+00 0.  1.
          4   -1    0    0  502    0 -0.00000000000E+00 -0.00000000000E+00 -0.14874234619E+04  0.14874234619E+04  0.00000000000E+00 0.  1.
    9000010    2    1    2  501    0  0.14785839937E+03 -0.24557809389E+03 -0.33163267950E+03  0.11142735104E+04  0.10244288728E+04 0.  0.
        -13    1    3    3    0    0 -0.34273984626E+03  0.18847289140E+03 -0.27620298070E+02  0.39211672374E+03  0.10566000000E+00 0.  1.
          4    1    3    3  501    0  0.49059824563E+03 -0.43405098529E+03 -0.30401238143E+03  0.72215678666E+03  0.00000000000E+00 0.  1.
         13    1    1    2    0    0 -0.14785839937E+03  0.24557809389E+03 -0.73759858709E+03  0.79134214680E+03  0.10566000000E+00 0. -1.
<mgrwt>
<rscale>  1 0.76643992E+03</rscale>
<asrwt>0</asrwt>
<pdfrwt beam="1">  1       21 0.64337262E-01 0.10637787E+04</pdfrwt>
<pdfrwt beam="2">  1        4 0.22883438E+00 0.10637787E+04</pdfrwt>
<totfact> 0.73321817E+00</totfact>
</mgrwt>
</event>
<event>
 6    1  0.1431486E-005  0.1118015E+04  0.7818608E-02  0.9390596E-01
         21   -1    0    0  501  502  0.00000000000E+00  0.00000000000E+00  0.42935604310E+03  0.42935604310E+03  0.00000000000E+00 0. -1.
          4   -1    0    0  502    0 -0.00000000000E+00 -0.00000000000E+00 -0.18036030706E+04  0.18036030706E+04  0.00000000000E+00 0.  1.
    9000010    2    1    2  501    0 -0.52683073108E+03  0.73462506865E+02 -0.53521961081E+03  0.12395234710E+04  0.98336719703E+03 0.  0.
        -13    1    3    3    0    0 -0.36995154055E+03  0.23049575199E+03  0.19412091006E+03  0.47715340607E+03  0.10566000000E+00 0.  1.
          4    1    3    3  501    0 -0.15687919052E+03 -0.15703324512E+03 -0.72934052086E+03  0.76237006491E+03  0.00000000000E+00 0.  1.
         13    1    1    2    0    0  0.52683073108E+03 -0.73462506865E+02 -0.83902741671E+03  0.99343564275E+03  0.10566000000E+00 0. -1.
<mgrwt>
<rscale>  1 0.92853663E+03</rscale>
<asrwt>0</asrwt>
<pdfrwt beam="1">  1       21 0.66054777E-01 0.11180154E+04</pdfrwt>
<pdfrwt beam="2">  1        4 0.27747739E+00 0.11180154E+04</pdfrwt>
<totfact> 0.34216378E+00</totfact>
</mgrwt>
</event>
<event>
 6    1  0.1431486E-005  0.1017842E+04  0.7818608E-02  0.9787767E-01
          4   -1    0    0  502    0 -0.00000000000E+00  0.00000000000E+00  0.23124815474E+03  0.23124815474E+03  0.00000000000E+00 0.  1.
         21   -1    0    0  501  502  0.00000000000E+00 -0.00000000000E+00 -0.15661245246E+04  0.15661245246E+04  0.00000000000E+00 0.  1.
    9000010    2    1    2  501    0 -0.14580330752E+03 -0.10588699370E+03 -0.10678228632E+04  0.14752108465E+04  0.10017638018E+04 0.  0.
        -13    1    3    3    0    0  0.12835236597E+03  0.39339612916E+03 -0.26695705861E+03  0.49244383091E+03  0.10566000000E+00 0.  1.
          4    1    3    3  501    0 -0.27415567349E+03 -0.49928312286E+03 -0.80086580457E+03  0.98276701563E+03  0.00000000000E+00 0.  1.
         13    1    1    2    0    0  0.14580330752E+03  0.10588699370E+03 -0.26705350666E+03  0.32216183279E+03  0.10566000000E+00 0. -1.
<mgrwt>
<rscale>  1 0.66023203E+03</rscale>
<asrwt>0</asrwt>
<pdfrwt beam="2">  1       21 0.24094224E+00 0.10178415E+04</pdfrwt>
<pdfrwt beam="1">  1        4 0.35576639E-01 0.10178415E+04</pdfrwt>
<totfact> 0.19186886E+01</totfact>
</mgrwt>
</event>
<event>
 6    1  0.1431486E-005  0.1018257E+04  0.7818608E-02  0.9741363E-01
          4   -1    0    0  502    0 -0.00000000000E+00  0.00000000000E+00  0.24257715656E+03  0.24257715656E+03  0.00000000000E+00 0.  1.
         21   -1    0    0  501  502  0.00000000000E+00 -0.00000000000E+00 -0.16020229771E+04  0.16020229771E+04  0.00000000000E+00 0.  1.
    9000010    2    1    2  501    0  0.19766060349E+03  0.70452458113E+02 -0.12349443140E+04  0.16006044384E+04  0.99640044481E+03 0.  0.
        -13    1    3    3    0    0 -0.19441398832E+03  0.43550159204E+03 -0.66586951194E+03  0.81904862714E+03  0.10566000000E+00 0.  1.
          4    1    3    3  501    0  0.39207459181E+03 -0.36504913393E+03 -0.56907480209E+03  0.78155581125E+03  0.00000000000E+00 0.  1.
         13    1    1    2    0    0 -0.19766060349E+03 -0.70452458113E+02 -0.12450150653E+03  0.24399569529E+03  0.10566000000E+00 0. -1.
<mgrwt>
<rscale>  1 0.68606560E+03</rscale>
<asrwt>0</asrwt>
<pdfrwt beam="2">  1       21 0.24646507E+00 0.10182569E+04</pdfrwt>
<pdfrwt beam="1">  1        4 0.37319563E-01 0.10182569E+04</pdfrwt>
<totfact> 0.16065217E+01</totfact>
</mgrwt>
</event>
<event>
 6    1  0.1431486E-005  0.1044679E+04  0.7818608E-02  0.9642372E-01
         21   -1    0    0  501  502  0.00000000000E+00  0.00000000000E+00  0.20815312382E+04  0.20815312382E+04  0.00000000000E+00 0.  1.
          4   -1    0    0  502    0 -0.00000000000E+00 -0.00000000000E+00 -0.50509577797E+03  0.50509577797E+03  0.00000000000E+00 0.  1.
    9000010    2    1    2  501    0 -0.12475336019E+03 -0.24055560333E+03  0.18977576593E+04  0.21662957588E+04  0.10089215937E+04 0.  0.
        -13    1    3    3    0    0 -0.17456888199E+03  0.11888498149E+03 -0.22179161844E+02  0.21236727565E+03  0.10566000000E+00 0.  1.
          4    1    3    3  501    0  0.49815521801E+02 -0.35944058483E+03  0.19199368211E+04  0.19539284832E+04  0.00000000000E+00 0.  1.
         13    1    1    2    0    0  0.12475336019E+03  0.24055560333E+03 -0.32132219902E+03  0.42033125737E+03  0.10566000000E+00 0. -1.
<mgrwt>
<rscale>  1 0.74554093E+03</rscale>
<asrwt>0</asrwt>
<pdfrwt beam="1">  1       21 0.32023557E+00 0.10446785E+04</pdfrwt>
<pdfrwt beam="2">  1        4 0.77707044E-01 0.10446785E+04</pdfrwt>
<totfact> 0.11463439E+00</totfact>
</mgrwt>
</event>
<event>
 6    1  0.1431486E-005  0.1225810E+04  0.7818608E-02  0.9217354E-01
         21   -1    0    0  501  502  0.00000000000E+00  0.00000000000E+00  0.48419974320E+03  0.48419974320E+03  0.00000000000E+00 0. -1.
          4   -1    0    0  502    0 -0.00000000000E+00 -0.00000000000E+00 -0.20476001217E+04  0.20476001217E+04  0.00000000000E+00 0.  1.
    9000010    2    1    2  501    0 -0.45337181794E+02 -0.75830902370E+03 -0.10592460257E+04  0.16200654419E+04  0.96204046570E+03 0.  0.
        -13    1    3    3    0    0 -0.12002757534E+02 -0.17244323575E+03  0.17959622880E+03  0.24927003893E+03  0.10566000000E+00 0.  1.
          4    1    3    3  501    0 -0.33334424260E+02 -0.58586578795E+03 -0.12388422545E+04  0.13707954030E+04  0.00000000000E+00 0.  1.
         13    1    1    2    0    0  0.45337181794E+02  0.75830902370E+03 -0.50415435287E+03  0.91173442304E+03  0.10566000000E+00 0. -1.
<mgrwt>
<rscale>  1 0.10876087E+04</rscale>
<asrwt>0</asrwt>
<pdfrwt beam="1">  1       21 0.74492268E-01 0.12258099E+04</pdfrwt>
<pdfrwt beam="2">  1        4 0.31501540E+00 0.12258099E+04</pdfrwt>
<totfact> 0.14948288E+00</totfact>
</mgrwt>
</event>
<event>
 6    1  0.1431486E-005  0.1013000E+04  0.7818608E-02  0.9937138E-01
          4   -1    0    0  502    0 -0.00000000000E+00  0.00000000000E+00  0.34532430776E+03  0.34532430776E+03  0.00000000000E+00 0.  1.
         21   -1    0    0  501  502  0.00000000000E+00 -0.00000000000E+00 -0.95730309740E+03  0.95730309740E+03  0.00000000000E+00 0.  1.
    9000010    2    1    2  501    0  0.74316044555E+02  0.84626506732E+02 -0.62335466704E+03  0.11894287220E+04  0.10067199827E+04 0.  0.
        -13    1    3    3    0    0 -0.44794862753E+03 -0.29126193006E+02 -0.42830121383E+03  0.62044197872E+03  0.10566000000E+00 0.  1.
          4    1    3    3  501    0  0.52226467208E+03  0.11375269974E+03 -0.19505345320E+03  0.56898674327E+03  0.00000000000E+00 0.  1.
         13    1    1    2    0    0 -0.74316044555E+02 -0.84626506732E+02  0.11375877399E+02  0.11319868317E+03  0.10566000000E+00 0. -1.
<mgrwt>
<rscale>  1 0.58494696E+03</rscale>
<asrwt>0</asrwt>
<pdfrwt beam="2">  1       21 0.14727740E+00 0.10130003E+04</pdfrwt>
<pdfrwt beam="1">  1        4 0.53126816E-01 0.10130003E+04</pdfrwt>
<totfact> 0.38620879E+01</totfact>
</mgrwt>
</event>
<event>
 6    1  0.1431486E-005  0.1046789E+04  0.7818608E-02  0.9743576E-01
          4   -1    0    0  502    0 -0.00000000000E+00  0.00000000000E+00  0.39647229371E+03  0.39647229371E+03  0.00000000000E+00 0.  1.
         21   -1    0    0  501  502  0.00000000000E+00 -0.00000000000E+00 -0.14607228136E+04  0.14607228136E+04  0.00000000000E+00 0.  1.
    9000010    2    1    2  501    0 -0.11234218402E+03  0.15536962362E+03 -0.12218977482E+04  0.16089751525E+04  0.10290803894E+04 0.  0.
        -13    1    3    3    0    0 -0.36566531341E+03 -0.15750238714E+03 -0.11271573684E+04  0.11954086613E+04  0.10566000000E+00 0.  1.
          4    1    3    3  501    0  0.25332312939E+03  0.31287201075E+03 -0.94740379865E+02  0.41356649112E+03  0.00000000000E+00 0.  1.
         13    1    1    2    0    0  0.11234218402E+03 -0.15536962362E+03  0.15764722830E+03  0.24821995490E+03  0.10566000000E+00 0. -1.
<mgrwt>
<rscale>  1 0.68480511E+03</rscale>
<asrwt>0</asrwt>
<pdfrwt beam="2">  1       21 0.22472659E+00 0.10467889E+04</pdfrwt>
<pdfrwt beam="1">  1        4 0.60995737E-01 0.10467889E+04</pdfrwt>
<totfact> 0.78893535E+00</totfact>
</mgrwt>
</event>
<event>
 6    1  0.1431486E-005  0.9724856E+03  0.7818608E-02  0.9704484E-01
         21   -1    0    0  501  502  0.00000000000E+00  0.00000000000E+00  0.13247638602E+03  0.13247638602E+03  0.00000000000E+00 0.  1.
          4   -1    0    0  502    0 -0.00000000000E+00 -0.00000000000E+00 -0.30165648194E+04  0.30165648194E+04  0.00000000000E+00 0.  1.
    9000010    2    1    2  501    0  0.26255799159E+03 -0.72699713504E+02 -0.24570159950E+04  0.26424715399E+04  0.93354501331E+03 0.  0.
        -13    1    3    3    0    0  0.19953102885E+03 -0.13862842125E+03 -0.68800945053E+02  0.25251544875E+03  0.10566000000E+00 0.  1.
          4    1    3    3  501    0  0.63026962740E+02  0.65928707741E+02 -0.23882150500E+04  0.23899560911E+04  0.00000000000E+00 0.  1.
         13    1    1    2    0    0 -0.26255799159E+03  0.72699713504E+02 -0.42707243839E+03  0.50656966558E+03  0.10566000000E+00 0. -1.
<mgrwt>
<rscale>  1 0.70750415E+03</rscale>
<asrwt>0</asrwt>
<pdfrwt beam="1">  1       21 0.20380983E-01 0.97248560E+03</pdfrwt>
<pdfrwt beam="2">  1        4 0.46408688E+00 0.97248560E+03</pdfrwt>
<totfact> 0.22452949E+00</totfact>
</mgrwt>
</event>
<event>
 6    1  0.1431486E-005  0.1005644E+04  0.7818608E-02  0.9793651E-01
          4   -1    0    0  502    0 -0.00000000000E+00  0.00000000000E+00  0.94980211111E+03  0.94980211111E+03  0.00000000000E+00 0.  1.
         21   -1    0    0  501  502  0.00000000000E+00 -0.00000000000E+00 -0.39242363273E+03  0.39242363273E+03  0.00000000000E+00 0.  1.
    9000010    2    1    2  501    0  0.12432950180E+03 -0.13462132061E+03  0.34840682288E+03  0.10642871014E+04  0.98880685426E+03 0.  0.
        -13    1    3    3    0    0  0.28215123508E+03  0.29965874931E+03 -0.96602986600E+02  0.42277279203E+03  0.10566000000E+00 0.  1.
          4    1    3    3  501    0 -0.15782173328E+03 -0.43428006992E+03  0.44500980948E+03  0.64151430940E+03  0.00000000000E+00 0.  1.
         13    1    1    2    0    0 -0.12432950180E+03  0.13462132061E+03  0.20897165549E+03  0.27793864241E+03  0.10566000000E+00 0. -1.
<mgrwt>
<rscale>  1 0.65704400E+03</rscale>
<asrwt>0</asrwt>
<pdfrwt beam="2">  1       21 0.60372867E-01 0.10056439E+04</pdfrwt>
<pdfrwt beam="1">  1        4 0.14612340E+00 0.10056439E+04</pdfrwt>
<totfact> 0.31815624E+01</totfact>
</mgrwt>
</event>
<event>
 6    1  0.1431486E-005  0.1091403E+04  0.7818608E-02  0.9474158E-01
          4   -1    0    0  502    0 -0.00000000000E+00  0.00000000000E+00  0.54696253422E+03  0.54696253422E+03  0.00000000000E+00 0.  1.
         21   -1    0    0  501  502  0.00000000000E+00 -0.00000000000E+00 -0.16067875875E+04  0.16067875875E+04  0.00000000000E+00 0. -1.
    9000010    2    1    2  501    0  0.11242176679E+03  0.40987105429E+03 -0.12742127436E+04  0.16777301350E+04  0.10052498969E+04 0.  0.
        -13    1    3    3    0    0 -0.42175619583E+03  0.29831431982E+03 -0.81293809514E+03  0.96319161116E+03  0.10566000000E+00 0.  1.
          4    1    3    3  501    0  0.53417796262E+03  0.11155673447E+03 -0.46127464842E+03  0.71453852383E+03  0.00000000000E+00 0.  1.
         13    1    1    2    0    0 -0.11242176679E+03 -0.40987105429E+03  0.21438769032E+03  0.47601998668E+03  0.10566000000E+00 0. -1.
<mgrwt>
<rscale>  1 0.86216115E+03</rscale>
<asrwt>0</asrwt>
<pdfrwt beam="2">  1       21 0.24719808E+00 0.10914029E+04</pdfrwt>
<pdfrwt beam="1">  1        4 0.84148084E-01 0.10914029E+04</pdfrwt>
<totfact> 0.27162968E+00</totfact>
</mgrwt>
</event>
<event>
 6    1  0.1431486E-005  0.1011866E+04  0.7818608E-02  0.9620650E-01
         21   -1    0    0  501  502  0.00000000000E+00  0.00000000000E+00  0.94259085402E+03  0.94259085402E+03  0.00000000000E+00 0.  1.
          4   -1    0    0  502    0 -0.00000000000E+00 -0.00000000000E+00 -0.84472853187E+03  0.84472853187E+03  0.00000000000E+00 0.  1.
    9000010    2    1    2  501    0 -0.19557727800E+03 -0.25464112941E+03  0.61098371203E+03  0.11820209897E+04  0.95957279419E+03 0.  0.
        -13    1    3    3    0    0 -0.27275784340E+03  0.30821564427E+03  0.11367567969E+03  0.42698465525E+03  0.10566000000E+00 0.  1.
          4    1    3    3  501    0  0.77180565400E+02 -0.56285677368E+03  0.49730803235E+03  0.75503633448E+03  0.00000000000E+00 0.  1.
         13    1    1    2    0    0  0.19557727800E+03  0.25464112941E+03 -0.51312138989E+03  0.60529839615E+03  0.10566000000E+00 0. -1.
<mgrwt>
<rscale>  1 0.75944380E+03</rscale>
<asrwt>0</asrwt>
<pdfrwt beam="1">  1       21 0.14501398E+00 0.10118659E+04</pdfrwt>
<pdfrwt beam="2">  1        4 0.12995823E+00 0.10118659E+04</pdfrwt>
<totfact> 0.50267822E+00</totfact>
</mgrwt>
</event>
<event>
 6    1  0.1431486E-005  0.1047818E+04  0.7818608E-02  0.9641625E-01
         21   -1    0    0  501  502  0.00000000000E+00  0.00000000000E+00  0.24589377396E+03  0.24589377396E+03  0.00000000000E+00 0.  1.
          4   -1    0    0  502    0 -0.00000000000E+00 -0.00000000000E+00 -0.21080284841E+04  0.21080284841E+04  0.00000000000E+00 0.  1.
    9000010    2    1    2  501    0 -0.25291195654E+03  0.92316583277E+02 -0.99133690231E+03  0.14424533104E+04  0.10126380841E+04 0.  0.
        -13    1    3    3    0    0 -0.36995043137E+03 -0.39656785590E+03 -0.46188244619E+03  0.71236563032E+03  0.10566000000E+00 0.  1.
          4    1    3    3  501    0  0.11703847483E+03  0.48888443917E+03 -0.52945445612E+03  0.73008768005E+03  0.00000000000E+00 0.  1.
         13    1    1    2    0    0  0.25291195654E+03 -0.92316583277E+02 -0.87079780782E+03  0.91146894767E+03  0.10566000000E+00 0. -1.
<mgrwt>
<rscale>  1 0.74601368E+03</rscale>
<asrwt>0</asrwt>
<pdfrwt beam="1">  1       21 0.37829809E-01 0.10478181E+04</pdfrwt>
<pdfrwt beam="2">  1        4 0.32431209E+00 0.10478181E+04</pdfrwt>
<totfact> 0.59164857E+00</totfact>
</mgrwt>
</event>
<event>
 6    1  0.1431486E-005  0.1025005E+04  0.7818608E-02  0.9886824E-01
          4   -1    0    0  502    0 -0.00000000000E+00  0.00000000000E+00  0.30595360170E+03  0.30595360170E+03  0.00000000000E+00 0.  1.
         21   -1    0    0  501  502  0.00000000000E+00 -0.00000000000E+00 -0.11470228009E+04  0.11470228009E+04  0.00000000000E+00 0.  1.
    9000010    2    1    2  501    0 -0.94481133246E+02  0.86005527734E+02 -0.62082541788E+03  0.11983571384E+04  0.10170113059E+04 0.  0.
        -13    1    3    3    0    0  0.23618422013E+03  0.35560166684E+03  0.21296240394E+02  0.42742142239E+03  0.10566000000E+00 0.  1.
          4    1    3    3  501    0 -0.33066535337E+03 -0.26959613910E+03 -0.64212165827E+03  0.77093571597E+03  0.00000000000E+00 0.  1.
         13    1    1    2    0    0  0.94481133246E+02 -0.86005527734E+02 -0.22024378128E+03  0.25461926419E+03  0.10566000000E+00 0. -1.
<mgrwt>
<rscale>  1 0.60904131E+03</rscale>
<asrwt>0</asrwt>
<pdfrwt beam="2">  1       21 0.17646505E+00 0.10250052E+04</pdfrwt>
<pdfrwt beam="1">  1        4 0.47069785E-01 0.10250052E+04</pdfrwt>
<totfact> 0.29643394E+01</totfact>
</mgrwt>
</event>
<event>
 6    1  0.1431486E-005  0.1070069E+04  0.7818608E-02  0.9528185E-01
         21   -1    0    0  501  502  0.00000000000E+00  0.00000000000E+00  0.34079230354E+03  0.34079230354E+03  0.00000000000E+00 0.  1.
          4   -1    0    0  502    0 -0.00000000000E+00 -0.00000000000E+00 -0.18784077548E+04  0.18784077548E+04  0.00000000000E+00 0.  1.
    9000010    2    1    2  501    0 -0.34978998142E+03 -0.13034219153E+03 -0.63949981588E+03  0.12465984834E+04  0.10028487654E+04 0.  0.
        -13    1    3    3    0    0 -0.96961866265E+02 -0.55266164617E+03 -0.23038531330E+03  0.60655906754E+03  0.10566000000E+00 0.  1.
          4    1    3    3  501    0 -0.25282811516E+03  0.42231945465E+03 -0.40911450258E+03  0.64003941582E+03  0.00000000000E+00 0.  1.
         13    1    1    2    0    0  0.34978998142E+03  0.13034219153E+03 -0.89811563539E+03  0.97260157500E+03  0.10566000000E+00 0. -1.
<mgrwt>
<rscale>  1 0.82237359E+03</rscale>
<asrwt>0</asrwt>
<pdfrwt beam="1">  1       21 0.52429583E-01 0.10700690E+04</pdfrwt>
<pdfrwt beam="2">  1        4 0.28898582E+00 0.10700690E+04</pdfrwt>
<totfact> 0.48887502E+00</totfact>
</mgrwt>
</event>
<event>
 6    1  0.1431486E-005  0.1056968E+04  0.7818608E-02  0.9555981E-01
         21   -1    0    0  501  502  0.00000000000E+00  0.00000000000E+00  0.15841207313E+04  0.15841207313E+04  0.00000000000E+00 0.  1.
          4   -1    0    0  502    0 -0.00000000000E+00 -0.00000000000E+00 -0.31503355247E+03  0.31503355247E+03  0.00000000000E+00 0.  1.
    9000010    2    1    2  501    0  0.28445700806E+03  0.20690790951E+03  0.10133928843E+04  0.14642907927E+04  0.99672248650E+03 0.  0.
        -13    1    3    3    0    0  0.58437433731E+03  0.19626222591E+03  0.98612164676E+03  0.11629480387E+04  0.10566000000E+00 0.  1.
          4    1    3    3  501    0 -0.29991732924E+03  0.10645683598E+02  0.27271237563E+02  0.30134275395E+03  0.00000000000E+00 0.  1.
         13    1    1    2    0    0 -0.28445700806E+03 -0.20690790951E+03  0.25569429447E+03  0.43486349104E+03  0.10566000000E+00 0. -1.
<mgrwt>
<rscale>  1 0.80279462E+03</rscale>
<asrwt>0</asrwt>
<pdfrwt beam="1">  1       21 0.24371088E+00 0.10569685E+04</pdfrwt>
<pdfrwt beam="2">  1        4 0.48466701E-01 0.10569685E+04</pdfrwt>
<totfact> 0.97127781E+00</totfact>
</mgrwt>
</event>
<event>
 6    1  0.1431486E-005  0.1055882E+04  0.7818608E-02  0.9625867E-01
         21   -1    0    0  501  502  0.00000000000E+00  0.00000000000E+00  0.57931645731E+03  0.57931645731E+03  0.00000000000E+00 0. -1.
          4   -1    0    0  502    0 -0.00000000000E+00 -0.00000000000E+00 -0.94371730555E+03  0.94371730555E+03  0.00000000000E+00 0.  1.
    9000010    2    1    2  501    0  0.11295801632E+03 -0.25357475423E+03 -0.54858908729E+03  0.11898896679E+04  0.10187383205E+04 0.  0.
        -13    1    3    3    0    0  0.14788376495E+03 -0.48759034390E+03  0.82267331848E+02  0.51612195890E+03  0.10566000000E+00 0.  1.
          4    1    3    3  501    0 -0.34925748632E+02  0.23401558967E+03 -0.63085641914E+03  0.67376770901E+03  0.00000000000E+00 0.  1.
         13    1    1    2    0    0 -0.11295801632E+03  0.25357475423E+03  0.18418823905E+03  0.33314409496E+03  0.10566000000E+00 0. -1.
<mgrwt>
<rscale>  1 0.75607536E+03</rscale>
<asrwt>0</asrwt>
<pdfrwt beam="1">  1       21 0.89125610E-01 0.10558823E+04</pdfrwt>
<pdfrwt beam="2">  1        4 0.14518728E+00 0.10558823E+04</pdfrwt>
<totfact> 0.13066763E+01</totfact>
</mgrwt>
</event>
<event>
 6    1  0.1431486E-005  0.9865039E+03  0.7818608E-02  0.9724566E-01
          4   -1    0    0  502    0 -0.00000000000E+00  0.00000000000E+00  0.15085510894E+04  0.15085510894E+04  0.00000000000E+00 0.  1.
         21   -1    0    0  501  502  0.00000000000E+00 -0.00000000000E+00 -0.35701192741E+03  0.35701192741E+03  0.00000000000E+00 0.  1.
    9000010    2    1    2  501    0  0.45436732919E+02 -0.23977322261E+03  0.38137012720E+03  0.10576545763E+04  0.95584221179E+03 0.  0.
        -13    1    3    3    0    0 -0.17212107064E+03 -0.22044429250E+03 -0.25892342836E+03  0.38113344378E+03  0.10566000000E+00 0.  1.
          4    1    3    3  501    0  0.21755780356E+03 -0.19328930108E+02  0.64029355556E+03  0.67652113250E+03  0.00000000000E+00 0.  1.
         13    1    1    2    0    0 -0.45436732919E+02  0.23977322261E+03  0.77016903482E+03  0.80790844057E+03  0.10566000000E+00 0. -1.
<mgrwt>
<rscale>  1 0.69572809E+03</rscale>
<asrwt>0</asrwt>
<pdfrwt beam="2">  1       21 0.54924913E-01 0.98650394E+03</pdfrwt>
<pdfrwt beam="1">  1        4 0.23208478E+00 0.98650394E+03</pdfrwt>
<totfact> 0.10039497E+01</totfact>
</mgrwt>
</event>
<event>
 6    1  0.1431486E-005  0.1002304E+04  0.7818608E-02  0.9897298E-01
          4   -1    0    0  502    0 -0.00000000000E+00  0.00000000000E+00  0.22368611765E+03  0.22368611765E+03  0.00000000000E+00 0.  1.
         21   -1    0    0  501  502  0.00000000000E+00 -0.00000000000E+00 -0.14885612821E+04  0.14885612821E+04  0.00000000000E+00 0.  1.
    9000010    2    1    2  501    0  0.34379200973E+02 -0.12755709473E+03 -0.12045396207E+04  0.15670126557E+04  0.99355937083E+03 0.  0.
        -13    1    3    3    0    0 -0.51655153185E+01  0.43661395119E+03 -0.51362179585E+03  0.67414077555E+03  0.10566000000E+00 0.  1.
          4    1    3    3  501    0  0.39544716291E+02 -0.56417104592E+03 -0.69091782483E+03  0.89287188012E+03  0.00000000000E+00 0.  1.
         13    1    1    2    0    0 -0.34379200973E+02  0.12755709473E+03 -0.60335543734E+02  0.14523474404E+03  0.10566000000E+00 0. -1.
<mgrwt>
<rscale>  1 0.60392434E+03</rscale>
<asrwt>0</asrwt>
<pdfrwt beam="2">  1       21 0.22900943E+00 0.10023038E+04</pdfrwt>
<pdfrwt beam="1">  1        4 0.34413248E-01 0.10023038E+04</pdfrwt>
<totfact> 0.24544450E+01</totfact>
</mgrwt>
</event>
<event>
 6    1  0.1431486E-005  0.1176496E+04  0.7818608E-02  0.9500243E-01
         21   -1    0    0  501  502  0.00000000000E+00  0.00000000000E+00  0.10706943865E+04  0.10706943865E+04  0.00000000000E+00 0.  1.
          4   -1    0    0  502    0 -0.00000000000E+00 -0.00000000000E+00 -0.55099519507E+03  0.55099519507E+03  0.00000000000E+00 0.  1.
    9000010    2    1    2  501    0  0.69320555781E+02 -0.30176504156E+03  0.57117216792E+03  0.13078154695E+04  0.11350225448E+04 0.  0.
        -13    1    3    3    0    0  0.73575269473E+01  0.43523120400E+03  0.17882107400E+03  0.47059252205E+03  0.10566000000E+00 0.  1.
          4    1    3    3  501    0  0.61963028834E+02 -0.73699624556E+03  0.39235109392E+03  0.83722294750E+03  0.00000000000E+00 0.  1.
         13    1    1    2    0    0 -0.69320555781E+02  0.30176504156E+03 -0.51472976444E+02  0.31387411208E+03  0.10566000000E+00 0. -1.
<mgrwt>
<rscale>  1 0.84265899E+03</rscale>
<asrwt>0</asrwt>
<pdfrwt beam="1">  1       21 0.16472221E+00 0.11764963E+04</pdfrwt>
<pdfrwt beam="2">  1        4 0.84768492E-01 0.11764963E+04</pdfrwt>
<totfact> 0.97671827E+00</totfact>
</mgrwt>
</event>
<event>
 6    1  0.1431486E-005  0.9853444E+03  0.7818608E-02  0.1006258E+00
         21   -1    0    0  501  502  0.00000000000E+00  0.00000000000E+00  0.14122760235E+04  0.14122760235E+04  0.00000000000E+00 0.  1.
          4   -1    0    0  502    0 -0.00000000000E+00 -0.00000000000E+00 -0.27261924724E+03  0.27261924724E+03  0.00000000000E+00 0.  1.
    9000010    2    1    2  501    0 -0.63013403018E+02  0.53114614371E+02  0.12210709356E+04  0.15690499958E+04  0.98189195350E+03 0.  0.
        -13    1    3    3    0    0 -0.25459622090E+03 -0.96534796029E+02  0.12883508113E+04  0.13168090320E+04  0.10566000000E+00 0.  1.
          4    1    3    3  501    0  0.19158281788E+03  0.14964941040E+03 -0.67279875728E+02  0.25224096380E+03  0.00000000000E+00 0.  1.
         13    1    1    2    0    0  0.63013403018E+02 -0.53114614371E+02 -0.81414159340E+02  0.11584527494E+03  0.10566000000E+00 0. -1.
<mgrwt>
<rscale>  1 0.52989480E+03</rscale>
<asrwt>0</asrwt>
<pdfrwt beam="1">  1       21 0.21727323E+00 0.98534444E+03</pdfrwt>
<pdfrwt beam="2">  1        4 0.41941424E-01 0.98534444E+03</pdfrwt>
<totfact> 0.19688890E+01</totfact>
</mgrwt>
</event>
<event>
 6    1  0.1431486E-005  0.1100714E+04  0.7818608E-02  0.9462738E-01
         21   -1    0    0  501  502  0.00000000000E+00  0.00000000000E+00  0.28640103169E+04  0.28640103169E+04  0.00000000000E+00 0.  1.
          4   -1    0    0  502    0 -0.00000000000E+00 -0.00000000000E+00 -0.37132504671E+03  0.37132504671E+03  0.00000000000E+00 0.  1.
    9000010    2    1    2  501    0 -0.43049701610E+03  0.26699207813E+02  0.25712228693E+04  0.27969192437E+04  0.10126843948E+04 0.  0.
        -13    1    3    3    0    0  0.16774146465E+03 -0.35088042114E+03  0.10342393308E+04  0.11049458237E+04  0.10566000000E+00 0.  1.
          4    1    3    3  501    0 -0.59823848075E+03  0.37757962895E+03  0.15369835385E+04  0.16919734199E+04  0.00000000000E+00 0.  1.
         13    1    1    2    0    0  0.43049701610E+03 -0.26699207813E+02 -0.78537599136E+02  0.43841611993E+03  0.10566000000E+00 0. -1.
<mgrwt>
<rscale>  1 0.87087670E+03</rscale>
<asrwt>0</asrwt>
<pdfrwt beam="1">  1       21 0.44061696E+00 0.11007135E+04</pdfrwt>
<pdfrwt beam="2">  1        4 0.57126932E-01 0.11007135E+04</pdfrwt>
<totfact> 0.37174335E-01</totfact>
</mgrwt>
</event>
<event>
 6    1  0.1431486E-005  0.1008473E+04  0.7818608E-02  0.9902974E-01
          4   -1    0    0  502    0 -0.00000000000E+00  0.00000000000E+00  0.73913440149E+03  0.73913440149E+03  0.00000000000E+00 0.  1.
         21   -1    0    0  501  502  0.00000000000E+00 -0.00000000000E+00 -0.48232100689E+03  0.48232100689E+03  0.00000000000E+00 0.  1.
    9000010    2    1    2  501    0  0.81183867103E+02  0.98121503675E+02  0.91271748037E+02  0.10125949342E+04  0.10003995797E+04 0.  0.
        -13    1    3    3    0    0  0.12430877602E+03 -0.60214995701E+02  0.52814958389E+03  0.54591254943E+03  0.10566000000E+00 0.  1.
          4    1    3    3  501    0 -0.43124908913E+02  0.15833649938E+03 -0.43687783585E+03  0.46668238477E+03  0.00000000000E+00 0.  1.
         13    1    1    2    0    0 -0.81183867103E+02 -0.98121503675E+02  0.16554164657E+03  0.20886047418E+03  0.10566000000E+00 0. -1.
<mgrwt>
<rscale>  1 0.60117389E+03</rscale>
<asrwt>0</asrwt>
<pdfrwt beam="2">  1       21 0.74203232E-01 0.10084731E+04</pdfrwt>
<pdfrwt beam="1">  1        4 0.11371298E+00 0.10084731E+04</pdfrwt>
<totfact> 0.37881136E+01</totfact>
</mgrwt>
</event>
<event>
 6    1  0.1431486E-005  0.9835322E+03  0.7818608E-02  0.9978860E-01
          4   -1    0    0  502    0 -0.00000000000E+00  0.00000000000E+00  0.17062856806E+03  0.17062856806E+03  0.00000000000E+00 0.  1.
         21   -1    0    0  501  502  0.00000000000E+00 -0.00000000000E+00 -0.23140760074E+04  0.23140760074E+04  0.00000000000E+00 0.  1.
    9000010    2    1    2  501    0 -0.55728045636E+02  0.92243412796E+02 -0.21621368822E+04  0.23753255614E+04  0.97760992369E+03 0.  0.
        -13    1    3    3    0    0 -0.84329067291E+02  0.29651339334E+02  0.87234454216E+02  0.12490178013E+03  0.10566000000E+00 0.  1.
          4    1    3    3  501    0  0.28601021655E+02  0.62592073462E+02 -0.22493713364E+04  0.22504237813E+04  0.00000000000E+00 0.  1.
         13    1    1    2    0    0  0.55728045636E+02 -0.92243412796E+02  0.18689442893E+02  0.10937901405E+03  0.10566000000E+00 0. -1.
<mgrwt>
<rscale>  1 0.56586963E+03</rscale>
<asrwt>0</asrwt>
<pdfrwt beam="2">  1       21 0.35601166E+00 0.98353222E+03</pdfrwt>
<pdfrwt beam="1">  1        4 0.26250551E-01 0.98353222E+03</pdfrwt>
<totfact> 0.66564905E+00</totfact>
</mgrwt>
</event>
<event>
 6    1  0.1431486E-005  0.1007944E+04  0.7818608E-02  0.9823327E-01
          4   -1    0    0  502    0 -0.00000000000E+00  0.00000000000E+00  0.17523340001E+04  0.17523340001E+04  0.00000000000E+00 0.  1.
         21   -1    0    0  501  502  0.00000000000E+00 -0.00000000000E+00 -0.19980291995E+03  0.19980291995E+03  0.00000000000E+00 0.  1.
    9000010    2    1    2  501    0 -0.29783318212E+02 -0.16241785390E+03  0.12338478998E+04  0.15932141067E+04  0.99432587454E+03 0.  0.
        -13    1    3    3    0    0  0.41390973115E+02  0.41930821203E+03  0.54172787789E+03  0.68629563177E+03  0.10566000000E+00 0.  1.
          4    1    3    3  501    0 -0.71174291328E+02 -0.58172606593E+03  0.69212002186E+03  0.90691847494E+03  0.00000000000E+00 0.  1.
         13    1    1    2    0    0  0.29783318212E+02  0.16241785390E+03  0.31868318038E+03  0.35892281333E+03  0.10566000000E+00 0. -1.
<mgrwt>
<rscale>  1 0.64125552E+03</rscale>
<asrwt>0</asrwt>
<pdfrwt beam="2">  1       21 0.30738912E-01 0.10079437E+04</pdfrwt>
<pdfrwt beam="1">  1        4 0.26958984E+00 0.10079437E+04</pdfrwt>
<totfact> 0.19884240E+01</totfact>
</mgrwt>
</event>
<event>
 6    1  0.1431486E-005  0.1000106E+04  0.7818608E-02  0.1011381E+00
         21   -1    0    0  501  502  0.00000000000E+00  0.00000000000E+00  0.25576715780E+03  0.25576715780E+03  0.00000000000E+00 0.  1.
          4   -1    0    0  502    0 -0.00000000000E+00 -0.00000000000E+00 -0.12847669406E+04  0.12847669406E+04  0.00000000000E+00 0.  1.
    9000010    2    1    2  501    0  0.51172537881E+02 -0.43645653775E+02 -0.74078998170E+03  0.12445806015E+04  0.99784142269E+03 0.  0.
        -13    1    3    3    0    0  0.37626492487E+03 -0.13359576692E+03  0.32827588483E+02  0.40062549139E+03  0.10566000000E+00 0.  1.
          4    1    3    3  501    0 -0.32509238699E+03  0.89950113144E+02 -0.77361757018E+03  0.84395511007E+03  0.00000000000E+00 0.  1.
         13    1    1    2    0    0 -0.51172537881E+02  0.43645653775E+02 -0.28820980114E+03  0.29595349696E+03  0.10566000000E+00 0. -1.
<mgrwt>
<rscale>  1 0.50929533E+03</rscale>
<asrwt>0</asrwt>
<pdfrwt beam="1">  1       21 0.39348794E-01 0.10001055E+04</pdfrwt>
<pdfrwt beam="2">  1        4 0.19765645E+00 0.10001055E+04</pdfrwt>
<totfact> 0.34101229E+01</totfact>
</mgrwt>
</event>
<event>
 6    1  0.1431486E-005  0.1029590E+04  0.7818608E-02  0.9892362E-01
         21   -1    0    0  501  502  0.00000000000E+00  0.00000000000E+00  0.46666773452E+03  0.46666773452E+03  0.00000000000E+00 0.  1.
          4   -1    0    0  502    0 -0.00000000000E+00 -0.00000000000E+00 -0.82116971692E+03  0.82116971692E+03  0.00000000000E+00 0.  1.
    9000010    2    1    2  501    0  0.12377982205E+03  0.36651940724E+01 -0.13851084334E+03  0.10388654423E+04  0.10221160774E+04 0.  0.
        -13    1    3    3    0    0  0.30757450102E+03  0.27104201023E+03 -0.43614618689E+03  0.59857276290E+03  0.10566000000E+00 0.  1.
          4    1    3    3  501    0 -0.18379467897E+03 -0.26737681616E+03  0.29763534355E+03  0.44029267944E+03  0.00000000000E+00 0.  1.
         13    1    1    2    0    0 -0.12377982205E+03 -0.36651940724E+01 -0.21599113906E+03  0.24897200909E+03  0.10566000000E+00 0. -1.
<mgrwt>
<rscale>  1 0.60632909E+03</rscale>
<asrwt>0</asrwt>
<pdfrwt beam="1">  1       21 0.71795036E-01 0.10295903E+04</pdfrwt>
<pdfrwt beam="2">  1        4 0.12633380E+00 0.10295903E+04</pdfrwt>
<totfact> 0.31315685E+01</totfact>
</mgrwt>
</event>
<event>
 6    1  0.1431486E-005  0.1063391E+04  0.7818608E-02  0.9564059E-01
          4   -1    0    0  502    0 -0.00000000000E+00  0.00000000000E+00  0.27924113887E+04  0.27924113887E+04  0.00000000000E+00 0.  1.
         21   -1    0    0  501  502  0.00000000000E+00 -0.00000000000E+00 -0.18244138597E+03  0.18244138597E+03  0.00000000000E+00 0.  1.
    9000010    2    1    2  501    0 -0.30873733103E+03  0.13234584348E+03  0.17036752726E+04  0.20083103230E+04  0.10089433865E+04 0.  0.
        -13    1    3    3    0    0  0.23843870948E+03 -0.15860102316E+03  0.12520271204E+03  0.31254284985E+03  0.10566000000E+00 0.  1.
          4    1    3    3  501    0 -0.54717604052E+03  0.29094686664E+03  0.15784725605E+04  0.16957674731E+04  0.00000000000E+00 0.  1.
         13    1    1    2    0    0  0.30873733103E+03 -0.13234584348E+03  0.90629473020E+03  0.96654245174E+03  0.10566000000E+00 0. -1.
<mgrwt>
<rscale>  1 0.79721395E+03</rscale>
<asrwt>0</asrwt>
<pdfrwt beam="2">  1       21 0.28067908E-01 0.10633912E+04</pdfrwt>
<pdfrwt beam="1">  1        4 0.42960172E+00 0.10633912E+04</pdfrwt>
<totfact> 0.21240308E+00</totfact>
</mgrwt>
</event>
<event>
 6    1  0.1431486E-005  0.9990935E+03  0.7818608E-02  0.9908644E-01
         21   -1    0    0  501  502  0.00000000000E+00  0.00000000000E+00  0.15917988450E+04  0.15917988450E+04  0.00000000000E+00 0.  1.
          4   -1    0    0  502    0 -0.00000000000E+00 -0.00000000000E+00 -0.20014387222E+03  0.20014387222E+03  0.00000000000E+00 0.  1.
    9000010    2    1    2  501    0 -0.11447221104E+03 -0.58619246925E+02  0.12058469811E+04  0.15659676652E+04  0.99078134991E+03 0.  0.
        -13    1    3    3    0    0 -0.46606801611E+03  0.20041456501E+03  0.89886509120E+03  0.10321549578E+04  0.10566000000E+00 0.  1.
          4    1    3    3  501    0  0.35159580507E+03 -0.25903381194E+03  0.30698188994E+03  0.53381270743E+03  0.00000000000E+00 0.  1.
         13    1    1    2    0    0  0.11447221104E+03  0.58619246925E+02  0.18580799161E+03  0.22597505199E+03  0.10566000000E+00 0. -1.
<mgrwt>
<rscale>  1 0.59844186E+03</rscale>
<asrwt>0</asrwt>
<pdfrwt beam="1">  1       21 0.24489212E+00 0.99909348E+03</pdfrwt>
<pdfrwt beam="2">  1        4 0.30791366E-01 0.99909348E+03</pdfrwt>
<totfact> 0.24172761E+01</totfact>
</mgrwt>
</event>
<event>
 6    1  0.1431486E-005  0.1000507E+04  0.7818608E-02  0.1026137E+00
         21   -1    0    0  501  502  0.00000000000E+00  0.00000000000E+00  0.26356704374E+03  0.26356704374E+03  0.00000000000E+00 0.  1.
          4   -1    0    0  502    0 -0.00000000000E+00 -0.00000000000E+00 -0.10708348977E+04  0.10708348977E+04  0.00000000000E+00 0.  1.
    9000010    2    1    2  501    0  0.34257700224E+02 -0.25869636106E+02 -0.70631895464E+03  0.12247045416E+04  0.99958587445E+03 0.  0.
        -13    1    3    3    0    0  0.50811508050E+03 -0.96739808595E+02 -0.42214763830E+03  0.66764374130E+03  0.10566000000E+00 0.  1.
          4    1    3    3  501    0 -0.47385738028E+03  0.70870172488E+02 -0.28417131633E+03  0.55706080029E+03  0.00000000000E+00 0.  1.
         13    1    1    2    0    0 -0.34257700224E+02  0.25869636106E+02 -0.10094889932E+03  0.10969739985E+03  0.10566000000E+00 0. -1.
<mgrwt>
<rscale>  1 0.45535605E+03</rscale>
<asrwt>0</asrwt>
<pdfrwt beam="1">  1       21 0.40548776E-01 0.10005072E+04</pdfrwt>
<pdfrwt beam="2">  1        4 0.16474383E+00 0.10005072E+04</pdfrwt>
<totfact> 0.54280547E+01</totfact>
</mgrwt>
</event>
<event>
 6    1  0.1431486E-005  0.1054239E+04  0.7818608E-02  0.9563781E-01
          4   -1    0    0  502    0 -0.00000000000E+00  0.00000000000E+00  0.72769745139E+03  0.72769745139E+03  0.00000000000E+00 0.  1.
         21   -1    0    0  501  502  0.00000000000E+00 -0.00000000000E+00 -0.70946557334E+03  0.70946557334E+03  0.00000000000E+00 0.  1.
    9000010    2    1    2  501    0 -0.30840201210E+03 -0.15477965169E+03  0.15579803627E+03  0.10656889332E+04  0.99616832539E+03 0.  0.
        -13    1    3    3    0    0  0.36175948670E+03  0.15591445590E+02  0.71551485384E+02  0.36909706801E+03  0.10566000000E+00 0.  1.
          4    1    3    3  501    0 -0.67016149880E+03 -0.17037109728E+03  0.84246550890E+02  0.69659186515E+03  0.00000000000E+00 0.  1.
         13    1    1    2    0    0  0.30840201210E+03  0.15477965169E+03 -0.13756615823E+03  0.37147409156E+03  0.10566000000E+00 0. -1.
<mgrwt>
<rscale>  1 0.79740508E+03</rscale>
<asrwt>0</asrwt>
<pdfrwt beam="2">  1       21 0.10914855E+00 0.10542390E+04</pdfrwt>
<pdfrwt beam="1">  1        4 0.11195345E+00 0.10542390E+04</pdfrwt>
<totfact> 0.15405265E+01</totfact>
</mgrwt>
</event>
<event>
 6    1  0.1431486E-005  0.1053273E+04  0.7818608E-02  0.9601928E-01
         21   -1    0    0  501  502  0.00000000000E+00  0.00000000000E+00  0.31462561435E+04  0.31462561435E+04  0.00000000000E+00 0.  1.
          4   -1    0    0  502    0 -0.00000000000E+00 -0.00000000000E+00 -0.29695888763E+03  0.29695888763E+03  0.00000000000E+00 0.  1.
    9000010    2    1    2  501    0 -0.27646018267E+03 -0.12520111538E+03  0.29428291010E+04  0.31256402067E+04  0.10086020186E+04 0.  0.
        -13    1    3    3    0    0 -0.30631054859E+02  0.32659316643E+02  0.28001548385E+04  0.28005128144E+04  0.10566000000E+00 0.  1.
          4    1    3    3  501    0 -0.24582912781E+03 -0.15786043202E+03  0.14267426252E+03  0.32512739236E+03  0.00000000000E+00 0.  1.
         13    1    1    2    0    0  0.27646018267E+03  0.12520111538E+03 -0.93531845153E+02  0.31757482444E+03  0.10566000000E+00 0. -1.
<mgrwt>
<rscale>  1 0.77168735E+03</rscale>
<asrwt>0</asrwt>
<pdfrwt beam="1">  1       21 0.48403938E+00 0.10532728E+04</pdfrwt>
<pdfrwt beam="2">  1        4 0.45685985E-01 0.10532728E+04</pdfrwt>
<totfact> 0.30107286E-01</totfact>
</mgrwt>
</event>
<event>
 6    1  0.1431486E-005  0.1006109E+04  0.7818608E-02  0.9892032E-01
          4   -1    0    0  502    0 -0.00000000000E+00  0.00000000000E+00  0.72971501354E+03  0.72971501354E+03  0.00000000000E+00 0.  1.
         21   -1    0    0  501  502  0.00000000000E+00 -0.00000000000E+00 -0.44916036164E+03  0.44916036164E+03  0.00000000000E+00 0.  1.
    9000010    2    1    2  501    0 -0.12664131741E+03  0.40136499614E+02  0.28582519210E+03  0.10459214296E+04  0.99729967145E+03 0.  0.
        -13    1    3    3    0    0  0.20545524362E+03  0.21766095461E+03 -0.25070079881E+03  0.39043443749E+03  0.10566000000E+00 0.  1.
          4    1    3    3  501    0 -0.33209656103E+03 -0.17752445500E+03  0.53652599090E+03  0.65548699215E+03  0.00000000000E+00 0.  1.
         13    1    1    2    0    0  0.12664131741E+03 -0.40136499614E+02 -0.52705402022E+01  0.13295394554E+03  0.10566000000E+00 0. -1.
<mgrwt>
<rscale>  1 0.60649022E+03</rscale>
<asrwt>0</asrwt>
<pdfrwt beam="2">  1       21 0.69101594E-01 0.10061091E+04</pdfrwt>
<pdfrwt beam="1">  1        4 0.11226385E+00 0.10061091E+04</pdfrwt>
<totfact> 0.46076766E+01</totfact>
</mgrwt>
</event>
<event>
 6    1  0.1431486E-005  0.9614584E+03  0.7818608E-02  0.9949488E-01
          4   -1    0    0  502    0 -0.00000000000E+00  0.00000000000E+00  0.49097614221E+03  0.49097614221E+03  0.00000000000E+00 0.  1.
         21   -1    0    0  501  502  0.00000000000E+00 -0.00000000000E+00 -0.77212245967E+03  0.77212245967E+03  0.00000000000E+00 0.  1.
    9000010    2    1    2  501    0 -0.12659626407E+03 -0.33495316735E+01 -0.44215360661E+03  0.10582542908E+04  0.95308158036E+03 0.  0.
        -13    1    3    3    0    0 -0.10722429329E+03  0.46390852856E+03 -0.32393615453E+03  0.57588437669E+03  0.10566000000E+00 0.  1.
          4    1    3    3  501    0 -0.19371970782E+02 -0.46725806023E+03 -0.11821745207E+03  0.48236991415E+03  0.00000000000E+00 0.  1.
         13    1    1    2    0    0  0.12659626407E+03  0.33495316735E+01  0.16100728915E+03  0.20484431103E+03  0.10566000000E+00 0. -1.
<mgrwt>
<rscale>  1 0.57921678E+03</rscale>
<asrwt>0</asrwt>
<pdfrwt beam="2">  1       21 0.11878807E+00 0.96145844E+03</pdfrwt>
<pdfrwt beam="1">  1        4 0.75534791E-01 0.96145844E+03</pdfrwt>
<totfact> 0.31812697E+01</totfact>
</mgrwt>
</event>
<event>
 6    1  0.1431486E-005  0.1127587E+04  0.7818608E-02  0.9393253E-01
         21   -1    0    0  501  502  0.00000000000E+00  0.00000000000E+00  0.37972870669E+03  0.37972870669E+03  0.00000000000E+00 0.  1.
          4   -1    0    0  502    0 -0.00000000000E+00 -0.00000000000E+00 -0.20181068995E+04  0.20181068995E+04  0.00000000000E+00 0.  1.
    9000010    2    1    2  501    0 -0.45034806108E+03  0.24689451386E+03 -0.69741304078E+03  0.13258348107E+04  0.10038340095E+04 0.  0.
        -13    1    3    3    0    0 -0.50243374266E+03 -0.29036018433E+03 -0.43750511102E+03  0.72674578481E+03  0.10566000000E+00 0.  1.
          4    1    3    3  501    0  0.52085681576E+02  0.53725469820E+03 -0.25990792976E+03  0.59908902587E+03  0.00000000000E+00 0.  1.
         13    1    1    2    0    0  0.45034806108E+03 -0.24689451386E+03 -0.94096515201E+03  0.10720007955E+04  0.10566000000E+00 0. -1.
<mgrwt>
<rscale>  1 0.92633026E+03</rscale>
<asrwt>0</asrwt>
<pdfrwt beam="1">  1       21 0.58419800E-01 0.11275872E+04</pdfrwt>
<pdfrwt beam="2">  1        4 0.31047799E+00 0.11275872E+04</pdfrwt>
<totfact> 0.28115822E+00</totfact>
</mgrwt>
</event>
<event>
 6    1  0.1431486E-005  0.1465377E+04  0.7818608E-02  0.8985651E-01
          4   -1    0    0  502    0 -0.00000000000E+00  0.00000000000E+00  0.32941950369E+04  0.32941950369E+04  0.00000000000E+00 0.  1.
         21   -1    0    0  501  502  0.00000000000E+00 -0.00000000000E+00 -0.50512654633E+03  0.50512654633E+03  0.00000000000E+00 0. -1.
    9000010    2    1    2  501    0 -0.55426793464E+02 -0.10757656327E+04  0.12829524472E+04  0.19476387343E+04  0.99347160575E+03 0.  0.
        -13    1    3    3    0    0 -0.14759648212E+03  0.10888264629E+03 -0.19694183563E+02  0.18446686484E+03  0.10566000000E+00 0.  1.
          4    1    3    3  501    0  0.92169688653E+02 -0.11846482790E+04  0.13026466308E+04  0.17631718694E+04  0.00000000000E+00 0.  1.
         13    1    1    2    0    0  0.55426793464E+02  0.10757656327E+04  0.15061160434E+04  0.18516828490E+04  0.10566000000E+00 0. -1.
<mgrwt>
<rscale>  1 0.13568610E+04</rscale>
<asrwt>0</asrwt>
<pdfrwt beam="2">  1       21 0.77711778E-01 0.14653770E+04</pdfrwt>
<pdfrwt beam="1">  1        4 0.50679922E+00 0.14653770E+04</pdfrwt>
<totfact> 0.56421027E-02</totfact>
</mgrwt>
</event>
<event>
 6    1  0.1431486E-005  0.1032208E+04  0.7818608E-02  0.9672206E-01
          4   -1    0    0  502    0 -0.00000000000E+00  0.00000000000E+00  0.18616714553E+04  0.18616714553E+04  0.00000000000E+00 0.  1.
         21   -1    0    0  501  502  0.00000000000E+00 -0.00000000000E+00 -0.23626733951E+03  0.23626733951E+03  0.00000000000E+00 0.  1.
    9000010    2    1    2  501    0 -0.21626237693E+03  0.13311242081E+03  0.10673409401E+04  0.14848133170E+04  0.10004826694E+04 0.  0.
        -13    1    3    3    0    0  0.12419723044E+03 -0.26487532368E+03  0.88198676562E+03  0.92923869648E+03  0.10566000000E+00 0.  1.
          4    1    3    3  501    0 -0.34045960737E+03  0.39798774449E+03  0.18535417448E+03  0.55557462056E+03  0.00000000000E+00 0.  1.
         13    1    1    2    0    0  0.21626237693E+03 -0.13311242081E+03  0.55806317568E+03  0.61312547774E+03  0.10566000000E+00 0. -1.
<mgrwt>
<rscale>  1 0.72696023E+03</rscale>
<asrwt>0</asrwt>
<pdfrwt beam="2">  1       21 0.36348823E-01 0.10322083E+04</pdfrwt>
<pdfrwt beam="1">  1        4 0.28641098E+00 0.10322083E+04</pdfrwt>
<totfact> 0.11087019E+01</totfact>
</mgrwt>
</event>
<event>
 6    1  0.1431486E-005  0.1047867E+04  0.7818608E-02  0.9583138E-01
         21   -1    0    0  501  502  0.00000000000E+00  0.00000000000E+00  0.60110068319E+03  0.60110068319E+03  0.00000000000E+00 0.  1.
          4   -1    0    0  502    0 -0.00000000000E+00 -0.00000000000E+00 -0.82098972946E+03  0.82098972946E+03  0.00000000000E+00 0.  1.
    9000010    2    1    2  501    0  0.12581579307E+03  0.30370104536E+03 -0.28725697387E+03  0.10865276204E+04  0.99496822161E+03 0.  0.
        -13    1    3    3    0    0 -0.18366693892E+03  0.13561473281E+03 -0.58333660968E+03  0.62642358797E+03  0.10566000000E+00 0.  1.
          4    1    3    3  501    0  0.30948273199E+03  0.16808631256E+03  0.29607963582E+03  0.46010403238E+03  0.00000000000E+00 0.  1.
         13    1    1    2    0    0 -0.12581579307E+03 -0.30370104536E+03  0.67367927588E+02  0.33556279229E+03  0.10566000000E+00 0. -1.
<mgrwt>
<rscale>  1 0.78422349E+03</rscale>
<asrwt>0</asrwt>
<pdfrwt beam="1">  1       21 0.92477028E-01 0.10478672E+04</pdfrwt>
<pdfrwt beam="2">  1        4 0.12630611E+00 0.10478672E+04</pdfrwt>
<totfact> 0.17188734E+01</totfact>
</mgrwt>
</event>
<event>
 6    1  0.1431486E-005  0.1028044E+04  0.7818608E-02  0.9765599E-01
         21   -1    0    0  501  502  0.00000000000E+00  0.00000000000E+00  0.18353597609E+03  0.18353597609E+03  0.00000000000E+00 0.  1.
          4   -1    0    0  502    0 -0.00000000000E+00 -0.00000000000E+00 -0.20238405039E+04  0.20238405039E+04  0.00000000000E+00 0.  1.
    9000010    2    1    2  501    0  0.11863057883E+03  0.14604879854E+03 -0.14992696309E+04  0.18178790117E+04  0.10106785884E+04 0.  0.
        -13    1    3    3    0    0  0.25914282122E+03  0.48808733809E+03 -0.12642140466E+04  0.13797178763E+04  0.10566000000E+00 0.  1.
          4    1    3    3  501    0 -0.14051224239E+03 -0.34203853956E+03 -0.23505558434E+03  0.43816113535E+03  0.00000000000E+00 0.  1.
         13    1    1    2    0    0 -0.11863057883E+03 -0.14604879854E+03 -0.34103489684E+03  0.38949746830E+03  0.10566000000E+00 0. -1.
<mgrwt>
<rscale>  1 0.67241834E+03</rscale>
<asrwt>0</asrwt>
<pdfrwt beam="1">  1       21 0.28236304E-01 0.10280441E+04</pdfrwt>
<pdfrwt beam="2">  1        4 0.31136008E+00 0.10280441E+04</pdfrwt>
<totfact> 0.12991441E+01</totfact>
</mgrwt>
</event>
<event>
 6    1  0.1431486E-005  0.1012402E+04  0.7818608E-02  0.9790808E-01
         21   -1    0    0  501  502  0.00000000000E+00  0.00000000000E+00  0.39070237504E+03  0.39070237504E+03  0.00000000000E+00 0.  1.
          4   -1    0    0  502    0 -0.00000000000E+00 -0.00000000000E+00 -0.12850911377E+04  0.12850911377E+04  0.00000000000E+00 0.  1.
    9000010    2    1    2  501    0 -0.63567298752E+02 -0.16978280440E+03 -0.30229945655E+03  0.10565708067E+04  0.99603710069E+03 0.  0.
        -13    1    3    3    0    0 -0.27299915560E+03 -0.47783670672E+03  0.38530081737E+02  0.55167112994E+03  0.10566000000E+00 0.  1.
          4    1    3    3  501    0  0.20943185685E+03  0.30805390232E+03 -0.34082953829E+03  0.50489967673E+03  0.00000000000E+00 0.  1.
         13    1    1    2    0    0  0.63567298752E+02  0.16978280440E+03 -0.59208930612E+03  0.61922270609E+03  0.10566000000E+00 0. -1.
<mgrwt>
<rscale>  1 0.65858166E+03</rscale>
<asrwt>0</asrwt>
<pdfrwt beam="1">  1       21 0.60108058E-01 0.10124016E+04</pdfrwt>
<pdfrwt beam="2">  1        4 0.19770633E+00 0.10124016E+04</pdfrwt>
<totfact> 0.13654391E+01</totfact>
</mgrwt>
</event>
<event>
 6    1  0.1431486E-005  0.9974255E+03  0.7818608E-02  0.1017140E+00
         21   -1    0    0  501  502  0.00000000000E+00  0.00000000000E+00  0.83888338166E+03  0.83888338166E+03  0.00000000000E+00 0.  1.
          4   -1    0    0  502    0 -0.00000000000E+00 -0.00000000000E+00 -0.53492854347E+03  0.53492854347E+03  0.00000000000E+00 0.  1.
    9000010    2    1    2  501    0 -0.55147794830E+02 -0.13761199679E+02  0.53778812141E+03  0.11331697314E+04  0.99580466297E+03 0.  0.
        -13    1    3    3    0    0  0.40955843539E+03  0.16309874630E+03  0.44683695458E+03  0.62769625472E+03  0.10566000000E+00 0.  1.
          4    1    3    3  501    0 -0.46470623022E+03 -0.17685994598E+03  0.90951166833E+02  0.50547347670E+03  0.00000000000E+00 0.  1.
         13    1    1    2    0    0  0.55147794830E+02  0.13761199679E+02 -0.23383328322E+03  0.24064219371E+03  0.10566000000E+00 0. -1.
<mgrwt>
<rscale>  1 0.48732845E+03</rscale>
<asrwt>0</asrwt>
<pdfrwt beam="1">  1       21 0.12905898E+00 0.99742547E+03</pdfrwt>
<pdfrwt beam="2">  1        4 0.82296700E-01 0.99742547E+03</pdfrwt>
<totfact> 0.20954467E+01</totfact>
</mgrwt>
</event>
<event>
 6    1  0.1431486E-005  0.1008624E+04  0.7818608E-02  0.9844256E-01
         21   -1    0    0  501  502  0.00000000000E+00  0.00000000000E+00  0.70331598246E+03  0.70331598246E+03  0.00000000000E+00 0.  1.
          4   -1    0    0  502    0 -0.00000000000E+00 -0.00000000000E+00 -0.48172297391E+03  0.48172297391E+03  0.00000000000E+00 0.  1.
    9000010    2    1    2  501    0 -0.83439983083E+02 -0.12934104059E+03  0.21306895095E+03  0.10308831706E+04  0.99681011133E+03 0.  0.
        -13    1    3    3    0    0 -0.23643866681E+03 -0.42701754475E+03 -0.17490147240E+03  0.51849567298E+03  0.10566000000E+00 0.  1.
          4    1    3    3  501    0  0.15299868373E+03  0.29767650416E+03  0.38797042334E+03  0.51238749764E+03  0.00000000000E+00 0.  1.
         13    1    1    2    0    0  0.83439983083E+02  0.12934104059E+03  0.85240576037E+01  0.15415578575E+03  0.10566000000E+00 0. -1.
<mgrwt>
<rscale>  1 0.63040637E+03</rscale>
<asrwt>0</asrwt>
<pdfrwt beam="1">  1       21 0.10820246E+00 0.10086237E+04</pdfrwt>
<pdfrwt beam="2">  1        4 0.74111227E-01 0.10086237E+04</pdfrwt>
<totfact> 0.41947622E+01</totfact>
</mgrwt>
</event>
<event>
 6    1  0.1431486E-005  0.1010355E+04  0.7818608E-02  0.9804637E-01
          4   -1    0    0  502    0 -0.00000000000E+00  0.00000000000E+00  0.81275243803E+03  0.81275243803E+03  0.00000000000E+00 0.  1.
         21   -1    0    0  501  502  0.00000000000E+00 -0.00000000000E+00 -0.43431131312E+03  0.43431131312E+03  0.00000000000E+00 0.  1.
    9000010    2    1    2  501    0 -0.12051493969E+03  0.12591576167E+03  0.28746123876E+03  0.10504525089E+04  0.99520745575E+03 0.  0.
        -13    1    3    3    0    0 -0.50569112533E+03 -0.65924912531E+02  0.34587808571E+03  0.61619905036E+03  0.10566000000E+00 0.  1.
          4    1    3    3  501    0  0.38517618564E+03  0.19184067420E+03 -0.58416846945E+02  0.43425345856E+03  0.00000000000E+00 0.  1.
         13    1    1    2    0    0  0.12051493969E+03 -0.12591576167E+03  0.90979886142E+02  0.19661124223E+03  0.10566000000E+00 0. -1.
<mgrwt>
<rscale>  1 0.65114307E+03</rscale>
<asrwt>0</asrwt>
<pdfrwt beam="2">  1       21 0.66817125E-01 0.10103546E+04</pdfrwt>
<pdfrwt beam="1">  1        4 0.12503884E+00 0.10103546E+04</pdfrwt>
<totfact> 0.37956539E+01</totfact>
</mgrwt>
</event>
<event>
 6    1  0.1431486E-005  0.1027025E+04  0.7818608E-02  0.9763017E-01
          4   -1    0    0  502    0 -0.00000000000E+00  0.00000000000E+00  0.26300238076E+03  0.26300238076E+03  0.00000000000E+00 0.  1.
         21   -1    0    0  501  502  0.00000000000E+00 -0.00000000000E+00 -0.15480461905E+04  0.15480461905E+04  0.00000000000E+00 0.  1.
    9000010    2    1    2  501    0  0.14555295777E+03 -0.12264932668E+03 -0.12495093160E+04  0.16174220435E+04  0.10092333800E+04 0.  0.
        -13    1    3    3    0    0  0.27056055997E+03 -0.95141218509E+02  0.67148697409E+02  0.29455700093E+03  0.10566000000E+00 0.  1.
          4    1    3    3  501    0 -0.12500760220E+03 -0.27508108175E+02 -0.13166580134E+04  0.13228650426E+04  0.00000000000E+00 0.  1.
         13    1    1    2    0    0 -0.14555295777E+03  0.12264932668E+03 -0.35534493788E+02  0.19362652779E+03  0.10566000000E+00 0. -1.
<mgrwt>
<rscale>  1 0.67385605E+03</rscale>
<asrwt>0</asrwt>
<pdfrwt beam="2">  1       21 0.23816095E+00 0.10270251E+04</pdfrwt>
<pdfrwt beam="1">  1        4 0.40461905E-01 0.10270251E+04</pdfrwt>
<totfact> 0.15391157E+01</totfact>
</mgrwt>
</event>
<event>
 6    1  0.1431486E-005  0.1185114E+04  0.7818608E-02  0.9304887E-01
         21   -1    0    0  501  502  0.00000000000E+00  0.00000000000E+00  0.11246865062E+04  0.11246865062E+04  0.00000000000E+00 0.  1.
          4   -1    0    0  502    0 -0.00000000000E+00 -0.00000000000E+00 -0.87476078742E+03  0.87476078742E+03  0.00000000000E+00 0.  1.
    9000010    2    1    2  501    0 -0.58710909254E+03 -0.16127672723E+03  0.56611350765E+03  0.13133846156E+04  0.10167533504E+04 0.  0.
        -13    1    3    3    0    0 -0.45880035890E+03  0.14201884450E+03  0.78335574647E+03  0.91886525574E+03  0.10566000000E+00 0.  1.
          4    1    3    3  501    0 -0.12830873364E+03 -0.30329557173E+03 -0.21724223882E+03  0.39451935983E+03  0.00000000000E+00 0.  1.
         13    1    1    2    0    0  0.58710909254E+03  0.16127672723E+03 -0.31618778884E+03  0.68606267808E+03  0.10566000000E+00 0. -1.
<mgrwt>
<rscale>  1 0.10033418E+04</rscale>
<asrwt>0</asrwt>
<pdfrwt beam="1">  1       21 0.17302869E+00 0.11851138E+04</pdfrwt>
<pdfrwt beam="2">  1        4 0.13457858E+00 0.11851138E+04</pdfrwt>
<totfact> 0.27123966E+00</totfact>
</mgrwt>
</event>
<event>
 6    1  0.1431486E-005  0.1029895E+04  0.7818608E-02  0.9699217E-01
          4   -1    0    0  502    0 -0.00000000000E+00  0.00000000000E+00  0.17575037607E+03  0.17575037607E+03  0.00000000000E+00 0.  1.
         21   -1    0    0  501  502  0.00000000000E+00 -0.00000000000E+00 -0.31216979621E+04  0.31216979621E+04  0.00000000000E+00 0.  1.
    9000010    2    1    2  501    0 -0.22480812492E+03 -0.62953187298E+02 -0.28743054013E+04  0.30532467604E+04  0.10030864583E+04 0.  0.
        -13    1    3    3    0    0 -0.18367853531E+03 -0.12183116155E+03 -0.47425577367E+02  0.22545472452E+03  0.10566000000E+00 0.  1.
          4    1    3    3  501    0 -0.41129589613E+02  0.58877974252E+02 -0.28268798239E+04  0.28277920358E+04  0.00000000000E+00 0.  1.
         13    1    1    2    0    0  0.22480812492E+03  0.62953187298E+02 -0.71642184753E+02  0.24420157784E+03  0.10566000000E+00 0. -1.
<mgrwt>
<rscale>  1 0.71063429E+03</rscale>
<asrwt>0</asrwt>
<pdfrwt beam="2">  1       21 0.48026123E+00 0.10298953E+04</pdfrwt>
<pdfrwt beam="1">  1        4 0.27038519E-01 0.10298953E+04</pdfrwt>
<totfact> 0.92085832E-01</totfact>
</mgrwt>
</event>
<event>
 6    1  0.1431486E-005  0.1069898E+04  0.7818608E-02  0.9591158E-01
         21   -1    0    0  501  502  0.00000000000E+00  0.00000000000E+00  0.70619773875E+03  0.70619773875E+03  0.00000000000E+00 0.  1.
          4   -1    0    0  502    0 -0.00000000000E+00 -0.00000000000E+00 -0.66933006732E+03  0.66933006732E+03  0.00000000000E+00 0.  1.
    9000010    2    1    2  501    0  0.82458632581E+02  0.28891166073E+03  0.75739021285E+02  0.10725750593E+04  0.10268454044E+04 0.  0.
        -13    1    3    3    0    0 -0.14185080036E+03 -0.27621629805E+02  0.48653432046E+03  0.50754335790E+03  0.10566000000E+00 0.  1.
          4    1    3    3  501    0  0.22430943295E+03  0.31653329054E+03 -0.41079529918E+03  0.56503170137E+03  0.00000000000E+00 0.  1.
         13    1    1    2    0    0 -0.82458632581E+02 -0.28891166073E+03 -0.38871349854E+02  0.30295274681E+03  0.10566000000E+00 0. -1.
<mgrwt>
<rscale>  1 0.77884174E+03</rscale>
<asrwt>0</asrwt>
<pdfrwt beam="1">  1       21 0.10864581E+00 0.10698976E+04</pdfrwt>
<pdfrwt beam="2">  1        4 0.10297386E+00 0.10698976E+04</pdfrwt>
<totfact> 0.19106578E+01</totfact>
</mgrwt>
</event>
<event>
 6    1  0.1431486E-005  0.9572701E+03  0.7818608E-02  0.1011271E+00
          4   -1    0    0  502    0 -0.00000000000E+00  0.00000000000E+00  0.70567672736E+03  0.70567672736E+03  0.00000000000E+00 0.  1.
         21   -1    0    0  501  502  0.00000000000E+00 -0.00000000000E+00 -0.43892892393E+03  0.43892892393E+03  0.00000000000E+00 0.  1.
    9000010    2    1    2  501    0 -0.75514785343E+02  0.14828167739E+02  0.10189872850E+03  0.96267823162E+03  0.95417171903E+03 0.  0.
        -13    1    3    3    0    0 -0.38813997083E+03 -0.27404499112E+03  0.21609957246E+03  0.52196966434E+03  0.10566000000E+00 0.  1.
          4    1    3    3  501    0  0.31262518549E+03  0.28887315886E+03 -0.11420084395E+03  0.44070856728E+03  0.00000000000E+00 0.  1.
         13    1    1    2    0    0  0.75514785343E+02 -0.14828167739E+02  0.16484907492E+03  0.18192741967E+03  0.10566000000E+00 0. -1.
<mgrwt>
<rscale>  1 0.50972718E+03</rscale>
<asrwt>0</asrwt>
<pdfrwt beam="2">  1       21 0.67527527E-01 0.95727009E+03</pdfrwt>
<pdfrwt beam="1">  1        4 0.10856565E+00 0.95727009E+03</pdfrwt>
<totfact> 0.52946234E+01</totfact>
</mgrwt>
</event>
<event>
 6    1  0.1431486E-005  0.9627033E+03  0.7818608E-02  0.9895633E-01
         21   -1    0    0  501  502  0.00000000000E+00  0.00000000000E+00  0.25042865073E+03  0.25042865073E+03  0.00000000000E+00 0.  1.
          4   -1    0    0  502    0 -0.00000000000E+00 -0.00000000000E+00 -0.13978077418E+04  0.13978077418E+04  0.00000000000E+00 0.  1.
    9000010    2    1    2  501    0 -0.24511630329E+02  0.14787475155E+03 -0.74027803877E+03  0.12144172596E+04  0.95096264045E+03 0.  0.
        -13    1    3    3    0    0  0.15087184410E+03  0.51328725254E+03 -0.54782038358E+03  0.76572403697E+03  0.10566000000E+00 0.  1.
          4    1    3    3  501    0 -0.17538347443E+03 -0.36541250099E+03 -0.19245765519E+03  0.44869322262E+03  0.00000000000E+00 0.  1.
         13    1    1    2    0    0  0.24511630329E+02 -0.14787475155E+03 -0.40710105234E+03  0.43381913299E+03  0.10566000000E+00 0. -1.
<mgrwt>
<rscale>  1 0.60473396E+03</rscale>
<asrwt>0</asrwt>
<pdfrwt beam="1">  1       21 0.38527484E-01 0.96270333E+03</pdfrwt>
<pdfrwt beam="2">  1        4 0.21504735E+00 0.96270333E+03</pdfrwt>
<totfact> 0.27532472E+01</totfact>
</mgrwt>
</event>
<event>
 6    1  0.1431486E-005  0.1015387E+04  0.7818608E-02  0.9974594E-01
         21   -1    0    0  501  502  0.00000000000E+00  0.00000000000E+00  0.58891904864E+03  0.58891904864E+03  0.00000000000E+00 0.  1.
          4   -1    0    0  502    0 -0.00000000000E+00 -0.00000000000E+00 -0.59849584968E+03  0.59849584968E+03  0.00000000000E+00 0.  1.
    9000010    2    1    2  501    0 -0.93662867314E+02 -0.32904137728E+02  0.12188873698E+03  0.10226768825E+04  0.10105225019E+04 0.  0.
        -13    1    3    3    0    0  0.42446300170E+03 -0.20158185792E+02 -0.13278353388E+03  0.44520407714E+03  0.10566000000E+00 0.  1.
          4    1    3    3  501    0 -0.51812586902E+03 -0.12745951936E+02  0.25467227086E+03  0.57747280540E+03  0.00000000000E+00 0.  1.
         13    1    1    2    0    0  0.93662867314E+02  0.32904137728E+02 -0.13146553802E+03  0.16473801578E+03  0.10566000000E+00 0. -1.
<mgrwt>
<rscale>  1 0.56778405E+03</rscale>
<asrwt>0</asrwt>
<pdfrwt beam="1">  1       21 0.90602931E-01 0.10153872E+04</pdfrwt>
<pdfrwt beam="2">  1        4 0.92076284E-01 0.10153872E+04</pdfrwt>
<totfact> 0.39365792E+01</totfact>
</mgrwt>
</event>
<event>
 6    1  0.1431486E-005  0.1275094E+04  0.7818608E-02  0.9189290E-01
         21   -1    0    0  501  502  0.00000000000E+00  0.00000000000E+00  0.94051990885E+03  0.94051990885E+03  0.00000000000E+00 0. -1.
          4   -1    0    0  502    0 -0.00000000000E+00 -0.00000000000E+00 -0.13237096761E+04  0.13237096761E+04  0.00000000000E+00 0.  1.
    9000010    2    1    2  501    0  0.57042131990E+03  0.48613398605E+03  0.23025257385E+03  0.12957161614E+04  0.10315800447E+04 0.  0.
        -13    1    3    3    0    0  0.14558510736E+03  0.75658705727E+03  0.16440364386E+03  0.78781188617E+03  0.10566000000E+00 0.  1.
          4    1    3    3  501    0  0.42483621254E+03 -0.27045307122E+03  0.65848929997E+02  0.50790427523E+03  0.00000000000E+00 0.  1.
         13    1    1    2    0    0 -0.57042131990E+03 -0.48613398605E+03 -0.61344234112E+03  0.96851342357E+03  0.10566000000E+00 0. -1.
<mgrwt>
<rscale>  1 0.11164655E+04</rscale>
<asrwt>0</asrwt>
<pdfrwt beam="1">  1       21 0.14469537E+00 0.12750938E+04</pdfrwt>
<pdfrwt beam="2">  1        4 0.20364764E+00 0.12750938E+04</pdfrwt>
<totfact> 0.13926454E+00</totfact>
</mgrwt>
</event>
<event>
 6    1  0.1431486E-005  0.1165236E+04  0.7818608E-02  0.9325154E-01
          4   -1    0    0  502    0 -0.00000000000E+00  0.00000000000E+00  0.35450719216E+03  0.35450719216E+03  0.00000000000E+00 0.  1.
         21   -1    0    0  501  502  0.00000000000E+00 -0.00000000000E+00 -0.24860833702E+04  0.24860833702E+04  0.00000000000E+00 0. -1.
    9000010    2    1    2  501    0 -0.37047133112E+02 -0.59381962462E+03 -0.89830322005E+03  0.14713000757E+04  0.10018887169E+04 0.  0.
        -13    1    3    3    0    0 -0.30971130415E+03 -0.47706960039E+03 -0.48067081511E+02  0.57081253579E+03  0.10566000000E+00 0.  1.
          4    1    3    3  501    0  0.27266417104E+03 -0.11675002423E+03 -0.85023613854E+03  0.90048753995E+03  0.00000000000E+00 0.  1.
         13    1    1    2    0    0  0.37047133112E+02  0.59381962462E+03 -0.12332729580E+04  0.13692904866E+04  0.10566000000E+00 0. -1.
<mgrwt>
<rscale>  1 0.98499729E+03</rscale>
<asrwt>0</asrwt>
<pdfrwt beam="2">  1       21 0.38247435E+00 0.11652361E+04</pdfrwt>
<pdfrwt beam="1">  1        4 0.54539570E-01 0.11652361E+04</pdfrwt>
<totfact> 0.98729696E-01</totfact>
</mgrwt>
</event>
<event>
 6    1  0.1431486E-005  0.1024281E+04  0.7818608E-02  0.9900143E-01
          4   -1    0    0  502    0 -0.00000000000E+00  0.00000000000E+00  0.70190043904E+03  0.70190043904E+03  0.00000000000E+00 0.  1.
         21   -1    0    0  501  502  0.00000000000E+00 -0.00000000000E+00 -0.50634704097E+03  0.50634704097E+03  0.00000000000E+00 0.  1.
    9000010    2    1    2  501    0 -0.77389393877E+02 -0.95162463592E+02  0.60881044003E+02  0.10260891234E+04  0.10169107015E+04 0.  0.
        -13    1    3    3    0    0  0.24736181830E+03 -0.21099308127E+03 -0.35797069673E+03  0.48357934238E+03  0.10566000000E+00 0.  1.
          4    1    3    3  501    0 -0.32475121217E+03  0.11583061768E+03  0.41885174074E+03  0.54250978103E+03  0.00000000000E+00 0.  1.
         13    1    1    2    0    0  0.77389393877E+02  0.95162463592E+02  0.13467235407E+03  0.18215835659E+03  0.10566000000E+00 0. -1.
<mgrwt>
<rscale>  1 0.60254374E+03</rscale>
<asrwt>0</asrwt>
<pdfrwt beam="2">  1       21 0.77899545E-01 0.10242814E+04</pdfrwt>
<pdfrwt beam="1">  1        4 0.10798468E+00 0.10242814E+04</pdfrwt>
<totfact> 0.38370871E+01</totfact>
</mgrwt>
</event>
<event>
 6    1  0.1431486E-005  0.1046024E+04  0.7818608E-02  0.9599983E-01
          4   -1    0    0  502    0 -0.00000000000E+00  0.00000000000E+00  0.99493933720E+03  0.99493933720E+03  0.00000000000E+00 0.  1.
         21   -1    0    0  501  502  0.00000000000E+00 -0.00000000000E+00 -0.47022690493E+03  0.47022690493E+03  0.00000000000E+00 0.  1.
    9000010    2    1    2  501    0  0.29237094866E+03 -0.10866781103E+03  0.32731565183E+03  0.10960389404E+04  0.99843695756E+03 0.  0.
        -13    1    3    3    0    0  0.40532243560E+03  0.31353834491E+03 -0.54980081807E+02  0.51537888111E+03  0.10566000000E+00 0.  1.
          4    1    3    3  501    0 -0.11295148694E+03 -0.42220615595E+03  0.38229573364E+03  0.58066005931E+03  0.00000000000E+00 0.  1.
         13    1    1    2    0    0 -0.29237094866E+03  0.10866781103E+03  0.19739678043E+03  0.36912730170E+03  0.10566000000E+00 0. -1.
<mgrwt>
<rscale>  1 0.77297316E+03</rscale>
<asrwt>0</asrwt>
<pdfrwt beam="2">  1       21 0.72342601E-01 0.10460238E+04</pdfrwt>
<pdfrwt beam="1">  1        4 0.15306759E+00 0.10460238E+04</pdfrwt>
<totfact> 0.18564319E+01</totfact>
</mgrwt>
</event>
<event>
 6    1  0.1431486E-005  0.9435146E+03  0.7818608E-02  0.9807101E-01
         21   -1    0    0  501  502  0.00000000000E+00  0.00000000000E+00  0.19152360981E+04  0.19152360981E+04  0.00000000000E+00 0.  1.
          4   -1    0    0  502    0 -0.00000000000E+00 -0.00000000000E+00 -0.24546633080E+03  0.24546633080E+03  0.00000000000E+00 0.  1.
    9000010    2    1    2  501    0  0.18627996999E+03 -0.10183695305E+03  0.17019441888E+04  0.19459788932E+04  0.91931976972E+03 0.  0.
        -13    1    3    3    0    0  0.33218613884E+03  0.34016990225E+03  0.78795642607E+03  0.92029263487E+03  0.10566000000E+00 0.  1.
          4    1    3    3  501    0 -0.14590616886E+03 -0.44200685530E+03  0.91398776270E+03  0.10256862584E+04  0.00000000000E+00 0.  1.
         13    1    1    2    0    0 -0.18627996999E+03  0.10183695305E+03 -0.32174421433E+02  0.21472353570E+03  0.10566000000E+00 0. -1.
<mgrwt>
<rscale>  1 0.64982831E+03</rscale>
<asrwt>0</asrwt>
<pdfrwt beam="1">  1       21 0.29465170E+00 0.94351462E+03</pdfrwt>
<pdfrwt beam="2">  1        4 0.37764052E-01 0.94351462E+03</pdfrwt>
<totfact> 0.79192246E+00</totfact>
</mgrwt>
</event>
<event>
 6    1  0.1431486E-005  0.1027138E+04  0.7818608E-02  0.9824806E-01
          4   -1    0    0  502    0 -0.00000000000E+00  0.00000000000E+00  0.16319195031E+04  0.16319195031E+04  0.00000000000E+00 0.  1.
         21   -1    0    0  501  502  0.00000000000E+00 -0.00000000000E+00 -0.23149496348E+03  0.23149496348E+03  0.00000000000E+00 0.  1.
    9000010    2    1    2  501    0 -0.13035233811E+03 -0.84397507105E+02  0.99829330931E+03  0.14323411447E+04  0.10153309570E+04 0.  0.
        -13    1    3    3    0    0 -0.15858444037E+03 -0.53480772758E+03  0.41717117249E+03  0.69656308295E+03  0.10566000000E+00 0.  1.
          4    1    3    3  501    0  0.28232102258E+02  0.45041022048E+03  0.58112213682E+03  0.73577806179E+03  0.00000000000E+00 0.  1.
         13    1    1    2    0    0  0.13035233811E+03  0.84397507105E+02  0.40213123030E+03  0.43107332184E+03  0.10566000000E+00 0. -1.
<mgrwt>
<rscale>  1 0.64048160E+03</rscale>
<asrwt>0</asrwt>
<pdfrwt beam="2">  1       21 0.35614611E-01 0.10271376E+04</pdfrwt>
<pdfrwt beam="1">  1        4 0.25106453E+00 0.10271376E+04</pdfrwt>
<totfact> 0.19109677E+01</totfact>
</mgrwt>
</event>
<event>
 6    1  0.1431486E-005  0.1081357E+04  0.7818608E-02  0.9585444E-01
         21   -1    0    0  501  502  0.00000000000E+00  0.00000000000E+00  0.58896120988E+03  0.58896120988E+03  0.00000000000E+00 0.  1.
          4   -1    0    0  502    0 -0.00000000000E+00 -0.00000000000E+00 -0.85726028439E+03  0.85726028439E+03  0.00000000000E+00 0.  1.
    9000010    2    1    2  501    0  0.26367485501E+03 -0.13617618590E+03 -0.58787132780E+02  0.10829534835E+04  0.10398384190E+04 0.  0.
        -13    1    3    3    0    0  0.53138673323E+03 -0.24063972989E+03 -0.34470966303E+03  0.67757221224E+03  0.10566000000E+00 0.  1.
          4    1    3    3  501    0 -0.26771187822E+03  0.10446354399E+03  0.28592253025E+03  0.40538127123E+03  0.00000000000E+00 0.  1.
         13    1    1    2    0    0 -0.26367485501E+03  0.13617618590E+03 -0.20951194173E+03  0.36326801079E+03  0.10566000000E+00 0. -1.
<mgrwt>
<rscale>  1 0.78267100E+03</rscale>
<asrwt>0</asrwt>
<pdfrwt beam="1">  1       21 0.90609417E-01 0.10813567E+04</pdfrwt>
<pdfrwt beam="2">  1        4 0.13188620E+00 0.10813567E+04</pdfrwt>
<totfact> 0.16112518E+01</totfact>
</mgrwt>
</event>
<event>
 6    1  0.1431486E-005  0.1115232E+04  0.7818608E-02  0.9420074E-01
          4   -1    0    0  502    0 -0.00000000000E+00  0.00000000000E+00  0.83999053602E+03  0.83999053602E+03  0.00000000000E+00 0.  1.
         21   -1    0    0  501  502  0.00000000000E+00 -0.00000000000E+00 -0.76951072506E+03  0.76951072506E+03  0.00000000000E+00 0.  1.
    9000010    2    1    2  501    0 -0.17309313753E+03  0.45024723093E+03 -0.34792976836E+02  0.11157744396E+04  0.10055139212E+04 0.  0.
        -13    1    3    3    0    0  0.16287462637E+03 -0.19910197388E+03 -0.24479472490E+03  0.35509746327E+03  0.10566000000E+00 0.  1.
          4    1    3    3  501    0 -0.33596776390E+03  0.64934920480E+03  0.21000174806E+03  0.76067697635E+03  0.00000000000E+00 0.  1.
         13    1    1    2    0    0  0.17309313753E+03 -0.45024723093E+03  0.10527278780E+03  0.49372682146E+03  0.10566000000E+00 0. -1.
<mgrwt>
<rscale>  1 0.90441892E+03</rscale>
<asrwt>0</asrwt>
<pdfrwt beam="2">  1       21 0.11838627E+00 0.11152318E+04</pdfrwt>
<pdfrwt beam="1">  1        4 0.12922931E+00 0.11152318E+04</pdfrwt>
<totfact> 0.86644151E+00</totfact>
</mgrwt>
</event>
<event>
 6    1  0.1431486E-005  0.1091439E+04  0.7818608E-02  0.9397505E-01
          4   -1    0    0  502    0 -0.00000000000E+00  0.00000000000E+00  0.11545478313E+04  0.11545478313E+04  0.00000000000E+00 0.  1.
         21   -1    0    0  501  502  0.00000000000E+00 -0.00000000000E+00 -0.59295241227E+03  0.59295241227E+03  0.00000000000E+00 0. -1.
    9000010    2    1    2  501    0  0.52500183570E+03 -0.18836784193E+03  0.30311768596E+03  0.11327481626E+04  0.93815174520E+03 0.  0.
        -13    1    3    3    0    0 -0.22213615840E+02 -0.38960151742E+03  0.37996563297E+03  0.54466198739E+03  0.10566000000E+00 0.  1.
          4    1    3    3  501    0  0.54721545154E+03  0.20123367549E+03 -0.76847947004E+02  0.58808617524E+03  0.00000000000E+00 0.  1.
         13    1    1    2    0    0 -0.52500183570E+03  0.18836784193E+03  0.25847773305E+03  0.61475208093E+03  0.10566000000E+00 0. -1.
<mgrwt>
<rscale>  1 0.92281278E+03</rscale>
<asrwt>0</asrwt>
<pdfrwt beam="2">  1       21 0.91223448E-01 0.10914385E+04</pdfrwt>
<pdfrwt beam="1">  1        4 0.17762274E+00 0.10914385E+04</pdfrwt>
<totfact> 0.70493956E+00</totfact>
</mgrwt>
</event>
<event>
 6    1  0.1431486E-005  0.1118235E+04  0.7818608E-02  0.9408436E-01
         21   -1    0    0  501  502  0.00000000000E+00  0.00000000000E+00  0.67521409064E+03  0.67521409064E+03  0.00000000000E+00 0.  1.
          4   -1    0    0  502    0 -0.00000000000E+00 -0.00000000000E+00 -0.10755517418E+04  0.10755517418E+04  0.00000000000E+00 0.  1.
    9000010    2    1    2  501    0 -0.49865661042E+03 -0.10289181922E+02 -0.11419903477E+02  0.11182934552E+04  0.10008424228E+04 0.  0.
        -13    1    3    3    0    0 -0.62730013410E+03  0.35115012671E+03  0.81642571738E+02  0.72351737395E+03  0.10566000000E+00 0.  1.
          4    1    3    3  501    0  0.12864352368E+03 -0.36143930863E+03 -0.93062475216E+02  0.39477608122E+03  0.00000000000E+00 0.  1.
         13    1    1    2    0    0  0.49865661042E+03  0.10289181922E+02 -0.38891774766E+03  0.63247237726E+03  0.10566000000E+00 0. -1.
<mgrwt>
<rscale>  1 0.91384672E+03</rscale>
<asrwt>0</asrwt>
<pdfrwt beam="1">  1       21 0.10387909E+00 0.11182351E+04</pdfrwt>
<pdfrwt beam="2">  1        4 0.16546950E+00 0.11182351E+04</pdfrwt>
<totfact> 0.62360720E+00</totfact>
</mgrwt>
</event>
<event>
 6    1  0.1431486E-005  0.1015236E+04  0.7818608E-02  0.9767243E-01
         21   -1    0    0  501  502  0.00000000000E+00  0.00000000000E+00  0.32627696455E+03  0.32627696455E+03  0.00000000000E+00 0.  1.
          4   -1    0    0  502    0 -0.00000000000E+00 -0.00000000000E+00 -0.11433357959E+04  0.11433357959E+04  0.00000000000E+00 0.  1.
    9000010    2    1    2  501    0  0.18544201482E+03 -0.58031351271E+02 -0.60429386701E+03  0.11814716148E+04  0.99646762134E+03 0.  0.
        -13    1    3    3    0    0 -0.36087050816E+03  0.39375560617E+02 -0.49830692516E+03  0.61651257996E+03  0.10566000000E+00 0.  1.
          4    1    3    3  501    0  0.54631252298E+03 -0.97406911888E+02 -0.10598694186E+03  0.56495903488E+03  0.00000000000E+00 0.  1.
         13    1    1    2    0    0 -0.18544201482E+03  0.58031351271E+02 -0.21276496437E+03  0.28814114565E+03  0.10566000000E+00 0. -1.
<mgrwt>
<rscale>  1 0.67150470E+03</rscale>
<asrwt>0</asrwt>
<pdfrwt beam="1">  1       21 0.50196456E-01 0.10152360E+04</pdfrwt>
<pdfrwt beam="2">  1        4 0.17589781E+00 0.10152360E+04</pdfrwt>
<totfact> 0.28600538E+01</totfact>
</mgrwt>
</event>
<event>
 6    1  0.1431486E-005  0.9773460E+03  0.7818608E-02  0.9586601E-01
          4   -1    0    0  502    0 -0.00000000000E+00  0.00000000000E+00  0.57399673396E+03  0.57399673396E+03  0.00000000000E+00 0.  1.
         21   -1    0    0  501  502  0.00000000000E+00 -0.00000000000E+00 -0.85468277281E+03  0.85468277281E+03  0.00000000000E+00 0. -1.
    9000010    2    1    2  501    0  0.39920752286E+03 -0.30309837349E+02 -0.31500161351E+03  0.10268550396E+04  0.89158281914E+03 0.  0.
        -13    1    3    3    0    0  0.54629742819E+03 -0.33153511438E+03 -0.24513378782E+03  0.68443187916E+03  0.10566000000E+00 0.  1.
          4    1    3    3  501    0 -0.14708990533E+03  0.30122527703E+03 -0.69867825689E+02  0.34242316049E+03  0.00000000000E+00 0.  1.
         13    1    1    2    0    0 -0.39920752286E+03  0.30309837349E+02  0.34315574667E+02  0.40182446712E+03  0.10566000000E+00 0. -1.
<mgrwt>
<rscale>  1 0.78189420E+03</rscale>
<asrwt>0</asrwt>
<pdfrwt beam="2">  1       21 0.13148966E+00 0.97734603E+03</pdfrwt>
<pdfrwt beam="1">  1        4 0.88307190E-01 0.97734603E+03</pdfrwt>
<totfact> 0.16962564E+01</totfact>
</mgrwt>
</event>
<event>
 6    1  0.1431486E-005  0.9929806E+03  0.7818608E-02  0.9933135E-01
         21   -1    0    0  501  502  0.00000000000E+00  0.00000000000E+00  0.26310937961E+03  0.26310937961E+03  0.00000000000E+00 0.  1.
          4   -1    0    0  502    0 -0.00000000000E+00 -0.00000000000E+00 -0.13557328681E+04  0.13557328681E+04  0.00000000000E+00 0.  1.
    9000010    2    1    2  501    0  0.46847437683E+02  0.11168700002E+03 -0.71866753878E+03  0.12257624443E+04  0.98556677607E+03 0.  0.
        -13    1    3    3    0    0  0.41982932921E+03 -0.23194894943E+03 -0.28115223793E+03  0.55597083814E+03  0.10566000000E+00 0.  1.
          4    1    3    3  501    0 -0.37298189152E+03  0.34363594945E+03 -0.43751530084E+03  0.66979160612E+03  0.00000000000E+00 0.  1.
         13    1    1    2    0    0 -0.46847437683E+02 -0.11168700002E+03 -0.37395594970E+03  0.39307980344E+03  0.10566000000E+00 0. -1.
<mgrwt>
<rscale>  1 0.58681940E+03</rscale>
<asrwt>0</asrwt>
<pdfrwt beam="1">  1       21 0.40478366E-01 0.99298063E+03</pdfrwt>
<pdfrwt beam="2">  1        4 0.20857429E+00 0.99298063E+03</pdfrwt>
<totfact> 0.27262175E+01</totfact>
</mgrwt>
</event>
<event>
 6    1  0.1431486E-005  0.1025255E+04  0.7818608E-02  0.9696283E-01
          4   -1    0    0  502    0 -0.00000000000E+00  0.00000000000E+00  0.97560174285E+03  0.97560174285E+03  0.00000000000E+00 0.  1.
         21   -1    0    0  501  502  0.00000000000E+00 -0.00000000000E+00 -0.43790779196E+03  0.43790779196E+03  0.00000000000E+00 0.  1.
    9000010    2    1    2  501    0 -0.22309731953E+03 -0.85672549844E+02  0.28158986532E+03  0.10632217766E+04  0.99701328683E+03 0.  0.
        -13    1    3    3    0    0 -0.37646139638E+03  0.37979810179E+03  0.16191592700E+03  0.55873657448E+03  0.10566000000E+00 0.  1.
          4    1    3    3  501    0  0.15336407685E+03 -0.46547065163E+03  0.11967393833E+03  0.50448520207E+03  0.00000000000E+00 0.  1.
         13    1    1    2    0    0  0.22309731953E+03  0.85672549844E+02  0.25610408556E+03  0.35028775826E+03  0.10566000000E+00 0. -1.
<mgrwt>
<rscale>  1 0.71238542E+03</rscale>
<asrwt>0</asrwt>
<pdfrwt beam="2">  1       21 0.67370430E-01 0.10252549E+04</pdfrwt>
<pdfrwt beam="1">  1        4 0.15009258E+00 0.10252549E+04</pdfrwt>
<totfact> 0.23087801E+01</totfact>
</mgrwt>
</event>
<event>
 6    1  0.1431486E-005  0.1297862E+04  0.7818608E-02  0.9134303E-01
          4   -1    0    0  502    0 -0.00000000000E+00  0.00000000000E+00  0.14509610429E+04  0.14509610429E+04  0.00000000000E+00 0.  1.
         21   -1    0    0  501  502  0.00000000000E+00 -0.00000000000E+00 -0.90405155245E+03  0.90405155245E+03  0.00000000000E+00 0.  1.
    9000010    2    1    2  501    0 -0.71458169373E+03  0.50373474190E+03 -0.45942802320E+02  0.12986747993E+04  0.95920269283E+03 0.  0.
        -13    1    3    3    0    0 -0.85228495315E+02  0.28291920980E+03  0.39930829694E+03  0.49674369937E+03  0.10566000000E+00 0.  1.
          4    1    3    3  501    0 -0.62935319842E+03  0.22081553210E+03 -0.44525109926E+03  0.80193109989E+03  0.00000000000E+00 0.  1.
         13    1    1    2    0    0  0.71458169373E+03 -0.50373474190E+03  0.59285229275E+03  0.10563377961E+04  0.10566000000E+00 0. -1.
<mgrwt>
<rscale>  1 0.11758034E+04</rscale>
<asrwt>0</asrwt>
<pdfrwt beam="2">  1       21 0.13908485E+00 0.12978619E+04</pdfrwt>
<pdfrwt beam="1">  1        4 0.22322478E+00 0.12978619E+04</pdfrwt>
<totfact> 0.11556604E+00</totfact>
</mgrwt>
</event>
<event>
 6    1  0.1431486E-005  0.1127554E+04  0.7818608E-02  0.9373902E-01
         21   -1    0    0  501  502  0.00000000000E+00  0.00000000000E+00  0.18599706125E+04  0.18599706125E+04  0.00000000000E+00 0.  1.
          4   -1    0    0  502    0 -0.00000000000E+00 -0.00000000000E+00 -0.39288870373E+03  0.39288870373E+03  0.00000000000E+00 0.  1.
    9000010    2    1    2  501    0  0.38994999227E+03 -0.38865889149E+03  0.11793786106E+04  0.16316589223E+04  0.98400213483E+03 0.  0.
        -13    1    3    3    0    0 -0.22652896492E+03  0.14342243245E+03  0.51526813156E+03  0.58084991577E+03  0.10566000000E+00 0.  1.
          4    1    3    3  501    0  0.61647895719E+03 -0.53208132394E+03  0.66411047903E+03  0.10508090066E+04  0.00000000000E+00 0.  1.
         13    1    1    2    0    0 -0.38994999227E+03  0.38865889149E+03  0.28770329815E+03  0.62120039387E+03  0.10566000000E+00 0. -1.
<mgrwt>
<rscale>  1 0.94254938E+03</rscale>
<asrwt>0</asrwt>
<pdfrwt beam="1">  1       21 0.28614932E+00 0.11275535E+04</pdfrwt>
<pdfrwt beam="2">  1        4 0.60444417E-01 0.11275535E+04</pdfrwt>
<totfact> 0.32317375E+00</totfact>
</mgrwt>
</event>
<event>
 6    1  0.1431486E-005  0.9966955E+03  0.7818608E-02  0.9769830E-01
         21   -1    0    0  501  502  0.00000000000E+00  0.00000000000E+00  0.86937261226E+03  0.86937261226E+03  0.00000000000E+00 0.  1.
          4   -1    0    0  502    0 -0.00000000000E+00 -0.00000000000E+00 -0.54083999375E+03  0.54083999375E+03  0.00000000000E+00 0.  1.
    9000010    2    1    2  501    0 -0.52091734929E+02  0.19683160027E+03  0.52565496967E+03  0.11268163107E+04  0.97567700762E+03 0.  0.
        -13    1    3    3    0    0  0.39569645388E+03  0.32444646201E+03  0.38517149357E+03  0.64046723644E+03  0.10566000000E+00 0.  1.
          4    1    3    3  501    0 -0.44778818881E+03 -0.12761486174E+03  0.14048347610E+03  0.48634907426E+03  0.00000000000E+00 0.  1.
         13    1    1    2    0    0  0.52091734929E+02 -0.19683160027E+03 -0.19712235115E+03  0.28339629532E+03  0.10566000000E+00 0. -1.
<mgrwt>
<rscale>  1 0.67007066E+03</rscale>
<asrwt>0</asrwt>
<pdfrwt beam="1">  1       21 0.13374963E+00 0.99669547E+03</pdfrwt>
<pdfrwt beam="2">  1        4 0.83206153E-01 0.99669547E+03</pdfrwt>
<totfact> 0.18578419E+01</totfact>
</mgrwt>
</event>
<event>
 6    1  0.1431486E-005  0.1006709E+04  0.7818608E-02  0.9835515E-01
         21   -1    0    0  501  502  0.00000000000E+00  0.00000000000E+00  0.12410882699E+04  0.12410882699E+04  0.00000000000E+00 0.  1.
          4   -1    0    0  502    0 -0.00000000000E+00 -0.00000000000E+00 -0.29532178151E+03  0.29532178151E+03  0.00000000000E+00 0.  1.
    9000010    2    1    2  501    0  0.14396409779E+03 -0.68127754269E+02  0.93952909723E+03  0.13770175529E+04  0.99402986076E+03 0.  0.
        -13    1    3    3    0    0  0.14448773057E+03  0.11568241271E+03  0.11105990995E+04  0.11259171798E+04  0.10566000000E+00 0.  1.
          4    1    3    3  501    0 -0.52363278141E+00 -0.18381016698E+03 -0.17107000226E+03  0.25110037306E+03  0.00000000000E+00 0.  1.
         13    1    1    2    0    0 -0.14396409779E+03  0.68127754269E+02  0.62373911141E+01  0.15939249847E+03  0.10566000000E+00 0. -1.
<mgrwt>
<rscale>  1 0.63490923E+03</rscale>
<asrwt>0</asrwt>
<pdfrwt beam="1">  1       21 0.19093665E+00 0.10067087E+04</pdfrwt>
<pdfrwt beam="2">  1        4 0.45434121E-01 0.10067087E+04</pdfrwt>
<totfact> 0.25174129E+01</totfact>
</mgrwt>
</event>
<event>
 6    1  0.1431486E-005  0.1060240E+04  0.7818608E-02  0.9716231E-01
         21   -1    0    0  501  502  0.00000000000E+00  0.00000000000E+00  0.19227287229E+03  0.19227287229E+03  0.00000000000E+00 0.  1.
          4   -1    0    0  502    0 -0.00000000000E+00 -0.00000000000E+00 -0.21952023989E+04  0.21952023989E+04  0.00000000000E+00 0.  1.
    9000010    2    1    2  501    0 -0.11035753548E+03  0.16934580796E+03 -0.14316931155E+04  0.17815315140E+04  0.10407942016E+04 0.  0.
        -13    1    3    3    0    0 -0.33768878605E+03  0.10084358235E+03 -0.23222146113E+02  0.35318893465E+03  0.10566000000E+00 0.  1.
          4    1    3    3  501    0  0.22733125057E+03  0.68502225609E+02 -0.14084709694E+04  0.14283425794E+04  0.00000000000E+00 0.  1.
         13    1    1    2    0    0  0.11035753548E+03 -0.16934580796E+03 -0.57123641113E+03  0.60594375719E+03  0.10566000000E+00 0. -1.
<mgrwt>
<rscale>  1 0.70058568E+03</rscale>
<asrwt>0</asrwt>
<pdfrwt beam="1">  1       21 0.29580445E-01 0.10602402E+04</pdfrwt>
<pdfrwt beam="2">  1        4 0.33772341E+00 0.10602402E+04</pdfrwt>
<totfact> 0.80332161E+00</totfact>
</mgrwt>
</event>
<event>
 6    1  0.1431486E-005  0.1004780E+04  0.7818608E-02  0.9780844E-01
          4   -1    0    0  502    0 -0.00000000000E+00  0.00000000000E+00  0.38524957300E+03  0.38524957300E+03  0.00000000000E+00 0.  1.
         21   -1    0    0  501  502  0.00000000000E+00 -0.00000000000E+00 -0.96443426598E+03  0.96443426598E+03  0.00000000000E+00 0.  1.
    9000010    2    1    2  501    0  0.79239453492E+02 -0.17448764048E+03 -0.57568697231E+03  0.11580146634E+04  0.98633546159E+03 0.  0.
        -13    1    3    3    0    0  0.48487175865E+03  0.12445523143E+03 -0.27272376568E+03  0.57005963767E+03  0.10566000000E+00 0.  1.
          4    1    3    3  501    0 -0.40563230516E+03 -0.29894287192E+03 -0.30296320663E+03  0.58795502568E+03  0.00000000000E+00 0.  1.
         13    1    1    2    0    0 -0.79239453492E+02  0.17448764048E+03 -0.34977206697E+01  0.19166917563E+03  0.10566000000E+00 0. -1.
<mgrwt>
<rscale>  1 0.66400777E+03</rscale>
<asrwt>0</asrwt>
<pdfrwt beam="2">  1       21 0.14837450E+00 0.10047798E+04</pdfrwt>
<pdfrwt beam="1">  1        4 0.59269165E-01 0.10047798E+04</pdfrwt>
<totfact> 0.29919586E+01</totfact>
</mgrwt>
</event>
<event>
 6    1  0.1431486E-005  0.1006491E+04  0.7818608E-02  0.9892561E-01
          4   -1    0    0  502    0 -0.00000000000E+00  0.00000000000E+00  0.35478508908E+03  0.35478508908E+03  0.00000000000E+00 0.  1.
         21   -1    0    0  501  502  0.00000000000E+00 -0.00000000000E+00 -0.11643416326E+04  0.11643416326E+04  0.00000000000E+00 0.  1.
    9000010    2    1    2  501    0 -0.93683559806E+02  0.93660491460E+02 -0.90684585502E+03  0.13547669993E+04  0.99773509543E+03 0.  0.
        -13    1    3    3    0    0  0.18944838946E+03  0.12257976515E+03 -0.10228386204E+04  0.10474327404E+04  0.10566000000E+00 0.  1.
          4    1    3    3  501    0 -0.28313194926E+03 -0.28919273688E+02  0.11599276539E+03  0.30733425892E+03  0.00000000000E+00 0.  1.
         13    1    1    2    0    0  0.93683559806E+02 -0.93660491460E+02  0.97289311493E+02  0.16435972236E+03  0.10566000000E+00 0. -1.
<mgrwt>
<rscale>  1 0.60623178E+03</rscale>
<asrwt>0</asrwt>
<pdfrwt beam="2">  1       21 0.17912949E+00 0.10064910E+04</pdfrwt>
<pdfrwt beam="1">  1        4 0.54582320E-01 0.10064910E+04</pdfrwt>
<totfact> 0.20760625E+01</totfact>
</mgrwt>
</event>
<event>
 6    1  0.1431486E-005  0.1100293E+04  0.7818608E-02  0.9447933E-01
          4   -1    0    0  502    0 -0.00000000000E+00  0.00000000000E+00  0.29775382245E+03  0.29775382245E+03  0.00000000000E+00 0.  1.
         21   -1    0    0  501  502  0.00000000000E+00 -0.00000000000E+00 -0.27259669872E+04  0.27259669872E+04  0.00000000000E+00 0. -1.
    9000010    2    1    2  501    0  0.29754369050E+02 -0.45403016503E+03 -0.87667565342E+03  0.14068419108E+04  0.10018059929E+04 0.  0.
        -13    1    3    3    0    0  0.10290394630E+03 -0.46459459164E+03  0.48863418153E+02  0.47835656319E+03  0.10566000000E+00 0.  1.
          4    1    3    3  501    0 -0.73149577250E+02  0.10564426607E+02 -0.92553907157E+03  0.92848534763E+03  0.00000000000E+00 0.  1.
         13    1    1    2    0    0 -0.29754369050E+02  0.45403016503E+03 -0.15515375114E+04  0.16168788989E+04  0.10566000000E+00 0. -1.
<mgrwt>
<rscale>  1 0.88233812E+03</rscale>
<asrwt>0</asrwt>
<pdfrwt beam="2">  1       21 0.41937952E+00 0.11002927E+04</pdfrwt>
<pdfrwt beam="1">  1        4 0.45808282E-01 0.11002927E+04</pdfrwt>
<totfact> 0.82651504E-01</totfact>
</mgrwt>
</event>
<event>
 6    1  0.1431486E-005  0.1023202E+04  0.7818608E-02  0.9955565E-01
         21   -1    0    0  501  502  0.00000000000E+00  0.00000000000E+00  0.38400893491E+03  0.38400893491E+03  0.00000000000E+00 0.  1.
          4   -1    0    0  502    0 -0.00000000000E+00 -0.00000000000E+00 -0.11188402709E+04  0.11188402709E+04  0.00000000000E+00 0.  1.
    9000010    2    1    2  501    0  0.50928659540E+02  0.89594338574E+02 -0.31505706791E+03  0.10706093173E+04  0.10179992537E+04 0.  0.
        -13    1    3    3    0    0  0.50023110778E+03  0.72798891447E+02  0.26159906089E+02  0.50617703586E+03  0.10566000000E+00 0.  1.
          4    1    3    3  501    0 -0.44930244824E+03  0.16795447126E+02 -0.34121697399E+03  0.56443228148E+03  0.00000000000E+00 0.  1.
         13    1    1    2    0    0 -0.50928659540E+02 -0.89594338574E+02 -0.41977426813E+03  0.43223988851E+03  0.10566000000E+00 0. -1.
<mgrwt>
<rscale>  1 0.57642298E+03</rscale>
<asrwt>0</asrwt>
<pdfrwt beam="1">  1       21 0.59078299E-01 0.10232025E+04</pdfrwt>
<pdfrwt beam="2">  1        4 0.17212927E+00 0.10232025E+04</pdfrwt>
<totfact> 0.21266328E+01</totfact>
</mgrwt>
</event>
<event>
 6    1  0.1431486E-005  0.1095943E+04  0.7818608E-02  0.9468110E-01
         21   -1    0    0  501  502  0.00000000000E+00  0.00000000000E+00  0.11842706009E+04  0.11842706009E+04  0.00000000000E+00 0.  1.
          4   -1    0    0  502    0 -0.00000000000E+00 -0.00000000000E+00 -0.49076703603E+03  0.49076703603E+03  0.00000000000E+00 0.  1.
    9000010    2    1    2  501    0  0.12701878317E+03 -0.40953771841E+03  0.49653104831E+03  0.12031763251E+04  0.10085808214E+04 0.  0.
        -13    1    3    3    0    0 -0.16324424932E+03 -0.36115536620E+03  0.72792468333E+03  0.82882823265E+03  0.10566000000E+00 0.  1.
          4    1    3    3  501    0  0.29026303248E+03 -0.48382352210E+02 -0.23139363502E+03  0.37434809250E+03  0.00000000000E+00 0.  1.
         13    1    1    2    0    0 -0.12701878317E+03  0.40953771841E+03  0.19697251652E+03  0.47186131173E+03  0.10566000000E+00 0. -1.
<mgrwt>
<rscale>  1 0.86676291E+03</rscale>
<asrwt>0</asrwt>
<pdfrwt beam="1">  1       21 0.18219548E+00 0.10959426E+04</pdfrwt>
<pdfrwt beam="2">  1        4 0.75502621E-01 0.10959426E+04</pdfrwt>
<totfact> 0.95386218E+00</totfact>
</mgrwt>
</event>
<event>
 6    1  0.1431486E-005  0.1019323E+04  0.7818608E-02  0.9863688E-01
         21   -1    0    0  501  502  0.00000000000E+00  0.00000000000E+00  0.36806903250E+03  0.36806903250E+03  0.00000000000E+00 0.  1.
          4   -1    0    0  502    0 -0.00000000000E+00 -0.00000000000E+00 -0.11536315112E+04  0.11536315112E+04  0.00000000000E+00 0.  1.
    9000010    2    1    2  501    0 -0.10220428515E+03 -0.95683320296E+02 -0.37199927426E+03  0.10850822334E+04  0.10096628048E+04 0.  0.
        -13    1    3    3    0    0  0.21212046007E+03  0.34259206297E+03  0.42059293139E+02  0.40513381307E+03  0.10566000000E+00 0.  1.
          4    1    3    3  501    0 -0.31432474522E+03 -0.43827538327E+03 -0.41405856740E+03  0.67994842030E+03  0.00000000000E+00 0.  1.
         13    1    1    2    0    0  0.10220428515E+03  0.95683320296E+02 -0.41356320440E+03  0.43661831029E+03  0.10566000000E+00 0. -1.
<mgrwt>
<rscale>  1 0.62053861E+03</rscale>
<asrwt>0</asrwt>
<pdfrwt beam="1">  1       21 0.56626006E-01 0.10193233E+04</pdfrwt>
<pdfrwt beam="2">  1        4 0.17748177E+00 0.10193233E+04</pdfrwt>
<totfact> 0.21412817E+01</totfact>
</mgrwt>
</event>
<event>
 6    1  0.1431486E-005  0.1011243E+04  0.7818608E-02  0.9844619E-01
          4   -1    0    0  502    0 -0.00000000000E+00  0.00000000000E+00  0.46078994757E+03  0.46078994757E+03  0.00000000000E+00 0.  1.
         21   -1    0    0  501  502  0.00000000000E+00 -0.00000000000E+00 -0.82906926786E+03  0.82906926786E+03  0.00000000000E+00 0.  1.
    9000010    2    1    2  501    0 -0.15198890016E+03  0.13037343258E+02 -0.46097703948E+03  0.11113557802E+04  0.99967056629E+03 0.  0.
        -13    1    3    3    0    0 -0.24635570368E+03 -0.35028960746E+03  0.96778296804E+02  0.43904440746E+03  0.10566000000E+00 0.  1.
          4    1    3    3  501    0  0.94366803517E+02  0.36332695071E+03 -0.55775533629E+03  0.67231137271E+03  0.00000000000E+00 0.  1.
         13    1    1    2    0    0  0.15198890016E+03 -0.13037343258E+02  0.92697719197E+02  0.17850343526E+03  0.10566000000E+00 0. -1.
<mgrwt>
<rscale>  1 0.63022050E+03</rscale>
<asrwt>0</asrwt>
<pdfrwt beam="2">  1       21 0.12754912E+00 0.10112427E+04</pdfrwt>
<pdfrwt beam="1">  1        4 0.70890761E-01 0.10112427E+04</pdfrwt>
<totfact> 0.30321603E+01</totfact>
</mgrwt>
</event>
<event>
 6    1  0.1431486E-005  0.1008910E+04  0.7818608E-02  0.9796380E-01
          4   -1    0    0  502    0 -0.00000000000E+00  0.00000000000E+00  0.58070765099E+03  0.58070765099E+03  0.00000000000E+00 0.  1.
         21   -1    0    0  501  502  0.00000000000E+00 -0.00000000000E+00 -0.71924691415E+03  0.71924691415E+03  0.00000000000E+00 0.  1.
    9000010    2    1    2  501    0 -0.69319078669E+02  0.16596074308E+03 -0.30591236461E+03  0.10542680389E+04  0.99274902173E+03 0.  0.
        -13    1    3    3    0    0  0.19449781120E+03  0.51492444146E+03 -0.27607523419E+03  0.61578740250E+03  0.10566000000E+00 0.  1.
          4    1    3    3  501    0 -0.26381688987E+03 -0.34896369838E+03 -0.29837130422E+02  0.43848063642E+03  0.00000000000E+00 0.  1.
         13    1    1    2    0    0  0.69319078669E+02 -0.16596074308E+03  0.16737310145E+03  0.24568652622E+03  0.10566000000E+00 0. -1.
<mgrwt>
<rscale>  1 0.65557191E+03</rscale>
<asrwt>0</asrwt>
<pdfrwt beam="2">  1       21 0.11065337E+00 0.10089097E+04</pdfrwt>
<pdfrwt beam="1">  1        4 0.89339639E-01 0.10089097E+04</pdfrwt>
<totfact> 0.25759068E+01</totfact>
</mgrwt>
</event>
<event>
 6    1  0.1431486E-005  0.1081916E+04  0.7818608E-02  0.9487795E-01
          4   -1    0    0  502    0 -0.00000000000E+00  0.00000000000E+00  0.50842494773E+03  0.50842494773E+03  0.00000000000E+00 0.  1.
         21   -1    0    0  501  502  0.00000000000E+00 -0.00000000000E+00 -0.12680204156E+04  0.12680204156E+04  0.00000000000E+00 0.  1.
    9000010    2    1    2  501    0 -0.39509951836E+03  0.12981121518E+03 -0.81819294139E+03  0.13564593444E+04  0.99879311311E+03 0.  0.
        -13    1    3    3    0    0 -0.55982448853E+03  0.44326625026E+03 -0.64511855202E+03  0.96232342998E+03  0.10566000000E+00 0.  1.
          4    1    3    3  501    0  0.16472497017E+03 -0.31345503508E+03 -0.17307438938E+03  0.39413591446E+03  0.00000000000E+00 0.  1.
         13    1    1    2    0    0  0.39509951836E+03 -0.12981121518E+03  0.58597473527E+02  0.41998601889E+03  0.10566000000E+00 0. -1.
<mgrwt>
<rscale>  1 0.85189619E+03</rscale>
<asrwt>0</asrwt>
<pdfrwt beam="2">  1       21 0.19508006E+00 0.10819160E+04</pdfrwt>
<pdfrwt beam="1">  1        4 0.78219224E-01 0.10819160E+04</pdfrwt>
<totfact> 0.71407320E+00</totfact>
</mgrwt>
</event>
<event>
 6    1  0.1431486E-005  0.1023813E+04  0.7818608E-02  0.9749618E-01
          4   -1    0    0  502    0 -0.00000000000E+00  0.00000000000E+00  0.13744812284E+03  0.13744812284E+03  0.00000000000E+00 0.  1.
         21   -1    0    0  501  502  0.00000000000E+00 -0.00000000000E+00 -0.32495211215E+04  0.32495211215E+04  0.00000000000E+00 0.  1.
    9000010    2    1    2  501    0 -0.17628150826E+03  0.96276986561E+02 -0.29684446730E+04  0.31400410454E+04  0.10039171093E+04 0.  0.
        -13    1    3    3    0    0 -0.16884941484E+03  0.34250819261E+03 -0.37596635004E+03  0.53588496379E+03  0.10566000000E+00 0.  1.
          4    1    3    3  501    0 -0.74320934201E+01 -0.24623120604E+03 -0.25924783229E+04  0.26041560817E+04  0.00000000000E+00 0.  1.
         13    1    1    2    0    0  0.17628150826E+03 -0.96276986561E+02 -0.14362832568E+03  0.24692819887E+03  0.10566000000E+00 0. -1.
<mgrwt>
<rscale>  1 0.68137875E+03</rscale>
<asrwt>0</asrwt>
<pdfrwt beam="2">  1       21 0.49992634E+00 0.10238135E+04</pdfrwt>
<pdfrwt beam="1">  1        4 0.21145864E-01 0.10238135E+04</pdfrwt>
<totfact> 0.10659468E+00</totfact>
</mgrwt>
</event>
<event>
 6    1  0.1431486E-005  0.1022586E+04  0.7818608E-02  0.9800779E-01
         21   -1    0    0  501  502  0.00000000000E+00  0.00000000000E+00  0.88979334685E+03  0.88979334685E+03  0.00000000000E+00 0.  1.
          4   -1    0    0  502    0 -0.00000000000E+00 -0.00000000000E+00 -0.46405034382E+03  0.46405034382E+03  0.00000000000E+00 0.  1.
    9000010    2    1    2  501    0 -0.63390561331E+02 -0.15801582009E+03  0.53245825554E+03  0.11529070864E+04  0.10083132416E+04 0.  0.
        -13    1    3    3    0    0  0.31497574243E+03  0.14634354113E+03  0.56826961372E+03  0.66600038693E+03  0.10566000000E+00 0.  1.
          4    1    3    3  501    0 -0.37836630376E+03 -0.30435936122E+03 -0.35811358180E+02  0.48690669944E+03  0.00000000000E+00 0.  1.
         13    1    1    2    0    0  0.63390561331E+02  0.15801582009E+03 -0.10671525251E+03  0.20093660430E+03  0.10566000000E+00 0. -1.
<mgrwt>
<rscale>  1 0.65320744E+03</rscale>
<asrwt>0</asrwt>
<pdfrwt beam="1">  1       21 0.13689128E+00 0.10225864E+04</pdfrwt>
<pdfrwt beam="2">  1        4 0.71392361E-01 0.10225864E+04</pdfrwt>
<totfact> 0.24689201E+01</totfact>
</mgrwt>
</event>
<event>
 6    1  0.1431486E-005  0.9922925E+03  0.7818608E-02  0.9756317E-01
          4   -1    0    0  502    0 -0.00000000000E+00  0.00000000000E+00  0.77949066254E+03  0.77949066254E+03  0.00000000000E+00 0.  1.
         21   -1    0    0  501  502  0.00000000000E+00 -0.00000000000E+00 -0.11514975048E+04  0.11514975048E+04  0.00000000000E+00 0.  1.
    9000010    2    1    2  501    0  0.21350444714E+03 -0.31169689541E+02 -0.91308888336E+03  0.13484716569E+04  0.96854984487E+03 0.  0.
        -13    1    3    3    0    0  0.12006768585E+03  0.44505942635E+03 -0.64873809871E+03  0.79583621056E+03  0.10566000000E+00 0.  1.
          4    1    3    3  501    0  0.93436761293E+02 -0.47622911589E+03 -0.26435078466E+03  0.55263544632E+03  0.00000000000E+00 0.  1.
         13    1    1    2    0    0 -0.21350444714E+03  0.31169689541E+02  0.54108204114E+03  0.58251651041E+03  0.10566000000E+00 0. -1.
<mgrwt>
<rscale>  1 0.67760471E+03</rscale>
<asrwt>0</asrwt>
<pdfrwt beam="2">  1       21 0.17715346E+00 0.99229255E+03</pdfrwt>
<pdfrwt beam="1">  1        4 0.11992164E+00 0.99229255E+03</pdfrwt>
<totfact> 0.34869401E+00</totfact>
</mgrwt>
</event>
<event>
 6    1  0.1431486E-005  0.1020708E+04  0.7818608E-02  0.9763188E-01
         21   -1    0    0  501  502  0.00000000000E+00  0.00000000000E+00  0.65198373960E+03  0.65198373960E+03  0.00000000000E+00 0.  1.
          4   -1    0    0  502    0 -0.00000000000E+00 -0.00000000000E+00 -0.56558248506E+03  0.56558248506E+03  0.00000000000E+00 0.  1.
    9000010    2    1    2  501    0 -0.14016912260E+03  0.13380889925E+03  0.73854549338E+02  0.10233765354E+04  0.10021441185E+04 0.  0.
        -13    1    3    3    0    0 -0.23228091326E+03  0.30202956924E+03 -0.37540758670E+03  0.53488984910E+03  0.10566000000E+00 0.  1.
          4    1    3    3  501    0  0.92111790656E+02 -0.16822066999E+03  0.44926213603E+03  0.48848668627E+03  0.00000000000E+00 0.  1.
         13    1    1    2    0    0  0.14016912260E+03 -0.13380889925E+03  0.12546705196E+02  0.19418968928E+03  0.10566000000E+00 0. -1.
<mgrwt>
<rscale>  1 0.67376061E+03</rscale>
<asrwt>0</asrwt>
<pdfrwt beam="1">  1       21 0.10030519E+00 0.10207081E+04</pdfrwt>
<pdfrwt beam="2">  1        4 0.87012690E-01 0.10207081E+04</pdfrwt>
<totfact> 0.35036205E+01</totfact>
</mgrwt>
</event>
<event>
 6    1  0.1431486E-005  0.1000224E+04  0.7818608E-02  0.1037890E+00
         21   -1    0    0  501  502  0.00000000000E+00  0.00000000000E+00  0.65383481104E+03  0.65383481104E+03  0.00000000000E+00 0.  1.
          4   -1    0    0  502    0 -0.00000000000E+00 -0.00000000000E+00 -0.46575471444E+03  0.46575471444E+03  0.00000000000E+00 0.  1.
    9000010    2    1    2  501    0  0.28690351572E+02  0.99180914368E+01  0.26681973389E+03  0.10352008624E+04  0.99976324713E+03 0.  0.
        -13    1    3    3    0    0 -0.17829502408E+02  0.38960041324E+03  0.46294599225E+03  0.60533079887E+03  0.10566000000E+00 0.  1.
          4    1    3    3  501    0  0.46519853980E+02 -0.37968232180E+03 -0.19612625836E+03  0.42987006353E+03  0.00000000000E+00 0.  1.
         13    1    1    2    0    0 -0.28690351572E+02 -0.99180914368E+01 -0.78739637289E+02  0.84388663075E+02  0.10566000000E+00 0. -1.
<mgrwt>
<rscale>  1 0.41748013E+03</rscale>
<asrwt>0</asrwt>
<pdfrwt beam="1">  1       21 0.10058997E+00 0.10002240E+04</pdfrwt>
<pdfrwt beam="2">  1        4 0.71654571E-01 0.10002240E+04</pdfrwt>
<totfact> 0.54392847E+01</totfact>
</mgrwt>
</event>
<event>
 6    1  0.1431486E-005  0.1095198E+04  0.7818608E-02  0.9505101E-01
         21   -1    0    0  501  502  0.00000000000E+00  0.00000000000E+00  0.54585241907E+03  0.54585241907E+03  0.00000000000E+00 0. -1.
          4   -1    0    0  502    0 -0.00000000000E+00 -0.00000000000E+00 -0.11309121615E+04  0.11309121615E+04  0.00000000000E+00 0.  1.
    9000010    2    1    2  501    0 -0.37719789006E+03 -0.10946961801E+02 -0.67807083041E+03  0.12881141491E+04  0.10281341964E+04 0.  0.
        -13    1    3    3    0    0 -0.46219844590E+03  0.19228353320E+03 -0.86486078986E+03  0.99929202815E+03  0.10566000000E+00 0.  1.
          4    1    3    3  501    0  0.85000555837E+02 -0.20323049500E+03  0.18678995945E+03  0.28882212094E+03  0.00000000000E+00 0.  1.
         13    1    1    2    0    0  0.37719789006E+03  0.10946961801E+02  0.93011087976E+02  0.38865043148E+03  0.10566000000E+00 0. -1.
<mgrwt>
<rscale>  1 0.83908792E+03</rscale>
<asrwt>0</asrwt>
<pdfrwt beam="1">  1       21 0.83977297E-01 0.10951977E+04</pdfrwt>
<pdfrwt beam="2">  1        4 0.17398648E+00 0.10951977E+04</pdfrwt>
<totfact> 0.91238626E+00</totfact>
</mgrwt>
</event>
<event>
 6    1  0.1431486E-005  0.9877582E+03  0.7818608E-02  0.9997493E-01
          4   -1    0    0  502    0 -0.00000000000E+00  0.00000000000E+00  0.40269142753E+03  0.40269142753E+03  0.00000000000E+00 0.  1.
         21   -1    0    0  501  502  0.00000000000E+00 -0.00000000000E+00 -0.92209295982E+03  0.92209295982E+03  0.00000000000E+00 0.  1.
    9000010    2    1    2  501    0  0.92315231235E+02 -0.39244758131E+02 -0.63304225986E+03  0.11732044445E+04  0.98265147065E+03 0.  0.
        -13    1    3    3    0    0  0.50714962976E+01 -0.25562733552E+03  0.18947864820E+03  0.31823454248E+03  0.10566000000E+00 0.  1.
          4    1    3    3  501    0  0.87243734937E+02  0.21638257739E+03 -0.82252090807E+03  0.85496990198E+03  0.00000000000E+00 0.  1.
         13    1    1    2    0    0 -0.92315231235E+02  0.39244758131E+02  0.11364072758E+03  0.15157994289E+03  0.10566000000E+00 0. -1.
<mgrwt>
<rscale>  1 0.55760278E+03</rscale>
<asrwt>0</asrwt>
<pdfrwt beam="2">  1       21 0.14186046E+00 0.98775815E+03</pdfrwt>
<pdfrwt beam="1">  1        4 0.61952527E-01 0.98775815E+03</pdfrwt>
<totfact> 0.30797261E+01</totfact>
</mgrwt>
</event>
<event>
 6    1  0.1431486E-005  0.9895308E+03  0.7818608E-02  0.1006919E+00
          4   -1    0    0  502    0 -0.00000000000E+00  0.00000000000E+00  0.85599561432E+03  0.85599561432E+03  0.00000000000E+00 0.  1.
         21   -1    0    0  501  502  0.00000000000E+00 -0.00000000000E+00 -0.33483796166E+03  0.33483796166E+03  0.00000000000E+00 0.  1.
    9000010    2    1    2  501    0  0.16803928954E+02 -0.77922499444E+02  0.49825978508E+03  0.11078961812E+04  0.98631478087E+03 0.  0.
        -13    1    3    3    0    0  0.34208636752E+03 -0.35798141745E+03  0.46186669896E+03  0.67712232045E+03  0.10566000000E+00 0.  1.
          4    1    3    3  501    0 -0.32528243857E+03  0.28005891800E+03  0.36393086125E+02  0.43077386076E+03  0.00000000000E+00 0.  1.
         13    1    1    2    0    0 -0.16803928954E+02  0.77922499444E+02  0.22897867569E+02  0.82937394769E+02  0.10566000000E+00 0. -1.
<mgrwt>
<rscale>  1 0.52717583E+03</rscale>
<asrwt>0</asrwt>
<pdfrwt beam="2">  1       21 0.51513533E-01 0.98953077E+03</pdfrwt>
<pdfrwt beam="1">  1        4 0.13169163E+00 0.98953077E+03</pdfrwt>
<totfact> 0.59322796E+01</totfact>
</mgrwt>
</event>
<event>
 6    1  0.1431486E-005  0.1012265E+04  0.7818608E-02  0.9919324E-01
         21   -1    0    0  501  502  0.00000000000E+00  0.00000000000E+00  0.12740432282E+04  0.12740432282E+04  0.00000000000E+00 0.  1.
          4   -1    0    0  502    0 -0.00000000000E+00 -0.00000000000E+00 -0.32322859246E+03  0.32322859246E+03  0.00000000000E+00 0.  1.
    9000010    2    1    2  501    0  0.11867400959E+03 -0.13928447482E+02  0.10376061266E+04  0.14495887267E+04  0.10051882811E+04 0.  0.
        -13    1    3    3    0    0  0.37566499268E+03 -0.38641505909E+03  0.70781546706E+03  0.88963112085E+03  0.10566000000E+00 0.  1.
          4    1    3    3  501    0 -0.25699098309E+03  0.37248661160E+03  0.32979065952E+03  0.55995760582E+03  0.00000000000E+00 0.  1.
         13    1    1    2    0    0 -0.11867400959E+03  0.13928447482E+02 -0.86791490841E+02  0.14768309398E+03  0.10566000000E+00 0. -1.
<mgrwt>
<rscale>  1 0.59333833E+03</rscale>
<asrwt>0</asrwt>
<pdfrwt beam="1">  1       21 0.19600665E+00 0.10122653E+04</pdfrwt>
<pdfrwt beam="2">  1        4 0.49727477E-01 0.10122653E+04</pdfrwt>
<totfact> 0.19189953E+01</totfact>
</mgrwt>
</event>
<event>
 6    1  0.1431486E-005  0.1052395E+04  0.7818608E-02  0.9883693E-01
         21   -1    0    0  501  502  0.00000000000E+00  0.00000000000E+00  0.30778183105E+03  0.30778183105E+03  0.00000000000E+00 0.  1.
          4   -1    0    0  502    0 -0.00000000000E+00 -0.00000000000E+00 -0.12172504915E+04  0.12172504915E+04  0.00000000000E+00 0.  1.
    9000010    2    1    2  501    0  0.79421479512E+02 -0.88945919588E+02 -0.64346700060E+03  0.12335258179E+04  0.10456180061E+04 0.  0.
        -13    1    3    3    0    0 -0.13898694779E+03 -0.53111140178E+03 -0.42431690591E+03  0.69385988539E+03  0.10566000000E+00 0.  1.
          4    1    3    3  501    0  0.21840842730E+03  0.44216548219E+03 -0.21915009469E+03  0.53966593255E+03  0.00000000000E+00 0.  1.
         13    1    1    2    0    0 -0.79421479512E+02  0.88945919588E+02 -0.26600165982E+03  0.29150650457E+03  0.10566000000E+00 0. -1.
<mgrwt>
<rscale>  1 0.61058124E+03</rscale>
<asrwt>0</asrwt>
<pdfrwt beam="1">  1       21 0.47351052E-01 0.10523954E+04</pdfrwt>
<pdfrwt beam="2">  1        4 0.18726930E+00 0.10523954E+04</pdfrwt>
<totfact> 0.26945519E+01</totfact>
</mgrwt>
</event>
<event>
 6    1  0.1431486E-005  0.1033681E+04  0.7818608E-02  0.9641068E-01
          4   -1    0    0  502    0 -0.00000000000E+00  0.00000000000E+00  0.92623698786E+03  0.92623698786E+03  0.00000000000E+00 0.  1.
         21   -1    0    0  501  502  0.00000000000E+00 -0.00000000000E+00 -0.46743732615E+03  0.46743732615E+03  0.00000000000E+00 0.  1.
    9000010    2    1    2  501    0 -0.14152048385E+03  0.24271850191E+03  0.38632594252E+03  0.11035144104E+04  0.99476429449E+03 0.  0.
        -13    1    3    3    0    0 -0.16096581377E+03  0.17127686349E+03  0.72224698706E+03  0.75953043300E+03  0.10566000000E+00 0.  1.
          4    1    3    3  501    0  0.19445329918E+02  0.71441638422E+02 -0.33592104454E+03  0.34398397741E+03  0.00000000000E+00 0.  1.
         13    1    1    2    0    0  0.14152048385E+03 -0.24271850191E+03  0.72473719191E+02  0.29015990360E+03  0.10566000000E+00 0. -1.
<mgrwt>
<rscale>  1 0.74636679E+03</rscale>
<asrwt>0</asrwt>
<pdfrwt beam="2">  1       21 0.71913435E-01 0.10336810E+04</pdfrwt>
<pdfrwt beam="1">  1        4 0.14249800E+00 0.10336810E+04</pdfrwt>
<totfact> 0.22816967E+01</totfact>
</mgrwt>
</event>
<event>
 6    1  0.1431486E-005  0.9881529E+03  0.7818608E-02  0.1012887E+00
         21   -1    0    0  501  502  0.00000000000E+00  0.00000000000E+00  0.11772046308E+04  0.11772046308E+04  0.00000000000E+00 0.  1.
          4   -1    0    0  502    0 -0.00000000000E+00 -0.00000000000E+00 -0.23628496552E+03  0.23628496552E+03  0.00000000000E+00 0.  1.
    9000010    2    1    2  501    0 -0.34003274491E+01  0.66484826220E+02  0.88582397790E+03  0.13270758227E+04  0.98590786840E+03 0.  0.
        -13    1    3    3    0    0 -0.88132669111E+02  0.14850881745E+03  0.10833478437E+04  0.10970254317E+04  0.10566000000E+00 0.  1.
          4    1    3    3  501    0  0.84732341661E+02 -0.82023991227E+02 -0.19752386575E+03  0.23005039101E+03  0.00000000000E+00 0.  1.
         13    1    1    2    0    0  0.34003274491E+01 -0.66484826220E+02  0.55095687422E+02  0.86413773675E+02  0.10566000000E+00 0. -1.
<mgrwt>
<rscale>  1 0.50343186E+03</rscale>
<asrwt>0</asrwt>
<pdfrwt beam="1">  1       21 0.18110840E+00 0.98815288E+03</pdfrwt>
<pdfrwt beam="2">  1        4 0.36351534E-01 0.98815288E+03</pdfrwt>
<totfact> 0.46754945E+01</totfact>
</mgrwt>
</event>
<event>
 6    1  0.1431486E-005  0.9921659E+03  0.7818608E-02  0.9893281E-01
          4   -1    0    0  502    0 -0.00000000000E+00  0.00000000000E+00  0.67663563201E+03  0.67663563201E+03  0.00000000000E+00 0.  1.
         21   -1    0    0  501  502  0.00000000000E+00 -0.00000000000E+00 -0.47315987165E+03  0.47315987165E+03  0.00000000000E+00 0.  1.
    9000010    2    1    2  501    0 -0.13787563954E+03  0.51811515698E+01  0.15896113149E+03  0.10048192999E+04  0.98252564741E+03 0.  0.
        -13    1    3    3    0    0 -0.13725942790E+03  0.40384581009E+03  0.36016639166E+03  0.55825749411E+03  0.10566000000E+00 0.  1.
          4    1    3    3  501    0 -0.61621163461E+00 -0.39866465852E+03 -0.20120526018E+03  0.44656180579E+03  0.00000000000E+00 0.  1.
         13    1    1    2    0    0  0.13787563954E+03 -0.51811515698E+01  0.44514628866E+02  0.14497620376E+03  0.10566000000E+00 0. -1.
<mgrwt>
<rscale>  1 0.60588018E+03</rscale>
<asrwt>0</asrwt>
<pdfrwt beam="2">  1       21 0.72793826E-01 0.99216591E+03</pdfrwt>
<pdfrwt beam="1">  1        4 0.10409779E+00 0.99216591E+03</pdfrwt>
<totfact> 0.49262958E+01</totfact>
</mgrwt>
</event>
<event>
 6    1  0.1431486E-005  0.1015537E+04  0.7818608E-02  0.9928720E-01
          4   -1    0    0  502    0 -0.00000000000E+00  0.00000000000E+00  0.26276278312E+03  0.26276278312E+03  0.00000000000E+00 0.  1.
         21   -1    0    0  501  502  0.00000000000E+00 -0.00000000000E+00 -0.12163117341E+04  0.12163117341E+04  0.00000000000E+00 0.  1.
    9000010    2    1    2  501    0 -0.86082468109E+02  0.76000333800E+02 -0.86673946071E+03  0.13351226474E+04  0.10090237603E+04 0.  0.
        -13    1    3    3    0    0 -0.16424903736E+03 -0.43852877884E+03 -0.56392056820E+03  0.73300181074E+03  0.10566000000E+00 0.  1.
          4    1    3    3  501    0  0.78166569256E+02  0.51452911264E+03 -0.30281889252E+03  0.60212083668E+03  0.00000000000E+00 0.  1.
         13    1    1    2    0    0  0.86082468109E+02 -0.76000333800E+02 -0.86809490232E+02  0.14395186977E+03  0.10566000000E+00 0. -1.
<mgrwt>
<rscale>  1 0.58889377E+03</rscale>
<asrwt>0</asrwt>
<pdfrwt beam="2">  1       21 0.18712488E+00 0.10155369E+04</pdfrwt>
<pdfrwt beam="1">  1        4 0.40425043E-01 0.10155369E+04</pdfrwt>
<totfact> 0.34039319E+01</totfact>
</mgrwt>
</event>
<event>
 6    1  0.1431486E-005  0.1027645E+04  0.7818608E-02  0.9609419E-01
          4   -1    0    0  502    0 -0.00000000000E+00  0.00000000000E+00  0.54260995728E+03  0.54260995728E+03  0.00000000000E+00 0.  1.
         21   -1    0    0  501  502  0.00000000000E+00 -0.00000000000E+00 -0.94217127170E+03  0.94217127170E+03  0.00000000000E+00 0. -1.
    9000010    2    1    2  501    0  0.24122549959E+03  0.20796711229E+03 -0.75512463028E+02  0.10304160337E+04  0.97704401588E+03 0.  0.
        -13    1    3    3    0    0  0.30965763328E+03 -0.13353618462E+03 -0.42128812990E+03  0.53963271029E+03  0.10566000000E+00 0.  1.
          4    1    3    3  501    0 -0.68432133691E+02  0.34150329691E+03  0.34577566688E+03  0.49078332340E+03  0.00000000000E+00 0.  1.
         13    1    1    2    0    0 -0.24122549959E+03 -0.20796711229E+03 -0.32404885139E+03  0.45436519530E+03  0.10566000000E+00 0. -1.
<mgrwt>
<rscale>  1 0.76675870E+03</rscale>
<asrwt>0</asrwt>
<pdfrwt beam="2">  1       21 0.14494943E+00 0.10276454E+04</pdfrwt>
<pdfrwt beam="1">  1        4 0.83478456E-01 0.10276454E+04</pdfrwt>
<totfact> 0.14766840E+01</totfact>
</mgrwt>
</event>
<event>
 6    1  0.1431486E-005  0.1002880E+04  0.7818608E-02  0.9957701E-01
          4   -1    0    0  502    0 -0.00000000000E+00  0.00000000000E+00  0.44028983446E+03  0.44028983446E+03  0.00000000000E+00 0.  1.
         21   -1    0    0  501  502  0.00000000000E+00 -0.00000000000E+00 -0.93681469662E+03  0.93681469662E+03  0.00000000000E+00 0.  1.
    9000010    2    1    2  501    0  0.43457959508E+01 -0.10862302887E+03 -0.64551648927E+03  0.11926692729E+04  0.99697071587E+03 0.  0.
        -13    1    3    3    0    0  0.49210344308E+03  0.33398544163E+02 -0.28401605905E+03  0.56916288916E+03  0.10566000000E+00 0.  1.
          4    1    3    3  501    0 -0.48775764712E+03 -0.14202157303E+03 -0.36150043022E+03  0.62350638375E+03  0.00000000000E+00 0.  1.
         13    1    1    2    0    0 -0.43457959508E+01  0.10862302887E+03  0.14899162711E+03  0.18443525817E+03  0.10566000000E+00 0. -1.
<mgrwt>
<rscale>  1 0.57544538E+03</rscale>
<asrwt>0</asrwt>
<pdfrwt beam="2">  1       21 0.14412534E+00 0.10028801E+04</pdfrwt>
<pdfrwt beam="1">  1        4 0.67736899E-01 0.10028801E+04</pdfrwt>
<totfact> 0.24174976E+01</totfact>
</mgrwt>
</event>
<event>
 6    1  0.1431486E-005  0.1063196E+04  0.7818608E-02  0.9594102E-01
         21   -1    0    0  501  502  0.00000000000E+00  0.00000000000E+00  0.78150339627E+03  0.78150339627E+03  0.00000000000E+00 0.  1.
          4   -1    0    0  502    0 -0.00000000000E+00 -0.00000000000E+00 -0.83616942304E+03  0.83616942304E+03  0.00000000000E+00 0.  1.
    9000010    2    1    2  501    0 -0.20451209960E+03  0.22369199135E+03  0.34346799454E+03  0.11172989431E+04  0.10190796628E+04 0.  0.
        -13    1    3    3    0    0 -0.28423900433E+03 -0.99669471676E+01 -0.30883039594E+03  0.41984208488E+03  0.10566000000E+00 0.  1.
          4    1    3    3  501    0  0.79726904724E+02  0.23365893852E+03  0.65229839048E+03  0.69745685824E+03  0.00000000000E+00 0.  1.
         13    1    1    2    0    0  0.20451209960E+03 -0.22369199135E+03 -0.39813402130E+03  0.50037387618E+03  0.10566000000E+00 0. -1.
<mgrwt>
<rscale>  1 0.77687814E+03</rscale>
<asrwt>0</asrwt>
<pdfrwt beam="1">  1       21 0.12023129E+00 0.10631964E+04</pdfrwt>
<pdfrwt beam="2">  1        4 0.12864145E+00 0.10631964E+04</pdfrwt>
<totfact> 0.84675421E+00</totfact>
</mgrwt>
</event>
<event>
 6    1  0.1431486E-005  0.1003881E+04  0.7818608E-02  0.1023736E+00
         21   -1    0    0  501  502  0.00000000000E+00  0.00000000000E+00  0.30935936651E+03  0.30935936651E+03  0.00000000000E+00 0.  1.
          4   -1    0    0  502    0 -0.00000000000E+00 -0.00000000000E+00 -0.99923571997E+03  0.99923571997E+03  0.00000000000E+00 0.  1.
    9000010    2    1    2  501    0  0.39214934988E+02 -0.23402774408E+02 -0.51582151346E+03  0.11286489849E+04  0.10028415610E+04 0.  0.
        -13    1    3    3    0    0 -0.42053808801E+03  0.22892908608E+03 -0.26604138436E+03  0.54775801160E+03  0.10566000000E+00 0.  1.
          4    1    3    3  501    0  0.45975302300E+03 -0.25233186049E+03 -0.24978012910E+03  0.58089097330E+03  0.00000000000E+00 0.  1.
         13    1    1    2    0    0 -0.39214934988E+02  0.23402774408E+02 -0.17405484001E+03  0.17994610157E+03  0.10566000000E+00 0. -1.
<mgrwt>
<rscale>  1 0.46362112E+03</rscale>
<asrwt>0</asrwt>
<pdfrwt beam="1">  1       21 0.47593748E-01 0.10038808E+04</pdfrwt>
<pdfrwt beam="2">  1        4 0.15372857E+00 0.10038808E+04</pdfrwt>
<totfact> 0.46718223E+01</totfact>
</mgrwt>
</event>
<event>
 6    1  0.1431486E-005  0.1020939E+04  0.7818608E-02  0.9982567E-01
         21   -1    0    0  501  502  0.00000000000E+00  0.00000000000E+00  0.10259072886E+04  0.10259072886E+04  0.00000000000E+00 0.  1.
          4   -1    0    0  502    0 -0.00000000000E+00 -0.00000000000E+00 -0.33048550485E+03  0.33048550485E+03  0.00000000000E+00 0.  1.
    9000010    2    1    2  501    0 -0.64331091979E+02 -0.70215706848E+02  0.73000384590E+03  0.12550781101E+04  0.10164874384E+04 0.  0.
        -13    1    3    3    0    0  0.37752476301E+03 -0.32399124546E+03  0.46395003738E+03  0.68025357196E+03  0.10566000000E+00 0.  1.
          4    1    3    3  501    0 -0.44185585498E+03  0.25377553861E+03  0.26605380852E+03  0.57482453811E+03  0.00000000000E+00 0.  1.
         13    1    1    2    0    0  0.64331091979E+02  0.70215706848E+02 -0.34582062139E+02  0.10131468338E+03  0.10566000000E+00 0. -1.
<mgrwt>
<rscale>  1 0.56421301E+03</rscale>
<asrwt>0</asrwt>
<pdfrwt beam="1">  1       21 0.15783189E+00 0.10209385E+04</pdfrwt>
<pdfrwt beam="2">  1        4 0.50843924E-01 0.10209385E+04</pdfrwt>
<totfact> 0.34890138E+01</totfact>
</mgrwt>
</event>
<event>
 6    1  0.1431486E-005  0.1030003E+04  0.7818608E-02  0.9663193E-01
         21   -1    0    0  501  502  0.00000000000E+00  0.00000000000E+00  0.32276211527E+03  0.32276211527E+03  0.00000000000E+00 0.  1.
          4   -1    0    0  502    0 -0.00000000000E+00 -0.00000000000E+00 -0.15606974434E+04  0.15606974434E+04  0.00000000000E+00 0.  1.
    9000010    2    1    2  501    0  0.21820844268E+03 -0.14766678265E+03 -0.59706862357E+03  0.11905450276E+04  0.99573395966E+03 0.  0.
        -13    1    3    3    0    0  0.87465226604E+02  0.13098572318E+03 -0.80424019387E+03  0.81951798402E+03  0.10566000000E+00 0.  1.
          4    1    3    3  501    0  0.13074321608E+03 -0.27865250584E+03  0.20717157029E+03  0.37102704362E+03  0.00000000000E+00 0.  1.
         13    1    1    2    0    0 -0.21820844268E+03  0.14766678265E+03 -0.64086670460E+03  0.69291453108E+03  0.10566000000E+00 0. -1.
<mgrwt>
<rscale>  1 0.73251213E+03</rscale>
<asrwt>0</asrwt>
<pdfrwt beam="1">  1       21 0.49655710E-01 0.10300032E+04</pdfrwt>
<pdfrwt beam="2">  1        4 0.24010730E+00 0.10300032E+04</pdfrwt>
<totfact> 0.11082055E+01</totfact>
</mgrwt>
</event>
<event>
 6    1  0.1431486E-005  0.8669418E+03  0.7818608E-02  0.9933905E-01
          4   -1    0    0  502    0 -0.00000000000E+00  0.00000000000E+00  0.24556256545E+03  0.24556256545E+03  0.00000000000E+00 0.  1.
         21   -1    0    0  501  502  0.00000000000E+00 -0.00000000000E+00 -0.11540653729E+04  0.11540653729E+04  0.00000000000E+00 0.  1.
    9000010    2    1    2  501    0  0.12982378772E+03 -0.12690046844E+03 -0.64912351392E+03  0.10830279165E+04  0.84772058302E+03 0.  0.
        -13    1    3    3    0    0 -0.22725614260E+02 -0.38621068370E+03 -0.22036713377E+02  0.38750583693E+03  0.10566000000E+00 0.  1.
          4    1    3    3  501    0  0.15254940198E+03  0.25931021526E+03 -0.62708680055E+03  0.69552207959E+03  0.00000000000E+00 0.  1.
         13    1    1    2    0    0 -0.12982378772E+03  0.12690046844E+03 -0.25937929349E+03  0.31660002180E+03  0.10566000000E+00 0. -1.
<mgrwt>
<rscale>  1 0.58645886E+03</rscale>
<asrwt>0</asrwt>
<pdfrwt beam="2">  1       21 0.17754852E+00 0.86694183E+03</pdfrwt>
<pdfrwt beam="1">  1        4 0.37778856E-01 0.86694183E+03</pdfrwt>
<totfact> 0.46547617E+01</totfact>
</mgrwt>
</event>
<event>
 6    1  0.1431486E-005  0.1013024E+04  0.7818608E-02  0.9890919E-01
         21   -1    0    0  501  502  0.00000000000E+00  0.00000000000E+00  0.18299635321E+04  0.18299635321E+04  0.00000000000E+00 0.  1.
          4   -1    0    0  502    0 -0.00000000000E+00 -0.00000000000E+00 -0.21625561538E+03  0.21625561538E+03  0.00000000000E+00 0.  1.
    9000010    2    1    2  501    0 -0.12679342347E+03  0.31364948476E+02  0.16252316611E+04  0.19150965329E+04  0.10045677904E+04 0.  0.
        -13    1    3    3    0    0  0.16256893749E+01 -0.48258373162E+03  0.73957685234E+03  0.88309888040E+03  0.10566000000E+00 0.  1.
          4    1    3    3  501    0 -0.12841911285E+03  0.51394868009E+03  0.88565480880E+03  0.10319976524E+04  0.00000000000E+00 0.  1.
         13    1    1    2    0    0  0.12679342347E+03 -0.31364948476E+02 -0.11523744378E+02  0.13112261467E+03  0.10566000000E+00 0. -1.
<mgrwt>
<rscale>  1 0.60703417E+03</rscale>
<asrwt>0</asrwt>
<pdfrwt beam="1">  1       21 0.28153284E+00 0.10130236E+04</pdfrwt>
<pdfrwt beam="2">  1        4 0.33270096E-01 0.10130236E+04</pdfrwt>
<totfact> 0.12170288E+01</totfact>
</mgrwt>
</event>
<event>
 6    1  0.1431486E-005  0.9902134E+03  0.7818608E-02  0.9721966E-01
          4   -1    0    0  502    0 -0.00000000000E+00  0.00000000000E+00  0.19921942508E+04  0.19921942508E+04  0.00000000000E+00 0.  1.
         21   -1    0    0  501  502  0.00000000000E+00 -0.00000000000E+00 -0.24608540657E+03  0.24608540657E+03  0.00000000000E+00 0. -1.
    9000010    2    1    2  501    0 -0.13167013399E+03  0.20472331896E+03  0.17312333244E+04  0.19944150355E+04  0.95983011455E+03 0.  0.
        -13    1    3    3    0    0 -0.33808964199E+03  0.44985012671E+03  0.14917299672E+04  0.15943425130E+04  0.10566000000E+00 0.  1.
          4    1    3    3  501    0  0.20641950800E+03 -0.24512680774E+03  0.23950335719E+03  0.40007252250E+03  0.00000000000E+00 0.  1.
         13    1    1    2    0    0  0.13167013399E+03 -0.20472331896E+03  0.14875519754E+02  0.24386462180E+03  0.10566000000E+00 0. -1.
<mgrwt>
<rscale>  1 0.69723868E+03</rscale>
<asrwt>0</asrwt>
<pdfrwt beam="2">  1       21 0.37859295E-01 0.99021337E+03</pdfrwt>
<pdfrwt beam="1">  1        4 0.30649141E+00 0.99021337E+03</pdfrwt>
<totfact> 0.76967674E+00</totfact>
</mgrwt>
</event>
<event>
 6    1  0.1431486E-005  0.1290054E+04  0.7818608E-02  0.9163221E-01
         21   -1    0    0  501  502  0.00000000000E+00  0.00000000000E+00  0.17035497724E+04  0.17035497724E+04  0.00000000000E+00 0. -1.
          4   -1    0    0  502    0 -0.00000000000E+00 -0.00000000000E+00 -0.84834181994E+03  0.84834181994E+03  0.00000000000E+00 0.  1.
    9000010    2    1    2  501    0  0.73630273424E+03 -0.30799079022E+03 -0.11548309334E+03  0.12952129696E+04  0.10135286125E+04 0.  0.
        -13    1    3    3    0    0  0.15896173874E+03  0.34282904649E+03 -0.18824659419E+03  0.42218169179E+03  0.10566000000E+00 0.  1.
          4    1    3    3  501    0  0.57734099551E+03 -0.65081983671E+03  0.72763500849E+02  0.87303127779E+03  0.00000000000E+00 0.  1.
         13    1    1    2    0    0 -0.73630273424E+03  0.30799079022E+03  0.97069104580E+03  0.12566786228E+04  0.10566000000E+00 0. -1.
<mgrwt>
<rscale>  1 0.11441251E+04</rscale>
<asrwt>0</asrwt>
<pdfrwt beam="1">  1       21 0.26208458E+00 0.12900544E+04</pdfrwt>
<pdfrwt beam="2">  1        4 0.13051413E+00 0.12900544E+04</pdfrwt>
<totfact> 0.72358982E-01</totfact>
</mgrwt>
</event>
<event>
 6    1  0.1431486E-005  0.1034553E+04  0.7818608E-02  0.9770873E-01
         21   -1    0    0  501  502  0.00000000000E+00  0.00000000000E+00  0.53255838633E+03  0.53255838633E+03  0.00000000000E+00 0.  1.
          4   -1    0    0  502    0 -0.00000000000E+00 -0.00000000000E+00 -0.77060943609E+03  0.77060943609E+03  0.00000000000E+00 0.  1.
    9000010    2    1    2  501    0 -0.17689903291E+03  0.40328597583E+02 -0.34740342232E+03  0.10913244459E+04  0.10185186521E+04 0.  0.
        -13    1    3    3    0    0  0.30998854214E+03 -0.11203319709E+03 -0.46288347997E+03  0.56824771069E+03  0.10566000000E+00 0.  1.
          4    1    3    3  501    0 -0.48688757505E+03  0.15236179468E+03  0.11548005765E+03  0.52307673522E+03  0.00000000000E+00 0.  1.
         13    1    1    2    0    0  0.17689903291E+03 -0.40328597583E+02  0.10935237256E+03  0.21184337652E+03  0.10566000000E+00 0. -1.
<mgrwt>
<rscale>  1 0.66949379E+03</rscale>
<asrwt>0</asrwt>
<pdfrwt beam="1">  1       21 0.81932059E-01 0.10345530E+04</pdfrwt>
<pdfrwt beam="2">  1        4 0.11855530E+00 0.10345530E+04</pdfrwt>
<totfact> 0.27019455E+01</totfact>
</mgrwt>
</event>
<event>
 6    1  0.1431486E-005  0.1004115E+04  0.7818608E-02  0.9764872E-01
          4   -1    0    0  502    0 -0.00000000000E+00  0.00000000000E+00  0.42246298917E+03  0.42246298917E+03  0.00000000000E+00 0.  1.
         21   -1    0    0  501  502  0.00000000000E+00 -0.00000000000E+00 -0.98871195040E+03  0.98871195040E+03  0.00000000000E+00 0.  1.
    9000010    2    1    2  501    0 -0.17292996064E+03 -0.10520898538E+03 -0.64560530850E+03  0.11937556605E+04  0.98350020882E+03 0.  0.
        -13    1    3    3    0    0 -0.26050591588E+03 -0.19407286158E+03  0.17138889899E+03  0.36728976799E+03  0.10566000000E+00 0.  1.
          4    1    3    3  501    0  0.87575955233E+02  0.88863876199E+02 -0.81699420749E+03  0.82646589252E+03  0.00000000000E+00 0.  1.
         13    1    1    2    0    0  0.17292996064E+03  0.10520898538E+03  0.79356347273E+02  0.21741927907E+03  0.10566000000E+00 0. -1.
<mgrwt>
<rscale>  1 0.67282274E+03</rscale>
<asrwt>0</asrwt>
<pdfrwt beam="2">  1       21 0.15210953E+00 0.10041147E+04</pdfrwt>
<pdfrwt beam="1">  1        4 0.64994306E-01 0.10041147E+04</pdfrwt>
<totfact> 0.22811486E+01</totfact>
</mgrwt>
</event>
<event>
 6    1  0.1431486E-005  0.9289737E+03  0.7818608E-02  0.9843044E-01
         21   -1    0    0  501  502  0.00000000000E+00  0.00000000000E+00  0.43839240551E+03  0.43839240551E+03  0.00000000000E+00 0. -1.
          4   -1    0    0  502    0 -0.00000000000E+00 -0.00000000000E+00 -0.95033479395E+03  0.95033479395E+03  0.00000000000E+00 0.  1.
    9000010    2    1    2  501    0 -0.61856085114E+02 -0.18785951736E+03 -0.66178598263E+03  0.11405931885E+04  0.90767547132E+03 0.  0.
        -13    1    3    3    0    0 -0.36959270728E+03 -0.13003269963E+03 -0.72225903501E+03  0.82168448753E+03  0.10566000000E+00 0.  1.
          4    1    3    3  501    0  0.30773662216E+03 -0.57826817734E+02  0.60473052373E+02  0.31890870093E+03  0.00000000000E+00 0.  1.
         13    1    1    2    0    0  0.61856085114E+02  0.18785951736E+03  0.14984359418E+03  0.24813401099E+03  0.10566000000E+00 0. -1.
<mgrwt>
<rscale>  1 0.63102831E+03</rscale>
<asrwt>0</asrwt>
<pdfrwt beam="1">  1       21 0.67444986E-01 0.92897370E+03</pdfrwt>
<pdfrwt beam="2">  1        4 0.14620535E+00 0.92897370E+03</pdfrwt>
<totfact> 0.24934667E+01</totfact>
</mgrwt>
</event>
<event>
 6    1  0.1431486E-005  0.1030189E+04  0.7818608E-02  0.9650971E-01
          4   -1    0    0  502    0 -0.00000000000E+00  0.00000000000E+00  0.75853000322E+03  0.75853000322E+03  0.00000000000E+00 0.  1.
         21   -1    0    0  501  502  0.00000000000E+00 -0.00000000000E+00 -0.56102452634E+03  0.56102452634E+03  0.00000000000E+00 0.  1.
    9000010    2    1    2  501    0 -0.14856345996E+03 -0.23076844047E+03  0.16051546938E+03  0.10426187129E+04  0.99295689219E+03 0.  0.
        -13    1    3    3    0    0  0.13381318044E+03 -0.49304100352E+03 -0.16635481942E+03  0.53727956924E+03  0.10566000000E+00 0.  1.
          4    1    3    3  501    0 -0.28237664040E+03  0.26227256305E+03  0.32687028880E+03  0.50533914362E+03  0.00000000000E+00 0.  1.
         13    1    1    2    0    0  0.14856345996E+03  0.23076844047E+03  0.36990007501E+02  0.27693581670E+03  0.10566000000E+00 0. -1.
<mgrwt>
<rscale>  1 0.74012511E+03</rscale>
<asrwt>0</asrwt>
<pdfrwt beam="2">  1       21 0.86311466E-01 0.10301886E+04</pdfrwt>
<pdfrwt beam="1">  1        4 0.11669692E+00 0.10301886E+04</pdfrwt>
<totfact> 0.24838823E+01</totfact>
</mgrwt>
</event>
<event>
 6    1  0.1431486E-005  0.8858191E+03  0.7818608E-02  0.1006496E+00
         21   -1    0    0  501  502  0.00000000000E+00  0.00000000000E+00  0.37246962063E+03  0.37246962063E+03  0.00000000000E+00 0.  1.
          4   -1    0    0  502    0 -0.00000000000E+00 -0.00000000000E+00 -0.86358882392E+03  0.86358882392E+03  0.00000000000E+00 0.  1.
    9000010    2    1    2  501    0 -0.10821260377E+03 -0.31087755892E+02 -0.17828763050E+03  0.90358285104E+03  0.87863477812E+03 0.  0.
        -13    1    3    3    0    0  0.24058974345E+03  0.50391327239E+02 -0.40924035583E+03  0.47738913951E+03  0.10566000000E+00 0.  1.
          4    1    3    3  501    0 -0.34880234722E+03 -0.81479083131E+02  0.23095272533E+03  0.42619371154E+03  0.00000000000E+00 0.  1.
         13    1    1    2    0    0  0.10821260377E+03  0.31087755892E+02 -0.31283157280E+03  0.33247559351E+03  0.10566000000E+00 0. -1.
<mgrwt>
<rscale>  1 0.52891196E+03</rscale>
<asrwt>0</asrwt>
<pdfrwt beam="1">  1       21 0.57303019E-01 0.88581911E+03</pdfrwt>
<pdfrwt beam="2">  1        4 0.13285982E+00 0.88581911E+03</pdfrwt>
<totfact> 0.46336385E+01</totfact>
</mgrwt>
</event>
<event>
 6    1  0.1431486E-005  0.1027323E+04  0.7818608E-02  0.9633991E-01
         21   -1    0    0  501  502  0.00000000000E+00  0.00000000000E+00  0.15316117919E+04  0.15316117919E+04  0.00000000000E+00 0.  1.
          4   -1    0    0  502    0 -0.00000000000E+00 -0.00000000000E+00 -0.33052811116E+03  0.33052811116E+03  0.00000000000E+00 0.  1.
    9000010    2    1    2  501    0  0.29121623471E+03 -0.33854945033E+02  0.11852914783E+04  0.15685373529E+04  0.98460168903E+03 0.  0.
        -13    1    3    3    0    0 -0.71894063830E+02  0.42109790954E+03  0.36019809540E+03  0.55877981793E+03  0.10566000000E+00 0.  1.
          4    1    3    3  501    0  0.36311029854E+03 -0.45495285457E+03  0.82509338295E+03  0.10097575349E+04  0.00000000000E+00 0.  1.
         13    1    1    2    0    0 -0.29121623471E+03  0.33854945033E+02  0.15792202405E+02  0.29360255020E+03  0.10566000000E+00 0. -1.
<mgrwt>
<rscale>  1 0.75086711E+03</rscale>
<asrwt>0</asrwt>
<pdfrwt beam="1">  1       21 0.23563258E+00 0.10273235E+04</pdfrwt>
<pdfrwt beam="2">  1        4 0.50850479E-01 0.10273235E+04</pdfrwt>
<totfact> 0.99348064E+00</totfact>
</mgrwt>
</event>
<event>
 6    1  0.1431486E-005  0.1002517E+04  0.7818608E-02  0.1006083E+00
          4   -1    0    0  502    0 -0.00000000000E+00  0.00000000000E+00  0.75667229747E+03  0.75667229747E+03  0.00000000000E+00 0.  1.
         21   -1    0    0  501  502  0.00000000000E+00 -0.00000000000E+00 -0.60846585763E+03  0.60846585763E+03  0.00000000000E+00 0.  1.
    9000010    2    1    2  501    0 -0.70058096818E+02 -0.35802151786E+02 -0.18787603840E+03  0.10199695378E+04  0.99942509539E+03 0.  0.
        -13    1    3    3    0    0 -0.47898596199E+03 -0.23911428040E+03 -0.17456191163E+03  0.56309418664E+03  0.10566000000E+00 0.  1.
          4    1    3    3  501    0  0.40892786517E+03  0.20331212861E+03 -0.13314126768E+02  0.45687535119E+03  0.00000000000E+00 0.  1.
         13    1    1    2    0    0  0.70058096818E+02  0.35802151786E+02  0.33608247824E+03  0.34516861727E+03  0.10566000000E+00 0. -1.
<mgrwt>
<rscale>  1 0.53061516E+03</rscale>
<asrwt>0</asrwt>
<pdfrwt beam="2">  1       21 0.93610132E-01 0.10025171E+04</pdfrwt>
<pdfrwt beam="1">  1        4 0.11641112E+00 0.10025171E+04</pdfrwt>
<totfact> 0.20596525E+01</totfact>
</mgrwt>
</event>
<event>
 6    1  0.1431486E-005  0.1080445E+04  0.7818608E-02  0.9434799E-01
          4   -1    0    0  502    0 -0.00000000000E+00  0.00000000000E+00  0.15067603641E+04  0.15067603641E+04  0.00000000000E+00 0.  1.
         21   -1    0    0  501  502  0.00000000000E+00 -0.00000000000E+00 -0.73465974809E+03  0.73465974809E+03  0.00000000000E+00 0.  1.
    9000010    2    1    2  501    0  0.47993762197E+03 -0.15201038532E+03 -0.24380971636E+03  0.11076118864E+04  0.95598830271E+03 0.  0.
        -13    1    3    3    0    0  0.47380350995E+03 -0.50372183300E+03 -0.22268853710E+02  0.69189693170E+03  0.10566000000E+00 0.  1.
          4    1    3    3  501    0  0.61341120184E+01  0.35171144768E+03 -0.22154086265E+03  0.41571495472E+03  0.00000000000E+00 0.  1.
         13    1    1    2    0    0 -0.47993762197E+03  0.15201038532E+03  0.10159103324E+04  0.11338082258E+04  0.10566000000E+00 0. -1.
<mgrwt>
<rscale>  1 0.89266372E+03</rscale>
<asrwt>0</asrwt>
<pdfrwt beam="2">  1       21 0.11302458E+00 0.10804448E+04</pdfrwt>
<pdfrwt beam="1">  1        4 0.23180929E+00 0.10804448E+04</pdfrwt>
<totfact> 0.18160143E+00</totfact>
</mgrwt>
</event>
<event>
 6    1  0.1431486E-005  0.1259350E+04  0.7818608E-02  0.9202221E-01
         21   -1    0    0  501  502  0.00000000000E+00  0.00000000000E+00  0.10188988727E+04  0.10188988727E+04  0.00000000000E+00 0. -1.
          4   -1    0    0  502    0 -0.00000000000E+00 -0.00000000000E+00 -0.11128330175E+04  0.11128330175E+04  0.00000000000E+00 0.  1.
    9000010    2    1    2  501    0 -0.45703810606E+03 -0.58354308997E+03  0.29676864606E+03  0.12938446364E+04  0.10181139158E+04 0.  0.
        -13    1    3    3    0    0  0.32556317645E+03 -0.14292165054E+03  0.14013497047E+03  0.38217247568E+03  0.10566000000E+00 0.  1.
          4    1    3    3  501    0 -0.78260128250E+03 -0.44062143943E+03  0.15663367558E+03  0.91167216070E+03  0.00000000000E+00 0.  1.
         13    1    1    2    0    0  0.45703810606E+03  0.58354308997E+03 -0.39070279085E+03  0.83788725386E+03  0.10566000000E+00 0. -1.
<mgrwt>
<rscale>  1 0.11030534E+04</rscale>
<asrwt>0</asrwt>
<pdfrwt beam="1">  1       21 0.15675367E+00 0.12593500E+04</pdfrwt>
<pdfrwt beam="2">  1        4 0.17120508E+00 0.12593500E+04</pdfrwt>
<totfact> 0.18634607E+00</totfact>
</mgrwt>
</event>
<event>
 6    1  0.1431486E-005  0.9574993E+03  0.7818608E-02  0.9899933E-01
         21   -1    0    0  501  502  0.00000000000E+00  0.00000000000E+00  0.24672608396E+03  0.24672608396E+03  0.00000000000E+00 0.  1.
          4   -1    0    0  502    0 -0.00000000000E+00 -0.00000000000E+00 -0.12832593567E+04  0.12832593567E+04  0.00000000000E+00 0.  1.
    9000010    2    1    2  501    0 -0.32496092029E+02  0.14670012837E+03 -0.79027667754E+03  0.12415079797E+04  0.94563624762E+03 0.  0.
        -13    1    3    3    0    0 -0.28073517890E+03 -0.14107069902E+03 -0.80193284590E+03  0.86128362535E+03  0.10566000000E+00 0.  1.
          4    1    3    3  501    0  0.24823908687E+03  0.28777082739E+03  0.11656168357E+02  0.38022435431E+03  0.00000000000E+00 0.  1.
         13    1    1    2    0    0  0.32496092029E+02 -0.14670012837E+03 -0.24625659517E+03  0.28847746098E+03  0.10566000000E+00 0. -1.
<mgrwt>
<rscale>  1 0.60264556E+03</rscale>
<asrwt>0</asrwt>
<pdfrwt beam="1">  1       21 0.37957858E-01 0.95749926E+03</pdfrwt>
<pdfrwt beam="2">  1        4 0.19742452E+00 0.95749926E+03</pdfrwt>
<totfact> 0.37031209E+01</totfact>
</mgrwt>
</event>
<event>
 6    1  0.1431486E-005  0.1062586E+04  0.7818608E-02  0.9703847E-01
          4   -1    0    0  502    0 -0.00000000000E+00  0.00000000000E+00  0.11484396997E+04  0.11484396997E+04  0.00000000000E+00 0.  1.
         21   -1    0    0  501  502  0.00000000000E+00 -0.00000000000E+00 -0.59960997511E+03  0.59960997511E+03  0.00000000000E+00 0.  1.
    9000010    2    1    2  501    0  0.12911511887E+03 -0.16471835596E+03 -0.99060785225E+02  0.10671936147E+04  0.10417707624E+04 0.  0.
        -13    1    3    3    0    0  0.50959542399E+03 -0.29300706068E+03  0.13403216836E+03  0.60291397983E+03  0.10566000000E+00 0.  1.
          4    1    3    3  501    0 -0.38048030512E+03  0.12828870472E+03 -0.23309295358E+03  0.46427963487E+03  0.00000000000E+00 0.  1.
         13    1    1    2    0    0 -0.12911511887E+03  0.16471835596E+03  0.64789050986E+03  0.68085606015E+03  0.10566000000E+00 0. -1.
<mgrwt>
<rscale>  1 0.70788205E+03</rscale>
<asrwt>0</asrwt>
<pdfrwt beam="2">  1       21 0.92247688E-01 0.10625861E+04</pdfrwt>
<pdfrwt beam="1">  1        4 0.17668303E+00 0.10625861E+04</pdfrwt>
<totfact> 0.69889951E+00</totfact>
</mgrwt>
</event>
<event>
 6    1  0.1431486E-005  0.1042118E+04  0.7818608E-02  0.9635182E-01
         21   -1    0    0  501  502  0.00000000000E+00  0.00000000000E+00  0.42166126299E+03  0.42166126299E+03  0.00000000000E+00 0.  1.
          4   -1    0    0  502    0 -0.00000000000E+00 -0.00000000000E+00 -0.14769436401E+04  0.14769436401E+04  0.00000000000E+00 0.  1.
    9000010    2    1    2  501    0  0.19460782234E+03 -0.20094333573E+03 -0.28690289864E+03  0.10808901223E+04  0.10038723796E+04 0.  0.
        -13    1    3    3    0    0  0.41862186889E+03  0.26232249222E+03 -0.27663766790E+03  0.56620294021E+03  0.10566000000E+00 0.  1.
          4    1    3    3  501    0 -0.22401404655E+03 -0.46326582795E+03 -0.10265230745E+02  0.51468718204E+03  0.00000000000E+00 0.  1.
         13    1    1    2    0    0 -0.19460782234E+03  0.20094333573E+03 -0.76837947844E+03  0.81771478080E+03  0.10566000000E+00 0. -1.
<mgrwt>
<rscale>  1 0.75010759E+03</rscale>
<asrwt>0</asrwt>
<pdfrwt beam="1">  1       21 0.64870964E-01 0.10421181E+04</pdfrwt>
<pdfrwt beam="2">  1        4 0.22722210E+00 0.10421181E+04</pdfrwt>
<totfact> 0.73861679E+00</totfact>
</mgrwt>
</event>
<event>
 6    1  0.1431486E-005  0.1013117E+04  0.7818608E-02  0.9707944E-01
         21   -1    0    0  501  502  0.00000000000E+00  0.00000000000E+00  0.36648688473E+03  0.36648688473E+03  0.00000000000E+00 0.  1.
          4   -1    0    0  502    0 -0.00000000000E+00 -0.00000000000E+00 -0.12993568604E+04  0.12993568604E+04  0.00000000000E+00 0.  1.
    9000010    2    1    2  501    0 -0.23249187171E+03  0.51740542509E+02 -0.41310189668E+03  0.10941021766E+04  0.98472170766E+03 0.  0.
        -13    1    3    3    0    0  0.47662666486E+02  0.41197555953E+03  0.79854954028E+02  0.42234158719E+03  0.10566000000E+00 0.  1.
          4    1    3    3  501    0 -0.28015453819E+03 -0.36023501702E+03 -0.49295685071E+03  0.67176058936E+03  0.00000000000E+00 0.  1.
         13    1    1    2    0    0  0.23249187171E+03 -0.51740542509E+02 -0.51976807897E+03  0.57174156857E+03  0.10566000000E+00 0. -1.
<mgrwt>
<rscale>  1 0.70545763E+03</rscale>
<asrwt>0</asrwt>
<pdfrwt beam="1">  1       21 0.56382598E-01 0.10131172E+04</pdfrwt>
<pdfrwt beam="2">  1        4 0.19990105E+00 0.10131172E+04</pdfrwt>
<totfact> 0.15215602E+01</totfact>
</mgrwt>
</event>
<event>
 6    1  0.1431486E-005  0.1004571E+04  0.7818608E-02  0.9844335E-01
          4   -1    0    0  502    0 -0.00000000000E+00  0.00000000000E+00  0.18670139451E+03  0.18670139451E+03  0.00000000000E+00 0.  1.
         21   -1    0    0  501  502  0.00000000000E+00 -0.00000000000E+00 -0.18486601145E+04  0.18486601145E+04  0.00000000000E+00 0.  1.
    9000010    2    1    2  501    0  0.14415209731E+03 -0.58977691950E+02 -0.13129694342E+04  0.16531943622E+04  0.99242363380E+03 0.  0.
        -13    1    3    3    0    0 -0.15592078684E+03 -0.84951363614E+02 -0.13391438722E+04  0.13508642965E+04  0.10566000000E+00 0.  1.
          4    1    3    3  501    0  0.30007288415E+03  0.25973671665E+02  0.26174438045E+02  0.30233006570E+03  0.00000000000E+00 0.  1.
         13    1    1    2    0    0 -0.14415209731E+03  0.58977691950E+02 -0.34898928582E+03  0.38216714679E+03  0.10566000000E+00 0. -1.
<mgrwt>
<rscale>  1 0.63036612E+03</rscale>
<asrwt>0</asrwt>
<pdfrwt beam="2">  1       21 0.28440925E+00 0.10045710E+04</pdfrwt>
<pdfrwt beam="1">  1        4 0.28723291E-01 0.10045710E+04</pdfrwt>
<totfact> 0.15610570E+01</totfact>
</mgrwt>
</event>
<event>
 6    1  0.1431486E-005  0.1026738E+04  0.7818608E-02  0.9711381E-01
         21   -1    0    0  501  502  0.00000000000E+00  0.00000000000E+00  0.22559573426E+03  0.22559573426E+03  0.00000000000E+00 0.  1.
          4   -1    0    0  502    0 -0.00000000000E+00 -0.00000000000E+00 -0.17897510119E+04  0.17897510119E+04  0.00000000000E+00 0.  1.
    9000010    2    1    2  501    0  0.22622637456E+02  0.22507466006E+03 -0.11369127188E+04  0.15319146397E+04  0.10015096339E+04 0.  0.
        -13    1    3    3    0    0  0.31946201603E+03  0.45602444291E+03 -0.34442064205E+03  0.65470593556E+03  0.10566000000E+00 0.  1.
          4    1    3    3  501    0 -0.29683937857E+03 -0.23094978285E+03 -0.79249207679E+03  0.87720870415E+03  0.00000000000E+00 0.  1.
         13    1    1    2    0    0 -0.22622637456E+02 -0.22507466006E+03 -0.42724255885E+03  0.48343210649E+03  0.10566000000E+00 0. -1.
<mgrwt>
<rscale>  1 0.70343218E+03</rscale>
<asrwt>0</asrwt>
<pdfrwt beam="1">  1       21 0.34707035E-01 0.10267385E+04</pdfrwt>
<pdfrwt beam="2">  1        4 0.27534632E+00 0.10267385E+04</pdfrwt>
<totfact> 0.14276103E+01</totfact>
</mgrwt>
</event>
<event>
 6    1  0.1431486E-005  0.9997816E+03  0.7818608E-02  0.9943439E-01
          4   -1    0    0  502    0 -0.00000000000E+00  0.00000000000E+00  0.81943852463E+03  0.81943852463E+03  0.00000000000E+00 0.  1.
         21   -1    0    0  501  502  0.00000000000E+00 -0.00000000000E+00 -0.18386151481E+04  0.18386151481E+04  0.00000000000E+00 0.  1.
    9000010    2    1    2  501    0  0.90783249567E+02  0.70300848189E+02 -0.16975205443E+04  0.19700607267E+04  0.99316638130E+03 0.  0.
        -13    1    3    3    0    0  0.13817996154E+03 -0.21762778263E+03 -0.16552588347E+04  0.16752126356E+04  0.10566000000E+00 0.  1.
          4    1    3    3  501    0 -0.47396711972E+02  0.28792863082E+03 -0.42261709676E+02  0.29484809115E+03  0.00000000000E+00 0.  1.
         13    1    1    2    0    0 -0.90783249567E+02 -0.70300848189E+02  0.67834392085E+03  0.68799294602E+03  0.10566000000E+00 0. -1.
<mgrwt>
<rscale>  1 0.58201478E+03</rscale>
<asrwt>0</asrwt>
<pdfrwt beam="2">  1       21 0.28286387E+00 0.99978161E+03</pdfrwt>
<pdfrwt beam="1">  1        4 0.12606747E+00 0.99978161E+03</pdfrwt>
<totfact> 0.61648506E-01</totfact>
</mgrwt>
</event>
<event>
 6    1  0.1431486E-005  0.1033398E+04  0.7818608E-02  0.9583349E-01
          4   -1    0    0  502    0 -0.00000000000E+00  0.00000000000E+00  0.20857813959E+03  0.20857813959E+03  0.00000000000E+00 0.  1.
         21   -1    0    0  501  502  0.00000000000E+00 -0.00000000000E+00 -0.22857674043E+04  0.22857674043E+04  0.00000000000E+00 0. -1.
    9000010    2    1    2  501    0 -0.33744430663E+03  0.58539038983E+02 -0.16488065463E+04  0.19458865721E+04  0.97499540775E+03 0.  0.
        -13    1    3    3    0    0  0.72613783596E+02 -0.22515453418E+03 -0.14289682328E+02  0.23700534175E+03  0.10566000000E+00 0.  1.
          4    1    3    3  501    0 -0.41005809023E+03  0.28369357317E+03 -0.16345168639E+04  0.17088812303E+04  0.00000000000E+00 0.  1.
         13    1    1    2    0    0  0.33744430663E+03 -0.58539038983E+02 -0.42838271848E+03  0.54845897187E+03  0.10566000000E+00 0. -1.
<mgrwt>
<rscale>  1 0.78408093E+03</rscale>
<asrwt>0</asrwt>
<pdfrwt beam="2">  1       21 0.35165652E+00 0.10333980E+04</pdfrwt>
<pdfrwt beam="1">  1        4 0.32088945E-01 0.10333980E+04</pdfrwt>
<totfact> 0.47487192E+00</totfact>
</mgrwt>
</event>
<event>
 6    1  0.1431486E-005  0.1003800E+04  0.7818608E-02  0.9846331E-01
         21   -1    0    0  501  502  0.00000000000E+00  0.00000000000E+00  0.21419239866E+03  0.21419239866E+03  0.00000000000E+00 0.  1.
          4   -1    0    0  502    0 -0.00000000000E+00 -0.00000000000E+00 -0.17807760965E+04  0.17807760965E+04  0.00000000000E+00 0.  1.
    9000010    2    1    2  501    0 -0.15499683543E+03 -0.56275202599E+01 -0.10374734095E+04  0.14435943967E+04  0.99174493646E+03 0.  0.
        -13    1    3    3    0    0  0.10142450907E+03  0.41803835354E+03 -0.20866214544E+03  0.47810343879E+03  0.10566000000E+00 0.  1.
          4    1    3    3  501    0 -0.25642134450E+03 -0.42366587380E+03 -0.82881126401E+03  0.96549095796E+03  0.00000000000E+00 0.  1.
         13    1    1    2    0    0  0.15499683543E+03  0.56275202599E+01 -0.52911028840E+03  0.55137409844E+03  0.10566000000E+00 0. -1.
<mgrwt>
<rscale>  1 0.62934317E+03</rscale>
<asrwt>0</asrwt>
<pdfrwt beam="1">  1       21 0.32952677E-01 0.10037996E+04</pdfrwt>
<pdfrwt beam="2">  1        4 0.27396555E+00 0.10037996E+04</pdfrwt>
<totfact> 0.16232987E+01</totfact>
</mgrwt>
</event>
<event>
 6    1  0.1431486E-005  0.1015543E+04  0.7818608E-02  0.9876004E-01
         21   -1    0    0  501  502  0.00000000000E+00  0.00000000000E+00  0.43693119544E+03  0.43693119544E+03  0.00000000000E+00 0.  1.
          4   -1    0    0  502    0 -0.00000000000E+00 -0.00000000000E+00 -0.80525405710E+03  0.80525405710E+03  0.00000000000E+00 0.  1.
    9000010    2    1    2  501    0  0.12102874494E+03 -0.62120234716E+02 -0.21656421272E+03  0.10383775506E+04  0.10063900828E+04 0.  0.
        -13    1    3    3    0    0  0.98146450196E+02 -0.43557970091E+03  0.19053391155E+03  0.48545399797E+03  0.10566000000E+00 0.  1.
          4    1    3    3  501    0  0.22882294748E+02  0.37345946620E+03 -0.40709812427E+03  0.55292355267E+03  0.00000000000E+00 0.  1.
         13    1    1    2    0    0 -0.12102874494E+03  0.62120234716E+02 -0.15175864893E+03  0.20380770190E+03  0.10566000000E+00 0. -1.
<mgrwt>
<rscale>  1 0.61438481E+03</rscale>
<asrwt>0</asrwt>
<pdfrwt beam="1">  1       21 0.67220184E-01 0.10155431E+04</pdfrwt>
<pdfrwt beam="2">  1        4 0.12388524E+00 0.10155431E+04</pdfrwt>
<totfact> 0.38317883E+01</totfact>
</mgrwt>
</event>
<event>
 6    1  0.1431486E-005  0.1019963E+04  0.7818608E-02  0.9679437E-01
         21   -1    0    0  501  502  0.00000000000E+00  0.00000000000E+00  0.38483128026E+03  0.38483128026E+03  0.00000000000E+00 0.  1.
          4   -1    0    0  502    0 -0.00000000000E+00 -0.00000000000E+00 -0.12165585683E+04  0.12165585683E+04  0.00000000000E+00 0.  1.
    9000010    2    1    2  501    0  0.22306522424E+02 -0.25589376233E+03 -0.39311421221E+03  0.10930979639E+04  0.98708924437E+03 0.  0.
        -13    1    3    3    0    0 -0.40667303297E+03 -0.17585821310E+01 -0.43159440515E+03  0.59300909781E+03  0.10566000000E+00 0.  1.
          4    1    3    3  501    0  0.42897955540E+03 -0.25413518020E+03  0.38480192940E+02  0.50008886612E+03  0.00000000000E+00 0.  1.
         13    1    1    2    0    0 -0.22306522424E+02  0.25589376233E+03 -0.43861307587E+03  0.50829188468E+03  0.10566000000E+00 0. -1.
<mgrwt>
<rscale>  1 0.72254380E+03</rscale>
<asrwt>0</asrwt>
<pdfrwt beam="1">  1       21 0.59204812E-01 0.10199629E+04</pdfrwt>
<pdfrwt beam="2">  1        4 0.18716286E+00 0.10199629E+04</pdfrwt>
<totfact> 0.16621551E+01</totfact>
</mgrwt>
</event>
<event>
 6    1  0.1431486E-005  0.1193943E+04  0.7818608E-02  0.9325444E-01
          4   -1    0    0  502    0 -0.00000000000E+00  0.00000000000E+00  0.41841777834E+03  0.41841777834E+03  0.00000000000E+00 0.  1.
         21   -1    0    0  501  502  0.00000000000E+00 -0.00000000000E+00 -0.18306219658E+04  0.18306219658E+04  0.00000000000E+00 0.  1.
    9000010    2    1    2  501    0 -0.46417937514E+02 -0.55054707077E+03 -0.10344807804E+04  0.15797627570E+04  0.10584154106E+04 0.  0.
        -13    1    3    3    0    0 -0.15836056906E+03  0.29703283290E+03 -0.33816159696E+03  0.47713714012E+03  0.10566000000E+00 0.  1.
          4    1    3    3  501    0  0.11194263155E+03 -0.84757990368E+03 -0.69631918344E+03  0.11026256169E+04  0.00000000000E+00 0.  1.
         13    1    1    2    0    0  0.46417937514E+02  0.55054707077E+03 -0.37772340709E+03  0.66927698712E+03  0.10566000000E+00 0. -1.
<mgrwt>
<rscale>  1 0.98473834E+03</rscale>
<asrwt>0</asrwt>
<pdfrwt beam="2">  1       21 0.28163416E+00 0.11939430E+04</pdfrwt>
<pdfrwt beam="1">  1        4 0.64371964E-01 0.11939430E+04</pdfrwt>
<totfact> 0.29728470E+00</totfact>
</mgrwt>
</event>
<event>
 6    1  0.1431486E-005  0.1109636E+04  0.7818608E-02  0.9423977E-01
          4   -1    0    0  502    0 -0.00000000000E+00  0.00000000000E+00  0.10084860681E+04  0.10084860681E+04  0.00000000000E+00 0.  1.
         21   -1    0    0  501  502  0.00000000000E+00 -0.00000000000E+00 -0.75624514244E+03  0.75624514244E+03  0.00000000000E+00 0.  1.
    9000010    2    1    2  501    0 -0.33431293930E+03  0.34854111106E+03 -0.17078995830E+03  0.11227022490E+04  0.99902206314E+03 0.  0.
        -13    1    3    3    0    0  0.31358250604E+03  0.14285847841E+03 -0.26732032376E+03  0.43612234477E+03  0.10566000000E+00 0.  1.
          4    1    3    3  501    0 -0.64789544535E+03  0.20568263265E+03  0.96530365456E+02  0.68657990426E+03  0.00000000000E+00 0.  1.
         13    1    1    2    0    0  0.33431293930E+03 -0.34854111106E+03  0.42303088399E+03  0.64202896154E+03  0.10566000000E+00 0. -1.
<mgrwt>
<rscale>  1 0.90128485E+03</rscale>
<asrwt>0</asrwt>
<pdfrwt beam="2">  1       21 0.11634541E+00 0.11096356E+04</pdfrwt>
<pdfrwt beam="1">  1        4 0.15515170E+00 0.11096356E+04</pdfrwt>
<totfact> 0.55921349E+00</totfact>
</mgrwt>
</event>
<event>
 6    1  0.1431486E-005  0.1227241E+04  0.7818608E-02  0.9237741E-01
         21   -1    0    0  501  502  0.00000000000E+00  0.00000000000E+00  0.10719378362E+04  0.10719378362E+04  0.00000000000E+00 0. -1.
          4   -1    0    0  502    0 -0.00000000000E+00 -0.00000000000E+00 -0.87467182318E+03  0.87467182318E+03  0.00000000000E+00 0.  1.
    9000010    2    1    2  501    0 -0.63386219375E+03  0.30130304142E+03  0.20775622736E+03  0.12447016461E+04  0.10067545551E+04 0.  0.
        -13    1    3    3    0    0 -0.86542597053E+03  0.27571434690E+02  0.10821933219E+03  0.87260170152E+03  0.10566000000E+00 0.  1.
          4    1    3    3  501    0  0.23156377677E+03  0.27373160673E+03  0.99536895166E+02  0.37209994455E+03  0.00000000000E+00 0.  1.
         13    1    1    2    0    0  0.63386219375E+03 -0.30130304142E+03 -0.10490214290E+02  0.70190801335E+03  0.10566000000E+00 0. -1.
<mgrwt>
<rscale>  1 0.10672231E+04</rscale>
<asrwt>0</asrwt>
<pdfrwt beam="1">  1       21 0.16491351E+00 0.12272406E+04</pdfrwt>
<pdfrwt beam="2">  1        4 0.13456490E+00 0.12272406E+04</pdfrwt>
<totfact> 0.31080289E+00</totfact>
</mgrwt>
</event>
<event>
 6    1  0.1431486E-005  0.1088657E+04  0.7818608E-02  0.9531603E-01
         21   -1    0    0  501  502  0.00000000000E+00  0.00000000000E+00  0.43490257683E+03  0.43490257683E+03  0.00000000000E+00 0. -1.
          4   -1    0    0  502    0 -0.00000000000E+00 -0.00000000000E+00 -0.13137877047E+04  0.13137877047E+04  0.00000000000E+00 0.  1.
    9000010    2    1    2  501    0  0.69139797430E+02 -0.34341100976E+03 -0.87767362686E+03  0.13983862535E+04  0.10307578209E+04 0.  0.
        -13    1    3    3    0    0 -0.32428228502E+03 -0.41718863463E+03 -0.84521584597E+03  0.99679245316E+03  0.10566000000E+00 0.  1.
          4    1    3    3  501    0  0.39342208245E+03  0.73777624867E+02 -0.32457780894E+02  0.40159380029E+03  0.00000000000E+00 0.  1.
         13    1    1    2    0    0 -0.69139797430E+02  0.34341100976E+03 -0.12115010485E+01  0.35030402812E+03  0.10566000000E+00 0. -1.
<mgrwt>
<rscale>  1 0.81993393E+03</rscale>
<asrwt>0</asrwt>
<pdfrwt beam="1">  1       21 0.66908090E-01 0.10886566E+04</pdfrwt>
<pdfrwt beam="2">  1        4 0.20212118E+00 0.10886566E+04</pdfrwt>
<totfact> 0.99440331E+00</totfact>
</mgrwt>
</event>
<event>
 6    1  0.1431486E-005  0.1022165E+04  0.7818608E-02  0.9718929E-01
         21   -1    0    0  501  502  0.00000000000E+00  0.00000000000E+00  0.22815243535E+04  0.22815243535E+04  0.00000000000E+00 0.  1.
          4   -1    0    0  502    0 -0.00000000000E+00 -0.00000000000E+00 -0.17178360502E+03  0.17178360502E+03  0.00000000000E+00 0.  1.
    9000010    2    1    2  501    0 -0.11039839964E+03 -0.19438381906E+03  0.18194728991E+04  0.20869361374E+04  0.99742064112E+03 0.  0.
        -13    1    3    3    0    0  0.12315154740E+03  0.31593030915E+03  0.25330576699E+03  0.42325180050E+03  0.10566000000E+00 0.  1.
          4    1    3    3  501    0 -0.23354994703E+03 -0.51031412821E+03  0.15661671321E+04  0.16636843369E+04  0.00000000000E+00 0.  1.
         13    1    1    2    0    0  0.11039839964E+03  0.19438381906E+03  0.29026784941E+03  0.36637182113E+03  0.10566000000E+00 0. -1.
<mgrwt>
<rscale>  1 0.69900855E+03</rscale>
<asrwt>0</asrwt>
<pdfrwt beam="1">  1       21 0.35100372E+00 0.10221648E+04</pdfrwt>
<pdfrwt beam="2">  1        4 0.26428249E-01 0.10221648E+04</pdfrwt>
<totfact> 0.70156928E+00</totfact>
</mgrwt>
</event>
<event>
 6    1  0.1431486E-005  0.1049167E+04  0.7818608E-02  0.9572179E-01
         21   -1    0    0  501  502  0.00000000000E+00  0.00000000000E+00  0.19338253372E+04  0.19338253372E+04  0.00000000000E+00 0.  1.
          4   -1    0    0  502    0 -0.00000000000E+00 -0.00000000000E+00 -0.25277148729E+03  0.25277148729E+03  0.00000000000E+00 0.  1.
    9000010    2    1    2  501    0 -0.25920764705E+03 -0.22017597142E+03  0.11570022163E+04  0.15618599291E+04  0.99251511161E+03 0.  0.
        -13    1    3    3    0    0 -0.55699580938E+03 -0.12335898243E+03  0.11061856580E+04  0.12446318698E+04  0.10566000000E+00 0.  1.
          4    1    3    3  501    0  0.29778816233E+03 -0.96816988993E+02  0.50816558320E+02  0.31722805926E+03  0.00000000000E+00 0.  1.
         13    1    1    2    0    0  0.25920764705E+03  0.22017597142E+03  0.52405163362E+03  0.62473689546E+03  0.10566000000E+00 0. -1.
<mgrwt>
<rscale>  1 0.79165217E+03</rscale>
<asrwt>0</asrwt>
<pdfrwt beam="1">  1       21 0.29751158E+00 0.10491674E+04</pdfrwt>
<pdfrwt beam="2">  1        4 0.38887922E-01 0.10491674E+04</pdfrwt>
<totfact> 0.70324911E+00</totfact>
</mgrwt>
</event>
<event>
 6    1  0.1431486E-005  0.1106649E+04  0.7818608E-02  0.9524717E-01
         21   -1    0    0  501  502  0.00000000000E+00  0.00000000000E+00  0.16060950885E+04  0.16060950885E+04  0.00000000000E+00 0.  1.
          4   -1    0    0  502    0 -0.00000000000E+00 -0.00000000000E+00 -0.33402253869E+03  0.33402253869E+03  0.00000000000E+00 0.  1.
    9000010    2    1    2  501    0  0.30671760904E+03  0.15032859739E+03  0.10888515856E+04  0.15525040158E+04  0.10526141575E+04 0.  0.
        -13    1    3    3    0    0  0.36854053862E+03 -0.88029996867E+02  0.12172029126E+04  0.12748154182E+04  0.10566000000E+00 0.  1.
          4    1    3    3  501    0 -0.61822929580E+02  0.23835859426E+03 -0.12835132694E+03  0.27768859755E+03  0.00000000000E+00 0.  1.
         13    1    1    2    0    0 -0.30671760904E+03 -0.15032859739E+03  0.18322096418E+03  0.38761361143E+03  0.10566000000E+00 0. -1.
<mgrwt>
<rscale>  1 0.82485806E+03</rscale>
<asrwt>0</asrwt>
<pdfrwt beam="1">  1       21 0.24709155E+00 0.11066485E+04</pdfrwt>
<pdfrwt beam="2">  1        4 0.51388084E-01 0.11066485E+04</pdfrwt>
<totfact> 0.81103186E+00</totfact>
</mgrwt>
</event>
<event>
 6    1  0.1431486E-005  0.1017312E+04  0.7818608E-02  0.9753575E-01
          4   -1    0    0  502    0 -0.00000000000E+00  0.00000000000E+00  0.15895310473E+04  0.15895310473E+04  0.00000000000E+00 0.  1.
         21   -1    0    0  501  502  0.00000000000E+00 -0.00000000000E+00 -0.24667635363E+03  0.24667635363E+03  0.00000000000E+00 0.  1.
    9000010    2    1    2  501    0 -0.12018935473E+03  0.16243389031E+03  0.93810720360E+03  0.13838239446E+04  0.99704229320E+03 0.  0.
        -13    1    3    3    0    0  0.30403918194E+03 -0.19155142557E+03  0.88043001060E+02  0.36997750471E+03  0.10566000000E+00 0.  1.
          4    1    3    3  501    0 -0.42422853667E+03  0.35398531588E+03  0.85006420254E+03  0.10138464399E+04  0.00000000000E+00 0.  1.
         13    1    1    2    0    0  0.12018935473E+03 -0.16243389031E+03  0.40474749011E+03  0.45238345640E+03  0.10566000000E+00 0. -1.
<mgrwt>
<rscale>  1 0.67914636E+03</rscale>
<asrwt>0</asrwt>
<pdfrwt beam="2">  1       21 0.37950209E-01 0.10173119E+04</pdfrwt>
<pdfrwt beam="1">  1        4 0.24454323E+00 0.10173119E+04</pdfrwt>
<totfact> 0.18410870E+01</totfact>
</mgrwt>
</event>
<event>
 6    1  0.1431486E-005  0.1037115E+04  0.7818608E-02  0.9640547E-01
          4   -1    0    0  502    0 -0.00000000000E+00  0.00000000000E+00  0.23305031307E+04  0.23305031307E+04  0.00000000000E+00 0.  1.
         21   -1    0    0  501  502  0.00000000000E+00 -0.00000000000E+00 -0.43356400762E+03  0.43356400762E+03  0.00000000000E+00 0.  1.
    9000010    2    1    2  501    0  0.25948345591E+03  0.10162434087E+03  0.21495856315E+03  0.10591572329E+04  0.99897331772E+03 0.  0.
        -13    1    3    3    0    0  0.45944777486E+03 -0.32089072696E+03  0.18734016301E+03  0.59089716899E+03  0.10566000000E+00 0.  1.
          4    1    3    3  501    0 -0.19996431896E+03  0.42251506783E+03  0.27618400139E+02  0.46826006388E+03  0.00000000000E+00 0.  1.
         13    1    1    2    0    0 -0.25948345591E+03 -0.10162434087E+03  0.16819805600E+04  0.17049099055E+04  0.10566000000E+00 0. -1.
<mgrwt>
<rscale>  1 0.74669662E+03</rscale>
<asrwt>0</asrwt>
<pdfrwt beam="2">  1       21 0.66702157E-01 0.10371147E+04</pdfrwt>
<pdfrwt beam="1">  1        4 0.35853893E+00 0.10371147E+04</pdfrwt>
<totfact> 0.10440970E+00</totfact>
</mgrwt>
</event>
<event>
 6    1  0.1431486E-005  0.1039592E+04  0.7818608E-02  0.9922280E-01
         21   -1    0    0  501  502  0.00000000000E+00  0.00000000000E+00  0.29878322666E+03  0.29878322666E+03  0.00000000000E+00 0.  1.
          4   -1    0    0  502    0 -0.00000000000E+00 -0.00000000000E+00 -0.11782937129E+04  0.11782937129E+04  0.00000000000E+00 0.  1.
    9000010    2    1    2  501    0 -0.26931675436E+02 -0.10590106571E+03 -0.65869416003E+03  0.12307028095E+04  0.10338331868E+04 0.  0.
        -13    1    3    3    0    0 -0.17458460393E+02  0.46613250722E+03 -0.26878992129E+03  0.53836079453E+03  0.10566000000E+00 0.  1.
          4    1    3    3  501    0 -0.94732150428E+01 -0.57203357294E+03 -0.38990423873E+03  0.69234201501E+03  0.00000000000E+00 0.  1.
         13    1    1    2    0    0  0.26931675436E+02  0.10590106571E+03 -0.22081632621E+03  0.24637413003E+03  0.10566000000E+00 0. -1.
<mgrwt>
<rscale>  1 0.59193547E+03</rscale>
<asrwt>0</asrwt>
<pdfrwt beam="1">  1       21 0.45966650E-01 0.10395919E+04</pdfrwt>
<pdfrwt beam="2">  1        4 0.18127596E+00 0.10395919E+04</pdfrwt>
<totfact> 0.31616293E+01</totfact>
</mgrwt>
</event>
<event>
 6    1  0.1431486E-005  0.1004277E+04  0.7818608E-02  0.1015190E+00
          4   -1    0    0  502    0 -0.00000000000E+00  0.00000000000E+00  0.10788638553E+03  0.10788638553E+03  0.00000000000E+00 0.  1.
         21   -1    0    0  501  502  0.00000000000E+00 -0.00000000000E+00 -0.26266196420E+04  0.26266196420E+04  0.00000000000E+00 0.  1.
    9000010    2    1    2  501    0 -0.55178350463E+02  0.21158632640E+02 -0.23450858067E+04  0.25510781505E+04  0.10025367580E+04 0.  0.
        -13    1    3    3    0    0  0.32046836939E+03  0.10866093453E+02 -0.20455180587E+04  0.20704980530E+04  0.10566000000E+00 0.  1.
          4    1    3    3  501    0 -0.37564671986E+03  0.10292539187E+02 -0.29956774802E+03  0.48058009754E+03  0.00000000000E+00 0.  1.
         13    1    1    2    0    0  0.55178350463E+02 -0.21158632640E+02 -0.17364744978E+03  0.18342787704E+03  0.10566000000E+00 0. -1.
<mgrwt>
<rscale>  1 0.49462937E+03</rscale>
<asrwt>0</asrwt>
<pdfrwt beam="2">  1       21 0.40409530E+00 0.10042770E+04</pdfrwt>
<pdfrwt beam="1">  1        4 0.16597907E-01 0.10042770E+04</pdfrwt>
<totfact> 0.76556015E+00</totfact>
</mgrwt>
</event>
<event>
 6    1  0.1431486E-005  0.1014230E+04  0.7818608E-02  0.9810297E-01
          4   -1    0    0  502    0 -0.00000000000E+00  0.00000000000E+00  0.12046878691E+04  0.12046878691E+04  0.00000000000E+00 0.  1.
         21   -1    0    0  501  502  0.00000000000E+00 -0.00000000000E+00 -0.31655333653E+03  0.31655333653E+03  0.00000000000E+00 0.  1.
    9000010    2    1    2  501    0 -0.12969459959E+03 -0.10856463900E+03  0.57639250488E+03  0.11665722431E+04  0.10000277539E+04 0.  0.
        -13    1    3    3    0    0 -0.35436395708E+03  0.17746029918E+03  0.68116653752E+03  0.78806968909E+03  0.10566000000E+00 0.  1.
          4    1    3    3  501    0  0.22466935749E+03 -0.28602493818E+03 -0.10477403264E+03  0.37850255398E+03  0.00000000000E+00 0.  1.
         13    1    1    2    0    0  0.12969459959E+03  0.10856463900E+03  0.31174202764E+03  0.35466896251E+03  0.10566000000E+00 0. -1.
<mgrwt>
<rscale>  1 0.64812883E+03</rscale>
<asrwt>0</asrwt>
<pdfrwt beam="2">  1       21 0.48700514E-01 0.10142300E+04</pdfrwt>
<pdfrwt beam="1">  1        4 0.18533659E+00 0.10142300E+04</pdfrwt>
<totfact> 0.26242926E+01</totfact>
</mgrwt>
</event>
<event>
 6    1  0.1431486E-005  0.1036865E+04  0.7818608E-02  0.9766181E-01
         21   -1    0    0  501  502  0.00000000000E+00  0.00000000000E+00  0.16800808043E+04  0.16800808043E+04  0.00000000000E+00 0.  1.
          4   -1    0    0  502    0 -0.00000000000E+00 -0.00000000000E+00 -0.22146071853E+03  0.22146071853E+03  0.00000000000E+00 0.  1.
    9000010    2    1    2  501    0 -0.16539917096E+03  0.78410500961E+02  0.12338910821E+04  0.16116997925E+04  0.10205801909E+04 0.  0.
        -13    1    3    3    0    0  0.10414013440E+03  0.50509795708E+03  0.76637817254E+03  0.92374489354E+03  0.10566000000E+00 0.  1.
          4    1    3    3  501    0 -0.26953930536E+03 -0.42668745611E+03  0.46751290954E+03  0.68795489891E+03  0.00000000000E+00 0.  1.
         13    1    1    2    0    0  0.16539917096E+03 -0.78410500961E+02  0.22472900372E+03  0.28984173042E+03  0.10566000000E+00 0. -1.
<mgrwt>
<rscale>  1 0.67209488E+03</rscale>
<asrwt>0</asrwt>
<pdfrwt beam="1">  1       21 0.25847396E+00 0.10368650E+04</pdfrwt>
<pdfrwt beam="2">  1        4 0.34070881E-01 0.10368650E+04</pdfrwt>
<totfact> 0.16135593E+01</totfact>
</mgrwt>
</event>
<event>
 6    1  0.1431486E-005  0.1031483E+04  0.7818608E-02  0.9681515E-01
         21   -1    0    0  501  502  0.00000000000E+00  0.00000000000E+00  0.21843187299E+03  0.21843187299E+03  0.00000000000E+00 0.  1.
          4   -1    0    0  502    0 -0.00000000000E+00 -0.00000000000E+00 -0.22023242600E+04  0.22023242600E+04  0.00000000000E+00 0.  1.
    9000010    2    1    2  501    0 -0.24268373672E+03 -0.43897767635E+02 -0.11211721969E+04  0.15234777216E+04  0.10015662049E+04 0.  0.
        -13    1    3    3    0    0 -0.38172561594E+03 -0.37362193776E+03 -0.10203499290E+04  0.11517038626E+04  0.10566000000E+00 0.  1.
          4    1    3    3  501    0  0.13904187922E+03  0.32972417012E+03 -0.10082226793E+03  0.37177385902E+03  0.00000000000E+00 0.  1.
         13    1    1    2    0    0  0.24268373672E+03  0.43897767635E+02 -0.86272019008E+03  0.89727841143E+03  0.10566000000E+00 0. -1.
<mgrwt>
<rscale>  1 0.72128107E+03</rscale>
<asrwt>0</asrwt>
<pdfrwt beam="1">  1       21 0.33604902E-01 0.10314830E+04</pdfrwt>
<pdfrwt beam="2">  1        4 0.33881913E+00 0.10314830E+04</pdfrwt>
<totfact> 0.61234266E+00</totfact>
</mgrwt>
</event>
<event>
 6    1  0.1431486E-005  0.1001286E+04  0.7818608E-02  0.1002532E+00
         21   -1    0    0  501  502  0.00000000000E+00  0.00000000000E+00  0.11397555550E+04  0.11397555550E+04  0.00000000000E+00 0.  1.
          4   -1    0    0  502    0 -0.00000000000E+00 -0.00000000000E+00 -0.28374018812E+03  0.28374018812E+03  0.00000000000E+00 0.  1.
    9000010    2    1    2  501    0 -0.65658168205E+02 -0.58939078086E+02  0.87894223287E+03  0.13323340060E+04  0.99739142002E+03 0.  0.
        -13    1    3    3    0    0 -0.32925290324E+03  0.17877510189E+03 -0.10371955837E+02  0.37480074704E+03  0.10566000000E+00 0.  1.
          4    1    3    3  501    0  0.26359473504E+03 -0.23771417998E+03  0.88931418871E+03  0.95753325892E+03  0.00000000000E+00 0.  1.
         13    1    1    2    0    0  0.65658168205E+02  0.58939078086E+02 -0.22926865973E+02  0.91161737177E+02  0.10566000000E+00 0. -1.
<mgrwt>
<rscale>  1 0.54553776E+03</rscale>
<asrwt>0</asrwt>
<pdfrwt beam="1">  1       21 0.17534701E+00 0.10012864E+04</pdfrwt>
<pdfrwt beam="2">  1        4 0.43652337E-01 0.10012864E+04</pdfrwt>
<totfact> 0.35425840E+01</totfact>
</mgrwt>
</event>
<event>
 6    1  0.1431486E-005  0.1096502E+04  0.7818608E-02  0.9461925E-01
          4   -1    0    0  502    0 -0.00000000000E+00  0.00000000000E+00  0.16207012075E+04  0.16207012075E+04  0.00000000000E+00 0.  1.
         21   -1    0    0  501  502  0.00000000000E+00 -0.00000000000E+00 -0.36304626314E+03  0.36304626314E+03  0.00000000000E+00 0.  1.
    9000010    2    1    2  501    0  0.36514894301E+03 -0.24110037426E+03  0.90707228286E+03  0.14230591840E+04  0.10054124397E+04 0.  0.
        -13    1    3    3    0    0  0.17524302713E+03  0.33254601404E+03  0.57133692291E+02  0.38021209866E+03  0.10566000000E+00 0.  1.
          4    1    3    3  501    0  0.18990591588E+03 -0.57364638830E+03  0.84993859056E+03  0.10428470854E+04  0.00000000000E+00 0.  1.
         13    1    1    2    0    0 -0.36514894301E+03  0.24110037426E+03  0.35058266152E+03  0.56068828664E+03  0.10566000000E+00 0. -1.
<mgrwt>
<rscale>  1 0.87150096E+03</rscale>
<asrwt>0</asrwt>
<pdfrwt beam="2">  1       21 0.55853272E-01 0.10965023E+04</pdfrwt>
<pdfrwt beam="1">  1        4 0.24933864E+00 0.10965023E+04</pdfrwt>
<totfact> 0.74538708E+00</totfact>
</mgrwt>
</event>
<event>
 6    1  0.1431486E-005  0.1010487E+04  0.7818608E-02  0.9767483E-01
          4   -1    0    0  502    0 -0.00000000000E+00  0.00000000000E+00  0.20244035759E+03  0.20244035759E+03  0.00000000000E+00 0.  1.
         21   -1    0    0  501  502  0.00000000000E+00 -0.00000000000E+00 -0.20038861314E+04  0.20038861314E+04  0.00000000000E+00 0.  1.
    9000010    2    1    2  501    0 -0.18475415234E+03  0.68102999496E+02 -0.17165666355E+04  0.19919049541E+04  0.99111665132E+03 0.  0.
        -13    1    3    3    0    0 -0.57972051145E+03  0.15968699499E+03 -0.11079061504E+04  0.12605680692E+04  0.10566000000E+00 0.  1.
          4    1    3    3  501    0  0.39496635911E+03 -0.91583995492E+02 -0.60866048516E+03  0.73133688493E+03  0.00000000000E+00 0.  1.
         13    1    1    2    0    0  0.18475415234E+03 -0.68102999496E+02 -0.84879138265E+02  0.21442153489E+03  0.10566000000E+00 0. -1.
<mgrwt>
<rscale>  1 0.67137174E+03</rscale>
<asrwt>0</asrwt>
<pdfrwt beam="2">  1       21 0.30829017E+00 0.10104872E+04</pdfrwt>
<pdfrwt beam="1">  1        4 0.31144671E-01 0.10104872E+04</pdfrwt>
<totfact> 0.94544802E+00</totfact>
</mgrwt>
</event>
<event>
 6    1  0.1431486E-005  0.1007784E+04  0.7818608E-02  0.9871376E-01
          4   -1    0    0  502    0 -0.00000000000E+00  0.00000000000E+00  0.98117923726E+03  0.98117923726E+03  0.00000000000E+00 0.  1.
         21   -1    0    0  501  502  0.00000000000E+00 -0.00000000000E+00 -0.33644570145E+03  0.33644570145E+03  0.00000000000E+00 0.  1.
    9000010    2    1    2  501    0 -0.13854374196E+03  0.27799930499E+02  0.56803736924E+03  0.11568470867E+04  0.99782840435E+03 0.  0.
        -13    1    3    3    0    0 -0.10695174267E+03 -0.23111439371E+03 -0.21388653338E+03  0.33256578082E+03  0.10566000000E+00 0.  1.
          4    1    3    3  501    0 -0.31591999294E+02  0.25891432421E+03  0.78192390262E+03  0.82428130586E+03  0.00000000000E+00 0.  1.
         13    1    1    2    0    0  0.13854374196E+03 -0.27799930499E+02  0.76696166571E+02  0.16077785203E+03  0.10566000000E+00 0. -1.
<mgrwt>
<rscale>  1 0.61668780E+03</rscale>
<asrwt>0</asrwt>
<pdfrwt beam="2">  1       21 0.51760877E-01 0.10077841E+04</pdfrwt>
<pdfrwt beam="1">  1        4 0.15095065E+00 0.10077841E+04</pdfrwt>
<totfact> 0.40922032E+01</totfact>
</mgrwt>
</event>
<event>
 6    1  0.1431486E-005  0.1042441E+04  0.7818608E-02  0.9590566E-01
          4   -1    0    0  502    0 -0.00000000000E+00  0.00000000000E+00  0.11675597345E+04  0.11675597345E+04  0.00000000000E+00 0.  1.
         21   -1    0    0  501  502  0.00000000000E+00 -0.00000000000E+00 -0.40139641326E+03  0.40139641326E+03  0.00000000000E+00 0.  1.
    9000010    2    1    2  501    0 -0.14325675089E+03 -0.29225768776E+03  0.55499957629E+03  0.11809778094E+04  0.99032671568E+03 0.  0.
        -13    1    3    3    0    0  0.34214622538E+03  0.37475974348E+02  0.47816954245E+03  0.58916433250E+03  0.10566000000E+00 0.  1.
          4    1    3    3  501    0 -0.48540297627E+03 -0.32973366210E+03  0.76830033847E+02  0.59181347687E+03  0.00000000000E+00 0.  1.
         13    1    1    2    0    0  0.14325675089E+03  0.29225768776E+03  0.21116374498E+03  0.38797833843E+03  0.10566000000E+00 0. -1.
<mgrwt>
<rscale>  1 0.77923729E+03</rscale>
<asrwt>0</asrwt>
<pdfrwt beam="2">  1       21 0.61753295E-01 0.10424414E+04</pdfrwt>
<pdfrwt beam="1">  1        4 0.17962457E+00 0.10424414E+04</pdfrwt>
<totfact> 0.17017606E+01</totfact>
</mgrwt>
</event>
<event>
 6    1  0.1792876E-005  0.7926834E+03  0.7818608E-02  0.9983925E-01
         21   -1    0    0  501  502  0.00000000000E+00  0.00000000000E+00  0.30910935505E+03  0.30910935505E+03  0.00000000000E+00 0.  1.
          4   -1    0    0  502    0 -0.00000000000E+00 -0.00000000000E+00 -0.86198705891E+03  0.86198705891E+03  0.00000000000E+00 0.  1.
    9000010    2    1    2  501    0  0.66173411012E+02 -0.19147254138E+03 -0.55642372548E+03  0.96848042282E+03  0.76635912775E+03 0.  0.
        -13    1    3    3    0    0  0.35824068744E+03 -0.91102894094E+02 -0.54614465075E+03  0.65947715514E+03  0.10566000000E+00 0.  1.
          4    1    3    3  501    0 -0.29206727643E+03 -0.10036964729E+03 -0.10279074736E+02  0.30900326768E+03  0.00000000000E+00 0.  1.
         13    1    1    2    0    0 -0.66173411012E+02  0.19147254138E+03  0.35460216235E+01  0.20261599113E+03  0.10566000000E+00 0. -1.
<mgrwt>
<rscale>  1 0.56360738E+03</rscale>
<asrwt>0</asrwt>
<pdfrwt beam="1">  1       21 0.47555285E-01 0.79268340E+03</pdfrwt>
<pdfrwt beam="2">  1        4 0.13261340E+00 0.79268340E+03</pdfrwt>
<totfact> 0.70364751E+01</totfact>
</mgrwt>
</event>
<event>
 6    1  0.1431486E-005  0.1159246E+04  0.7818608E-02  0.9329192E-01
          4   -1    0    0  502    0 -0.00000000000E+00  0.00000000000E+00  0.13561778147E+04  0.13561778147E+04  0.00000000000E+00 0.  1.
         21   -1    0    0  501  502  0.00000000000E+00 -0.00000000000E+00 -0.56759133117E+03  0.56759133117E+03  0.00000000000E+00 0. -1.
    9000010    2    1    2  501    0  0.57494734746E+03 -0.15489991423E+03  0.52524542711E+03  0.12726877693E+04  0.99463207448E+03 0.  0.
        -13    1    3    3    0    0  0.96021165635E+02  0.21041667536E+03  0.62109131758E+03  0.66275913985E+03  0.10566000000E+00 0.  1.
          4    1    3    3  501    0  0.47892618183E+03 -0.36531658958E+03 -0.95845890477E+02  0.60992862942E+03  0.00000000000E+00 0.  1.
         13    1    1    2    0    0 -0.57494734746E+03  0.15489991423E+03  0.26334105642E+03  0.65108137659E+03  0.10566000000E+00 0. -1.
<mgrwt>
<rscale>  1 0.98139254E+03</rscale>
<asrwt>0</asrwt>
<pdfrwt beam="2">  1       21 0.87321744E-01 0.11592460E+04</pdfrwt>
<pdfrwt beam="1">  1        4 0.20864274E+00 0.11592460E+04</pdfrwt>
<totfact> 0.47975955E+00</totfact>
</mgrwt>
</event>
<event>
 6    1  0.1431486E-005  0.1037913E+04  0.7818608E-02  0.9614476E-01
          4   -1    0    0  502    0 -0.00000000000E+00  0.00000000000E+00  0.16774060392E+04  0.16774060392E+04  0.00000000000E+00 0.  1.
         21   -1    0    0  501  502  0.00000000000E+00 -0.00000000000E+00 -0.83495123378E+03  0.83495123378E+03  0.00000000000E+00 0.  1.
    9000010    2    1    2  501    0 -0.18108108079E+03 -0.24398863570E+03 -0.48852585784E+03  0.11471355513E+04  0.99244226389E+03 0.  0.
        -13    1    3    3    0    0  0.15148905987E+03  0.29087871159E+03  0.32717103593E+02  0.32959032168E+03  0.10566000000E+00 0.  1.
          4    1    3    3  501    0 -0.33257014066E+03 -0.53486734729E+03 -0.52124296143E+03  0.81754522964E+03  0.00000000000E+00 0.  1.
         13    1    1    2    0    0  0.18108108079E+03  0.24398863570E+03  0.13309806632E+04  0.13652217216E+04  0.10566000000E+00 0. -1.
<mgrwt>
<rscale>  1 0.76345427E+03</rscale>
<asrwt>0</asrwt>
<pdfrwt beam="2">  1       21 0.12845404E+00 0.10379125E+04</pdfrwt>
<pdfrwt beam="1">  1        4 0.25806247E+00 0.10379125E+04</pdfrwt>
<totfact> 0.89935338E-01</totfact>
</mgrwt>
</event>
<event>
 6    1  0.1431486E-005  0.1003898E+04  0.7818608E-02  0.1006508E+00
         21   -1    0    0  501  502  0.00000000000E+00  0.00000000000E+00  0.54195301657E+03  0.54195301657E+03  0.00000000000E+00 0.  1.
          4   -1    0    0  502    0 -0.00000000000E+00 -0.00000000000E+00 -0.67687213307E+03  0.67687213307E+03  0.00000000000E+00 0.  1.
    9000010    2    1    2  501    0  0.18911428993E+02  0.74973653537E+02  0.63468363254E+02  0.10059019378E+04  0.10009154732E+04 0.  0.
        -13    1    3    3    0    0 -0.16614617154E+02  0.11217961771E+02 -0.46851076479E+03  0.46893948017E+03  0.10566000000E+00 0.  1.
          4    1    3    3  501    0  0.35526046146E+02  0.63755691766E+02  0.53197912805E+03  0.53696245759E+03  0.00000000000E+00 0.  1.
         13    1    1    2    0    0 -0.18911428993E+02 -0.74973653537E+02 -0.19838747975E+03  0.21292321188E+03  0.10566000000E+00 0. -1.
<mgrwt>
<rscale>  1 0.52886270E+03</rscale>
<asrwt>0</asrwt>
<pdfrwt beam="1">  1       21 0.83377387E-01 0.10038976E+04</pdfrwt>
<pdfrwt beam="2">  1        4 0.10413417E+00 0.10038976E+04</pdfrwt>
<totfact> 0.35791150E+01</totfact>
</mgrwt>
</event>
<event>
 6    1  0.1431486E-005  0.1145220E+04  0.7818608E-02  0.9329070E-01
         21   -1    0    0  501  502  0.00000000000E+00  0.00000000000E+00  0.80926801048E+03  0.80926801048E+03  0.00000000000E+00 0. -1.
          4   -1    0    0  502    0 -0.00000000000E+00 -0.00000000000E+00 -0.96153052815E+03  0.96153052815E+03  0.00000000000E+00 0.  1.
    9000010    2    1    2  501    0  0.18137262083E+03  0.59064839009E+03 -0.68351415850E+02  0.11472581370E+04  0.96424466219E+03 0.  0.
        -13    1    3    3    0    0  0.45165178817E+03  0.45946081788E+03 -0.35192607071E+03  0.73412911081E+03  0.10566000000E+00 0.  1.
          4    1    3    3  501    0 -0.27027916735E+03  0.13118757221E+03  0.28357465486E+03  0.41312902619E+03  0.00000000000E+00 0.  1.
         13    1    1    2    0    0 -0.18137262083E+03 -0.59064839009E+03 -0.83911101821E+02  0.62354040164E+03  0.10566000000E+00 0. -1.
<mgrwt>
<rscale>  1 0.98150107E+03</rscale>
<asrwt>0</asrwt>
<pdfrwt beam="1">  1       21 0.12450277E+00 0.11452202E+04</pdfrwt>
<pdfrwt beam="2">  1        4 0.14792777E+00 0.11452202E+04</pdfrwt>
<totfact> 0.53085878E+00</totfact>
</mgrwt>
</event>
<event>
 6    1  0.1431486E-005  0.1065540E+04  0.7818608E-02  0.1066381E+00
          4   -1    0    0  502    0 -0.00000000000E+00  0.00000000000E+00  0.73990461895E+03  0.73990461895E+03  0.00000000000E+00 0.  1.
         21   -1    0    0  501  502  0.00000000000E+00 -0.00000000000E+00 -0.41151604287E+03  0.41151604287E+03  0.00000000000E+00 0.  1.
    9000010    2    1    2  501    0 -0.60796161797E+01  0.93741178841E+01  0.27993958732E+03  0.11016999268E+04  0.10654819193E+04 0.  0.
        -13    1    3    3    0    0 -0.11346409884E+03 -0.50100016827E+03  0.85331788935E+01  0.51375879228E+03  0.10566000000E+00 0.  1.
          4    1    3    3  501    0  0.10738448266E+03  0.51037428616E+03  0.27140640843E+03  0.58794113449E+03  0.00000000000E+00 0.  1.
         13    1    1    2    0    0  0.60796161797E+01 -0.93741178841E+01  0.48448988756E+02  0.49720735056E+02  0.10566000000E+00 0. -1.
<mgrwt>
<rscale>  1 0.34097672E+03</rscale>
<asrwt>0</asrwt>
<pdfrwt beam="2">  1       21 0.63310160E-01 0.10655405E+04</pdfrwt>
<pdfrwt beam="1">  1        4 0.11383148E+00 0.10655405E+04</pdfrwt>
<totfact> 0.54059640E+01</totfact>
</mgrwt>
</event>
<event>
 6    1  0.1431486E-005  0.1165961E+04  0.7818608E-02  0.9317946E-01
          4   -1    0    0  502    0 -0.00000000000E+00  0.00000000000E+00  0.12844075499E+04  0.12844075499E+04  0.00000000000E+00 0.  1.
         21   -1    0    0  501  502  0.00000000000E+00 -0.00000000000E+00 -0.63886011287E+03  0.63886011287E+03  0.00000000000E+00 0.  1.
    9000010    2    1    2  501    0 -0.40367817624E+03 -0.45684249810E+03  0.23815257519E+03  0.11900339193E+04  0.99388276063E+03 0.  0.
        -13    1    3    3    0    0 -0.34891784511E+03 -0.71585509050E+03  0.38797410815E+03  0.88584202485E+03  0.10566000000E+00 0.  1.
          4    1    3    3  501    0 -0.54760331125E+02  0.25901259240E+03 -0.14982153296E+03  0.30419189441E+03  0.00000000000E+00 0.  1.
         13    1    1    2    0    0  0.40367817624E+03  0.45684249810E+03  0.40739486189E+03  0.73323374356E+03  0.10566000000E+00 0. -1.
<mgrwt>
<rscale>  1 0.99147392E+03</rscale>
<asrwt>0</asrwt>
<pdfrwt beam="2">  1       21 0.98286172E-01 0.11659606E+04</pdfrwt>
<pdfrwt beam="1">  1        4 0.19760116E+00 0.11659606E+04</pdfrwt>
<totfact> 0.42491582E+00</totfact>
</mgrwt>
</event>
<event>
 6    1  0.1431486E-005  0.1083329E+04  0.7818608E-02  0.9497505E-01
          4   -1    0    0  502    0 -0.00000000000E+00  0.00000000000E+00  0.41862088821E+03  0.41862088821E+03  0.00000000000E+00 0.  1.
         21   -1    0    0  501  502  0.00000000000E+00 -0.00000000000E+00 -0.15158302915E+04  0.15158302915E+04  0.00000000000E+00 0.  1.
    9000010    2    1    2  501    0 -0.37825789700E+03  0.13128913462E+03 -0.10859286770E+04  0.15338976384E+04  0.10066205840E+04 0.  0.
        -13    1    3    3    0    0 -0.20276242353E+02  0.25433174540E+03 -0.11247965419E+04  0.11533702937E+04  0.10566000000E+00 0.  1.
          4    1    3    3  501    0 -0.35798165465E+03 -0.12304261079E+03  0.38867864887E+02  0.38052734469E+03  0.00000000000E+00 0.  1.
         13    1    1    2    0    0  0.37825789700E+03 -0.13128913462E+03 -0.11280726340E+02  0.40055354132E+03  0.10566000000E+00 0. -1.
<mgrwt>
<rscale>  1 0.84468003E+03</rscale>
<asrwt>0</asrwt>
<pdfrwt beam="2">  1       21 0.23320466E+00 0.10833286E+04</pdfrwt>
<pdfrwt beam="1">  1        4 0.64403214E-01 0.10833286E+04</pdfrwt>
<totfact> 0.61322310E+00</totfact>
</mgrwt>
</event>
<event>
 6    1  0.1431486E-005  0.1047341E+04  0.7818608E-02  0.9581410E-01
         21   -1    0    0  501  502  0.00000000000E+00  0.00000000000E+00  0.52592044182E+03  0.52592044182E+03  0.00000000000E+00 0.  1.
          4   -1    0    0  502    0 -0.00000000000E+00 -0.00000000000E+00 -0.94964705461E+03  0.94964705461E+03  0.00000000000E+00 0.  1.
    9000010    2    1    2  501    0 -0.25121362816E+03  0.21581786799E+03 -0.45701677621E+03  0.11427103420E+04  0.99359798352E+03 0.  0.
        -13    1    3    3    0    0  0.18848491333E+03  0.15548430428E+03  0.22291647630E+03  0.33074718139E+03  0.10566000000E+00 0.  1.
          4    1    3    3  501    0 -0.43969854149E+03  0.60333563711E+02 -0.67993325251E+03  0.81196316060E+03  0.00000000000E+00 0.  1.
         13    1    1    2    0    0  0.25121362816E+03 -0.21581786799E+03  0.33290163415E+02  0.33285715444E+03  0.10566000000E+00 0. -1.
<mgrwt>
<rscale>  1 0.78538893E+03</rscale>
<asrwt>0</asrwt>
<pdfrwt beam="1">  1       21 0.80910838E-01 0.10473407E+04</pdfrwt>
<pdfrwt beam="2">  1        4 0.14609955E+00 0.10473407E+04</pdfrwt>
<totfact> 0.16199345E+01</totfact>
</mgrwt>
</event>
<event>
 6    1  0.1431486E-005  0.9984512E+03  0.7818608E-02  0.9887039E-01
          4   -1    0    0  502    0 -0.00000000000E+00  0.00000000000E+00  0.76552760524E+03  0.76552760524E+03  0.00000000000E+00 0.  1.
         21   -1    0    0  501  502  0.00000000000E+00 -0.00000000000E+00 -0.43124182461E+03  0.43124182461E+03  0.00000000000E+00 0.  1.
    9000010    2    1    2  501    0 -0.11077898425E+03  0.82518808510E+02  0.23244636094E+03  0.10251517860E+04  0.98884960259E+03 0.  0.
        -13    1    3    3    0    0 -0.32054066841E+03  0.40385228787E+03 -0.90650309705E+02  0.52350786082E+03  0.10566000000E+00 0.  1.
          4    1    3    3  501    0  0.20976168417E+03 -0.32133347936E+03  0.32309667065E+03  0.50164392519E+03  0.00000000000E+00 0.  1.
         13    1    1    2    0    0  0.11077898425E+03 -0.82518808510E+02  0.10183941970E+03  0.17161764384E+03  0.10566000000E+00 0. -1.
<mgrwt>
<rscale>  1 0.60893548E+03</rscale>
<asrwt>0</asrwt>
<pdfrwt beam="2">  1       21 0.66344896E-01 0.99845124E+03</pdfrwt>
<pdfrwt beam="1">  1        4 0.11777348E+00 0.99845124E+03</pdfrwt>
<totfact> 0.44919121E+01</totfact>
</mgrwt>
</event>
<event>
 6    1  0.1431486E-005  0.1277351E+04  0.7818608E-02  0.9172964E-01
         21   -1    0    0  501  502  0.00000000000E+00  0.00000000000E+00  0.53986299354E+03  0.53986299354E+03  0.00000000000E+00 0.  1.
          4   -1    0    0  502    0 -0.00000000000E+00 -0.00000000000E+00 -0.21895983525E+04  0.21895983525E+04  0.00000000000E+00 0.  1.
    9000010    2    1    2  501    0 -0.75461855644E+03 -0.24236497918E+03 -0.59238190491E+03  0.14080279248E+04  0.10017167098E+04 0.  0.
        -13    1    3    3    0    0 -0.51171537261E+03  0.16748025809E+03 -0.73464044213E+03  0.91082317153E+03  0.10566000000E+00 0.  1.
          4    1    3    3  501    0 -0.24290318383E+03 -0.40984523727E+03  0.14225853722E+03  0.49720475324E+03  0.00000000000E+00 0.  1.
         13    1    1    2    0    0  0.75461855644E+03  0.24236497918E+03 -0.10573534540E+04  0.13214334212E+04  0.10566000000E+00 0. -1.
<mgrwt>
<rscale>  1 0.11336895E+04</rscale>
<asrwt>0</asrwt>
<pdfrwt beam="1">  1       21 0.83055847E-01 0.12773513E+04</pdfrwt>
<pdfrwt beam="2">  1        4 0.33686128E+00 0.12773513E+04</pdfrwt>
<totfact> 0.83464498E-01</totfact>
</mgrwt>
</event>
<event>
 6    1  0.1431486E-005  0.1017020E+04  0.7818608E-02  0.9978277E-01
          4   -1    0    0  502    0 -0.00000000000E+00  0.00000000000E+00  0.10781426687E+04  0.10781426687E+04  0.00000000000E+00 0.  1.
         21   -1    0    0  501  502  0.00000000000E+00 -0.00000000000E+00 -0.30533972552E+03  0.30533972552E+03  0.00000000000E+00 0.  1.
    9000010    2    1    2  501    0  0.67682097067E+02  0.70391364643E+02  0.58878187535E+03  0.11751567476E+04  0.10123208356E+04 0.  0.
        -13    1    3    3    0    0  0.36141918839E+03  0.76127928996E+02  0.75291089619E+03  0.83862632923E+03  0.10566000000E+00 0.  1.
          4    1    3    3  501    0 -0.29373709132E+03 -0.57365643530E+01 -0.16412902083E+03  0.33653041834E+03  0.00000000000E+00 0.  1.
         13    1    1    2    0    0 -0.67682097067E+02 -0.70391364643E+02  0.18402106781E+03  0.20832564662E+03  0.10566000000E+00 0. -1.
<mgrwt>
<rscale>  1 0.56613085E+03</rscale>
<asrwt>0</asrwt>
<pdfrwt beam="2">  1       21 0.46975343E-01 0.10170198E+04</pdfrwt>
<pdfrwt beam="1">  1        4 0.16586810E+00 0.10170198E+04</pdfrwt>
<totfact> 0.38935819E+01</totfact>
</mgrwt>
</event>
<event>
 6    1  0.1431486E-005  0.1026531E+04  0.7818608E-02  0.9696135E-01
          4   -1    0    0  502    0 -0.00000000000E+00  0.00000000000E+00  0.24615781521E+03  0.24615781521E+03  0.00000000000E+00 0.  1.
         21   -1    0    0  501  502  0.00000000000E+00 -0.00000000000E+00 -0.22075651156E+04  0.22075651156E+04  0.00000000000E+00 0.  1.
    9000010    2    1    2  501    0  0.69301427868E+02  0.22790623347E+03 -0.19633385007E+04  0.22155052156E+04  0.99850956576E+03 0.  0.
        -13    1    3    3    0    0  0.20880340060E+03 -0.32602462161E+03 -0.12077802727E+04  0.12683154624E+04  0.10566000000E+00 0.  1.
          4    1    3    3  501    0 -0.13950197274E+03  0.55393085508E+03 -0.75555822801E+03  0.94718975318E+03  0.00000000000E+00 0.  1.
         13    1    1    2    0    0 -0.69301427868E+02 -0.22790623347E+03  0.19312002544E+01  0.23821771525E+03  0.10566000000E+00 0. -1.
<mgrwt>
<rscale>  1 0.71247381E+03</rscale>
<asrwt>0</asrwt>
<pdfrwt beam="2">  1       21 0.33962542E+00 0.10265307E+04</pdfrwt>
<pdfrwt beam="1">  1        4 0.37870432E-01 0.10265307E+04</pdfrwt>
<totfact> 0.40666095E+00</totfact>
</mgrwt>
</event>
<event>
 6    1  0.1431486E-005  0.1064464E+04  0.7818608E-02  0.1008372E+00
          4   -1    0    0  502    0 -0.00000000000E+00  0.00000000000E+00  0.62537197804E+03  0.62537197804E+03  0.00000000000E+00 0.  1.
         21   -1    0    0  501  502  0.00000000000E+00 -0.00000000000E+00 -0.10039888846E+04  0.10039888846E+04  0.00000000000E+00 0.  1.
    9000010    2    1    2  501    0 -0.60866405381E+02 -0.65065304802E+01 -0.71833706626E+03  0.12841698253E+04  0.10627026608E+04 0.  0.
        -13    1    3    3    0    0  0.37477583304E+03 -0.33310675849E+03 -0.46422338674E+03  0.68331574074E+03  0.10566000000E+00 0.  1.
          4    1    3    3  501    0 -0.43564223843E+03  0.32660022800E+03 -0.25411367952E+03  0.60085408458E+03  0.00000000000E+00 0.  1.
         13    1    1    2    0    0  0.60866405381E+02  0.65065304802E+01  0.33972015965E+03  0.34519103737E+03  0.10566000000E+00 0. -1.
<mgrwt>
<rscale>  1 0.52126636E+03</rscale>
<asrwt>0</asrwt>
<pdfrwt beam="2">  1       21 0.15445983E+00 0.10644642E+04</pdfrwt>
<pdfrwt beam="1">  1        4 0.96211075E-01 0.10644642E+04</pdfrwt>
<totfact> 0.88211124E+00</totfact>
</mgrwt>
</event>
<event>
 6    1  0.1431486E-005  0.1091997E+04  0.7818608E-02  0.9486708E-01
          4   -1    0    0  502    0 -0.00000000000E+00  0.00000000000E+00  0.74454504419E+03  0.74454504419E+03  0.00000000000E+00 0.  1.
         21   -1    0    0  501  502  0.00000000000E+00 -0.00000000000E+00 -0.78879917782E+03  0.78879917782E+03  0.00000000000E+00 0.  1.
    9000010    2    1    2  501    0 -0.10430588502E+03 -0.39238563274E+03 -0.17685707759E+03  0.11062262590E+04  0.10137119451E+04 0.  0.
        -13    1    3    3    0    0 -0.23753988947E+03  0.29185895325E+03  0.34260641134E+02  0.37786326942E+03  0.10566000000E+00 0.  1.
          4    1    3    3  501    0  0.13323400444E+03 -0.68424458599E+03 -0.21111771872E+03  0.72836298956E+03  0.00000000000E+00 0.  1.
         13    1    1    2    0    0  0.10430588502E+03  0.39238563274E+03  0.13260294396E+03  0.42711796303E+03  0.10566000000E+00 0. -1.
<mgrwt>
<rscale>  1 0.85270939E+03</rscale>
<asrwt>0</asrwt>
<pdfrwt beam="2">  1       21 0.12135372E+00 0.10919973E+04</pdfrwt>
<pdfrwt beam="1">  1        4 0.11454539E+00 0.10919973E+04</pdfrwt>
<totfact> 0.11047376E+01</totfact>
</mgrwt>
</event>
<event>
 6    1  0.1431486E-005  0.1081122E+04  0.7818608E-02  0.9645257E-01
          4   -1    0    0  502    0 -0.00000000000E+00  0.00000000000E+00  0.78482704051E+03  0.78482704051E+03  0.00000000000E+00 0.  1.
         21   -1    0    0  501  502  0.00000000000E+00 -0.00000000000E+00 -0.73038892859E+03  0.73038892859E+03  0.00000000000E+00 0.  1.
    9000010    2    1    2  501    0  0.24140496393E+03 -0.18440728680E+02 -0.26622503211E+03  0.11134184079E+04  0.10536642569E+04 0.  0.
        -13    1    3    3    0    0 -0.50266289858E+02 -0.48619790670E+03  0.26052549745E+02  0.48948324883E+03  0.10566000000E+00 0.  1.
          4    1    3    3  501    0  0.29167125379E+03  0.46775717802E+03 -0.29227758185E+03  0.62393515907E+03  0.00000000000E+00 0.  1.
         13    1    1    2    0    0 -0.24140496393E+03  0.18440728680E+02  0.32066314402E+03  0.40179756120E+03  0.10566000000E+00 0. -1.
<mgrwt>
<rscale>  1 0.74371827E+03</rscale>
<asrwt>0</asrwt>
<pdfrwt beam="2">  1       21 0.11236753E+00 0.10811220E+04</pdfrwt>
<pdfrwt beam="1">  1        4 0.12074262E+00 0.10811220E+04</pdfrwt>
<totfact> 0.11818627E+01</totfact>
</mgrwt>
</event>
<event>
 6    1  0.1431486E-005  0.9959750E+03  0.7818608E-02  0.9782594E-01
          4   -1    0    0  502    0 -0.00000000000E+00  0.00000000000E+00  0.76003071801E+03  0.76003071801E+03  0.00000000000E+00 0.  1.
         21   -1    0    0  501  502  0.00000000000E+00 -0.00000000000E+00 -0.80767654161E+03  0.80767654161E+03  0.00000000000E+00 0.  1.
    9000010    2    1    2  501    0  0.68187576022E+02  0.18336490340E+03 -0.47070643576E+03  0.11016037024E+04  0.97657254475E+03 0.  0.
        -13    1    3    3    0    0 -0.24184628615E+03 -0.15939259220E+03  0.15122400521E+03  0.32674812239E+03  0.10566000000E+00 0.  1.
          4    1    3    3  501    0  0.31003386217E+03  0.34275749560E+03 -0.62193044097E+03  0.77485558002E+03  0.00000000000E+00 0.  1.
         13    1    1    2    0    0 -0.68187576022E+02 -0.18336490340E+03  0.42306061216E+03  0.46610355722E+03  0.10566000000E+00 0. -1.
<mgrwt>
<rscale>  1 0.66305082E+03</rscale>
<asrwt>0</asrwt>
<pdfrwt beam="2">  1       21 0.12425793E+00 0.99597498E+03</pdfrwt>
<pdfrwt beam="1">  1        4 0.11692780E+00 0.99597498E+03</pdfrwt>
<totfact> 0.99702687E+00</totfact>
</mgrwt>
</event>
<event>
 6    1  0.1431486E-005  0.1012517E+04  0.7818608E-02  0.1022812E+00
         21   -1    0    0  501  502  0.00000000000E+00  0.00000000000E+00  0.32868997858E+03  0.32868997858E+03  0.00000000000E+00 0.  1.
          4   -1    0    0  502    0 -0.00000000000E+00 -0.00000000000E+00 -0.86620407781E+03  0.86620407781E+03  0.00000000000E+00 0.  1.
    9000010    2    1    2  501    0  0.36213930113E+02  0.27978204823E+02 -0.47760888440E+03  0.11195092130E+04  0.10114822801E+04 0.  0.
        -13    1    3    3    0    0  0.31269141711E+03 -0.31008520366E+03  0.40104174613E+02  0.44219578452E+03  0.10566000000E+00 0.  1.
          4    1    3    3  501    0 -0.27647748700E+03  0.33806340848E+03 -0.51771305901E+03  0.67731342851E+03  0.00000000000E+00 0.  1.
         13    1    1    2    0    0 -0.36213930113E+02 -0.27978204823E+02 -0.59905214830E+02  0.75384843352E+02  0.10566000000E+00 0. -1.
<mgrwt>
<rscale>  1 0.46685288E+03</rscale>
<asrwt>0</asrwt>
<pdfrwt beam="1">  1       21 0.50567689E-01 0.10125170E+04</pdfrwt>
<pdfrwt beam="2">  1        4 0.13326217E+00 0.10125170E+04</pdfrwt>
<totfact> 0.59792549E+01</totfact>
</mgrwt>
</event>
<event>
 6    1  0.1431486E-005  0.1024771E+04  0.7818608E-02  0.9698358E-01
          4   -1    0    0  502    0 -0.00000000000E+00  0.00000000000E+00  0.10844800619E+04  0.10844800619E+04  0.00000000000E+00 0.  1.
         21   -1    0    0  501  502  0.00000000000E+00 -0.00000000000E+00 -0.39605416720E+03  0.39605416720E+03  0.00000000000E+00 0.  1.
    9000010    2    1    2  501    0 -0.18495366684E+02 -0.23693923967E+03  0.38406593489E+03  0.10943771650E+04  0.99683120687E+03 0.  0.
        -13    1    3    3    0    0  0.10552579955E+03 -0.37966190965E+03  0.65475630236E+03  0.76418890770E+03  0.10566000000E+00 0.  1.
          4    1    3    3  501    0 -0.12402116623E+03  0.14272266998E+03 -0.27069036747E+03  0.33018825727E+03  0.00000000000E+00 0.  1.
         13    1    1    2    0    0  0.18495366684E+02  0.23693923967E+03  0.30435995985E+03  0.38615706417E+03  0.10566000000E+00 0. -1.
<mgrwt>
<rscale>  1 0.71114642E+03</rscale>
<asrwt>0</asrwt>
<pdfrwt beam="2">  1       21 0.60931411E-01 0.10247706E+04</pdfrwt>
<pdfrwt beam="1">  1        4 0.16684309E+00 0.10247706E+04</pdfrwt>
<totfact> 0.21668303E+01</totfact>
</mgrwt>
</event>
<event>
 6    1  0.1431486E-005  0.1001464E+04  0.7818608E-02  0.9907775E-01
         21   -1    0    0  501  502  0.00000000000E+00  0.00000000000E+00  0.57148534000E+03  0.57148534000E+03  0.00000000000E+00 0.  1.
          4   -1    0    0  502    0 -0.00000000000E+00 -0.00000000000E+00 -0.62636816462E+03  0.62636816462E+03  0.00000000000E+00 0.  1.
    9000010    2    1    2  501    0 -0.64725522341E+02 -0.11049213019E+03  0.88795054451E+02  0.10053924743E+04  0.99324295199E+03 0.  0.
        -13    1    3    3    0    0  0.35195184980E+03  0.18173574379E+03 -0.17397106109E+03  0.43262446349E+03  0.10566000000E+00 0.  1.
          4    1    3    3  501    0 -0.41667737214E+03 -0.29222787398E+03  0.26276611554E+03  0.57276801085E+03  0.00000000000E+00 0.  1.
         13    1    1    2    0    0  0.64725522341E+02  0.11049213019E+03 -0.14367787908E+03  0.19246103028E+03  0.10566000000E+00 0. -1.
<mgrwt>
<rscale>  1 0.59885955E+03</rscale>
<asrwt>0</asrwt>
<pdfrwt beam="1">  1       21 0.87920822E-01 0.10014637E+04</pdfrwt>
<pdfrwt beam="2">  1        4 0.96364333E-01 0.10014637E+04</pdfrwt>
<totfact> 0.38029667E+01</totfact>
</mgrwt>
</event>
<event>
 6    1  0.1431486E-005  0.1320722E+04  0.7818608E-02  0.9125208E-01
          4   -1    0    0  502    0 -0.00000000000E+00  0.00000000000E+00  0.72156506415E+03  0.72156506415E+03  0.00000000000E+00 0.  1.
         21   -1    0    0  501  502  0.00000000000E+00 -0.00000000000E+00 -0.16541587383E+04  0.16541587383E+04  0.00000000000E+00 0. -1.
    9000010    2    1    2  501    0 -0.78692380020E+01  0.85876230786E+03 -0.48226938568E+03  0.14060194133E+04  0.10033803885E+04 0.  0.
        -13    1    3    3    0    0  0.26891605886E+03  0.11330693132E+03  0.20367379296E+03  0.35586139507E+03  0.10566000000E+00 0.  1.
          4    1    3    3  501    0 -0.27678529686E+03  0.74545537655E+03 -0.68594317864E+03  0.10501580183E+04  0.00000000000E+00 0.  1.
         13    1    1    2    0    0  0.78692380020E+01 -0.85876230786E+03 -0.45032428843E+03  0.96970438910E+03  0.10566000000E+00 0. -1.
<mgrwt>
<rscale>  1 0.11859911E+04</rscale>
<asrwt>0</asrwt>
<pdfrwt beam="2">  1       21 0.25448596E+00 0.13207221E+04</pdfrwt>
<pdfrwt beam="1">  1        4 0.11101001E+00 0.13207221E+04</pdfrwt>
<totfact> 0.12130249E+00</totfact>
</mgrwt>
</event>
<event>
 6    1  0.1431486E-005  0.1021249E+04  0.7818608E-02  0.1008733E+00
          4   -1    0    0  502    0 -0.00000000000E+00  0.00000000000E+00  0.51178797939E+03  0.51178797939E+03  0.00000000000E+00 0.  1.
         21   -1    0    0  501  502  0.00000000000E+00 -0.00000000000E+00 -0.64765954618E+03  0.64765954618E+03  0.00000000000E+00 0.  1.
    9000010    2    1    2  501    0 -0.56552698794E+02 -0.38739242422E+02 -0.22625340467E+03  0.10460110922E+04  0.10189453691E+04 0.  0.
        -13    1    3    3    0    0  0.35586035642E+03 -0.18505615423E+02 -0.45188031410E+03  0.57547795832E+03  0.10566000000E+00 0.  1.
          4    1    3    3  501    0 -0.41241305522E+03 -0.20233626999E+02  0.22562690943E+03  0.47053313383E+03  0.00000000000E+00 0.  1.
         13    1    1    2    0    0  0.56552698794E+02  0.38739242422E+02  0.90381837878E+02  0.11343643342E+03  0.10566000000E+00 0. -1.
<mgrwt>
<rscale>  1 0.51981483E+03</rscale>
<asrwt>0</asrwt>
<pdfrwt beam="2">  1       21 0.99639930E-01 0.10212486E+04</pdfrwt>
<pdfrwt beam="1">  1        4 0.78736612E-01 0.10212486E+04</pdfrwt>
<totfact> 0.44884510E+01</totfact>
</mgrwt>
</event>
<event>
 6    1  0.1431486E-005  0.1202999E+04  0.7818608E-02  0.9338481E-01
         21   -1    0    0  501  502  0.00000000000E+00  0.00000000000E+00  0.16766706778E+04  0.16766706778E+04  0.00000000000E+00 0.  1.
          4   -1    0    0  502    0 -0.00000000000E+00 -0.00000000000E+00 -0.79192632131E+03  0.79192632131E+03  0.00000000000E+00 0.  1.
    9000010    2    1    2  501    0  0.43489482058E+03  0.27614873587E+03  0.13259319629E+04  0.17903358808E+04  0.10871133183E+04 0.  0.
        -13    1    3    3    0    0 -0.10618123008E+03  0.17434893000E+03  0.12107611911E+04  0.12278496146E+04  0.10566000000E+00 0.  1.
          4    1    3    3  501    0  0.54107605066E+03  0.10179980587E+03  0.11517077179E+03  0.56248626627E+03  0.00000000000E+00 0.  1.
         13    1    1    2    0    0 -0.43489482058E+03 -0.27614873587E+03 -0.44118760642E+03  0.67826111824E+03  0.10566000000E+00 0. -1.
<mgrwt>
<rscale>  1 0.97316146E+03</rscale>
<asrwt>0</asrwt>
<pdfrwt beam="1">  1       21 0.25794933E+00 0.12029992E+04</pdfrwt>
<pdfrwt beam="2">  1        4 0.12183482E+00 0.12029992E+04</pdfrwt>
<totfact> 0.92948763E-01</totfact>
</mgrwt>
</event>
<event>
 6    1  0.1431486E-005  0.1018814E+04  0.7818608E-02  0.9867117E-01
          4   -1    0    0  502    0 -0.00000000000E+00  0.00000000000E+00  0.13107551783E+04  0.13107551783E+04  0.00000000000E+00 0.  1.
         21   -1    0    0  501  502  0.00000000000E+00 -0.00000000000E+00 -0.32185487790E+03  0.32185487790E+03  0.00000000000E+00 0.  1.
    9000010    2    1    2  501    0  0.12076217065E+03 -0.68150091945E+02  0.52041407175E+03  0.11440332511E+04  0.10093331148E+04 0.  0.
        -13    1    3    3    0    0  0.23984282435E+03  0.11508188803E+03 -0.23665676078E+03  0.35605456735E+03  0.10566000000E+00 0.  1.
          4    1    3    3  501    0 -0.11908065370E+03 -0.18323197997E+03  0.75707083253E+03  0.78797868375E+03  0.00000000000E+00 0.  1.
         13    1    1    2    0    0 -0.12076217065E+03  0.68150091945E+02  0.46848622861E+03  0.48857680507E+03  0.10566000000E+00 0. -1.
<mgrwt>
<rscale>  1 0.61881764E+03</rscale>
<asrwt>0</asrwt>
<pdfrwt beam="2">  1       21 0.49516136E-01 0.10188137E+04</pdfrwt>
<pdfrwt beam="1">  1        4 0.20165464E+00 0.10188137E+04</pdfrwt>
<totfact> 0.19655231E+01</totfact>
</mgrwt>
</event>
<event>
 6    1  0.1431486E-005  0.1004127E+04  0.7818608E-02  0.9864562E-01
          4   -1    0    0  502    0 -0.00000000000E+00  0.00000000000E+00  0.38173084704E+03  0.38173084704E+03  0.00000000000E+00 0.  1.
         21   -1    0    0  501  502  0.00000000000E+00 -0.00000000000E+00 -0.98652323715E+03  0.98652323715E+03  0.00000000000E+00 0.  1.
    9000010    2    1    2  501    0  0.18551995495E+02 -0.14485954305E+03 -0.67122322065E+03  0.12078124120E+04  0.99344941844E+03 0.  0.
        -13    1    3    3    0    0 -0.42424791447E+03 -0.16535072122E+03 -0.69749964935E+02  0.46064327056E+03  0.10566000000E+00 0.  1.
          4    1    3    3  501    0  0.44279990997E+03  0.20491178171E+02 -0.60147325572E+03  0.74716914149E+03  0.00000000000E+00 0.  1.
         13    1    1    2    0    0 -0.18551995495E+02  0.14485954305E+03  0.66430830547E+02  0.16044167214E+03  0.10566000000E+00 0. -1.
<mgrwt>
<rscale>  1 0.62009942E+03</rscale>
<asrwt>0</asrwt>
<pdfrwt beam="2">  1       21 0.15177280E+00 0.10041266E+04</pdfrwt>
<pdfrwt beam="1">  1        4 0.58727823E-01 0.10041266E+04</pdfrwt>
<totfact> 0.28657871E+01</totfact>
</mgrwt>
</event>
<event>
 6    1  0.1431486E-005  0.1053834E+04  0.7818608E-02  0.9525384E-01
          4   -1    0    0  502    0 -0.00000000000E+00  0.00000000000E+00  0.60485081851E+03  0.60485081851E+03  0.00000000000E+00 0.  1.
         21   -1    0    0  501  502  0.00000000000E+00 -0.00000000000E+00 -0.10084065288E+04  0.10084065288E+04  0.00000000000E+00 0.  1.
    9000010    2    1    2  501    0 -0.21595713874E+03 -0.33029829770E+03 -0.55441364881E+03  0.11907735251E+04  0.97715538319E+03 0.  0.
        -13    1    3    3    0    0 -0.21505183819E+03  0.21585827830E+03  0.11601653326E+03  0.32603977759E+03  0.10566000000E+00 0.  1.
          4    1    3    3  501    0 -0.90530054660E+00 -0.54615657600E+03 -0.67043018207E+03  0.86473374752E+03  0.00000000000E+00 0.  1.
         13    1    1    2    0    0  0.21595713874E+03  0.33029829770E+03  0.15085793852E+03  0.42248382219E+03  0.10566000000E+00 0. -1.
<mgrwt>
<rscale>  1 0.82437989E+03</rscale>
<asrwt>0</asrwt>
<pdfrwt beam="2">  1       21 0.15513947E+00 0.10538345E+04</pdfrwt>
<pdfrwt beam="1">  1        4 0.93053972E-01 0.10538345E+04</pdfrwt>
<totfact> 0.94443377E+00</totfact>
</mgrwt>
</event>
<event>
 6    1  0.1431486E-005  0.1016992E+04  0.7818608E-02  0.9878627E-01
         21   -1    0    0  501  502  0.00000000000E+00  0.00000000000E+00  0.55745392265E+03  0.55745392265E+03  0.00000000000E+00 0.  1.
          4   -1    0    0  502    0 -0.00000000000E+00 -0.00000000000E+00 -0.59551975049E+03  0.59551975049E+03  0.00000000000E+00 0.  1.
    9000010    2    1    2  501    0  0.12313292428E+03 -0.53656867203E+02 -0.49322195443E+02  0.10181868288E+04  0.10080828155E+04 0.  0.
        -13    1    3    3    0    0  0.56847863222E+03 -0.89855221798E+01 -0.67924681803E+01  0.56859022475E+03  0.10566000000E+00 0.  1.
          4    1    3    3  501    0 -0.44534570793E+03 -0.44671345023E+02 -0.42529727263E+02  0.44959660401E+03  0.00000000000E+00 0.  1.
         13    1    1    2    0    0 -0.12313292428E+03  0.53656867203E+02  0.11256367600E+02  0.13478684437E+03  0.10566000000E+00 0. -1.
<mgrwt>
<rscale>  1 0.61308401E+03</rscale>
<asrwt>0</asrwt>
<pdfrwt beam="1">  1       21 0.85762142E-01 0.10169915E+04</pdfrwt>
<pdfrwt beam="2">  1        4 0.91618423E-01 0.10169915E+04</pdfrwt>
<totfact> 0.45447228E+01</totfact>
</mgrwt>
</event>
<event>
 6    1  0.1431486E-005  0.1002226E+04  0.7818608E-02  0.9933104E-01
          4   -1    0    0  502    0 -0.00000000000E+00  0.00000000000E+00  0.41431304965E+03  0.41431304965E+03  0.00000000000E+00 0.  1.
         21   -1    0    0  501  502  0.00000000000E+00 -0.00000000000E+00 -0.83955758210E+03  0.83955758210E+03  0.00000000000E+00 0.  1.
    9000010    2    1    2  501    0 -0.54877603557E+02  0.10424250531E+03 -0.49411508369E+03  0.11174110580E+04  0.99527870733E+03 0.  0.
        -13    1    3    3    0    0 -0.52299260226E+03  0.81406685031E+02 -0.21054650834E+03  0.56962983921E+03  0.10566000000E+00 0.  1.
          4    1    3    3  501    0  0.46811499870E+03  0.22835820276E+02 -0.28356857535E+03  0.54778121875E+03  0.00000000000E+00 0.  1.
         13    1    1    2    0    0  0.54877603557E+02 -0.10424250531E+03  0.68870551235E+02  0.13645957378E+03  0.10566000000E+00 0. -1.
<mgrwt>
<rscale>  1 0.58683429E+03</rscale>
<asrwt>0</asrwt>
<pdfrwt beam="2">  1       21 0.12916271E+00 0.10022264E+04</pdfrwt>
<pdfrwt beam="1">  1        4 0.63740469E-01 0.10022264E+04</pdfrwt>
<totfact> 0.37181124E+01</totfact>
</mgrwt>
</event>
<event>
 6    1  0.1431486E-005  0.1028145E+04  0.7818608E-02  0.9533641E-01
          4   -1    0    0  502    0 -0.00000000000E+00  0.00000000000E+00  0.30522867025E+03  0.30522867025E+03  0.00000000000E+00 0.  1.
         21   -1    0    0  501  502  0.00000000000E+00 -0.00000000000E+00 -0.17045657100E+04  0.17045657100E+04  0.00000000000E+00 0. -1.
    9000010    2    1    2  501    0 -0.41278871377E+03  0.10850910855E+02 -0.95580689659E+03  0.14037982882E+04  0.94157875187E+03 0.  0.
        -13    1    3    3    0    0 -0.62929458758E+03  0.26519721215E+03 -0.54094482174E+03  0.87118456748E+03  0.10566000000E+00 0.  1.
          4    1    3    3  501    0  0.21650587381E+03 -0.25434630129E+03 -0.41486207485E+03  0.53261372074E+03  0.00000000000E+00 0.  1.
         13    1    1    2    0    0  0.41278871377E+03 -0.10850910855E+02 -0.44353014314E+03  0.60599609200E+03  0.10566000000E+00 0. -1.
<mgrwt>
<rscale>  1 0.81848437E+03</rscale>
<asrwt>0</asrwt>
<pdfrwt beam="2">  1       21 0.26224087E+00 0.10281453E+04</pdfrwt>
<pdfrwt beam="1">  1        4 0.46958258E-01 0.10281453E+04</pdfrwt>
<totfact> 0.79494792E+00</totfact>
</mgrwt>
</event>
<event>
 6    1  0.1431486E-005  0.1148029E+04  0.7818608E-02  0.9387055E-01
          4   -1    0    0  502    0 -0.00000000000E+00  0.00000000000E+00  0.56129368145E+03  0.56129368145E+03  0.00000000000E+00 0.  1.
         21   -1    0    0  501  502  0.00000000000E+00 -0.00000000000E+00 -0.12184048145E+04  0.12184048145E+04  0.00000000000E+00 0.  1.
    9000010    2    1    2  501    0 -0.20443900932E+03 -0.45362346560E+03 -0.53923102837E+03  0.12683617308E+04  0.10346022527E+04 0.  0.
        -13    1    3    3    0    0  0.15374970252E+03 -0.38653798084E+02  0.25682771037E+03  0.30181711534E+03  0.10566000000E+00 0.  1.
          4    1    3    3  501    0 -0.35818871183E+03 -0.41496966751E+03 -0.79605873874E+03  0.96654461551E+03  0.00000000000E+00 0.  1.
         13    1    1    2    0    0  0.20443900932E+03  0.45362346560E+03 -0.11788010464E+03  0.51133676506E+03  0.10566000000E+00 0. -1.
<mgrwt>
<rscale>  1 0.93148722E+03</rscale>
<asrwt>0</asrwt>
<pdfrwt beam="2">  1       21 0.18744689E+00 0.11480293E+04</pdfrwt>
<pdfrwt beam="1">  1        4 0.86352874E-01 0.11480293E+04</pdfrwt>
<totfact> 0.63772956E+00</totfact>
</mgrwt>
</event>
<event>
 6    1  0.1431486E-005  0.1051974E+04  0.7818608E-02  0.9610060E-01
         21   -1    0    0  501  502  0.00000000000E+00  0.00000000000E+00  0.23285844796E+03  0.23285844796E+03  0.00000000000E+00 0.  1.
          4   -1    0    0  502    0 -0.00000000000E+00 -0.00000000000E+00 -0.20527094971E+04  0.20527094971E+04  0.00000000000E+00 0.  1.
    9000010    2    1    2  501    0  0.27133625669E+03 -0.11893391833E+03 -0.11823595553E+04  0.15825999110E+04  0.10093957197E+04 0.  0.
        -13    1    3    3    0    0  0.62576590248E+03 -0.24706448862E+03 -0.70667993897E+03  0.97571531378E+03  0.10566000000E+00 0.  1.
          4    1    3    3  501    0 -0.35442964579E+03  0.12813057030E+03 -0.47567961638E+03  0.60688459718E+03  0.00000000000E+00 0.  1.
         13    1    1    2    0    0 -0.27133625669E+03  0.11893391833E+03 -0.63749149377E+03  0.70296803407E+03  0.10566000000E+00 0. -1.
<mgrwt>
<rscale>  1 0.76633921E+03</rscale>
<asrwt>0</asrwt>
<pdfrwt beam="1">  1       21 0.35824376E-01 0.10519736E+04</pdfrwt>
<pdfrwt beam="2">  1        4 0.31580147E+00 0.10519736E+04</pdfrwt>
<totfact> 0.74870599E+00</totfact>
</mgrwt>
</event>
<event>
 6    1  0.1431486E-005  0.1025631E+04  0.7818608E-02  0.9771599E-01
          4   -1    0    0  502    0 -0.00000000000E+00  0.00000000000E+00  0.90369096107E+03  0.90369096107E+03  0.00000000000E+00 0.  1.
         21   -1    0    0  501  502  0.00000000000E+00 -0.00000000000E+00 -0.45271413658E+03  0.45271413658E+03  0.00000000000E+00 0.  1.
    9000010    2    1    2  501    0 -0.18503681692E+03  0.16461326768E+02  0.53005907358E+03  0.11545050923E+04  0.10086673325E+04 0.  0.
        -13    1    3    3    0    0 -0.25788307341E+03  0.27646928458E+03  0.72758453633E+03  0.81995012869E+03  0.10566000000E+00 0.  1.
          4    1    3    3  501    0  0.72846256484E+02 -0.26000795781E+03 -0.19752546276E+03  0.33455496356E+03  0.00000000000E+00 0.  1.
         13    1    1    2    0    0  0.18503681692E+03 -0.16461326768E+02 -0.79082249080E+02  0.20190000540E+03  0.10566000000E+00 0. -1.
<mgrwt>
<rscale>  1 0.66909222E+03</rscale>
<asrwt>0</asrwt>
<pdfrwt beam="2">  1       21 0.69648329E-01 0.10256312E+04</pdfrwt>
<pdfrwt beam="1">  1        4 0.13902938E+00 0.10256312E+04</pdfrwt>
<totfact> 0.26227092E+01</totfact>
</mgrwt>
</event>
<event>
 6    1  0.1431486E-005  0.1130985E+04  0.7818608E-02  0.9436863E-01
         21   -1    0    0  501  502  0.00000000000E+00  0.00000000000E+00  0.24559229914E+03  0.24559229914E+03  0.00000000000E+00 0.  1.
          4   -1    0    0  502    0 -0.00000000000E+00 -0.00000000000E+00 -0.25123577020E+04  0.25123577020E+04  0.00000000000E+00 0.  1.
    9000010    2    1    2  501    0  0.27453849610E+02  0.43484799265E+03 -0.17251175591E+04  0.20628033344E+04  0.10436860221E+04 0.  0.
        -13    1    3    3    0    0 -0.31435502636E+03  0.58503588044E+03 -0.14628152257E+04  0.16065224741E+04  0.10566000000E+00 0.  1.
          4    1    3    3  501    0  0.34180887597E+03 -0.15018788779E+03 -0.26230233345E+03  0.45628086029E+03  0.00000000000E+00 0.  1.
         13    1    1    2    0    0 -0.27453849610E+02 -0.43484799265E+03 -0.54164784371E+03  0.69514666677E+03  0.10566000000E+00 0. -1.
<mgrwt>
<rscale>  1 0.89103139E+03</rscale>
<asrwt>0</asrwt>
<pdfrwt beam="1">  1       21 0.37783430E-01 0.11309850E+04</pdfrwt>
<pdfrwt beam="2">  1        4 0.38651658E+00 0.11309850E+04</pdfrwt>
<totfact> 0.22987405E+00</totfact>
</mgrwt>
</event>
<event>
 6    1  0.1431486E-005  0.1008786E+04  0.7818608E-02  0.1012748E+00
         21   -1    0    0  501  502  0.00000000000E+00  0.00000000000E+00  0.85857212822E+03  0.85857212822E+03  0.00000000000E+00 0.  1.
          4   -1    0    0  502    0 -0.00000000000E+00 -0.00000000000E+00 -0.42171885896E+03  0.42171885896E+03  0.00000000000E+00 0.  1.
    9000010    2    1    2  501    0 -0.19094700744E+01 -0.62808812821E+02  0.55139421020E+03  0.11496455458E+04  0.10068270521E+04 0.  0.
        -13    1    3    3    0    0  0.33392245716E+03 -0.40694115573E+03  0.31979636524E+03  0.61593428059E+03  0.10566000000E+00 0.  1.
          4    1    3    3  501    0 -0.33583192724E+03  0.34413234291E+03  0.23159784496E+03  0.53371126518E+03  0.00000000000E+00 0.  1.
         13    1    1    2    0    0  0.19094700744E+01  0.62808812821E+02 -0.11454094095E+03  0.13064544141E+03  0.10566000000E+00 0. -1.
<mgrwt>
<rscale>  1 0.50397008E+03</rscale>
<asrwt>0</asrwt>
<pdfrwt beam="1">  1       21 0.13208802E+00 0.10087861E+04</pdfrwt>
<pdfrwt beam="2">  1        4 0.64879825E-01 0.10087861E+04</pdfrwt>
<totfact> 0.33668947E+01</totfact>
</mgrwt>
</event>
<event>
 6    1  0.1431486E-005  0.1049874E+04  0.7818608E-02  0.9640165E-01
         21   -1    0    0  501  502  0.00000000000E+00  0.00000000000E+00  0.28495492035E+03  0.28495492035E+03  0.00000000000E+00 0.  1.
          4   -1    0    0  502    0 -0.00000000000E+00 -0.00000000000E+00 -0.18196556292E+04  0.18196556292E+04  0.00000000000E+00 0.  1.
    9000010    2    1    2  501    0 -0.13750805688E+02 -0.26863440057E+03 -0.79319505388E+03  0.13158240300E+04  0.10148305074E+04 0.  0.
        -13    1    3    3    0    0  0.25780103400E+03  0.14451559793E+02  0.14697117409E+03  0.29710395132E+03  0.10566000000E+00 0.  1.
          4    1    3    3  501    0 -0.27155183968E+03 -0.28308596037E+03 -0.94016622797E+03  0.10187200787E+04  0.00000000000E+00 0.  1.
         13    1    1    2    0    0  0.13750805688E+02  0.26863440057E+03 -0.74150565498E+03  0.78878651951E+03  0.10566000000E+00 0. -1.
<mgrwt>
<rscale>  1 0.74693914E+03</rscale>
<asrwt>0</asrwt>
<pdfrwt beam="1">  1       21 0.43839219E-01 0.10498736E+04</pdfrwt>
<pdfrwt beam="2">  1        4 0.27994701E+00 0.10498736E+04</pdfrwt>
<totfact> 0.81896911E+00</totfact>
</mgrwt>
</event>
<event>
 6    1  0.1431486E-005  0.1025779E+04  0.7818608E-02  0.9685684E-01
          4   -1    0    0  502    0 -0.00000000000E+00  0.00000000000E+00  0.53876276711E+03  0.53876276711E+03  0.00000000000E+00 0.  1.
         21   -1    0    0  501  502  0.00000000000E+00 -0.00000000000E+00 -0.11127129969E+04  0.11127129969E+04  0.00000000000E+00 0.  1.
    9000010    2    1    2  501    0 -0.12197431053E+03 -0.21508785513E+03 -0.81198098193E+03  0.13082569300E+04  0.99553129641E+03 0.  0.
        -13    1    3    3    0    0  0.28878525426E+03  0.90054849374E+01  0.81040589867E+02  0.30007600738E+03  0.10566000000E+00 0.  1.
          4    1    3    3  501    0 -0.41075956478E+03 -0.22409334007E+03 -0.89302157180E+03  0.10081809227E+04  0.00000000000E+00 0.  1.
         13    1    1    2    0    0  0.12197431053E+03  0.21508785513E+03  0.23803075215E+03  0.34321883396E+03  0.10566000000E+00 0. -1.
<mgrwt>
<rscale>  1 0.71875617E+03</rscale>
<asrwt>0</asrwt>
<pdfrwt beam="2">  1       21 0.17118661E+00 0.10257793E+04</pdfrwt>
<pdfrwt beam="1">  1        4 0.82886580E-01 0.10257793E+04</pdfrwt>
<totfact> 0.93547162E+00</totfact>
</mgrwt>
</event>
<event>
 6    1  0.1431486E-005  0.1093463E+04  0.7818608E-02  0.9855477E-01
         21   -1    0    0  501  502  0.00000000000E+00  0.00000000000E+00  0.67095254467E+03  0.67095254467E+03  0.00000000000E+00 0.  1.
          4   -1    0    0  502    0 -0.00000000000E+00 -0.00000000000E+00 -0.70615991764E+03  0.70615991764E+03  0.00000000000E+00 0.  1.
    9000010    2    1    2  501    0  0.10221330575E+03 -0.55845377580E+02  0.20282209616E+03  0.11121137729E+04  0.10872414520E+04 0.  0.
        -13    1    3    3    0    0  0.56697689518E+03 -0.66373069563E+02  0.28817087149E+03  0.63946121569E+03  0.10566000000E+00 0.  1.
          4    1    3    3  501    0 -0.46476358943E+03  0.10527691983E+02 -0.85348775329E+02  0.47265255718E+03  0.00000000000E+00 0.  1.
         13    1    1    2    0    0 -0.10221330575E+03  0.55845377580E+02 -0.23802946913E+03  0.26499868945E+03  0.10566000000E+00 0. -1.
<mgrwt>
<rscale>  1 0.62468418E+03</rscale>
<asrwt>0</asrwt>
<pdfrwt beam="1">  1       21 0.10322347E+00 0.10934625E+04</pdfrwt>
<pdfrwt beam="2">  1        4 0.10863999E+00 0.10934625E+04</pdfrwt>
<totfact> 0.19025053E+01</totfact>
</mgrwt>
</event>
<event>
 6    1  0.1431486E-005  0.1056571E+04  0.7818608E-02  0.9577357E-01
          4   -1    0    0  502    0 -0.00000000000E+00  0.00000000000E+00  0.12837048518E+04  0.12837048518E+04  0.00000000000E+00 0.  1.
         21   -1    0    0  501  502  0.00000000000E+00 -0.00000000000E+00 -0.10287670466E+04  0.10287670466E+04  0.00000000000E+00 0.  1.
    9000010    2    1    2  501    0  0.89171845066E+02  0.31472379795E+03 -0.72366968459E+03  0.12806408477E+04  0.10046593857E+04 0.  0.
        -13    1    3    3    0    0  0.13463565054E+03  0.46307047719E+03 -0.91500067823E+03  0.10343052149E+04  0.10566000000E+00 0.  1.
          4    1    3    3  501    0 -0.45463805479E+02 -0.14834667924E+03  0.19133099363E+03  0.24633563277E+03  0.00000000000E+00 0.  1.
         13    1    1    2    0    0 -0.89171845066E+02 -0.31472379795E+03  0.97860748980E+03  0.10318310507E+04  0.10566000000E+00 0. -1.
<mgrwt>
<rscale>  1 0.78813114E+03</rscale>
<asrwt>0</asrwt>
<pdfrwt beam="2">  1       21 0.15827185E+00 0.10565714E+04</pdfrwt>
<pdfrwt beam="1">  1        4 0.19749306E+00 0.10565714E+04</pdfrwt>
<totfact> 0.12265457E+00</totfact>
</mgrwt>
</event>
<event>
 6    1  0.1431486E-005  0.1029301E+04  0.7818608E-02  0.9680909E-01
         21   -1    0    0  501  502  0.00000000000E+00  0.00000000000E+00  0.36052124302E+03  0.36052124302E+03  0.00000000000E+00 0.  1.
          4   -1    0    0  502    0 -0.00000000000E+00 -0.00000000000E+00 -0.11509816069E+04  0.11509816069E+04  0.00000000000E+00 0.  1.
    9000010    2    1    2  501    0  0.24426898007E+03  0.46739882099E+02 -0.70878360871E+03  0.12497337633E+04  0.99880344611E+03 0.  0.
        -13    1    3    3    0    0 -0.35431305563E+03 -0.14268303392E+03 -0.15379403124E+03  0.41176304444E+03  0.10566000000E+00 0.  1.
          4    1    3    3  501    0  0.59858203570E+03  0.18942291602E+03 -0.55498957747E+03  0.83797071886E+03  0.00000000000E+00 0.  1.
         13    1    1    2    0    0 -0.24426898007E+03 -0.46739882099E+02 -0.81676755172E+02  0.26176908660E+03  0.10566000000E+00 0. -1.
<mgrwt>
<rscale>  1 0.72164897E+03</rscale>
<asrwt>0</asrwt>
<pdfrwt beam="1">  1       21 0.55464806E-01 0.10293009E+04</pdfrwt>
<pdfrwt beam="2">  1        4 0.17707409E+00 0.10293009E+04</pdfrwt>
<totfact> 0.22539637E+01</totfact>
</mgrwt>
</event>
<event>
 6    1  0.1431486E-005  0.1024875E+04  0.7818608E-02  0.9672564E-01
         21   -1    0    0  501  502  0.00000000000E+00  0.00000000000E+00  0.39484428511E+03  0.39484428511E+03  0.00000000000E+00 0.  1.
          4   -1    0    0  502    0 -0.00000000000E+00 -0.00000000000E+00 -0.10527363997E+04  0.10527363997E+04  0.00000000000E+00 0.  1.
    9000010    2    1    2  501    0  0.19175371413E+03 -0.17428397510E+03 -0.46999997139E+03  0.11275059131E+04  0.99157713772E+03 0.  0.
        -13    1    3    3    0    0  0.93095652282E+02  0.40213753339E+03 -0.69188524381E+02  0.41853131221E+03  0.10566000000E+00 0.  1.
          4    1    3    3  501    0  0.98658061849E+02 -0.57642150849E+03 -0.40081144701E+03  0.70897460086E+03  0.00000000000E+00 0.  1.
         13    1    1    2    0    0 -0.19175371413E+03  0.17428397510E+03 -0.18789214317E+03  0.32007477171E+03  0.10566000000E+00 0. -1.
<mgrwt>
<rscale>  1 0.72674078E+03</rscale>
<asrwt>0</asrwt>
<pdfrwt beam="1">  1       21 0.60745274E-01 0.10248754E+04</pdfrwt>
<pdfrwt beam="2">  1        4 0.16195945E+00 0.10248754E+04</pdfrwt>
<totfact> 0.23696977E+01</totfact>
</mgrwt>
</event>
<event>
 6    1  0.1431486E-005  0.1010950E+04  0.7818608E-02  0.9758864E-01
         21   -1    0    0  501  502  0.00000000000E+00  0.00000000000E+00  0.62384030437E+03  0.62384030437E+03  0.00000000000E+00 0.  1.
          4   -1    0    0  502    0 -0.00000000000E+00 -0.00000000000E+00 -0.61539278555E+03  0.61539278555E+03  0.00000000000E+00 0.  1.
    9000010    2    1    2  501    0 -0.18316635638E+03 -0.85940198277E+02  0.10246615816E+03  0.10161296442E+04  0.99049710168E+03 0.  0.
        -13    1    3    3    0    0 -0.46615838878E+03  0.11625095671E+03 -0.23207365865E+03  0.53355048737E+03  0.10566000000E+00 0.  1.
          4    1    3    3  501    0  0.28299203240E+03 -0.20219115499E+03  0.33453981682E+03  0.48257915682E+03  0.00000000000E+00 0.  1.
         13    1    1    2    0    0  0.18316635638E+03  0.85940198277E+02 -0.94018639351E+02  0.22310344574E+03  0.10566000000E+00 0. -1.
<mgrwt>
<rscale>  1 0.67617638E+03</rscale>
<asrwt>0</asrwt>
<pdfrwt beam="1">  1       21 0.95975431E-01 0.10109501E+04</pdfrwt>
<pdfrwt beam="2">  1        4 0.94675813E-01 0.10109501E+04</pdfrwt>
<totfact> 0.32040931E+01</totfact>
</mgrwt>
</event>
<event>
 6    1  0.1431486E-005  0.1131129E+04  0.7818608E-02  0.9310663E-01
          4   -1    0    0  502    0 -0.00000000000E+00  0.00000000000E+00  0.64499473185E+03  0.64499473185E+03  0.00000000000E+00 0.  1.
         21   -1    0    0  501  502  0.00000000000E+00 -0.00000000000E+00 -0.13179533411E+04  0.13179533411E+04  0.00000000000E+00 0. -1.
    9000010    2    1    2  501    0 -0.57485889291E+03  0.37372188850E+03 -0.25359336605E+03  0.11592080559E+04  0.89962376846E+03 0.  0.
        -13    1    3    3    0    0 -0.12535643425E+03  0.10319767805E+03 -0.53833448207E+03  0.56228820201E+03  0.10566000000E+00 0.  1.
          4    1    3    3  501    0 -0.44950245866E+03  0.27052421046E+03  0.28474111602E+03  0.59691985386E+03  0.00000000000E+00 0.  1.
         13    1    1    2    0    0  0.57485889291E+03 -0.37372188850E+03 -0.41936524319E+03  0.80374001708E+03  0.10566000000E+00 0. -1.
<mgrwt>
<rscale>  1 0.99807140E+03</rscale>
<asrwt>0</asrwt>
<pdfrwt beam="2">  1       21 0.20276205E+00 0.11311294E+04</pdfrwt>
<pdfrwt beam="1">  1        4 0.99229961E-01 0.11311294E+04</pdfrwt>
<totfact> 0.35912027E+00</totfact>
</mgrwt>
</event>
<event>
 6    1  0.1431486E-005  0.1009126E+04  0.7818608E-02  0.1012538E+00
          4   -1    0    0  502    0 -0.00000000000E+00  0.00000000000E+00  0.20666865153E+03  0.20666865153E+03  0.00000000000E+00 0.  1.
         21   -1    0    0  501  502  0.00000000000E+00 -0.00000000000E+00 -0.18512152121E+04  0.18512152121E+04  0.00000000000E+00 0.  1.
    9000010    2    1    2  501    0  0.57441632224E+02 -0.26310758371E+02 -0.16979291914E+04  0.19751704211E+04  0.10071458963E+04 0.  0.
        -13    1    3    3    0    0  0.22432716888E+03 -0.10186544458E+03 -0.17634775958E+04  0.17806045293E+04  0.10566000000E+00 0.  1.
          4    1    3    3  501    0 -0.16688553666E+03  0.75554686207E+02  0.65548404420E+02  0.19456589186E+03  0.00000000000E+00 0.  1.
         13    1    1    2    0    0 -0.57441632224E+02  0.26310758371E+02  0.53382630881E+02  0.82713442453E+02  0.10566000000E+00 0. -1.
<mgrwt>
<rscale>  1 0.50478351E+03</rscale>
<asrwt>0</asrwt>
<pdfrwt beam="2">  1       21 0.28480234E+00 0.10091257E+04</pdfrwt>
<pdfrwt beam="1">  1        4 0.31795177E-01 0.10091257E+04</pdfrwt>
<totfact> 0.12710871E+01</totfact>
</mgrwt>
</event>
<event>
 6    1  0.1431486E-005  0.9973044E+03  0.7818608E-02  0.9577099E-01
          4   -1    0    0  502    0 -0.00000000000E+00  0.00000000000E+00  0.10187921876E+04  0.10187921876E+04  0.00000000000E+00 0.  1.
         21   -1    0    0  501  502  0.00000000000E+00 -0.00000000000E+00 -0.56377458142E+03  0.56377458142E+03  0.00000000000E+00 0.  1.
    9000010    2    1    2  501    0  0.30660143304E+03  0.23991443244E+03  0.18241367440E+02  0.99747116355E+03  0.91817895913E+03 0.  0.
        -13    1    3    3    0    0  0.53103538676E+03  0.42857247518E+03  0.10788883131E+03  0.69087839708E+03  0.10566000000E+00 0.  1.
          4    1    3    3  501    0 -0.22443395371E+03 -0.18865804275E+03 -0.89647463870E+02  0.30659276647E+03  0.00000000000E+00 0.  1.
         13    1    1    2    0    0 -0.30660143304E+03 -0.23991443244E+03  0.43677623873E+03  0.58509560545E+03  0.10566000000E+00 0. -1.
<mgrwt>
<rscale>  1 0.78830644E+03</rscale>
<asrwt>0</asrwt>
<pdfrwt beam="2">  1       21 0.86734551E-01 0.99730435E+03</pdfrwt>
<pdfrwt beam="1">  1        4 0.15673726E+00 0.99730435E+03</pdfrwt>
<totfact> 0.11422311E+01</totfact>
</mgrwt>
</event>
<event>
 6    1  0.1431486E-005  0.9899445E+03  0.7818608E-02  0.1013213E+00
         21   -1    0    0  501  502  0.00000000000E+00  0.00000000000E+00  0.11684922340E+04  0.11684922340E+04  0.00000000000E+00 0.  1.
          4   -1    0    0  502    0 -0.00000000000E+00 -0.00000000000E+00 -0.25145202417E+03  0.25145202417E+03  0.00000000000E+00 0.  1.
    9000010    2    1    2  501    0 -0.59387435799E+02 -0.27754027765E+02  0.92381803105E+03  0.13540420305E+04  0.98777169029E+03 0.  0.
        -13    1    3    3    0    0  0.16556744485E+03 -0.31371027719E+03  0.92449047415E+03  0.99020672830E+03  0.10566000000E+00 0.  1.
          4    1    3    3  501    0 -0.22495488065E+03  0.28595624943E+03 -0.67244309433E+00  0.36383530215E+03  0.00000000000E+00 0.  1.
         13    1    1    2    0    0  0.59387435799E+02  0.27754027765E+02 -0.67778212703E+01  0.65902227680E+02  0.10566000000E+00 0. -1.
<mgrwt>
<rscale>  1 0.50217591E+03</rscale>
<asrwt>0</asrwt>
<pdfrwt beam="1">  1       21 0.17976803E+00 0.98994448E+03</pdfrwt>
<pdfrwt beam="2">  1        4 0.38684927E-01 0.98994448E+03</pdfrwt>
<totfact> 0.42161365E+01</totfact>
</mgrwt>
</event>
<event>
 6    1  0.1431486E-005  0.9638054E+03  0.7818608E-02  0.9736052E-01
          4   -1    0    0  502    0 -0.00000000000E+00  0.00000000000E+00  0.63463396773E+03  0.63463396773E+03  0.00000000000E+00 0.  1.
         21   -1    0    0  501  502  0.00000000000E+00 -0.00000000000E+00 -0.12865023341E+04  0.12865023341E+04  0.00000000000E+00 0.  1.
    9000010    2    1    2  501    0 -0.22489759308E+03  0.11338830604E+03 -0.10655753069E+04  0.14367921275E+04  0.93031448866E+03 0.  0.
        -13    1    3    3    0    0  0.62795435024E+02  0.21923143010E+03  0.87051982233E+02  0.24409781928E+03  0.10566000000E+00 0.  1.
          4    1    3    3  501    0 -0.28769302811E+03 -0.10584312406E+03 -0.11526272891E+04  0.11926943083E+04  0.00000000000E+00 0.  1.
         13    1    1    2    0    0  0.22489759308E+03 -0.11338830604E+03  0.41370694055E+03  0.48434417426E+03  0.10566000000E+00 0. -1.
<mgrwt>
<rscale>  1 0.68910256E+03</rscale>
<asrwt>0</asrwt>
<pdfrwt beam="2">  1       21 0.19792343E+00 0.96380542E+03</pdfrwt>
<pdfrwt beam="1">  1        4 0.97635996E-01 0.96380542E+03</pdfrwt>
<totfact> 0.41293901E+00</totfact>
</mgrwt>
</event>
<event>
 6    1  0.1431486E-005  0.1164927E+04  0.7818608E-02  0.9311948E-01
         21   -1    0    0  501  502  0.00000000000E+00  0.00000000000E+00  0.92156323536E+03  0.92156323536E+03  0.00000000000E+00 0. -1.
          4   -1    0    0  502    0 -0.00000000000E+00 -0.00000000000E+00 -0.96132794940E+03  0.96132794940E+03  0.00000000000E+00 0.  1.
    9000010    2    1    2  501    0  0.22644746291E+03  0.58228108605E+03  0.25433334339E+03  0.11923671843E+04  0.98322140745E+03 0.  0.
        -13    1    3    3    0    0 -0.31170686800E+03  0.28423329740E+03 -0.15945767675E+03  0.45097283815E+03  0.10566000000E+00 0.  1.
          4    1    3    3  501    0  0.53815433090E+03  0.29804778865E+03  0.41379102014E+03  0.74139434617E+03  0.00000000000E+00 0.  1.
         13    1    1    2    0    0 -0.22644746291E+03 -0.58228108605E+03 -0.29409805743E+03  0.69052400043E+03  0.10566000000E+00 0. -1.
<mgrwt>
<rscale>  1 0.99690296E+03</rscale>
<asrwt>0</asrwt>
<pdfrwt beam="1">  1       21 0.14177896E+00 0.11649266E+04</pdfrwt>
<pdfrwt beam="2">  1        4 0.14789661E+00 0.11649266E+04</pdfrwt>
<totfact> 0.37379772E+00</totfact>
</mgrwt>
</event>
<event>
 6    1  0.1431486E-005  0.1044942E+04  0.7818608E-02  0.9627356E-01
         21   -1    0    0  501  502  0.00000000000E+00  0.00000000000E+00  0.11861528968E+04  0.11861528968E+04  0.00000000000E+00 0.  1.
          4   -1    0    0  502    0 -0.00000000000E+00 -0.00000000000E+00 -0.40717146584E+03  0.40717146584E+03  0.00000000000E+00 0.  1.
    9000010    2    1    2  501    0 -0.25312957980E+03 -0.13086966229E+03  0.78715321255E+03  0.13082485098E+04  0.10053370234E+04 0.  0.
        -13    1    3    3    0    0 -0.10538272684E+02  0.40128630548E+03  0.11561817772E+03  0.41774313680E+03  0.10566000000E+00 0.  1.
          4    1    3    3  501    0 -0.24259130712E+03 -0.53215596777E+03  0.67153503483E+03  0.89050537299E+03  0.00000000000E+00 0.  1.
         13    1    1    2    0    0  0.25312957980E+03  0.13086966229E+03 -0.81717816262E+01  0.28507585281E+03  0.10566000000E+00 0. -1.
<mgrwt>
<rscale>  1 0.75511770E+03</rscale>
<asrwt>0</asrwt>
<pdfrwt beam="1">  1       21 0.18248506E+00 0.10449421E+04</pdfrwt>
<pdfrwt beam="2">  1        4 0.62641764E-01 0.10449421E+04</pdfrwt>
<totfact> 0.14495287E+01</totfact>
</mgrwt>
</event>
<event>
 6    1  0.1431486E-005  0.1048486E+04  0.7818608E-02  0.9633751E-01
          4   -1    0    0  502    0 -0.00000000000E+00  0.00000000000E+00  0.48145676419E+03  0.48145676419E+03  0.00000000000E+00 0.  1.
         21   -1    0    0  501  502  0.00000000000E+00 -0.00000000000E+00 -0.13379719167E+04  0.13379719167E+04  0.00000000000E+00 0.  1.
    9000010    2    1    2  501    0 -0.24155708732E+03  0.13352750985E+03 -0.10488321890E+04  0.14830282111E+04  0.10115059525E+04 0.  0.
        -13    1    3    3    0    0  0.13958632342E+03  0.19945215084E+03  0.10571636409E+03  0.26540810643E+03  0.10566000000E+00 0.  1.
          4    1    3    3  501    0 -0.38114341074E+03 -0.65924640994E+02 -0.11545485531E+04  0.12176201047E+04  0.00000000000E+00 0.  1.
         13    1    1    2    0    0  0.24155708732E+03 -0.13352750985E+03  0.19231703655E+03  0.33640046973E+03  0.10566000000E+00 0. -1.
<mgrwt>
<rscale>  1 0.75102054E+03</rscale>
<asrwt>0</asrwt>
<pdfrwt beam="2">  1       21 0.20584183E+00 0.10484864E+04</pdfrwt>
<pdfrwt beam="1">  1        4 0.74070273E-01 0.10484864E+04</pdfrwt>
<totfact> 0.68454631E+00</totfact>
</mgrwt>
</event>
<event>
 6    1  0.1431486E-005  0.1043439E+04  0.7818608E-02  0.9628788E-01
         21   -1    0    0  501  502  0.00000000000E+00  0.00000000000E+00  0.11208950077E+04  0.11208950077E+04  0.00000000000E+00 0.  1.
          4   -1    0    0  502    0 -0.00000000000E+00 -0.00000000000E+00 -0.42897200705E+03  0.42897200705E+03  0.00000000000E+00 0.  1.
    9000010    2    1    2  501    0  0.14709089983E+03 -0.24387529854E+03  0.71379878368E+03  0.12642283355E+04  0.10038195488E+04 0.  0.
        -13    1    3    3    0    0  0.22836819685E+03  0.36173968610E+03  0.23612667737E+03  0.48863427301E+03  0.10566000000E+00 0.  1.
          4    1    3    3  501    0 -0.81277297014E+02 -0.60561498463E+03  0.47767210631E+03  0.77559406249E+03  0.00000000000E+00 0.  1.
         13    1    1    2    0    0 -0.14709089983E+03  0.24387529854E+03 -0.21875783009E+02  0.28563867927E+03  0.10566000000E+00 0. -1.
<mgrwt>
<rscale>  1 0.75419761E+03</rscale>
<asrwt>0</asrwt>
<pdfrwt beam="1">  1       21 0.17244538E+00 0.10434388E+04</pdfrwt>
<pdfrwt beam="2">  1        4 0.65995694E-01 0.10434388E+04</pdfrwt>
<totfact> 0.15306414E+01</totfact>
</mgrwt>
</event>
<event>
 6    1  0.1431486E-005  0.1117558E+04  0.7818608E-02  0.9386209E-01
         21   -1    0    0  501  502  0.00000000000E+00  0.00000000000E+00  0.96771008096E+03  0.96771008096E+03  0.00000000000E+00 0.  1.
          4   -1    0    0  502    0 -0.00000000000E+00 -0.00000000000E+00 -0.72706944737E+03  0.72706944737E+03  0.00000000000E+00 0.  1.
    9000010    2    1    2  501    0  0.35625419329E+03  0.40716775798E+03  0.41680128702E+02  0.11183353185E+04  0.97787218904E+03 0.  0.
        -13    1    3    3    0    0 -0.19223795029E+03  0.14554296940E+03  0.35925134524E+03  0.43266583607E+03  0.10566000000E+00 0.  1.
          4    1    3    3  501    0  0.54849214358E+03  0.26162478857E+03 -0.31757121654E+03  0.68566948243E+03  0.00000000000E+00 0.  1.
         13    1    1    2    0    0 -0.35625419329E+03 -0.40716775798E+03  0.19896050490E+03  0.57644420983E+03  0.10566000000E+00 0. -1.
<mgrwt>
<rscale>  1 0.93219343E+03</rscale>
<asrwt>0</asrwt>
<pdfrwt beam="1">  1       21 0.14887847E+00 0.11175583E+04</pdfrwt>
<pdfrwt beam="2">  1        4 0.11185684E+00 0.11175583E+04</pdfrwt>
<totfact> 0.67338565E+00</totfact>
</mgrwt>
</event>
<event>
 6    1  0.1431486E-005  0.1162211E+04  0.7818608E-02  0.9330339E-01
          4   -1    0    0  502    0 -0.00000000000E+00  0.00000000000E+00  0.21424080869E+04  0.21424080869E+04  0.00000000000E+00 0.  1.
         21   -1    0    0  501  502  0.00000000000E+00 -0.00000000000E+00 -0.40309151143E+03  0.40309151143E+03  0.00000000000E+00 0.  1.
    9000010    2    1    2  501    0  0.57695753113E+03  0.11572291314E+03  0.71601454655E+03  0.13650679659E+04  0.10022284845E+04 0.  0.
        -13    1    3    3    0    0 -0.34716527626E+02  0.13767293835E+03 -0.21093830045E+03  0.25427161266E+03  0.10566000000E+00 0.  1.
          4    1    3    3  501    0  0.61167405876E+03 -0.21950025211E+02  0.92695284700E+03  0.11107963532E+04  0.00000000000E+00 0.  1.
         13    1    1    2    0    0 -0.57695753113E+03 -0.11572291314E+03  0.10233020289E+04  0.11804316324E+04  0.10566000000E+00 0. -1.
<mgrwt>
<rscale>  1 0.98037176E+03</rscale>
<asrwt>0</asrwt>
<pdfrwt beam="2">  1       21 0.62014080E-01 0.11622107E+04</pdfrwt>
<pdfrwt beam="1">  1        4 0.32960124E+00 0.11622107E+04</pdfrwt>
<totfact> 0.18551669E+00</totfact>
</mgrwt>
</event>
<event>
 6    1  0.1431486E-005  0.1211435E+04  0.7818608E-02  0.9262052E-01
         21   -1    0    0  501  502  0.00000000000E+00  0.00000000000E+00  0.10313887423E+04  0.10313887423E+04  0.00000000000E+00 0.  1.
          4   -1    0    0  502    0 -0.00000000000E+00 -0.00000000000E+00 -0.87117165774E+03  0.87117165774E+03  0.00000000000E+00 0.  1.
    9000010    2    1    2  501    0 -0.35513881709E+03 -0.56457316230E+03 -0.20213757026E+02  0.12116032850E+04  0.10112900124E+04 0.  0.
        -13    1    3    3    0    0 -0.41733991639E+03  0.12484565856E+03 -0.22424168090E+03  0.48994222812E+03  0.10566000000E+00 0.  1.
          4    1    3    3  501    0  0.62201099297E+02 -0.68941882086E+03  0.20402792387E+03  0.72166105689E+03  0.00000000000E+00 0.  1.
         13    1    1    2    0    0  0.35513881709E+03  0.56457316230E+03  0.18043084154E+03  0.69095711498E+03  0.10566000000E+00 0. -1.
<mgrwt>
<rscale>  1 0.10435272E+04</rscale>
<asrwt>0</asrwt>
<pdfrwt beam="1">  1       21 0.15867519E+00 0.12114347E+04</pdfrwt>
<pdfrwt beam="2">  1        4 0.13402641E+00 0.12114347E+04</pdfrwt>
<totfact> 0.35175020E+00</totfact>
</mgrwt>
</event>
<event>
 6    1  0.1431486E-005  0.1052083E+04  0.7818608E-02  0.9556919E-01
          4   -1    0    0  502    0 -0.00000000000E+00  0.00000000000E+00  0.11014963442E+04  0.11014963442E+04  0.00000000000E+00 0.  1.
         21   -1    0    0  501  502  0.00000000000E+00 -0.00000000000E+00 -0.45974909021E+03  0.45974909021E+03  0.00000000000E+00 0.  1.
    9000010    2    1    2  501    0 -0.98598743464E+02 -0.34156948971E+03  0.37550239301E+03  0.11170858171E+04  0.99019556000E+03 0.  0.
        -13    1    3    3    0    0 -0.61988149613E+02  0.99747713897E+02 -0.29274754679E+03  0.31542554500E+03  0.10566000000E+00 0.  1.
          4    1    3    3  501    0 -0.36610593851E+02 -0.44131720361E+03  0.66824993980E+03  0.80166027208E+03  0.00000000000E+00 0.  1.
         13    1    1    2    0    0  0.98598743464E+02  0.34156948971E+03  0.26624486098E+03  0.44415961734E+03  0.10566000000E+00 0. -1.
<mgrwt>
<rscale>  1 0.80214377E+03</rscale>
<asrwt>0</asrwt>
<pdfrwt beam="2">  1       21 0.70730629E-01 0.10520830E+04</pdfrwt>
<pdfrwt beam="1">  1        4 0.16946098E+00 0.10520830E+04</pdfrwt>
<totfact> 0.14752922E+01</totfact>
</mgrwt>
</event>
<event>
 6    1  0.1431486E-005  0.1091550E+04  0.7818608E-02  0.9417265E-01
          4   -1    0    0  502    0 -0.00000000000E+00  0.00000000000E+00  0.62696570813E+03  0.62696570813E+03  0.00000000000E+00 0.  1.
         21   -1    0    0  501  502  0.00000000000E+00 -0.00000000000E+00 -0.11052137136E+04  0.11052137136E+04  0.00000000000E+00 0. -1.
    9000010    2    1    2  501    0  0.31066644000E+03 -0.41653154294E+03 -0.11375639673E+03  0.10974619198E+04  0.95993228118E+03 0.  0.
        -13    1    3    3    0    0  0.61771049497E+03 -0.33148475813E+03 -0.25895285641E+03  0.74733191654E+03  0.10566000000E+00 0.  1.
          4    1    3    3  501    0 -0.30704405497E+03 -0.85046784810E+02  0.14519645969E+03  0.35013000329E+03  0.00000000000E+00 0.  1.
         13    1    1    2    0    0 -0.31066644000E+03  0.41653154294E+03 -0.36449160871E+03  0.63471750188E+03  0.10566000000E+00 0. -1.
<mgrwt>
<rscale>  1 0.90668368E+03</rscale>
<asrwt>0</asrwt>
<pdfrwt beam="2">  1       21 0.17003288E+00 0.10915503E+04</pdfrwt>
<pdfrwt beam="1">  1        4 0.96456264E-01 0.10915503E+04</pdfrwt>
<totfact> 0.66265349E+00</totfact>
</mgrwt>
</event>
<event>
 6    1  0.1431486E-005  0.1020078E+04  0.7818608E-02  0.9799137E-01
         21   -1    0    0  501  502  0.00000000000E+00  0.00000000000E+00  0.38928637301E+03  0.38928637301E+03  0.00000000000E+00 0.  1.
          4   -1    0    0  502    0 -0.00000000000E+00 -0.00000000000E+00 -0.95664506666E+03  0.95664506666E+03  0.00000000000E+00 0.  1.
    9000010    2    1    2  501    0  0.11446017477E+03  0.12897935996E+03 -0.37308322916E+03  0.10861627461E+04  0.10053962444E+04 0.  0.
        -13    1    3    3    0    0 -0.20421237591E+03 -0.34030705206E+03  0.17791636889E+02  0.39727589616E+03  0.10566000000E+00 0.  1.
          4    1    3    3  501    0  0.31867255069E+03  0.46928641203E+03 -0.39087486605E+03  0.68888684991E+03  0.00000000000E+00 0.  1.
         13    1    1    2    0    0 -0.11446017477E+03 -0.12897935996E+03 -0.19427546450E+03  0.25976869360E+03  0.10566000000E+00 0. -1.
<mgrwt>
<rscale>  1 0.65408884E+03</rscale>
<asrwt>0</asrwt>
<pdfrwt beam="1">  1       21 0.59890211E-01 0.10200777E+04</pdfrwt>
<pdfrwt beam="2">  1        4 0.14717616E+00 0.10200777E+04</pdfrwt>
<totfact> 0.31735774E+01</totfact>
</mgrwt>
</event>
<event>
 6    1  0.1431486E-005  0.9104748E+03  0.7818608E-02  0.1011521E+00
          4   -1    0    0  502    0 -0.00000000000E+00  0.00000000000E+00  0.48736768390E+03  0.48736768390E+03  0.00000000000E+00 0.  1.
         21   -1    0    0  501  502  0.00000000000E+00 -0.00000000000E+00 -0.59788923029E+03  0.59788923029E+03  0.00000000000E+00 0.  1.
    9000010    2    1    2  501    0 -0.88756781821E+02  0.37507608628E+00 -0.22745195888E+03  0.93845555340E+03  0.90613824835E+03 0.  0.
        -13    1    3    3    0    0 -0.36143410623E+03  0.22444169900E+03  0.12117538787E+03  0.44237108313E+03  0.10566000000E+00 0.  1.
          4    1    3    3  501    0  0.27267732440E+03 -0.22406662292E+03 -0.34862734675E+03  0.49608447028E+03  0.00000000000E+00 0.  1.
         13    1    1    2    0    0  0.88756781821E+02 -0.37507608628E+00  0.11693041249E+03  0.14680136079E+03  0.10566000000E+00 0. -1.
<mgrwt>
<rscale>  1 0.50874762E+03</rscale>
<asrwt>0</asrwt>
<pdfrwt beam="2">  1       21 0.91982958E-01 0.91047484E+03</pdfrwt>
<pdfrwt beam="1">  1        4 0.74979644E-01 0.91047484E+03</pdfrwt>
<totfact> 0.61591142E+01</totfact>
</mgrwt>
</event>
<event>
 6    1  0.1431486E-005  0.1339149E+04  0.7818608E-02  0.9107012E-01
         21   -1    0    0  501  502  0.00000000000E+00  0.00000000000E+00  0.14151962763E+04  0.14151962763E+04  0.00000000000E+00 0. -1.
          4   -1    0    0  502    0 -0.00000000000E+00 -0.00000000000E+00 -0.87226876038E+03  0.87226876038E+03  0.00000000000E+00 0.  1.
    9000010    2    1    2  501    0  0.34599305509E+03  0.81227697097E+03  0.31937847518E+03  0.13767075187E+04  0.10068842585E+04 0.  0.
        -13    1    3    3    0    0  0.23414261839E+03  0.22788842156E+03 -0.35155932721E+03  0.47994777856E+03  0.10566000000E+00 0.  1.
          4    1    3    3  501    0  0.11185043670E+03  0.58438854941E+03  0.67093780240E+03  0.89675974015E+03  0.00000000000E+00 0.  1.
         13    1    1    2    0    0 -0.34599305509E+03 -0.81227697097E+03  0.22354904072E+03  0.91075751795E+03  0.10566000000E+00 0. -1.
<mgrwt>
<rscale>  1 0.12066996E+04</rscale>
<asrwt>0</asrwt>
<pdfrwt beam="1">  1       21 0.21772250E+00 0.13391494E+04</pdfrwt>
<pdfrwt beam="2">  1        4 0.13419519E+00 0.13391494E+04</pdfrwt>
<totfact> 0.12991125E+00</totfact>
</mgrwt>
</event>
<event>
 6    1  0.1431486E-005  0.9701478E+03  0.7818608E-02  0.9888296E-01
         21   -1    0    0  501  502  0.00000000000E+00  0.00000000000E+00  0.55096486658E+03  0.55096486658E+03  0.00000000000E+00 0.  1.
          4   -1    0    0  502    0 -0.00000000000E+00 -0.00000000000E+00 -0.63798459081E+03  0.63798459081E+03  0.00000000000E+00 0.  1.
    9000010    2    1    2  501    0  0.14248001426E+03  0.46809379978E+02  0.68923893607E+02  0.97259304860E+03  0.95848581761E+03 0.  0.
        -13    1    3    3    0    0 -0.37893493634E+03  0.19699238409E+03  0.15578625282E+02  0.42736446985E+03  0.10566000000E+00 0.  1.
          4    1    3    3  501    0  0.52141495060E+03 -0.15018300411E+03  0.53345268325E+02  0.54522857875E+03  0.00000000000E+00 0.  1.
         13    1    1    2    0    0 -0.14248001426E+03 -0.46809379978E+02 -0.15594361783E+03  0.21635640879E+03  0.10566000000E+00 0. -1.
<mgrwt>
<rscale>  1 0.60831870E+03</rscale>
<asrwt>0</asrwt>
<pdfrwt beam="1">  1       21 0.84763825E-01 0.97014779E+03</pdfrwt>
<pdfrwt beam="2">  1        4 0.98151476E-01 0.97014779E+03</pdfrwt>
<totfact> 0.39828966E+01</totfact>
</mgrwt>
</event>
<event>
 6    1  0.1431486E-005  0.8508501E+03  0.7818608E-02  0.9754159E-01
          4   -1    0    0  502    0 -0.00000000000E+00  0.00000000000E+00  0.54902170754E+03  0.54902170754E+03  0.00000000000E+00 0.  1.
         21   -1    0    0  501  502  0.00000000000E+00 -0.00000000000E+00 -0.78565457640E+03  0.78565457640E+03  0.00000000000E+00 0.  1.
    9000010    2    1    2  501    0 -0.34188599763E+03 -0.44026820804E+02 -0.41487808177E+03  0.94660958424E+03  0.77789554948E+03 0.  0.
        -13    1    3    3    0    0 -0.66724535210E+02  0.13316114136E+01  0.23241008242E+03  0.24180238700E+03  0.10566000000E+00 0.  1.
          4    1    3    3  501    0 -0.27516146242E+03 -0.45358432217E+02 -0.64728816419E+03  0.70480719723E+03  0.00000000000E+00 0.  1.
         13    1    1    2    0    0  0.34188599763E+03  0.44026820804E+02  0.17824521291E+03  0.38806669970E+03  0.10566000000E+00 0. -1.
<mgrwt>
<rscale>  1 0.67881745E+03</rscale>
<asrwt>0</asrwt>
<pdfrwt beam="2">  1       21 0.12086993E+00 0.85085009E+03</pdfrwt>
<pdfrwt beam="1">  1        4 0.84464879E-01 0.85085009E+03</pdfrwt>
<totfact> 0.23816023E+01</totfact>
</mgrwt>
</event>
<event>
 6    1  0.1431486E-005  0.1332709E+04  0.7818608E-02  0.9119204E-01
          4   -1    0    0  502    0 -0.00000000000E+00  0.00000000000E+00  0.16805069268E+04  0.16805069268E+04  0.00000000000E+00 0.  1.
         21   -1    0    0  501  502  0.00000000000E+00 -0.00000000000E+00 -0.71512700984E+03  0.71512700984E+03  0.00000000000E+00 0. -1.
    9000010    2    1    2  501    0  0.81952441047E+03 -0.24416014011E+03  0.66394585512E+03  0.14889383217E+04  0.10221931294E+04 0.  0.
        -13    1    3    3    0    0  0.57019850585E+03 -0.51745284984E+03  0.49316679300E+02  0.77156719338E+03  0.10566000000E+00 0.  1.
          4    1    3    3  501    0  0.24932590462E+03  0.27329270972E+03  0.61462917582E+03  0.71737112827E+03  0.00000000000E+00 0.  1.
         13    1    1    2    0    0 -0.81952441047E+03  0.24416014011E+03  0.30143406180E+03  0.90669561494E+03  0.10566000000E+00 0. -1.
<mgrwt>
<rscale>  1 0.11927753E+04</rscale>
<asrwt>0</asrwt>
<pdfrwt beam="2">  1       21 0.11001954E+00 0.13327090E+04</pdfrwt>
<pdfrwt beam="1">  1        4 0.25853953E+00 0.13327090E+04</pdfrwt>
<totfact> 0.12806079E+00</totfact>
</mgrwt>
</event>
<event>
 6    1  0.1431486E-005  0.1013109E+04  0.7818608E-02  0.9842865E-01
          4   -1    0    0  502    0 -0.00000000000E+00  0.00000000000E+00  0.43085372615E+03  0.43085372615E+03  0.00000000000E+00 0.  1.
         21   -1    0    0  501  502  0.00000000000E+00 -0.00000000000E+00 -0.87337905330E+03  0.87337905330E+03  0.00000000000E+00 0.  1.
    9000010    2    1    2  501    0 -0.29391407101E+02 -0.14971633465E+03 -0.22377222515E+03  0.10375273868E+04  0.10015539096E+04 0.  0.
        -13    1    3    3    0    0  0.32778406053E+03 -0.24920464794E+03  0.21382968174E+03  0.46397035557E+03  0.10566000000E+00 0.  1.
          4    1    3    3  501    0 -0.35717546763E+03  0.99488313287E+02 -0.43760190689E+03  0.57355703123E+03  0.00000000000E+00 0.  1.
         13    1    1    2    0    0  0.29391407101E+02  0.14971633465E+03 -0.21875310199E+03  0.26670539265E+03  0.10566000000E+00 0. -1.
<mgrwt>
<rscale>  1 0.63112044E+03</rscale>
<asrwt>0</asrwt>
<pdfrwt beam="2">  1       21 0.13436601E+00 0.10131086E+04</pdfrwt>
<pdfrwt beam="1">  1        4 0.66285188E-01 0.10131086E+04</pdfrwt>
<totfact> 0.30662829E+01</totfact>
</mgrwt>
</event>
<event>
 6    1  0.1431486E-005  0.1000423E+04  0.7818608E-02  0.9909751E-01
          4   -1    0    0  502    0 -0.00000000000E+00  0.00000000000E+00  0.34841325531E+03  0.34841325531E+03  0.00000000000E+00 0.  1.
         21   -1    0    0  501  502  0.00000000000E+00 -0.00000000000E+00 -0.16718247582E+04  0.16718247582E+04  0.00000000000E+00 0.  1.
    9000010    2    1    2  501    0  0.12514886299E+03  0.25102997372E+02 -0.14995967654E+04  0.18026750197E+04  0.99224713137E+03 0.  0.
        -13    1    3    3    0    0  0.37415800973E+03  0.69853327171E+02 -0.15021926973E+04  0.15496633875E+04  0.10566000000E+00 0.  1.
          4    1    3    3  501    0 -0.24900914674E+03 -0.44750329800E+02  0.25959319556E+01  0.25301163222E+03  0.00000000000E+00 0.  1.
         13    1    1    2    0    0 -0.12514886299E+03 -0.25102997372E+02  0.17618526247E+03  0.21756299378E+03  0.10566000000E+00 0. -1.
<mgrwt>
<rscale>  1 0.59791027E+03</rscale>
<asrwt>0</asrwt>
<pdfrwt beam="2">  1       21 0.25720380E+00 0.10004233E+04</pdfrwt>
<pdfrwt beam="1">  1        4 0.53602040E-01 0.10004233E+04</pdfrwt>
<totfact> 0.64952771E+00</totfact>
</mgrwt>
</event>
<event>
 6    1  0.1431486E-005  0.1005979E+04  0.7818608E-02  0.9698958E-01
          4   -1    0    0  502    0 -0.00000000000E+00  0.00000000000E+00  0.88230068485E+03  0.88230068485E+03  0.00000000000E+00 0.  1.
         21   -1    0    0  501  502  0.00000000000E+00 -0.00000000000E+00 -0.49342236212E+03  0.49342236212E+03  0.00000000000E+00 0.  1.
    9000010    2    1    2  501    0 -0.20447780229E+03  0.14508938879E+03  0.47250642397E+03  0.11114206201E+04  0.97423373569E+03 0.  0.
        -13    1    3    3    0    0  0.22941185667E+03 -0.26647689639E+03  0.35936680665E+03  0.50277654000E+03  0.10566000000E+00 0.  1.
          4    1    3    3  501    0 -0.43388965895E+03  0.41156628518E+03  0.11313961731E+03  0.60864408011E+03  0.00000000000E+00 0.  1.
         13    1    1    2    0    0  0.20447780229E+03 -0.14508938879E+03 -0.83628101235E+02  0.26430242687E+03  0.10566000000E+00 0. -1.
<mgrwt>
<rscale>  1 0.71078838E+03</rscale>
<asrwt>0</asrwt>
<pdfrwt beam="2">  1       21 0.75911133E-01 0.10059789E+04</pdfrwt>
<pdfrwt beam="1">  1        4 0.13573857E+00 0.10059789E+04</pdfrwt>
<totfact> 0.22929618E+01</totfact>
</mgrwt>
</event>
<event>
 6    1  0.1431486E-005  0.9917796E+03  0.7818608E-02  0.1031156E+00
          4   -1    0    0  502    0 -0.00000000000E+00  0.00000000000E+00  0.13215631766E+03  0.13215631766E+03  0.00000000000E+00 0.  1.
         21   -1    0    0  501  502  0.00000000000E+00 -0.00000000000E+00 -0.26738603656E+04  0.26738603656E+04  0.00000000000E+00 0.  1.
    9000010    2    1    2  501    0  0.29842281908E+02 -0.23457786295E+02 -0.25725488285E+04  0.27571061406E+04  0.99105295809E+03 0.  0.
        -13    1    3    3    0    0  0.97999392040E+02 -0.49745773973E+03 -0.11726557086E+04  0.12775717223E+04  0.10566000000E+00 0.  1.
          4    1    3    3  501    0 -0.68157110133E+02  0.47399995344E+03 -0.13998931199E+04  0.14795344183E+04  0.00000000000E+00 0.  1.
         13    1    1    2    0    0 -0.29842281908E+02  0.23457786295E+02  0.30844780614E+02  0.48910542652E+02  0.10566000000E+00 0. -1.
<mgrwt>
<rscale>  1 0.43867045E+03</rscale>
<asrwt>0</asrwt>
<pdfrwt beam="2">  1       21 0.41136315E+00 0.99177961E+03</pdfrwt>
<pdfrwt beam="1">  1        4 0.20331740E-01 0.99177961E+03</pdfrwt>
<totfact> 0.47253989E+00</totfact>
</mgrwt>
</event>
<event>
 6    1  0.1431486E-005  0.1353687E+04  0.7818608E-02  0.9087041E-01
          4   -1    0    0  502    0 -0.00000000000E+00  0.00000000000E+00  0.27313919890E+04  0.27313919890E+04  0.00000000000E+00 0.  1.
         21   -1    0    0  501  502  0.00000000000E+00 -0.00000000000E+00 -0.50257159282E+03  0.50257159282E+03  0.00000000000E+00 0. -1.
    9000010    2    1    2  501    0  0.38435839001E+03  0.83866922434E+03  0.16910067886E+04  0.21660961146E+04  0.99064170052E+03 0.  0.
        -13    1    3    3    0    0  0.32503380590E+03  0.10678759808E+04  0.14206581720E+04  0.18067306767E+04  0.10566000000E+00 0.  1.
          4    1    3    3  501    0  0.59324584102E+02 -0.22920675642E+03  0.27034861664E+03  0.35936543794E+03  0.00000000000E+00 0.  1.
         13    1    1    2    0    0 -0.38435839001E+03 -0.83866922434E+03  0.53781360752E+03  0.10678674672E+04  0.10566000000E+00 0. -1.
<mgrwt>
<rscale>  1 0.12299463E+04</rscale>
<asrwt>0</asrwt>
<pdfrwt beam="2">  1       21 0.77318708E-01 0.13536870E+04</pdfrwt>
<pdfrwt beam="1">  1        4 0.42021414E+00 0.13536870E+04</pdfrwt>
<totfact> 0.26681572E-01</totfact>
</mgrwt>
</event>
<event>
 6    1  0.1431486E-005  0.1026913E+04  0.7818608E-02  0.9656048E-01
          4   -1    0    0  502    0 -0.00000000000E+00  0.00000000000E+00  0.24800835842E+04  0.24800835842E+04  0.00000000000E+00 0.  1.
         21   -1    0    0  501  502  0.00000000000E+00 -0.00000000000E+00 -0.18633651089E+03  0.18633651089E+03  0.00000000000E+00 0.  1.
    9000010    2    1    2  501    0  0.26985364009E+03 -0.36907895545E+02  0.14284319617E+04  0.17592522863E+04  0.99013512094E+03 0.  0.
        -13    1    3    3    0    0 -0.79033912768E+02 -0.16110380500E+03  0.13731375903E+04  0.13848132178E+04  0.10566000000E+00 0.  1.
          4    1    3    3  501    0  0.34888755285E+03  0.12419590945E+03  0.55294371454E+02  0.37443906844E+03  0.00000000000E+00 0.  1.
         13    1    1    2    0    0 -0.26985364009E+03  0.36907895545E+02  0.86531511158E+03  0.90716780880E+03  0.10566000000E+00 0. -1.
<mgrwt>
<rscale>  1 0.73695080E+03</rscale>
<asrwt>0</asrwt>
<pdfrwt beam="2">  1       21 0.28667157E-01 0.10269132E+04</pdfrwt>
<pdfrwt beam="1">  1        4 0.38155130E+00 0.10269132E+04</pdfrwt>
<totfact> 0.44343754E+00</totfact>
</mgrwt>
</event>
<event>
 6    1  0.1431486E-005  0.1100742E+04  0.7818608E-02  0.9452187E-01
          4   -1    0    0  502    0 -0.00000000000E+00  0.00000000000E+00  0.26482097177E+03  0.26482097177E+03  0.00000000000E+00 0.  1.
         21   -1    0    0  501  502  0.00000000000E+00 -0.00000000000E+00 -0.22965507837E+04  0.22965507837E+04  0.00000000000E+00 0. -1.
    9000010    2    1    2  501    0  0.44760998629E+03  0.67828106924E+01 -0.15779346760E+04  0.19239309795E+04  0.10056002514E+04 0.  0.
        -13    1    3    3    0    0  0.77055840751E+03  0.39031811133E+02 -0.10273635613E+04  0.12848189133E+04  0.10566000000E+00 0.  1.
          4    1    3    3  501    0 -0.32294842122E+03 -0.32249000441E+02 -0.55057111471E+03  0.63911206619E+03  0.00000000000E+00 0.  1.
         13    1    1    2    0    0 -0.44760998629E+03 -0.67828106924E+01 -0.45379513589E+03  0.63744077597E+03  0.10566000000E+00 0. -1.
<mgrwt>
<rscale>  1 0.87902558E+03</rscale>
<asrwt>0</asrwt>
<pdfrwt beam="2">  1       21 0.35331549E+00 0.11007418E+04</pdfrwt>
<pdfrwt beam="1">  1        4 0.40741690E-01 0.11007418E+04</pdfrwt>
<totfact> 0.28328900E+00</totfact>
</mgrwt>
</event>
<event>
 6    1  0.1431486E-005  0.1015070E+04  0.7818608E-02  0.9738132E-01
          4   -1    0    0  502    0 -0.00000000000E+00  0.00000000000E+00  0.38392342328E+03  0.38392342328E+03  0.00000000000E+00 0.  1.
         21   -1    0    0  501  502  0.00000000000E+00 -0.00000000000E+00 -0.99957336451E+03  0.99957336451E+03  0.00000000000E+00 0.  1.
    9000010    2    1    2  501    0 -0.44607649342E+02  0.20941413793E+03 -0.57145007350E+03  0.11648697926E+04  0.99223098304E+03 0.  0.
        -13    1    3    3    0    0  0.23414322366E+03 -0.29184150568E+03 -0.43789740151E+03  0.57597626603E+03  0.10566000000E+00 0.  1.
          4    1    3    3  501    0 -0.27875087300E+03  0.50125564361E+03 -0.13355267199E+03  0.58889352658E+03  0.00000000000E+00 0.  1.
         13    1    1    2    0    0  0.44607649342E+02 -0.20941413793E+03 -0.44199867735E+02  0.21862699517E+03  0.10566000000E+00 0. -1.
<mgrwt>
<rscale>  1 0.68791117E+03</rscale>
<asrwt>0</asrwt>
<pdfrwt beam="2">  1       21 0.15378052E+00 0.10150697E+04</pdfrwt>
<pdfrwt beam="1">  1        4 0.59065142E-01 0.10150697E+04</pdfrwt>
<totfact> 0.27249396E+01</totfact>
</mgrwt>
</event>
<event>
 6    1  0.1431486E-005  0.1002614E+04  0.7818608E-02  0.1026909E+00
         21   -1    0    0  501  502  0.00000000000E+00  0.00000000000E+00  0.25659617118E+03  0.25659617118E+03  0.00000000000E+00 0.  1.
          4   -1    0    0  502    0 -0.00000000000E+00 -0.00000000000E+00 -0.10626337806E+04  0.10626337806E+04  0.00000000000E+00 0.  1.
    9000010    2    1    2  501    0 -0.12885708338E+02  0.39643342398E+02 -0.77642869603E+03  0.12680993837E+04  0.10017469195E+04 0.  0.
        -13    1    3    3    0    0 -0.35866837330E+03 -0.30337925026E+03 -0.19243930607E+03  0.50765625100E+03  0.10566000000E+00 0.  1.
          4    1    3    3  501    0  0.34578266496E+03  0.34302259265E+03 -0.58398938996E+03  0.76044313268E+03  0.00000000000E+00 0.  1.
         13    1    1    2    0    0  0.12885708338E+02 -0.39643342398E+02 -0.29608913351E+02  0.51130568056E+02  0.10566000000E+00 0. -1.
<mgrwt>
<rscale>  1 0.45273652E+03</rscale>
<asrwt>0</asrwt>
<pdfrwt beam="1">  1       21 0.39476335E-01 0.10026138E+04</pdfrwt>
<pdfrwt beam="2">  1        4 0.16348212E+00 0.10026138E+04</pdfrwt>
<totfact> 0.58645306E+01</totfact>
</mgrwt>
</event>
<event>
 6    1  0.1431486E-005  0.1114867E+04  0.7818608E-02  0.9405311E-01
          4   -1    0    0  502    0 -0.00000000000E+00  0.00000000000E+00  0.48918254366E+03  0.48918254366E+03  0.00000000000E+00 0.  1.
         21   -1    0    0  501  502  0.00000000000E+00 -0.00000000000E+00 -0.18657179133E+04  0.18657179133E+04  0.00000000000E+00 0. -1.
    9000010    2    1    2  501    0  0.38543251558E+03 -0.33236137249E+03 -0.28526400027E+03  0.11507843833E+04  0.99192078367E+03 0.  0.
        -13    1    3    3    0    0  0.54441116267E+03 -0.59498962461E+03 -0.23220452119E+03  0.83923484095E+03  0.10566000000E+00 0.  1.
          4    1    3    3  501    0 -0.15897864709E+03  0.26262825212E+03 -0.53059479078E+02  0.31154954239E+03  0.00000000000E+00 0.  1.
         13    1    1    2    0    0 -0.38543251558E+03  0.33236137249E+03 -0.10912713694E+04  0.12041160736E+04  0.10566000000E+00 0. -1.
<mgrwt>
<rscale>  1 0.91639897E+03</rscale>
<asrwt>0</asrwt>
<pdfrwt beam="2">  1       21 0.28703352E+00 0.11148673E+04</pdfrwt>
<pdfrwt beam="1">  1        4 0.75258853E-01 0.11148673E+04</pdfrwt>
<totfact> 0.19617198E+00</totfact>
</mgrwt>
</event>
<event>
 6    1  0.1431486E-005  0.1032237E+04  0.7818608E-02  0.9894713E-01
         21   -1    0    0  501  502  0.00000000000E+00  0.00000000000E+00  0.45098962310E+03  0.45098962310E+03  0.00000000000E+00 0.  1.
          4   -1    0    0  502    0 -0.00000000000E+00 -0.00000000000E+00 -0.79669200672E+03  0.79669200672E+03  0.00000000000E+00 0.  1.
    9000010    2    1    2  501    0 -0.12194147219E+03  0.19212716115E+01 -0.18946579982E+03  0.10494814905E+04  0.10250076564E+04 0.  0.
        -13    1    3    3    0    0 -0.32122205263E+03 -0.28136622855E+03  0.24619805227E+03  0.49291384011E+03  0.10566000000E+00 0.  1.
          4    1    3    3  501    0  0.19928058044E+03  0.28328750016E+03 -0.43566385209E+03  0.55656765043E+03  0.00000000000E+00 0.  1.
         13    1    1    2    0    0  0.12194147219E+03 -0.19212716115E+01 -0.15623658381E+03  0.19820013928E+03  0.10566000000E+00 0. -1.
<mgrwt>
<rscale>  1 0.60518210E+03</rscale>
<asrwt>0</asrwt>
<pdfrwt beam="1">  1       21 0.69383019E-01 0.10322374E+04</pdfrwt>
<pdfrwt beam="2">  1        4 0.12256800E+00 0.10322374E+04</pdfrwt>
<totfact> 0.36576276E+01</totfact>
</mgrwt>
</event>
<event>
 6    1  0.1431486E-005  0.9803865E+03  0.7818608E-02  0.9851479E-01
          4   -1    0    0  502    0 -0.00000000000E+00  0.00000000000E+00  0.21154475306E+04  0.21154475306E+04  0.00000000000E+00 0.  1.
         21   -1    0    0  501  502  0.00000000000E+00 -0.00000000000E+00 -0.19752848513E+03  0.19752848513E+03  0.00000000000E+00 0.  1.
    9000010    2    1    2  501    0 -0.45088163090E+02 -0.15738440477E+03  0.10775227597E+04  0.14567816910E+04  0.96662029999E+03 0.  0.
        -13    1    3    3    0    0 -0.99543507110E+02 -0.55369721841E+03  0.76262811432E+03  0.94767672304E+03  0.10566000000E+00 0.  1.
          4    1    3    3  501    0  0.54455344020E+02  0.39631281363E+03  0.31489464533E+03  0.50910496796E+03  0.00000000000E+00 0.  1.
         13    1    1    2    0    0  0.45088163090E+02  0.15738440477E+03  0.84039628577E+03  0.85619432468E+03  0.10566000000E+00 0. -1.
<mgrwt>
<rscale>  1 0.62671560E+03</rscale>
<asrwt>0</asrwt>
<pdfrwt beam="2">  1       21 0.30388999E-01 0.98038645E+03</pdfrwt>
<pdfrwt beam="1">  1        4 0.32545345E+00 0.98038645E+03</pdfrwt>
<totfact> 0.91991251E+00</totfact>
</mgrwt>
</event>
<event>
 6    1  0.1431486E-005  0.1046421E+04  0.7818608E-02  0.9629359E-01
         21   -1    0    0  501  502  0.00000000000E+00  0.00000000000E+00  0.91846526979E+03  0.91846526979E+03  0.00000000000E+00 0. -1.
          4   -1    0    0  502    0 -0.00000000000E+00 -0.00000000000E+00 -0.48077381192E+03  0.48077381192E+03  0.00000000000E+00 0.  1.
    9000010    2    1    2  501    0  0.26445140268E+03  0.97416377503E+02  0.32511673135E+03  0.10957632586E+04  0.10077557913E+04 0.  0.
        -13    1    3    3    0    0  0.43214534772E+02  0.28177564630E+03  0.62073209454E+03  0.68306175066E+03  0.10566000000E+00 0.  1.
          4    1    3    3  501    0  0.22123686791E+03 -0.18435926880E+03 -0.29561536319E+03  0.41270150795E+03  0.00000000000E+00 0.  1.
         13    1    1    2    0    0 -0.26445140268E+03 -0.97416377503E+02  0.11257472652E+03  0.30347582309E+03  0.10566000000E+00 0. -1.
<mgrwt>
<rscale>  1 0.75383119E+03</rscale>
<asrwt>0</asrwt>
<pdfrwt beam="1">  1       21 0.14130235E+00 0.10464207E+04</pdfrwt>
<pdfrwt beam="2">  1        4 0.73965202E-01 0.10464207E+04</pdfrwt>
<totfact> 0.20855538E+01</totfact>
</mgrwt>
</event>
<event>
 6    1  0.1431486E-005  0.1028518E+04  0.7818608E-02  0.9760021E-01
          4   -1    0    0  502    0 -0.00000000000E+00  0.00000000000E+00  0.26992828728E+03  0.26992828728E+03  0.00000000000E+00 0.  1.
         21   -1    0    0  501  502  0.00000000000E+00 -0.00000000000E+00 -0.14884036016E+04  0.14884036016E+04  0.00000000000E+00 0.  1.
    9000010    2    1    2  501    0  0.10184315303E+03 -0.16205467417E+03 -0.11759292090E+04  0.15622606583E+04  0.10105518861E+04 0.  0.
        -13    1    3    3    0    0 -0.22877958981E+03 -0.16889572091E+02  0.89559367834E+02  0.24626459325E+03  0.10566000000E+00 0.  1.
          4    1    3    3  501    0  0.33062274284E+03 -0.14516510208E+03 -0.12654885769E+04  0.13159960650E+04  0.00000000000E+00 0.  1.
         13    1    1    2    0    0 -0.10184315303E+03  0.16205467417E+03 -0.42546105299E+02  0.19607123062E+03  0.10566000000E+00 0. -1.
<mgrwt>
<rscale>  1 0.67552907E+03</rscale>
<asrwt>0</asrwt>
<pdfrwt beam="2">  1       21 0.22898517E+00 0.10285178E+04</pdfrwt>
<pdfrwt beam="1">  1        4 0.41527429E-01 0.10285178E+04</pdfrwt>
<totfact> 0.16732727E+01</totfact>
</mgrwt>
</event>
<event>
 6    1  0.1431486E-005  0.1017628E+04  0.7818608E-02  0.9846812E-01
         21   -1    0    0  501  502  0.00000000000E+00  0.00000000000E+00  0.34539110767E+03  0.34539110767E+03  0.00000000000E+00 0.  1.
          4   -1    0    0  502    0 -0.00000000000E+00 -0.00000000000E+00 -0.10634217541E+04  0.10634217541E+04  0.00000000000E+00 0.  1.
    9000010    2    1    2  501    0 -0.14452469271E+03 -0.34687979595E+02 -0.47289664368E+03  0.11221399939E+04  0.10067155941E+04 0.  0.
        -13    1    3    3    0    0 -0.87096062548E+02  0.42249498699E+03  0.39322893665E+02  0.43316744946E+03  0.10566000000E+00 0.  1.
          4    1    3    3  501    0 -0.57428630164E+02 -0.45718296659E+03 -0.51221953735E+03  0.68897254440E+03  0.00000000000E+00 0.  1.
         13    1    1    2    0    0  0.14452469271E+03  0.34687979595E+02 -0.24513400275E+03  0.28667286791E+03  0.10566000000E+00 0. -1.
<mgrwt>
<rscale>  1 0.62909739E+03</rscale>
<asrwt>0</asrwt>
<pdfrwt beam="1">  1       21 0.53137093E-01 0.10176281E+04</pdfrwt>
<pdfrwt beam="2">  1        4 0.16360335E+00 0.10176281E+04</pdfrwt>
<totfact> 0.30986397E+01</totfact>
</mgrwt>
</event>
<event>
 6    1  0.1431486E-005  0.1087788E+04  0.7818608E-02  0.9488134E-01
          4   -1    0    0  502    0 -0.00000000000E+00  0.00000000000E+00  0.15207987081E+04  0.15207987081E+04  0.00000000000E+00 0.  1.
         21   -1    0    0  501  502  0.00000000000E+00 -0.00000000000E+00 -0.36843338101E+03  0.36843338101E+03  0.00000000000E+00 0.  1.
    9000010    2    1    2  501    0 -0.30941307361E+03  0.26700928495E+03  0.86127062385E+03  0.13874686530E+04  0.10080931342E+04 0.  0.
        -13    1    3    3    0    0 -0.25722376298E+03  0.42560338140E+03 -0.12934128223E+02  0.49746316983E+03  0.10566000000E+00 0.  1.
          4    1    3    3  501    0 -0.52189310627E+02 -0.15859409645E+03  0.87420475207E+03  0.89000548320E+03  0.00000000000E+00 0.  1.
         13    1    1    2    0    0  0.30941307361E+03 -0.26700928495E+03  0.29109470322E+03  0.50176343607E+03  0.10566000000E+00 0. -1.
<mgrwt>
<rscale>  1 0.85164308E+03</rscale>
<asrwt>0</asrwt>
<pdfrwt beam="2">  1       21 0.56682060E-01 0.10877877E+04</pdfrwt>
<pdfrwt beam="1">  1        4 0.23396903E+00 0.10877877E+04</pdfrwt>
<totfact> 0.90081607E+00</totfact>
</mgrwt>
</event>
<event>
 6    1  0.1431486E-005  0.9728289E+03  0.7818608E-02  0.1003331E+00
         21   -1    0    0  501  502  0.00000000000E+00  0.00000000000E+00  0.57059223284E+03  0.57059223284E+03  0.00000000000E+00 0.  1.
          4   -1    0    0  502    0 -0.00000000000E+00 -0.00000000000E+00 -0.51977440851E+03  0.51977440851E+03  0.00000000000E+00 0.  1.
    9000010    2    1    2  501    0 -0.50386689840E+02  0.79147793179E+02 -0.19647243276E+02  0.97302726776E+03  0.96829378701E+03 0.  0.
        -13    1    3    3    0    0 -0.43739612759E+03  0.23184866307E+03  0.15942261938E+03  0.52008149144E+03  0.10566000000E+00 0.  1.
          4    1    3    3  501    0  0.38700943775E+03 -0.15270086989E+03 -0.17906986266E+03  0.45294577632E+03  0.00000000000E+00 0.  1.
         13    1    1    2    0    0  0.50386689840E+02 -0.79147793179E+02  0.70465067607E+02  0.11733937359E+03  0.10566000000E+00 0. -1.
<mgrwt>
<rscale>  1 0.54213505E+03</rscale>
<asrwt>0</asrwt>
<pdfrwt beam="1">  1       21 0.87783420E-01 0.97282889E+03</pdfrwt>
<pdfrwt beam="2">  1        4 0.79965294E-01 0.97282889E+03</pdfrwt>
<totfact> 0.59212031E+01</totfact>
</mgrwt>
</event>
<event>
 6    1  0.1431486E-005  0.1047216E+04  0.7818608E-02  0.9688701E-01
          4   -1    0    0  502    0 -0.00000000000E+00  0.00000000000E+00  0.11017692906E+04  0.11017692906E+04  0.00000000000E+00 0.  1.
         21   -1    0    0  501  502  0.00000000000E+00 -0.00000000000E+00 -0.38651038526E+03  0.38651038526E+03  0.00000000000E+00 0.  1.
    9000010    2    1    2  501    0  0.57597429142E+02 -0.22271687095E+03  0.45748488027E+03  0.11427833262E+04  0.10216364552E+04 0.  0.
        -13    1    3    3    0    0 -0.48122649613E+03 -0.12858215490E+03  0.18176888760E+03  0.53023791905E+03  0.10566000000E+00 0.  1.
          4    1    3    3  501    0  0.53882392527E+03 -0.94134716044E+02  0.27571599267E+03  0.61254540715E+03  0.00000000000E+00 0.  1.
         13    1    1    2    0    0 -0.57597429142E+02  0.22271687095E+03  0.25777402503E+03  0.34549634961E+03  0.10566000000E+00 0. -1.
<mgrwt>
<rscale>  1 0.71693530E+03</rscale>
<asrwt>0</asrwt>
<pdfrwt beam="2">  1       21 0.59463137E-01 0.10472160E+04</pdfrwt>
<pdfrwt beam="1">  1        4 0.16950297E+00 0.10472160E+04</pdfrwt>
<totfact> 0.21840989E+01</totfact>
</mgrwt>
</event>
<event>
 6    1  0.1431486E-005  0.9963078E+03  0.7818608E-02  0.1008651E+00
          4   -1    0    0  502    0 -0.00000000000E+00  0.00000000000E+00  0.20775161376E+04  0.20775161376E+04  0.00000000000E+00 0.  1.
         21   -1    0    0  501  502  0.00000000000E+00 -0.00000000000E+00 -0.14528138905E+03  0.14528138905E+03  0.00000000000E+00 0.  1.
    9000010    2    1    2  501    0 -0.82187903282E+00 -0.74009322433E+02  0.16194937222E+04  0.19014176641E+04  0.99355481075E+03 0.  0.
        -13    1    3    3    0    0  0.32776900467E+03 -0.26995616057E+03  0.13942014101E+04  0.14574314503E+04  0.10566000000E+00 0.  1.
          4    1    3    3  501    0 -0.32859088370E+03  0.19594683814E+03  0.22529231204E+03  0.44398621385E+03  0.00000000000E+00 0.  1.
         13    1    1    2    0    0  0.82187903282E+00  0.74009322433E+02  0.31274102640E+03  0.32137986254E+03  0.10566000000E+00 0. -1.
<mgrwt>
<rscale>  1 0.52014396E+03</rscale>
<asrwt>0</asrwt>
<pdfrwt beam="2">  1       21 0.22350984E-01 0.99630779E+03</pdfrwt>
<pdfrwt beam="1">  1        4 0.31961785E+00 0.99630779E+03</pdfrwt>
<totfact> 0.18386436E+01</totfact>
</mgrwt>
</event>
<event>
 6    1  0.1431486E-005  0.1098158E+04  0.7818608E-02  0.9541962E-01
         21   -1    0    0  501  502  0.00000000000E+00  0.00000000000E+00  0.10121303877E+04  0.10121303877E+04  0.00000000000E+00 0.  1.
          4   -1    0    0  502    0 -0.00000000000E+00 -0.00000000000E+00 -0.93586360293E+03  0.93586360293E+03  0.00000000000E+00 0.  1.
    9000010    2    1    2  501    0 -0.13713742672E+03 -0.29931271721E+03  0.65753455264E+03  0.12799618015E+04  0.10476429491E+04 0.  0.
        -13    1    3    3    0    0  0.11414831428E+03  0.28236383698E+03 -0.72724811106E+02  0.31312630583E+03  0.10566000000E+00 0.  1.
          4    1    3    3  501    0 -0.25128574100E+03 -0.58167655419E+03  0.73025936375E+03  0.96683549566E+03  0.00000000000E+00 0.  1.
         13    1    1    2    0    0  0.13713742672E+03  0.29931271721E+03 -0.58126776792E+03  0.66803218910E+03  0.10566000000E+00 0. -1.
<mgrwt>
<rscale>  1 0.81259587E+03</rscale>
<asrwt>0</asrwt>
<pdfrwt beam="1">  1       21 0.15571237E+00 0.10981578E+04</pdfrwt>
<pdfrwt beam="2">  1        4 0.14397902E+00 0.10981578E+04</pdfrwt>
<totfact> 0.31179890E+00</totfact>
</mgrwt>
</event>
<event>
 6    1  0.1431486E-005  0.1102226E+04  0.7818608E-02  0.9446874E-01
          4   -1    0    0  502    0 -0.00000000000E+00  0.00000000000E+00  0.37801416600E+03  0.37801416600E+03  0.00000000000E+00 0.  1.
         21   -1    0    0  501  502  0.00000000000E+00 -0.00000000000E+00 -0.20221059269E+04  0.20221059269E+04  0.00000000000E+00 0. -1.
    9000010    2    1    2  501    0  0.27067783257E+02  0.45350566790E+03 -0.58533422836E+03  0.12480056977E+04  0.10042420062E+04 0.  0.
        -13    1    3    3    0    0  0.25952219982E+03  0.67916908137E+03 -0.56965981712E+03  0.92365292815E+03  0.10566000000E+00 0.  1.
          4    1    3    3  501    0 -0.23245441656E+03 -0.22566341346E+03 -0.15674411239E+02  0.32435276956E+03  0.00000000000E+00 0.  1.
         13    1    1    2    0    0 -0.27067783257E+02 -0.45350566790E+03 -0.10587575326E+04  0.11521143952E+04  0.10566000000E+00 0. -1.
<mgrwt>
<rscale>  1 0.88316482E+03</rscale>
<asrwt>0</asrwt>
<pdfrwt beam="2">  1       21 0.31109322E+00 0.11022260E+04</pdfrwt>
<pdfrwt beam="1">  1        4 0.58156026E-01 0.11022260E+04</pdfrwt>
<totfact> 0.24660006E+00</totfact>
</mgrwt>
</event>
<event>
 6    1  0.1431486E-005  0.1132333E+04  0.7818608E-02  0.9384159E-01
          4   -1    0    0  502    0 -0.00000000000E+00  0.00000000000E+00  0.67948365301E+03  0.67948365301E+03  0.00000000000E+00 0.  1.
         21   -1    0    0  501  502  0.00000000000E+00 -0.00000000000E+00 -0.10584959033E+04  0.10584959033E+04  0.00000000000E+00 0.  1.
    9000010    2    1    2  501    0  0.18582691540E+03  0.48989642819E+03 -0.81059068085E+02  0.11352306345E+04  0.10038166506E+04 0.  0.
        -13    1    3    3    0    0  0.15911902221E+03  0.42965904460E+03  0.42497554285E+03  0.62492398020E+03  0.10566000000E+00 0.  1.
          4    1    3    3  501    0  0.26707893186E+02  0.60237383588E+02 -0.50603461094E+03  0.51030665429E+03  0.00000000000E+00 0.  1.
         13    1    1    2    0    0 -0.18582691540E+03 -0.48989642819E+03 -0.29795318225E+03  0.60274892187E+03  0.10566000000E+00 0. -1.
<mgrwt>
<rscale>  1 0.93390873E+03</rscale>
<asrwt>0</asrwt>
<pdfrwt beam="2">  1       21 0.16284552E+00 0.11323330E+04</pdfrwt>
<pdfrwt beam="1">  1        4 0.10453595E+00 0.11323330E+04</pdfrwt>
<totfact> 0.61558920E+00</totfact>
</mgrwt>
</event>
<event>
 6    1  0.1431486E-005  0.1008727E+04  0.7818608E-02  0.9935798E-01
         21   -1    0    0  501  502  0.00000000000E+00  0.00000000000E+00  0.43582507474E+03  0.43582507474E+03  0.00000000000E+00 0.  1.
          4   -1    0    0  502    0 -0.00000000000E+00 -0.00000000000E+00 -0.72415655789E+03  0.72415655789E+03  0.00000000000E+00 0.  1.
    9000010    2    1    2  501    0  0.10264752491E+03 -0.50849201222E+02 -0.26693916718E+03  0.10434492424E+04  0.10022014003E+04 0.  0.
        -13    1    3    3    0    0  0.31733693235E+03 -0.42251218108E+03  0.17225165325E+02  0.52869271726E+03  0.10566000000E+00 0.  1.
          4    1    3    3  501    0 -0.21468940744E+03  0.37166297986E+03 -0.28416433251E+03  0.51475652510E+03  0.00000000000E+00 0.  1.
         13    1    1    2    0    0 -0.10264752491E+03  0.50849201222E+02 -0.21392315958E+02  0.11653239027E+03  0.10566000000E+00 0. -1.
<mgrwt>
<rscale>  1 0.58557284E+03</rscale>
<asrwt>0</asrwt>
<pdfrwt beam="1">  1       21 0.67050013E-01 0.10087268E+04</pdfrwt>
<pdfrwt beam="2">  1        4 0.11140870E+00 0.10087268E+04</pdfrwt>
<totfact> 0.50284073E+01</totfact>
</mgrwt>
</event>
<event>
 6    1  0.1431486E-005  0.9963437E+03  0.7818608E-02  0.1011076E+00
         21   -1    0    0  501  502  0.00000000000E+00  0.00000000000E+00  0.11522274076E+04  0.11522274076E+04  0.00000000000E+00 0.  1.
          4   -1    0    0  502    0 -0.00000000000E+00 -0.00000000000E+00 -0.25673456601E+03  0.25673456601E+03  0.00000000000E+00 0.  1.
    9000010    2    1    2  501    0  0.39442575084E+02  0.56204232270E+02  0.89648241766E+03  0.13402915805E+04  0.99397493090E+03 0.  0.
        -13    1    3    3    0    0 -0.18890799808E+03 -0.42351376081E+01 -0.16621527783E+03  0.25165789850E+03  0.10566000000E+00 0.  1.
          4    1    3    3  501    0  0.22835057317E+03  0.60439369878E+02  0.10626976955E+04  0.10886336820E+04  0.00000000000E+00 0.  1.
         13    1    1    2    0    0 -0.39442575084E+02 -0.56204232270E+02 -0.98957609553E+00  0.68670393032E+02  0.10566000000E+00 0. -1.
<mgrwt>
<rscale>  1 0.51049089E+03</rscale>
<asrwt>0</asrwt>
<pdfrwt beam="1">  1       21 0.17726575E+00 0.99634371E+03</pdfrwt>
<pdfrwt beam="2">  1        4 0.39497626E-01 0.99634371E+03</pdfrwt>
<totfact> 0.42123115E+01</totfact>
</mgrwt>
</event>
<event>
 6    1  0.1431486E-005  0.1035543E+04  0.7818608E-02  0.9821585E-01
          4   -1    0    0  502    0 -0.00000000000E+00  0.00000000000E+00  0.25668227683E+03  0.25668227683E+03  0.00000000000E+00 0.  1.
         21   -1    0    0  501  502  0.00000000000E+00 -0.00000000000E+00 -0.14468128171E+04  0.14468128171E+04  0.00000000000E+00 0.  1.
    9000010    2    1    2  501    0  0.12300799772E+03 -0.91222229266E+02 -0.11450517735E+04  0.15438562234E+04  0.10241562439E+04 0.  0.
        -13    1    3    3    0    0  0.38500614415E+03 -0.44940066104E+03 -0.65403168922E+03  0.88201368858E+03  0.10566000000E+00 0.  1.
          4    1    3    3  501    0 -0.26199814643E+03  0.35817843177E+03 -0.49102008428E+03  0.66184253481E+03  0.00000000000E+00 0.  1.
         13    1    1    2    0    0 -0.12300799772E+03  0.91222229266E+02 -0.45078766800E+02  0.15963887057E+03  0.10566000000E+00 0. -1.
<mgrwt>
<rscale>  1 0.64216933E+03</rscale>
<asrwt>0</asrwt>
<pdfrwt beam="2">  1       21 0.22258659E+00 0.10355426E+04</pdfrwt>
<pdfrwt beam="1">  1        4 0.39489581E-01 0.10355426E+04</pdfrwt>
<totfact> 0.20404564E+01</totfact>
</mgrwt>
</event>
<event>
 6    1  0.1431486E-005  0.1194654E+04  0.7818608E-02  0.9273509E-01
          4   -1    0    0  502    0 -0.00000000000E+00  0.00000000000E+00  0.91415383104E+03  0.91415383104E+03  0.00000000000E+00 0.  1.
         21   -1    0    0  501  502  0.00000000000E+00 -0.00000000000E+00 -0.98864505311E+03  0.98864505311E+03  0.00000000000E+00 0. -1.
    9000010    2    1    2  501    0  0.41800570520E+03  0.51948037332E+03 -0.23365797183E+03  0.12172898082E+04  0.99126676604E+03 0.  0.
        -13    1    3    3    0    0  0.73786591552E+03  0.44788087796E+03 -0.21192344824E+03  0.88879409832E+03  0.10566000000E+00 0.  1.
          4    1    3    3  501    0 -0.31986021032E+03  0.71599495368E+02 -0.21734523597E+02  0.32849570986E+03  0.00000000000E+00 0.  1.
         13    1    1    2    0    0 -0.41800570520E+03 -0.51948037332E+03  0.15916674976E+03  0.68550907597E+03  0.10566000000E+00 0. -1.
<mgrwt>
<rscale>  1 0.10325865E+04</rscale>
<asrwt>0</asrwt>
<pdfrwt beam="2">  1       21 0.15209924E+00 0.11946541E+04</pdfrwt>
<pdfrwt beam="1">  1        4 0.14063905E+00 0.11946541E+04</pdfrwt>
<totfact> 0.35033227E+00</totfact>
</mgrwt>
</event>
<event>
 6    1  0.1431486E-005  0.1011032E+04  0.7818608E-02  0.9886358E-01
         21   -1    0    0  501  502  0.00000000000E+00  0.00000000000E+00  0.11465700220E+04  0.11465700220E+04  0.00000000000E+00 0.  1.
          4   -1    0    0  502    0 -0.00000000000E+00 -0.00000000000E+00 -0.96183040186E+03  0.96183040186E+03  0.00000000000E+00 0.  1.
    9000010    2    1    2  501    0  0.13252844265E+03  0.14645345656E+02  0.91648953922E+03  0.13646019099E+04  0.10022010890E+04 0.  0.
        -13    1    3    3    0    0  0.14180838671E+03 -0.34468405455E+03  0.93308398631E+03  0.10047698506E+04  0.10566000000E+00 0.  1.
          4    1    3    3  501    0 -0.92799440573E+01  0.35932940021E+03 -0.16594447089E+02  0.35983205929E+03  0.00000000000E+00 0.  1.
         13    1    1    2    0    0 -0.13252844265E+03 -0.14645345656E+02 -0.73174991905E+03  0.74379851401E+03  0.10566000000E+00 0. -1.
<mgrwt>
<rscale>  1 0.60927007E+03</rscale>
<asrwt>0</asrwt>
<pdfrwt beam="1">  1       21 0.17639539E+00 0.10110318E+04</pdfrwt>
<pdfrwt beam="2">  1        4 0.14797391E+00 0.10110318E+04</pdfrwt>
<totfact> 0.20426059E+00</totfact>
</mgrwt>
</event>
<event>
 6    1  0.1431486E-005  0.1015007E+04  0.7818608E-02  0.9886161E-01
          4   -1    0    0  502    0 -0.00000000000E+00  0.00000000000E+00  0.21122076485E+03  0.21122076485E+03  0.00000000000E+00 0.  1.
         21   -1    0    0  501  502  0.00000000000E+00 -0.00000000000E+00 -0.19905834679E+04  0.19905834679E+04  0.00000000000E+00 0.  1.
    9000010    2    1    2  501    0  0.11359308835E+03  0.66957589414E+02 -0.18018255683E+04  0.20680458686E+04  0.10064052999E+04 0.  0.
        -13    1    3    3    0    0  0.13303401917E+03  0.53246873826E+03 -0.95145754025E+03  0.10984045109E+04  0.10566000000E+00 0.  1.
          4    1    3    3  501    0 -0.19440930826E+02 -0.46551114885E+03 -0.85036802802E+03  0.96964135771E+03  0.00000000000E+00 0.  1.
         13    1    1    2    0    0 -0.11359308835E+03 -0.66957589414E+02  0.22462865225E+02  0.13375836414E+03  0.10566000000E+00 0. -1.
<mgrwt>
<rscale>  1 0.60936688E+03</rscale>
<asrwt>0</asrwt>
<pdfrwt beam="2">  1       21 0.30624361E+00 0.10150066E+04</pdfrwt>
<pdfrwt beam="1">  1        4 0.32495503E-01 0.10150066E+04</pdfrwt>
<totfact> 0.89463205E+00</totfact>
</mgrwt>
</event>
<event>
 6    1  0.1431486E-005  0.9965777E+03  0.7818608E-02  0.1006369E+00
         21   -1    0    0  501  502  0.00000000000E+00  0.00000000000E+00  0.16715930269E+04  0.16715930269E+04  0.00000000000E+00 0.  1.
          4   -1    0    0  502    0 -0.00000000000E+00 -0.00000000000E+00 -0.31178548182E+03  0.31178548182E+03  0.00000000000E+00 0.  1.
    9000010    2    1    2  501    0 -0.61851632283E+02  0.49756443095E+02  0.15124885255E+04  0.18112947471E+04  0.99341119029E+03 0.  0.
        -13    1    3    3    0    0  0.37632204543E+03 -0.12125870242E+03  0.25950076217E+03  0.47292981669E+03  0.10566000000E+00 0.  1.
          4    1    3    3  501    0 -0.43817367771E+03  0.17101514552E+03  0.12529877634E+04  0.13383649304E+04  0.00000000000E+00 0.  1.
         13    1    1    2    0    0  0.61851632283E+02 -0.49756443095E+02 -0.15268098047E+03  0.17208376160E+03  0.10566000000E+00 0. -1.
<mgrwt>
<rscale>  1 0.52943480E+03</rscale>
<asrwt>0</asrwt>
<pdfrwt beam="1">  1       21 0.25716815E+00 0.99657770E+03</pdfrwt>
<pdfrwt beam="2">  1        4 0.47966998E-01 0.99657770E+03</pdfrwt>
<totfact> 0.82255536E+00</totfact>
</mgrwt>
</event>
<event>
 6    1  0.1431486E-005  0.9859776E+03  0.7818608E-02  0.9886654E-01
         21   -1    0    0  501  502  0.00000000000E+00  0.00000000000E+00  0.27036367459E+03  0.27036367459E+03  0.00000000000E+00 0.  1.
          4   -1    0    0  502    0 -0.00000000000E+00 -0.00000000000E+00 -0.13371963733E+04  0.13371963733E+04  0.00000000000E+00 0.  1.
    9000010    2    1    2  501    0 -0.69760982318E+02 -0.12554271326E+03 -0.68764698935E+03  0.12020857813E+04  0.97546105826E+03 0.  0.
        -13    1    3    3    0    0 -0.24050469551E+03 -0.48321111736E+03 -0.57806519202E+03  0.79088233631E+03  0.10566000000E+00 0.  1.
          4    1    3    3  501    0  0.17074371319E+03  0.35766840410E+03 -0.10958179733E+03  0.41120344501E+03  0.00000000000E+00 0.  1.
         13    1    1    2    0    0  0.69760982318E+02  0.12554271326E+03 -0.37918570936E+03  0.40547426658E+03  0.10566000000E+00 0. -1.
<mgrwt>
<rscale>  1 0.60912485E+03</rscale>
<asrwt>0</asrwt>
<pdfrwt beam="1">  1       21 0.41594412E-01 0.98597761E+03</pdfrwt>
<pdfrwt beam="2">  1        4 0.20572252E+00 0.98597761E+03</pdfrwt>
<totfact> 0.26891586E+01</totfact>
</mgrwt>
</event>
<event>
 6    1  0.1431486E-005  0.1043936E+04  0.7818608E-02  0.9688587E-01
         21   -1    0    0  501  502  0.00000000000E+00  0.00000000000E+00  0.46385332999E+03  0.46385332999E+03  0.00000000000E+00 0.  1.
          4   -1    0    0  502    0 -0.00000000000E+00 -0.00000000000E+00 -0.98571212698E+03  0.98571212698E+03  0.00000000000E+00 0.  1.
    9000010    2    1    2  501    0 -0.10730298725E+03  0.20604208643E+03 -0.21694749143E+03  0.10662402845E+04  0.10177597250E+04 0.  0.
        -13    1    3    3    0    0 -0.49182511981E+03  0.19871545311E+03 -0.37585432506E+03  0.65011250150E+03  0.10566000000E+00 0.  1.
          4    1    3    3  501    0  0.38452213256E+03  0.73266333189E+01  0.15890683363E+03  0.41612778297E+03  0.00000000000E+00 0.  1.
         13    1    1    2    0    0  0.10730298725E+03 -0.20604208643E+03 -0.30491130556E+03  0.38332517250E+03  0.10566000000E+00 0. -1.
<mgrwt>
<rscale>  1 0.71700418E+03</rscale>
<asrwt>0</asrwt>
<pdfrwt beam="1">  1       21 0.71362052E-01 0.10439359E+04</pdfrwt>
<pdfrwt beam="2">  1        4 0.15164802E+00 0.10439359E+04</pdfrwt>
<totfact> 0.19649355E+01</totfact>
</mgrwt>
</event>
<event>
 6    1  0.1431486E-005  0.1118800E+04  0.7818608E-02  0.9415194E-01
         21   -1    0    0  501  502  0.00000000000E+00  0.00000000000E+00  0.41433751662E+03  0.41433751662E+03  0.00000000000E+00 0.  1.
          4   -1    0    0  502    0 -0.00000000000E+00 -0.00000000000E+00 -0.15617116777E+04  0.15617116777E+04  0.00000000000E+00 0.  1.
    9000010    2    1    2  501    0 -0.46874343555E+03  0.12891953089E+03 -0.86172176734E+03  0.14121893225E+04  0.10076574936E+04 0.  0.
        -13    1    3    3    0    0 -0.42595652903E+03  0.49516580890E+03 -0.25291960316E+03  0.70042592739E+03  0.10566000000E+00 0.  1.
          4    1    3    3  501    0 -0.42786906518E+02 -0.36624627801E+03 -0.60880216417E+03  0.71176339512E+03  0.00000000000E+00 0.  1.
         13    1    1    2    0    0  0.46874343555E+03 -0.12891953089E+03 -0.28565239373E+03  0.56385987180E+03  0.10566000000E+00 0. -1.
<mgrwt>
<rscale>  1 0.90835751E+03</rscale>
<asrwt>0</asrwt>
<pdfrwt beam="1">  1       21 0.63744232E-01 0.11188004E+04</pdfrwt>
<pdfrwt beam="2">  1        4 0.24026334E+00 0.11188004E+04</pdfrwt>
<totfact> 0.63055029E+00</totfact>
</mgrwt>
</event>
<event>
 6    1  0.1431486E-005  0.1036598E+04  0.7818608E-02  0.9746925E-01
          4   -1    0    0  502    0 -0.00000000000E+00  0.00000000000E+00  0.56685100367E+03  0.56685100367E+03  0.00000000000E+00 0.  1.
         21   -1    0    0  501  502  0.00000000000E+00 -0.00000000000E+00 -0.72062183283E+03  0.72062183283E+03  0.00000000000E+00 0.  1.
    9000010    2    1    2  501    0  0.28496995874E+02 -0.19316546020E+03  0.37406897029E+01  0.10366046171E+04  0.10180423201E+04 0.  0.
        -13    1    3    3    0    0  0.10312750676E+03  0.99795270187E+02 -0.46064644847E+03  0.48248268389E+03  0.10566000000E+00 0.  1.
          4    1    3    3  501    0 -0.74630510889E+02 -0.29296073039E+03  0.46438713818E+03  0.55412193316E+03  0.00000000000E+00 0.  1.
         13    1    1    2    0    0 -0.28496995874E+02  0.19316546020E+03 -0.15751151886E+03  0.25086821944E+03  0.10566000000E+00 0. -1.
<mgrwt>
<rscale>  1 0.68290296E+03</rscale>
<asrwt>0</asrwt>
<pdfrwt beam="2">  1       21 0.11086490E+00 0.10365979E+04</pdfrwt>
<pdfrwt beam="1">  1        4 0.87207847E-01 0.10365979E+04</pdfrwt>
<totfact> 0.27056563E+01</totfact>
</mgrwt>
</event>
<event>
 6    1  0.1431486E-005  0.1120814E+04  0.7818608E-02  0.9418317E-01
          4   -1    0    0  502    0 -0.00000000000E+00  0.00000000000E+00  0.63007322779E+03  0.63007322779E+03  0.00000000000E+00 0.  1.
         21   -1    0    0  501  502  0.00000000000E+00 -0.00000000000E+00 -0.10695220064E+04  0.10695220064E+04  0.00000000000E+00 0.  1.
    9000010    2    1    2  501    0 -0.37894951756E+03  0.29164575083E+03 -0.48088287532E+03  0.12196194261E+04  0.10136879322E+04 0.  0.
        -13    1    3    3    0    0 -0.18651134843E+03 -0.33258027768E+03 -0.41422998461E+03  0.56301209179E+03  0.10566000000E+00 0.  1.
          4    1    3    3  501    0 -0.19243816913E+03  0.62422602851E+03 -0.66652890712E+02  0.65660733429E+03  0.00000000000E+00 0.  1.
         13    1    1    2    0    0  0.37894951756E+03 -0.29164575083E+03  0.41434096718E+02  0.47997580811E+03  0.10566000000E+00 0. -1.
<mgrwt>
<rscale>  1 0.90583444E+03</rscale>
<asrwt>0</asrwt>
<pdfrwt beam="2">  1       21 0.16454184E+00 0.11208136E+04</pdfrwt>
<pdfrwt beam="1">  1        4 0.96934344E-01 0.11208136E+04</pdfrwt>
<totfact> 0.71820367E+00</totfact>
</mgrwt>
</event>
<event>
 6    1  0.1431486E-005  0.1056780E+04  0.7818608E-02  0.9566031E-01
          4   -1    0    0  502    0 -0.00000000000E+00  0.00000000000E+00  0.61668308453E+03  0.61668308453E+03  0.00000000000E+00 0.  1.
         21   -1    0    0  501  502  0.00000000000E+00 -0.00000000000E+00 -0.81178314174E+03  0.81178314174E+03  0.00000000000E+00 0.  1.
    9000010    2    1    2  501    0  0.15139307572E+03 -0.30435666794E+03 -0.47423846496E+02  0.10578436162E+04  0.10006154359E+04 0.  0.
        -13    1    3    3    0    0 -0.26077176265E+03 -0.26641554072E+03  0.32986446496E+03  0.49778482193E+03  0.10566000000E+00 0.  1.
          4    1    3    3  501    0  0.41216483836E+03 -0.37941127218E+02 -0.37728831146E+03  0.56005879431E+03  0.00000000000E+00 0.  1.
         13    1    1    2    0    0 -0.15139307572E+03  0.30435666794E+03 -0.14767621072E+03  0.37062261004E+03  0.10566000000E+00 0. -1.
<mgrwt>
<rscale>  1 0.79585894E+03</rscale>
<asrwt>0</asrwt>
<pdfrwt beam="2">  1       21 0.12488971E+00 0.10567801E+04</pdfrwt>
<pdfrwt beam="1">  1        4 0.94874321E-01 0.10567801E+04</pdfrwt>
<totfact> 0.16272692E+01</totfact>
</mgrwt>
</event>
<event>
 6    1  0.1431486E-005  0.9328719E+03  0.7818608E-02  0.1003223E+00
          4   -1    0    0  502    0 -0.00000000000E+00  0.00000000000E+00  0.30022389484E+03  0.30022389484E+03  0.00000000000E+00 0.  1.
         21   -1    0    0  501  502  0.00000000000E+00 -0.00000000000E+00 -0.10049301544E+04  0.10049301544E+04  0.00000000000E+00 0.  1.
    9000010    2    1    2  501    0  0.84782290860E+02 -0.64892381252E+02 -0.74208671383E+03  0.11920330188E+04  0.92674212658E+03 0.  0.
        -13    1    3    3    0    0  0.90746119482E+02 -0.48028802091E+03 -0.25320368423E+03  0.55047575614E+03  0.10566000000E+00 0.  1.
          4    1    3    3  501    0 -0.59638286224E+01  0.41539563965E+03 -0.48888302960E+03  0.64155726270E+03  0.00000000000E+00 0.  1.
         13    1    1    2    0    0 -0.84782290860E+02  0.64892381252E+02  0.37380454284E+02  0.11312103038E+03  0.10566000000E+00 0. -1.
<mgrwt>
<rscale>  1 0.54259425E+03</rscale>
<asrwt>0</asrwt>
<pdfrwt beam="2">  1       21 0.15460464E+00 0.93287192E+03</pdfrwt>
<pdfrwt beam="1">  1        4 0.46188292E-01 0.93287192E+03</pdfrwt>
<totfact> 0.45669822E+01</totfact>
</mgrwt>
</event>
<event>
 6    1  0.1431486E-005  0.9925682E+03  0.7818608E-02  0.9950396E-01
         21   -1    0    0  501  502  0.00000000000E+00  0.00000000000E+00  0.33089856607E+03  0.33089856607E+03  0.00000000000E+00 0.  1.
          4   -1    0    0  502    0 -0.00000000000E+00 -0.00000000000E+00 -0.97933306017E+03  0.97933306017E+03  0.00000000000E+00 0.  1.
    9000010    2    1    2  501    0 -0.79010714789E+02 -0.83243065410E+02 -0.66432084547E+03  0.11943675321E+04  0.98591050049E+03 0.  0.
        -13    1    3    3    0    0 -0.31141368872E+03  0.34346326976E+03 -0.49896673763E+03  0.68111182608E+03  0.10566000000E+00 0.  1.
          4    1    3    3  501    0  0.23240297393E+03 -0.42670633517E+03 -0.16535410784E+03  0.51325570601E+03  0.00000000000E+00 0.  1.
         13    1    1    2    0    0  0.79010714789E+02  0.83243065410E+02  0.15886351367E+02  0.11586409415E+03  0.10566000000E+00 0. -1.
<mgrwt>
<rscale>  1 0.57879830E+03</rscale>
<asrwt>0</asrwt>
<pdfrwt beam="1">  1       21 0.50907473E-01 0.99256819E+03</pdfrwt>
<pdfrwt beam="2">  1        4 0.15066662E+00 0.99256819E+03</pdfrwt>
<totfact> 0.42695733E+01</totfact>
</mgrwt>
</event>
<event>
 6    1  0.1431486E-005  0.1019855E+04  0.7818608E-02  0.9978132E-01
          4   -1    0    0  502    0 -0.00000000000E+00  0.00000000000E+00  0.45030679322E+03  0.45030679322E+03  0.00000000000E+00 0.  1.
         21   -1    0    0  501  502  0.00000000000E+00 -0.00000000000E+00 -0.73181205409E+03  0.73181205409E+03  0.00000000000E+00 0.  1.
    9000010    2    1    2  501    0 -0.40446273869E+02  0.88037208763E+02 -0.33242971640E+03  0.10726667458E+04  0.10152428182E+04 0.  0.
        -13    1    3    3    0    0  0.54730059377E+02  0.25709640276E+03  0.30717225048E+03  0.40428794484E+03  0.10566000000E+00 0.  1.
          4    1    3    3  501    0 -0.95176333246E+02 -0.16905919400E+03 -0.63960196688E+03  0.66837880092E+03  0.00000000000E+00 0.  1.
         13    1    1    2    0    0  0.40446273869E+02 -0.88037208763E+02  0.50924455533E+02  0.10945210154E+03  0.10566000000E+00 0. -1.
<mgrwt>
<rscale>  1 0.56619574E+03</rscale>
<asrwt>0</asrwt>
<pdfrwt beam="2">  1       21 0.11258647E+00 0.10198551E+04</pdfrwt>
<pdfrwt beam="1">  1        4 0.69277969E-01 0.10198551E+04</pdfrwt>
<totfact> 0.44099548E+01</totfact>
</mgrwt>
</event>
<event>
 6    1  0.1431486E-005  0.1034411E+04  0.7818608E-02  0.9630273E-01
         21   -1    0    0  501  502  0.00000000000E+00  0.00000000000E+00  0.27227580515E+04  0.27227580515E+04  0.00000000000E+00 0.  1.
          4   -1    0    0  502    0 -0.00000000000E+00 -0.00000000000E+00 -0.22947067055E+03  0.22947067055E+03  0.00000000000E+00 0.  1.
    9000010    2    1    2  501    0 -0.18337399304E+03 -0.22575807802E+03  0.24483905595E+04  0.26579355573E+04  0.99267938612E+03 0.  0.
        -13    1    3    3    0    0  0.96552466586E+02  0.65035973074E+02  0.21569339280E+04  0.21600731556E+04  0.10566000000E+00 0.  1.
          4    1    3    3  501    0 -0.27992645963E+03 -0.29079405110E+03  0.29145663149E+03  0.49786240167E+03  0.00000000000E+00 0.  1.
         13    1    1    2    0    0  0.18337399304E+03  0.22575807802E+03  0.44896821498E+02  0.29429316482E+03  0.10566000000E+00 0. -1.
<mgrwt>
<rscale>  1 0.75324513E+03</rscale>
<asrwt>0</asrwt>
<pdfrwt beam="1">  1       21 0.41888583E+00 0.10344105E+04</pdfrwt>
<pdfrwt beam="2">  1        4 0.35303182E-01 0.10344105E+04</pdfrwt>
<totfact> 0.14375896E+00</totfact>
</mgrwt>
</event>
<event>
 6    1  0.1431486E-005  0.9988222E+03  0.7818608E-02  0.1005626E+00
          4   -1    0    0  502    0 -0.00000000000E+00  0.00000000000E+00  0.15954296648E+04  0.15954296648E+04  0.00000000000E+00 0.  1.
         21   -1    0    0  501  502  0.00000000000E+00 -0.00000000000E+00 -0.18987854303E+03  0.18987854303E+03  0.00000000000E+00 0.  1.
    9000010    2    1    2  501    0  0.41835231884E+02 -0.69000638856E+02  0.11812365758E+04  0.15469213343E+04  0.99555737737E+03 0.  0.
        -13    1    3    3    0    0  0.44478801898E+03  0.28546505721E+02  0.99925321731E+03  0.10941472882E+04  0.10566000000E+00 0.  1.
          4    1    3    3  501    0 -0.40295278710E+03 -0.97547144576E+02  0.18198335854E+03  0.45277404611E+03  0.00000000000E+00 0.  1.
         13    1    1    2    0    0 -0.41835231884E+02  0.69000638856E+02  0.22431454595E+03  0.23838687354E+03  0.10566000000E+00 0. -1.
<mgrwt>
<rscale>  1 0.53250597E+03</rscale>
<asrwt>0</asrwt>
<pdfrwt beam="2">  1       21 0.29212085E-01 0.99882219E+03</pdfrwt>
<pdfrwt beam="1">  1        4 0.24545071E+00 0.99882219E+03</pdfrwt>
<totfact> 0.31088832E+01</totfact>
</mgrwt>
</event>
<event>
 6    1  0.1431486E-005  0.1051382E+04  0.7818608E-02  0.9618702E-01
          4   -1    0    0  502    0 -0.00000000000E+00  0.00000000000E+00  0.18375005698E+04  0.18375005698E+04  0.00000000000E+00 0.  1.
         21   -1    0    0  501  502  0.00000000000E+00 -0.00000000000E+00 -0.52778823449E+03  0.52778823449E+03  0.00000000000E+00 0.  1.
    9000010    2    1    2  501    0 -0.18273053579E+03  0.22277283561E+03  0.28174118478E+02  0.10517598182E+04  0.10111314203E+04 0.  0.
        -13    1    3    3    0    0 -0.48155696607E+03  0.19973037482E+03 -0.30469315467E+03  0.60384374126E+03  0.10566000000E+00 0.  1.
          4    1    3    3  501    0  0.29882643028E+03  0.23042460783E+02  0.33286727314E+03  0.44791607692E+03  0.00000000000E+00 0.  1.
         13    1    1    2    0    0  0.18273053579E+03 -0.22277283561E+03  0.12815382168E+04  0.13135289861E+04  0.10566000000E+00 0. -1.
<mgrwt>
<rscale>  1 0.76070660E+03</rscale>
<asrwt>0</asrwt>
<pdfrwt beam="2">  1       21 0.81198191E-01 0.10513824E+04</pdfrwt>
<pdfrwt beam="1">  1        4 0.28269239E+00 0.10513824E+04</pdfrwt>
<totfact> 0.19884613E+00</totfact>
</mgrwt>
</event>
<event>
 6    1  0.1431486E-005  0.1032117E+04  0.7818608E-02  0.9645329E-01
          4   -1    0    0  502    0 -0.00000000000E+00  0.00000000000E+00  0.80657224310E+03  0.80657224310E+03  0.00000000000E+00 0.  1.
         21   -1    0    0  501  502  0.00000000000E+00 -0.00000000000E+00 -0.79603234816E+03  0.79603234816E+03  0.00000000000E+00 0.  1.
    9000010    2    1    2  501    0  0.74558597390E+02 -0.26801276941E+03 -0.39980770003E+03  0.11068476056E+04  0.99391931057E+03 0.  0.
        -13    1    3    3    0    0  0.14079001333E+03 -0.60080614996E+03 -0.49372488232E+02  0.61905372259E+03  0.10566000000E+00 0.  1.
          4    1    3    3  501    0 -0.66231415941E+02  0.33279338056E+03 -0.35043521179E+03  0.48779388297E+03  0.00000000000E+00 0.  1.
         13    1    1    2    0    0 -0.74558597390E+02  0.26801276941E+03  0.41034759496E+03  0.49575698570E+03  0.10566000000E+00 0. -1.
<mgrwt>
<rscale>  1 0.74367328E+03</rscale>
<asrwt>0</asrwt>
<pdfrwt beam="2">  1       21 0.12246652E+00 0.10321170E+04</pdfrwt>
<pdfrwt beam="1">  1        4 0.12408804E+00 0.10321170E+04</pdfrwt>
<totfact> 0.88785476E+00</totfact>
</mgrwt>
</event>
<event>
 6    1  0.1431486E-005  0.1008195E+04  0.7818608E-02  0.9872009E-01
         21   -1    0    0  501  502  0.00000000000E+00  0.00000000000E+00  0.58222436834E+03  0.58222436834E+03  0.00000000000E+00 0.  1.
          4   -1    0    0  502    0 -0.00000000000E+00 -0.00000000000E+00 -0.57350404914E+03  0.57350404914E+03  0.00000000000E+00 0.  1.
    9000010    2    1    2  501    0 -0.13985699500E+03 -0.16647575722E+02  0.48542513644E+02  0.10093626457E+04  0.99830829607E+03 0.  0.
        -13    1    3    3    0    0  0.71281956791E+02 -0.47814628620E+03  0.11665990357E+03  0.49730728191E+03  0.10566000000E+00 0.  1.
          4    1    3    3  501    0 -0.21113895179E+03  0.46149871048E+03 -0.68117389930E+02  0.51205536375E+03  0.00000000000E+00 0.  1.
         13    1    1    2    0    0  0.13985699500E+03  0.16647575722E+02 -0.39822194443E+02  0.14636577182E+03  0.10566000000E+00 0. -1.
<mgrwt>
<rscale>  1 0.61637238E+03</rscale>
<asrwt>0</asrwt>
<pdfrwt beam="1">  1       21 0.89572980E-01 0.10081947E+04</pdfrwt>
<pdfrwt beam="2">  1        4 0.88231392E-01 0.10081947E+04</pdfrwt>
<totfact> 0.44769132E+01</totfact>
</mgrwt>
</event>
<event>
 6    1  0.1431486E-005  0.1041379E+04  0.7818608E-02  0.9754002E-01
          4   -1    0    0  502    0 -0.00000000000E+00  0.00000000000E+00  0.26101417189E+04  0.26101417189E+04  0.00000000000E+00 0.  1.
         21   -1    0    0  501  502  0.00000000000E+00 -0.00000000000E+00 -0.18077401827E+03  0.18077401827E+03  0.00000000000E+00 0.  1.
    9000010    2    1    2  501    0  0.14838094894E+03  0.11562153900E+03  0.14018762413E+04  0.17463469475E+04  0.10242487094E+04 0.  0.
        -13    1    3    3    0    0 -0.34439216311E+03  0.26696746101E+03  0.10062204180E+04  0.10965204640E+04  0.10566000000E+00 0.  1.
          4    1    3    3  501    0  0.49277311205E+03 -0.15134592201E+03  0.39565582329E+03  0.64982648344E+03  0.00000000000E+00 0.  1.
         13    1    1    2    0    0 -0.14838094894E+03 -0.11562153900E+03  0.10274914593E+04  0.10445687897E+04  0.10566000000E+00 0. -1.
<mgrwt>
<rscale>  1 0.67890573E+03</rscale>
<asrwt>0</asrwt>
<pdfrwt beam="2">  1       21 0.27811389E-01 0.10413792E+04</pdfrwt>
<pdfrwt beam="1">  1        4 0.40156024E+00 0.10413792E+04</pdfrwt>
<totfact> 0.34307024E+00</totfact>
</mgrwt>
</event>
<event>
 6    1  0.1431486E-005  0.1200542E+04  0.7818608E-02  0.9432380E-01
          4   -1    0    0  502    0 -0.00000000000E+00  0.00000000000E+00  0.96091165778E+03  0.96091165778E+03  0.00000000000E+00 0.  1.
         21   -1    0    0  501  502  0.00000000000E+00 -0.00000000000E+00 -0.64434415635E+03  0.64434415635E+03  0.00000000000E+00 0.  1.
    9000010    2    1    2  501    0  0.32401356302E+03  0.17890670327E+03  0.19911566083E+03  0.12169423537E+04  0.11420635921E+04 0.  0.
        -13    1    3    3    0    0  0.11792918024E+02  0.15079709182E+03 -0.46153533006E+03  0.48568890030E+03  0.10566000000E+00 0.  1.
          4    1    3    3  501    0  0.31222064500E+03  0.28109611456E+02  0.66065099088E+03  0.73125345344E+03  0.00000000000E+00 0.  1.
         13    1    1    2    0    0 -0.32401356302E+03 -0.17890670327E+03  0.11745184060E+03  0.38831346039E+03  0.10566000000E+00 0. -1.
<mgrwt>
<rscale>  1 0.89458198E+03</rscale>
<asrwt>0</asrwt>
<pdfrwt beam="2">  1       21 0.99129870E-01 0.12005422E+04</pdfrwt>
<pdfrwt beam="1">  1        4 0.14783256E+00 0.12005422E+04</pdfrwt>
<totfact> 0.94638708E+00</totfact>
</mgrwt>
</event>
<event>
 6    1  0.1431486E-005  0.1009233E+04  0.7818608E-02  0.1013155E+00
          4   -1    0    0  502    0 -0.00000000000E+00  0.00000000000E+00  0.75485077009E+03  0.75485077009E+03  0.00000000000E+00 0.  1.
         21   -1    0    0  501  502  0.00000000000E+00 -0.00000000000E+00 -0.39498872090E+03  0.39498872090E+03  0.00000000000E+00 0.  1.
    9000010    2    1    2  501    0 -0.50771581223E+02  0.35541071051E+02  0.27735882045E+03  0.10466517247E+04  0.10073286437E+04 0.  0.
        -13    1    3    3    0    0 -0.17222405832E+03  0.50017092827E+03  0.14483231460E+03  0.54846011182E+03  0.10566000000E+00 0.  1.
          4    1    3    3  501    0  0.12145247710E+03 -0.46462985721E+03  0.13252650586E+03  0.49819161290E+03  0.00000000000E+00 0.  1.
         13    1    1    2    0    0  0.50771581223E+02 -0.35541071051E+02  0.82503228742E+02  0.10318776627E+03  0.10566000000E+00 0. -1.
<mgrwt>
<rscale>  1 0.50239843E+03</rscale>
<asrwt>0</asrwt>
<pdfrwt beam="2">  1       21 0.60767496E-01 0.10092333E+04</pdfrwt>
<pdfrwt beam="1">  1        4 0.11613089E+00 0.10092333E+04</pdfrwt>
<totfact> 0.56636625E+01</totfact>
</mgrwt>
</event>
<event>
 6    1  0.1431486E-005  0.9948410E+03  0.7818608E-02  0.1004274E+00
         21   -1    0    0  501  502  0.00000000000E+00  0.00000000000E+00  0.12472418375E+04  0.12472418375E+04  0.00000000000E+00 0.  1.
          4   -1    0    0  502    0 -0.00000000000E+00 -0.00000000000E+00 -0.35621968833E+03  0.35621968833E+03  0.00000000000E+00 0.  1.
    9000010    2    1    2  501    0  0.72821162345E+02 -0.44197309992E+02  0.10353642896E+04  0.14358578607E+04  0.99118729816E+03 0.  0.
        -13    1    3    3    0    0 -0.29204935064E+03  0.26970103869E+03  0.81440505068E+03  0.90624890136E+03  0.10566000000E+00 0.  1.
          4    1    3    3  501    0  0.36487051298E+03 -0.31389834868E+03  0.22095923895E+03  0.52960895935E+03  0.00000000000E+00 0.  1.
         13    1    1    2    0    0 -0.72821162345E+02  0.44197309992E+02 -0.14434214044E+03  0.16760366513E+03  0.10566000000E+00 0. -1.
<mgrwt>
<rscale>  1 0.53815195E+03</rscale>
<asrwt>0</asrwt>
<pdfrwt beam="1">  1       21 0.19188336E+00 0.99484098E+03</pdfrwt>
<pdfrwt beam="2">  1        4 0.54803030E-01 0.99484098E+03</pdfrwt>
<totfact> 0.16714027E+01</totfact>
</mgrwt>
</event>
<event>
 6    1  0.1431486E-005  0.1025045E+04  0.7818608E-02  0.9652894E-01
         21   -1    0    0  501  502  0.00000000000E+00  0.00000000000E+00  0.59795119470E+03  0.59795119470E+03  0.00000000000E+00 0. -1.
          4   -1    0    0  502    0 -0.00000000000E+00 -0.00000000000E+00 -0.70887765637E+03  0.70887765637E+03  0.00000000000E+00 0.  1.
    9000010    2    1    2  501    0  0.13299204549E+02  0.27647799241E+03 -0.76444418449E+02  0.10278916331E+04  0.98696530388E+03 0.  0.
        -13    1    3    3    0    0 -0.44000996201E+03  0.91260775104E+02  0.16904046449E+03  0.48011663743E+03  0.10566000000E+00 0.  1.
          4    1    3    3  501    0  0.45330916656E+03  0.18521721730E+03 -0.24548488294E+03  0.54777499562E+03  0.00000000000E+00 0.  1.
         13    1    1    2    0    0 -0.13299204549E+02 -0.27647799241E+03 -0.34482043220E+02  0.27893721802E+03  0.10566000000E+00 0. -1.
<mgrwt>
<rscale>  1 0.73892072E+03</rscale>
<asrwt>0</asrwt>
<pdfrwt beam="1">  1       21 0.91992492E-01 0.10250451E+04</pdfrwt>
<pdfrwt beam="2">  1        4 0.10905810E+00 0.10250451E+04</pdfrwt>
<totfact> 0.25194249E+01</totfact>
</mgrwt>
</event>
<event>
 6    1  0.1431486E-005  0.1048786E+04  0.7818608E-02  0.9566043E-01
         21   -1    0    0  501  502  0.00000000000E+00  0.00000000000E+00  0.14759989752E+04  0.14759989752E+04  0.00000000000E+00 0.  1.
          4   -1    0    0  502    0 -0.00000000000E+00 -0.00000000000E+00 -0.33079480415E+03  0.33079480415E+03  0.00000000000E+00 0.  1.
    9000010    2    1    2  501    0 -0.12857723371E+03  0.32310529834E+03  0.83056555017E+03  0.13378304420E+04  0.98945541569E+03 0.  0.
        -13    1    3    3    0    0 -0.45308650872E+03  0.47159320217E+03  0.35768776222E+03  0.74540464120E+03  0.10566000000E+00 0.  1.
          4    1    3    3  501    0  0.32450927501E+03 -0.14848790383E+03  0.47287778794E+03  0.59242580082E+03  0.00000000000E+00 0.  1.
         13    1    1    2    0    0  0.12857723371E+03 -0.32310529834E+03  0.31463862089E+03  0.46896333733E+03  0.10566000000E+00 0. -1.
<mgrwt>
<rscale>  1 0.79585043E+03</rscale>
<asrwt>0</asrwt>
<pdfrwt beam="1">  1       21 0.22707676E+00 0.10487856E+04</pdfrwt>
<pdfrwt beam="2">  1        4 0.50891509E-01 0.10487856E+04</pdfrwt>
<totfact> 0.11239715E+01</totfact>
</mgrwt>
</event>
<event>
 6    1  0.1431486E-005  0.1027579E+04  0.7818608E-02  0.9885826E-01
         21   -1    0    0  501  502  0.00000000000E+00  0.00000000000E+00  0.21147964799E+04  0.21147964799E+04  0.00000000000E+00 0.  1.
          4   -1    0    0  502    0 -0.00000000000E+00 -0.00000000000E+00 -0.16501941585E+03  0.16501941585E+03  0.00000000000E+00 0.  1.
    9000010    2    1    2  501    0 -0.98384115143E+02  0.80649270148E+02  0.18570477231E+04  0.21223913719E+04  0.10196740413E+04 0.  0.
        -13    1    3    3    0    0  0.34870941489E+03  0.35565927743E+03  0.10045364041E+04  0.11212426927E+04  0.10566000000E+00 0.  1.
          4    1    3    3  501    0 -0.44709353004E+03 -0.27501000728E+03  0.85251131904E+03  0.10011486792E+04  0.00000000000E+00 0.  1.
         13    1    1    2    0    0  0.98384115143E+02 -0.80649270148E+02  0.92729340975E+02  0.15742452391E+03  0.10566000000E+00 0. -1.
<mgrwt>
<rscale>  1 0.60953178E+03</rscale>
<asrwt>0</asrwt>
<pdfrwt beam="1">  1       21 0.32535329E+00 0.10275791E+04</pdfrwt>
<pdfrwt beam="2">  1        4 0.25387604E-01 0.10275791E+04</pdfrwt>
<totfact> 0.10973329E+01</totfact>
</mgrwt>
</event>
<event>
 6    1  0.1431486E-005  0.1085029E+04  0.7818608E-02  0.9455184E-01
          4   -1    0    0  502    0 -0.00000000000E+00  0.00000000000E+00  0.15008077565E+04  0.15008077565E+04  0.00000000000E+00 0.  1.
         21   -1    0    0  501  502  0.00000000000E+00 -0.00000000000E+00 -0.54446767748E+03  0.54446767748E+03  0.00000000000E+00 0.  1.
    9000010    2    1    2  501    0  0.40176351854E+03 -0.22904953996E+03  0.12269574555E+03  0.10919441681E+04  0.98153461668E+03 0.  0.
        -13    1    3    3    0    0  0.93548761281E+02  0.34418217972E+03 -0.14916959639E+03  0.38660616036E+03  0.10566000000E+00 0.  1.
          4    1    3    3  501    0  0.30821475726E+03 -0.57323171968E+03  0.27186534195E+03  0.70533800776E+03  0.00000000000E+00 0.  1.
         13    1    1    2    0    0 -0.40176351854E+03  0.22904953996E+03  0.83364433344E+03  0.95333126584E+03  0.10566000000E+00 0. -1.
<mgrwt>
<rscale>  1 0.87670133E+03</rscale>
<asrwt>0</asrwt>
<pdfrwt beam="2">  1       21 0.83764259E-01 0.10850289E+04</pdfrwt>
<pdfrwt beam="1">  1        4 0.23089350E+00 0.10850289E+04</pdfrwt>
<totfact> 0.38510830E+00</totfact>
</mgrwt>
</event>
<event>
 6    1  0.1431486E-005  0.1013057E+04  0.7818608E-02  0.9792924E-01
          4   -1    0    0  502    0 -0.00000000000E+00  0.00000000000E+00  0.26558833729E+03  0.26558833729E+03  0.00000000000E+00 0.  1.
         21   -1    0    0  501  502  0.00000000000E+00 -0.00000000000E+00 -0.13697037780E+04  0.13697037780E+04  0.00000000000E+00 0.  1.
    9000010    2    1    2  501    0 -0.10656464383E+03  0.14467524453E+03 -0.10174841934E+04  0.14358129588E+04  0.99699439278E+03 0.  0.
        -13    1    3    3    0    0 -0.34301549193E+03  0.47737914182E+03 -0.72654293567E+03  0.93456680943E+03  0.10566000000E+00 0.  1.
          4    1    3    3  501    0  0.23645084809E+03 -0.33270389730E+03 -0.29094125774E+03  0.50124614941E+03  0.00000000000E+00 0.  1.
         13    1    1    2    0    0  0.10656464383E+03 -0.14467524453E+03 -0.86631247346E+02  0.19947915649E+03  0.10566000000E+00 0. -1.
<mgrwt>
<rscale>  1 0.65743656E+03</rscale>
<asrwt>0</asrwt>
<pdfrwt beam="2">  1       21 0.21072366E+00 0.10130571E+04</pdfrwt>
<pdfrwt beam="1">  1        4 0.40859744E-01 0.10130571E+04</pdfrwt>
<totfact> 0.22892861E+01</totfact>
</mgrwt>
</event>
<event>
 6    1  0.1431486E-005  0.1022911E+04  0.7818608E-02  0.9632491E-01
          4   -1    0    0  502    0 -0.00000000000E+00  0.00000000000E+00  0.43726252280E+03  0.43726252280E+03  0.00000000000E+00 0.  1.
         21   -1    0    0  501  502  0.00000000000E+00 -0.00000000000E+00 -0.10798468844E+04  0.10798468844E+04  0.00000000000E+00 0.  1.
    9000010    2    1    2  501    0 -0.16432266005E+03 -0.24920819647E+03 -0.66123107888E+03  0.12180201680E+04  0.97838639002E+03 0.  0.
        -13    1    3    3    0    0  0.23941328580E+03 -0.43254115863E+03 -0.58864150115E+03  0.76870631802E+03  0.10566000000E+00 0.  1.
          4    1    3    3  501    0 -0.40373594585E+03  0.18333296216E+03 -0.72589577723E+02  0.44931384997E+03  0.00000000000E+00 0.  1.
         13    1    1    2    0    0  0.16432266005E+03  0.24920819647E+03  0.18646717252E+02  0.29908923923E+03  0.10566000000E+00 0. -1.
<mgrwt>
<rscale>  1 0.75182561E+03</rscale>
<asrwt>0</asrwt>
<pdfrwt beam="2">  1       21 0.16613029E+00 0.10229108E+04</pdfrwt>
<pdfrwt beam="1">  1        4 0.67271157E-01 0.10229108E+04</pdfrwt>
<totfact> 0.16399616E+01</totfact>
</mgrwt>
</event>
<event>
 6    1  0.1431486E-005  0.1059227E+04  0.7818608E-02  0.9708826E-01
          4   -1    0    0  502    0 -0.00000000000E+00  0.00000000000E+00  0.93748183898E+03  0.93748183898E+03  0.00000000000E+00 0.  1.
         21   -1    0    0  501  502  0.00000000000E+00 -0.00000000000E+00 -0.57874665151E+03  0.57874665151E+03  0.00000000000E+00 0.  1.
    9000010    2    1    2  501    0 -0.14848855730E+03  0.14536043969E+03 -0.47116153027E+02  0.10602747310E+04  0.10386453024E+04 0.  0.
        -13    1    3    3    0    0 -0.28685693407E+03 -0.23645621705E+03 -0.38263712136E+03  0.53348816389E+03  0.10566000000E+00 0.  1.
          4    1    3    3  501    0  0.13836837677E+03  0.38181665674E+03  0.33552096834E+03  0.52678656707E+03  0.00000000000E+00 0.  1.
         13    1    1    2    0    0  0.14848855730E+03 -0.14536043969E+03  0.40585134050E+03  0.45595375953E+03  0.10566000000E+00 0. -1.
<mgrwt>
<rscale>  1 0.70493708E+03</rscale>
<asrwt>0</asrwt>
<pdfrwt beam="2">  1       21 0.89037947E-01 0.10592273E+04</pdfrwt>
<pdfrwt beam="1">  1        4 0.14422797E+00 0.10592273E+04</pdfrwt>
<totfact> 0.13326351E+01</totfact>
</mgrwt>
</event>
<event>
 6    1  0.1431486E-005  0.1049473E+04  0.7818608E-02  0.9627311E-01
         21   -1    0    0  501  502  0.00000000000E+00  0.00000000000E+00  0.14235589355E+04  0.14235589355E+04  0.00000000000E+00 0. -1.
          4   -1    0    0  502    0 -0.00000000000E+00 -0.00000000000E+00 -0.36154418878E+03  0.36154418878E+03  0.00000000000E+00 0.  1.
    9000010    2    1    2  501    0  0.28105806029E+03 -0.12269704865E+02  0.51286406720E+03  0.11680855728E+04  0.10110638827E+04 0.  0.
        -13    1    3    3    0    0 -0.61943219636E+02 -0.47137929943E+03  0.25735629411E+03  0.54061786844E+03  0.10566000000E+00 0.  1.
          4    1    3    3  501    0  0.34300127993E+03  0.45910959457E+03  0.25550777309E+03  0.62746770432E+03  0.00000000000E+00 0.  1.
         13    1    1    2    0    0 -0.28105806029E+03  0.12269704865E+02  0.54915067952E+03  0.61701755153E+03  0.10566000000E+00 0. -1.
<mgrwt>
<rscale>  1 0.75514613E+03</rscale>
<asrwt>0</asrwt>
<pdfrwt beam="1">  1       21 0.21900906E+00 0.10494734E+04</pdfrwt>
<pdfrwt beam="2">  1        4 0.55622184E-01 0.10494734E+04</pdfrwt>
<totfact> 0.10505890E+01</totfact>
</mgrwt>
</event>
<event>
 6    1  0.1431486E-005  0.1015059E+04  0.7818608E-02  0.9902420E-01
          4   -1    0    0  502    0 -0.00000000000E+00  0.00000000000E+00  0.19822714605E+03  0.19822714605E+03  0.00000000000E+00 0.  1.
         21   -1    0    0  501  502  0.00000000000E+00 -0.00000000000E+00 -0.17713024626E+04  0.17713024626E+04  0.00000000000E+00 0.  1.
    9000010    2    1    2  501    0 -0.11542919227E+03  0.48261110919E+02 -0.15321633401E+04  0.18378981753E+04  0.10073192984E+04 0.  0.
        -13    1    3    3    0    0 -0.16964323601E+03  0.51360838269E+03 -0.91712564686E+03  0.10647496708E+04  0.10566000000E+00 0.  1.
          4    1    3    3  501    0  0.54214043739E+02 -0.46534727177E+03 -0.61503769321E+03  0.77314850446E+03  0.00000000000E+00 0.  1.
         13    1    1    2    0    0  0.11542919227E+03 -0.48261110919E+02 -0.40911976464E+02  0.13163143332E+03  0.10566000000E+00 0. -1.
<mgrwt>
<rscale>  1 0.60144149E+03</rscale>
<asrwt>0</asrwt>
<pdfrwt beam="2">  1       21 0.27250806E+00 0.10150592E+04</pdfrwt>
<pdfrwt beam="1">  1        4 0.30496485E-01 0.10150592E+04</pdfrwt>
<totfact> 0.16449248E+01</totfact>
</mgrwt>
</event>
<event>
 6    1  0.1431486E-005  0.1063984E+04  0.7818608E-02  0.9534028E-01
         21   -1    0    0  501  502  0.00000000000E+00  0.00000000000E+00  0.43591144968E+04  0.43591144968E+04  0.00000000000E+00 0. -1.
          4   -1    0    0  502    0 -0.00000000000E+00 -0.00000000000E+00 -0.12110241648E+03  0.12110241648E+03  0.00000000000E+00 0.  1.
    9000010    2    1    2  501    0  0.23303921759E+03 -0.29007930191E+03  0.28151649782E+04  0.30095207633E+04  0.99679892259E+03 0.  0.
        -13    1    3    3    0    0  0.37925035820E+03 -0.59830245210E+03  0.16547270793E+04  0.17999773267E+04  0.10566000000E+00 0.  1.
          4    1    3    3  501    0 -0.14621114061E+03  0.30822315020E+03  0.11604378989E+04  0.12095434366E+04  0.00000000000E+00 0.  1.
         13    1    1    2    0    0 -0.23303921759E+03  0.29007930191E+03  0.14228471021E+04  0.14706961500E+04  0.10566000000E+00 0. -1.
<mgrwt>
<rscale>  1 0.81820891E+03</rscale>
<asrwt>0</asrwt>
<pdfrwt beam="1">  1       21 0.67063288E+00 0.10639837E+04</pdfrwt>
<pdfrwt beam="2">  1        4 0.18631144E-01 0.10639837E+04</pdfrwt>
<totfact> 0.61487683E-02</totfact>
</mgrwt>
</event>
<event>
 6    1  0.1431486E-005  0.1056079E+04  0.7818608E-02  0.9541688E-01
         21   -1    0    0  501  502  0.00000000000E+00  0.00000000000E+00  0.48189102402E+03  0.48189102402E+03  0.00000000000E+00 0.  1.
          4   -1    0    0  502    0 -0.00000000000E+00 -0.00000000000E+00 -0.11343934147E+04  0.11343934147E+04  0.00000000000E+00 0.  1.
    9000010    2    1    2  501    0 -0.22680301387E+03 -0.29300530772E+03 -0.28375517518E+03  0.10935357060E+04  0.98894470190E+03 0.  0.
        -13    1    3    3    0    0 -0.57053916893E+03 -0.34840848998E+03 -0.32428859295E+03  0.74301179119E+03  0.10566000000E+00 0.  1.
          4    1    3    3  501    0  0.34373615506E+03  0.55403182251E+02  0.40533417772E+02  0.35052391481E+03  0.00000000000E+00 0.  1.
         13    1    1    2    0    0  0.22680301387E+03  0.29300530772E+03 -0.36874721548E+03  0.52274873270E+03  0.10566000000E+00 0. -1.
<mgrwt>
<rscale>  1 0.81278920E+03</rscale>
<asrwt>0</asrwt>
<pdfrwt beam="1">  1       21 0.74137081E-01 0.10560792E+04</pdfrwt>
<pdfrwt beam="2">  1        4 0.17452206E+00 0.10560792E+04</pdfrwt>
<totfact> 0.12170886E+01</totfact>
</mgrwt>
</event>
<event>
 6    1  0.1431486E-005  0.9505850E+03  0.7818608E-02  0.9981819E-01
         21   -1    0    0  501  502  0.00000000000E+00  0.00000000000E+00  0.36067526869E+03  0.36067526869E+03  0.00000000000E+00 0.  1.
          4   -1    0    0  502    0 -0.00000000000E+00 -0.00000000000E+00 -0.95138170021E+03  0.95138170021E+03  0.00000000000E+00 0.  1.
    9000010    2    1    2  501    0 -0.39399458625E+02 -0.11150072165E+03 -0.29773938431E+03  0.99612275078E+03  0.94320043755E+03 0.  0.
        -13    1    3    3    0    0 -0.32899416119E+03  0.25268080322E+03 -0.32947509804E+03  0.52975333676E+03  0.10566000000E+00 0.  1.
          4    1    3    3  501    0  0.28959470256E+03 -0.36418152488E+03  0.31735713725E+02  0.46636941403E+03  0.00000000000E+00 0.  1.
         13    1    1    2    0    0  0.39399458625E+02  0.11150072165E+03 -0.29296704721E+03  0.31593421812E+03  0.10566000000E+00 0. -1.
<mgrwt>
<rscale>  1 0.56454687E+03</rscale>
<asrwt>0</asrwt>
<pdfrwt beam="1">  1       21 0.55488504E-01 0.95058497E+03</pdfrwt>
<pdfrwt beam="2">  1        4 0.14636641E+00 0.95058497E+03</pdfrwt>
<totfact> 0.38367018E+01</totfact>
</mgrwt>
</event>
<event>
 6    1  0.1431486E-005  0.1026322E+04  0.7818608E-02  0.9748032E-01
          4   -1    0    0  502    0 -0.00000000000E+00  0.00000000000E+00  0.11776325891E+03  0.11776325891E+03  0.00000000000E+00 0.  1.
         21   -1    0    0  501  502  0.00000000000E+00 -0.00000000000E+00 -0.31952937982E+04  0.31952937982E+04  0.00000000000E+00 0.  1.
    9000010    2    1    2  501    0 -0.63506630945E+02  0.19011595908E+03 -0.25603590112E+04  0.27584007936E+04  0.10065582455E+04 0.  0.
        -13    1    3    3    0    0 -0.52576755659E+03  0.16789958174E+03 -0.11840891803E+04  0.13064030738E+04  0.10566000000E+00 0.  1.
          4    1    3    3  501    0  0.46226092565E+03  0.22216377340E+02 -0.13762698309E+04  0.14519977198E+04  0.00000000000E+00 0.  1.
         13    1    1    2    0    0  0.63506630945E+02 -0.19011595908E+03 -0.51717152803E+03  0.55465626350E+03  0.10566000000E+00 0. -1.
<mgrwt>
<rscale>  1 0.68227615E+03</rscale>
<asrwt>0</asrwt>
<pdfrwt beam="2">  1       21 0.49158358E+00 0.10263219E+04</pdfrwt>
<pdfrwt beam="1">  1        4 0.18117427E-01 0.10263219E+04</pdfrwt>
<totfact> 0.16297019E+00</totfact>
</mgrwt>
</event>
<event>
 6    1  0.1431486E-005  0.1191132E+04  0.7818608E-02  0.9297398E-01
         21   -1    0    0  501  502  0.00000000000E+00  0.00000000000E+00  0.10428595379E+04  0.10428595379E+04  0.00000000000E+00 0. -1.
          4   -1    0    0  502    0 -0.00000000000E+00 -0.00000000000E+00 -0.79597795150E+03  0.79597795150E+03  0.00000000000E+00 0.  1.
    9000010    2    1    2  501    0  0.23437145155E+03 -0.57000396303E+03  0.51282095594E+02  0.11922358600E+04  0.10192948530E+04 0.  0.
        -13    1    3    3    0    0  0.10303020544E+03 -0.16426198106E+03 -0.47605644532E+03  0.51403012747E+03  0.10566000000E+00 0.  1.
          4    1    3    3  501    0  0.13134124611E+03 -0.40574198197E+03  0.52733854091E+03  0.67820573250E+03  0.00000000000E+00 0.  1.
         13    1    1    2    0    0 -0.23437145155E+03  0.57000396303E+03  0.19559949077E+03  0.64660162939E+03  0.10566000000E+00 0. -1.
<mgrwt>
<rscale>  1 0.10102280E+04</rscale>
<asrwt>0</asrwt>
<pdfrwt beam="1">  1       21 0.16043993E+00 0.11911324E+04</pdfrwt>
<pdfrwt beam="2">  1        4 0.12245815E+00 0.11911324E+04</pdfrwt>
<totfact> 0.43069620E+00</totfact>
</mgrwt>
</event>
<event>
 6    1  0.1431486E-005  0.1043470E+04  0.7818608E-02  0.9579880E-01
          4   -1    0    0  502    0 -0.00000000000E+00  0.00000000000E+00  0.36606948139E+03  0.36606948139E+03  0.00000000000E+00 0.  1.
         21   -1    0    0  501  502  0.00000000000E+00 -0.00000000000E+00 -0.13426933544E+04  0.13426933544E+04  0.00000000000E+00 0.  1.
    9000010    2    1    2  501    0 -0.90575424183E+02  0.32424105750E+03 -0.86092258008E+03  0.13527811351E+04  0.98767046118E+03 0.  0.
        -13    1    3    3    0    0  0.31592722176E+03  0.18848575558E+03  0.24907441578E+02  0.36872385510E+03  0.10566000000E+00 0.  1.
          4    1    3    3  501    0 -0.40650264595E+03  0.13575530192E+03 -0.88583002166E+03  0.98405728005E+03  0.00000000000E+00 0.  1.
         13    1    1    2    0    0  0.90575424183E+02 -0.32424105750E+03 -0.11570129290E+03  0.35598170062E+03  0.10566000000E+00 0. -1.
<mgrwt>
<rscale>  1 0.78642257E+03</rscale>
<asrwt>0</asrwt>
<pdfrwt beam="2">  1       21 0.20656821E+00 0.10434697E+04</pdfrwt>
<pdfrwt beam="1">  1        4 0.56318382E-01 0.10434697E+04</pdfrwt>
<totfact> 0.12405138E+01</totfact>
</mgrwt>
</event>
<event>
 6    1  0.1431486E-005  0.1023887E+04  0.7818608E-02  0.9883602E-01
         21   -1    0    0  501  502  0.00000000000E+00  0.00000000000E+00  0.57258299175E+03  0.57258299175E+03  0.00000000000E+00 0.  1.
          4   -1    0    0  502    0 -0.00000000000E+00 -0.00000000000E+00 -0.96987493708E+03  0.96987493708E+03  0.00000000000E+00 0.  1.
    9000010    2    1    2  501    0 -0.11474560806E+03 -0.60079205958E+02  0.99827267340E+02  0.10287424547E+04  0.10156620941E+04 0.  0.
        -13    1    3    3    0    0  0.28943389732E+03 -0.31651131406E+03 -0.19008265636E+03  0.46912985436E+03  0.10566000000E+00 0.  1.
          4    1    3    3  501    0 -0.40417950538E+03  0.25643210810E+03  0.28990992370E+03  0.55961260037E+03  0.00000000000E+00 0.  1.
         13    1    1    2    0    0  0.11474560806E+03  0.60079205958E+02 -0.49711921267E+03  0.51371547410E+03  0.10566000000E+00 0. -1.
<mgrwt>
<rscale>  1 0.61062625E+03</rscale>
<asrwt>0</asrwt>
<pdfrwt beam="1">  1       21 0.88089691E-01 0.10238875E+04</pdfrwt>
<pdfrwt beam="2">  1        4 0.14921153E+00 0.10238875E+04</pdfrwt>
<totfact> 0.12534748E+01</totfact>
</mgrwt>
</event>
<event>
 6    1  0.1431486E-005  0.1059002E+04  0.7818608E-02  0.9550920E-01
         21   -1    0    0  501  502  0.00000000000E+00  0.00000000000E+00  0.11247433091E+04  0.11247433091E+04  0.00000000000E+00 0.  1.
          4   -1    0    0  502    0 -0.00000000000E+00 -0.00000000000E+00 -0.44570945276E+03  0.44570945276E+03  0.00000000000E+00 0.  1.
    9000010    2    1    2  501    0 -0.19850985191E+03  0.29539752893E+03  0.48038105176E+03  0.11628637417E+04  0.99740677036E+03 0.  0.
        -13    1    3    3    0    0 -0.53189639418E+03  0.23719243746E+03  0.56775372630E+03  0.81333777204E+03  0.10566000000E+00 0.  1.
          4    1    3    3  501    0  0.33338654227E+03  0.58205091471E+02 -0.87372674535E+02  0.34952596970E+03  0.00000000000E+00 0.  1.
         13    1    1    2    0    0  0.19850985191E+03 -0.29539752893E+03  0.19865280459E+03  0.40758902014E+03  0.10566000000E+00 0. -1.
<mgrwt>
<rscale>  1 0.80631590E+03</rscale>
<asrwt>0</asrwt>
<pdfrwt beam="1">  1       21 0.17303743E+00 0.10590024E+04</pdfrwt>
<pdfrwt beam="2">  1        4 0.68570686E-01 0.10590024E+04</pdfrwt>
<totfact> 0.13890918E+01</totfact>
</mgrwt>
</event>
<event>
 6    1  0.1431486E-005  0.1045737E+04  0.7818608E-02  0.9585294E-01
          4   -1    0    0  502    0 -0.00000000000E+00  0.00000000000E+00  0.14227664629E+04  0.14227664629E+04  0.00000000000E+00 0.  1.
         21   -1    0    0  501  502  0.00000000000E+00 -0.00000000000E+00 -0.34915568857E+03  0.34915568857E+03  0.00000000000E+00 0. -1.
    9000010    2    1    2  501    0 -0.29960436234E+03  0.13423834571E+03  0.97341201746E+03  0.14286693154E+04  0.99286572590E+03 0.  0.
        -13    1    3    3    0    0 -0.30210989120E+03 -0.81875468415E+02 -0.10396928284E+03  0.32982359168E+03  0.10566000000E+00 0.  1.
          4    1    3    3  501    0  0.25055288558E+01  0.21611381413E+03  0.10773813003E+04  0.10988457237E+04  0.00000000000E+00 0.  1.
         13    1    1    2    0    0  0.29960436234E+03 -0.13423834571E+03  0.10019875683E+03  0.34325283601E+03  0.10566000000E+00 0. -1.
<mgrwt>
<rscale>  1 0.78277227E+03</rscale>
<asrwt>0</asrwt>
<pdfrwt beam="2">  1       21 0.53716261E-01 0.10457366E+04</pdfrwt>
<pdfrwt beam="1">  1        4 0.21888715E+00 0.10457366E+04</pdfrwt>
<totfact> 0.12691467E+01</totfact>
</mgrwt>
</event>
<event>
 6    1  0.1431486E-005  0.1024043E+04  0.7818608E-02  0.9631011E-01
         21   -1    0    0  501  502  0.00000000000E+00  0.00000000000E+00  0.50967882362E+03  0.50967882362E+03  0.00000000000E+00 0.  1.
          4   -1    0    0  502    0 -0.00000000000E+00 -0.00000000000E+00 -0.15193494503E+04  0.15193494503E+04  0.00000000000E+00 0.  1.
    9000010    2    1    2  501    0  0.93215858913E+02 -0.28411889366E+03 -0.51559533901E+02  0.10253402649E+04  0.97941387130E+03 0.  0.
        -13    1    3    3    0    0  0.85375118932E+02 -0.55373415162E+03  0.25622923947E+03  0.61608753918E+03  0.10566000000E+00 0.  1.
          4    1    3    3  501    0  0.78407399809E+01  0.26961525797E+03 -0.30778877337E+03  0.40925272576E+03  0.00000000000E+00 0.  1.
         13    1    1    2    0    0 -0.93215858913E+02  0.28411889366E+03 -0.95811109278E+03  0.10036880090E+04  0.10566000000E+00 0. -1.
<mgrwt>
<rscale>  1 0.75277227E+03</rscale>
<asrwt>0</asrwt>
<pdfrwt beam="1">  1       21 0.78412127E-01 0.10240431E+04</pdfrwt>
<pdfrwt beam="2">  1        4 0.23374607E+00 0.10240431E+04</pdfrwt>
<totfact> 0.43531970E+00</totfact>
</mgrwt>
</event>
<event>
 6    1  0.1431486E-005  0.1020817E+04  0.7818608E-02  0.9968276E-01
         21   -1    0    0  501  502  0.00000000000E+00  0.00000000000E+00  0.68660766068E+03  0.68660766068E+03  0.00000000000E+00 0.  1.
          4   -1    0    0  502    0 -0.00000000000E+00 -0.00000000000E+00 -0.49017892086E+03  0.49017892086E+03  0.00000000000E+00 0.  1.
    9000010    2    1    2  501    0  0.56067942650E+02 -0.82410958356E+02  0.26639764448E+03  0.10550046492E+04  0.10159389375E+04 0.  0.
        -13    1    3    3    0    0  0.47380530034E+03  0.18448533715E+03  0.22968842853E+03  0.55792749315E+03  0.10566000000E+00 0.  1.
          4    1    3    3  501    0 -0.41773735769E+03 -0.26689629551E+03  0.36709215952E+02  0.49707715608E+03  0.00000000000E+00 0.  1.
         13    1    1    2    0    0 -0.56067942650E+02  0.82410958356E+02 -0.69968904662E+02  0.12178193230E+03  0.10566000000E+00 0. -1.
<mgrwt>
<rscale>  1 0.57063435E+03</rscale>
<asrwt>0</asrwt>
<pdfrwt beam="1">  1       21 0.10563195E+00 0.10208169E+04</pdfrwt>
<pdfrwt beam="2">  1        4 0.75412142E-01 0.10208169E+04</pdfrwt>
<totfact> 0.42799364E+01</totfact>
</mgrwt>
</event>
<event>
 6    1  0.1431486E-005  0.1011581E+04  0.7818608E-02  0.9867757E-01
          4   -1    0    0  502    0 -0.00000000000E+00  0.00000000000E+00  0.56486069573E+03  0.56486069573E+03  0.00000000000E+00 0.  1.
         21   -1    0    0  501  502  0.00000000000E+00 -0.00000000000E+00 -0.63242693092E+03  0.63242693092E+03  0.00000000000E+00 0.  1.
    9000010    2    1    2  501    0  0.85365515380E+02 -0.11268298392E+03 -0.16588540290E+03  0.10250918195E+04  0.10016539051E+04 0.  0.
        -13    1    3    3    0    0  0.27469586789E+03 -0.43832690332E+03  0.14440274908E+03  0.53706653137E+03  0.10566000000E+00 0.  1.
          4    1    3    3  501    0 -0.18933035251E+03  0.32564391940E+03 -0.31028815199E+03  0.48802528817E+03  0.00000000000E+00 0.  1.
         13    1    1    2    0    0 -0.85365515380E+02  0.11268298392E+03  0.98319167719E+02  0.17219580711E+03  0.10566000000E+00 0. -1.
<mgrwt>
<rscale>  1 0.61849710E+03</rscale>
<asrwt>0</asrwt>
<pdfrwt beam="2">  1       21 0.97296450E-01 0.10115806E+04</pdfrwt>
<pdfrwt beam="1">  1        4 0.86901646E-01 0.10115806E+04</pdfrwt>
<totfact> 0.37915459E+01</totfact>
</mgrwt>
</event>
<event>
 6    1  0.1431486E-005  0.1069275E+04  0.7818608E-02  0.9524412E-01
          4   -1    0    0  502    0 -0.00000000000E+00  0.00000000000E+00  0.93613233763E+03  0.93613233763E+03  0.00000000000E+00 0.  1.
         21   -1    0    0  501  502  0.00000000000E+00 -0.00000000000E+00 -0.63258805973E+03  0.63258805973E+03  0.00000000000E+00 0.  1.
    9000010    2    1    2  501    0 -0.36437896326E+03  0.10448064422E+03 -0.21332819055E+02  0.10694876128E+04  0.99983020103E+03 0.  0.
        -13    1    3    3    0    0  0.42207825034E+02 -0.26860456535E+03  0.32055523301E+03  0.42033984060E+03  0.10566000000E+00 0.  1.
          4    1    3    3  501    0 -0.40658678829E+03  0.37308520957E+03 -0.34188805207E+03  0.64914777221E+03  0.00000000000E+00 0.  1.
         13    1    1    2    0    0  0.36437896326E+03 -0.10448064422E+03  0.32487709696E+03  0.49923278456E+03  0.10566000000E+00 0. -1.
<mgrwt>
<rscale>  1 0.82507735E+03</rscale>
<asrwt>0</asrwt>
<pdfrwt beam="2">  1       21 0.97321240E-01 0.10692748E+04</pdfrwt>
<pdfrwt beam="1">  1        4 0.14402036E+00 0.10692748E+04</pdfrwt>
<totfact> 0.10759793E+01</totfact>
</mgrwt>
</event>
<event>
 6    1  0.1431486E-005  0.1007506E+04  0.7818608E-02  0.9731995E-01
          4   -1    0    0  502    0 -0.00000000000E+00  0.00000000000E+00  0.47869789801E+03  0.47869789801E+03  0.00000000000E+00 0.  1.
         21   -1    0    0  501  502  0.00000000000E+00 -0.00000000000E+00 -0.79147055510E+03  0.79147055510E+03  0.00000000000E+00 0.  1.
    9000010    2    1    2  501    0  0.15919433804E+03  0.15686063548E+03 -0.26082690236E+03  0.10407202698E+04  0.98240516628E+03 0.  0.
        -13    1    3    3    0    0 -0.34255982305E+03  0.77999861045E+02  0.15528834407E+03  0.38411676826E+03  0.10566000000E+00 0.  1.
          4    1    3    3  501    0  0.50175416109E+03  0.78860774438E+02 -0.41611524643E+03  0.65660350153E+03  0.00000000000E+00 0.  1.
         13    1    1    2    0    0 -0.15919433804E+03 -0.15686063548E+03 -0.51945754724E+02  0.22944818332E+03  0.10566000000E+00 0. -1.
<mgrwt>
<rscale>  1 0.69143372E+03</rscale>
<asrwt>0</asrwt>
<pdfrwt beam="2">  1       21 0.12176470E+00 0.10075058E+04</pdfrwt>
<pdfrwt beam="1">  1        4 0.73645831E-01 0.10075058E+04</pdfrwt>
<totfact> 0.31447983E+01</totfact>
</mgrwt>
</event>
<event>
 6    1  0.1431486E-005  0.1041138E+04  0.7818608E-02  0.9599101E-01
         21   -1    0    0  501  502  0.00000000000E+00  0.00000000000E+00  0.92284315121E+03  0.92284315121E+03  0.00000000000E+00 0.  1.
          4   -1    0    0  502    0 -0.00000000000E+00 -0.00000000000E+00 -0.15579226987E+04  0.15579226987E+04  0.00000000000E+00 0.  1.
    9000010    2    1    2  501    0 -0.15441009449E+03  0.27717298032E+03  0.60267662477E+03  0.12029913426E+04  0.99161571090E+03 0.  0.
        -13    1    3    3    0    0  0.39648489541E+03  0.65534140908E+02  0.69842338229E+02  0.40788841524E+03  0.10566000000E+00 0.  1.
          4    1    3    3  501    0 -0.55089498990E+03  0.21163883941E+03  0.53283428654E+03  0.79510292740E+03  0.00000000000E+00 0.  1.
         13    1    1    2    0    0  0.15441009449E+03 -0.27717298032E+03 -0.12377561723E+04  0.12777745073E+04  0.10566000000E+00 0. -1.
<mgrwt>
<rscale>  1 0.77355716E+03</rscale>
<asrwt>0</asrwt>
<pdfrwt beam="1">  1       21 0.14197587E+00 0.10411383E+04</pdfrwt>
<pdfrwt beam="2">  1        4 0.23968042E+00 0.10411383E+04</pdfrwt>
<totfact> 0.89274680E-01</totfact>
</mgrwt>
</event>
<event>
 6    1  0.1431486E-005  0.9770353E+03  0.7818608E-02  0.9781533E-01
          4   -1    0    0  502    0 -0.00000000000E+00  0.00000000000E+00  0.33896151219E+03  0.33896151219E+03  0.00000000000E+00 0.  1.
         21   -1    0    0  501  502  0.00000000000E+00 -0.00000000000E+00 -0.11205226806E+04  0.11205226806E+04  0.00000000000E+00 0.  1.
    9000010    2    1    2  501    0  0.20501992514E+03  0.34831847608E+02 -0.78212429620E+03  0.12515256499E+04  0.95464737483E+03 0.  0.
        -13    1    3    3    0    0  0.47583618323E+03 -0.79286824968E+02 -0.78167046463E+02  0.48868862499E+03  0.10566000000E+00 0.  1.
          4    1    3    3  501    0 -0.27081625809E+03  0.11411867258E+03 -0.70395724974E+03  0.76283702488E+03  0.00000000000E+00 0.  1.
         13    1    1    2    0    0 -0.20501992514E+03 -0.34831847608E+02  0.56312774683E+00  0.20795854296E+03  0.10566000000E+00 0. -1.
<mgrwt>
<rscale>  1 0.66363074E+03</rscale>
<asrwt>0</asrwt>
<pdfrwt beam="2">  1       21 0.17238811E+00 0.97703533E+03</pdfrwt>
<pdfrwt beam="1">  1        4 0.52147924E-01 0.97703533E+03</pdfrwt>
<totfact> 0.25737016E+01</totfact>
</mgrwt>
</event>
<event>
 6    1  0.1431486E-005  0.1009958E+04  0.7818608E-02  0.1040303E+00
          4   -1    0    0  502    0 -0.00000000000E+00  0.00000000000E+00  0.46388532794E+03  0.46388532794E+03  0.00000000000E+00 0.  1.
         21   -1    0    0  501  502  0.00000000000E+00 -0.00000000000E+00 -0.58020628945E+03  0.58020628945E+03  0.00000000000E+00 0.  1.
    9000010    2    1    2  501    0  0.24374032698E+02 -0.12700228378E+02 -0.11607092343E+03  0.10166059310E+04  0.10095839591E+04 0.  0.
        -13    1    3    3    0    0 -0.16182754216E+03  0.38545373701E+03  0.21142745390E+03  0.46847018710E+03  0.10566000000E+00 0.  1.
          4    1    3    3  501    0  0.18620157486E+03 -0.39815396539E+03 -0.32749837733E+03  0.54813574394E+03  0.00000000000E+00 0.  1.
         13    1    1    2    0    0 -0.24374032698E+02  0.12700228378E+02 -0.25003808241E+00  0.27485686346E+02  0.10566000000E+00 0. -1.
<mgrwt>
<rscale>  1 0.41020376E+03</rscale>
<asrwt>0</asrwt>
<pdfrwt beam="2">  1       21 0.89262506E-01 0.10099580E+04</pdfrwt>
<pdfrwt beam="1">  1        4 0.71366974E-01 0.10099580E+04</pdfrwt>
<totfact> 0.73441558E+01</totfact>
</mgrwt>
</event>
<event>
 6    1  0.1431486E-005  0.1000099E+04  0.7818608E-02  0.1001682E+00
         21   -1    0    0  501  502  0.00000000000E+00  0.00000000000E+00  0.49577913202E+03  0.49577913202E+03  0.00000000000E+00 0.  1.
          4   -1    0    0  502    0 -0.00000000000E+00 -0.00000000000E+00 -0.60049477710E+03  0.60049477710E+03  0.00000000000E+00 0.  1.
    9000010    2    1    2  501    0  0.53365971590E+02 -0.73636082273E+02 -0.89854974771E+02  0.10041270143E+04  0.99595529260E+03 0.  0.
        -13    1    3    3    0    0  0.24271231391E+03  0.38793789803E+03  0.10332948566E+03  0.46912905881E+03  0.10566000000E+00 0.  1.
          4    1    3    3  501    0 -0.18934634232E+03 -0.46157398031E+03 -0.19318446043E+03  0.53499795551E+03  0.00000000000E+00 0.  1.
         13    1    1    2    0    0 -0.53365971590E+02  0.73636082273E+02 -0.14860670307E+02  0.92146894805E+02  0.10566000000E+00 0. -1.
<mgrwt>
<rscale>  1 0.54918880E+03</rscale>
<asrwt>0</asrwt>
<pdfrwt beam="1">  1       21 0.76273712E-01 0.10000986E+04</pdfrwt>
<pdfrwt beam="2">  1        4 0.92383812E-01 0.10000986E+04</pdfrwt>
<totfact> 0.58838736E+01</totfact>
</mgrwt>
</event>
<event>
 6    1  0.1431486E-005  0.1075924E+04  0.7818608E-02  0.9494892E-01
         21   -1    0    0  501  502  0.00000000000E+00  0.00000000000E+00  0.69720402986E+03  0.69720402986E+03  0.00000000000E+00 0.  1.
          4   -1    0    0  502    0 -0.00000000000E+00 -0.00000000000E+00 -0.81643537816E+03  0.81643537816E+03  0.00000000000E+00 0.  1.
    9000010    2    1    2  501    0 -0.19128399585E+03  0.36544016487E+03  0.26293799496E+02  0.10762452368E+04  0.99371845347E+03 0.  0.
        -13    1    3    3    0    0 -0.55698246532E+03 -0.22617700985E+01  0.45735775206E-01  0.55698706945E+03  0.10566000000E+00 0.  1.
          4    1    3    3  501    0  0.36569846947E+03  0.36770193497E+03  0.26248063721E+02  0.51925816739E+03  0.00000000000E+00 0.  1.
         13    1    1    2    0    0  0.19128399585E+03 -0.36544016487E+03 -0.14552514780E+03  0.43739417117E+03  0.10566000000E+00 0. -1.
<mgrwt>
<rscale>  1 0.84661460E+03</rscale>
<asrwt>0</asrwt>
<pdfrwt beam="1">  1       21 0.10726216E+00 0.10759240E+04</pdfrwt>
<pdfrwt beam="2">  1        4 0.12560544E+00 0.10759240E+04</pdfrwt>
<totfact> 0.12035106E+01</totfact>
</mgrwt>
</event>
<event>
 6    1  0.1431486E-005  0.1014363E+04  0.7818608E-02  0.9822436E-01
          4   -1    0    0  502    0 -0.00000000000E+00  0.00000000000E+00  0.11315784595E+03  0.11315784595E+03  0.00000000000E+00 0.  1.
         21   -1    0    0  501  502  0.00000000000E+00 -0.00000000000E+00 -0.35687390802E+04  0.35687390802E+04  0.00000000000E+00 0.  1.
    9000010    2    1    2  501    0 -0.87085420105E+02 -0.13717477315E+03 -0.33160470771E+04  0.34677227424E+04  0.10012652057E+04 0.  0.
        -13    1    3    3    0    0 -0.24450230780E+03 -0.47764991932E+03 -0.11448599043E+04  0.12643713993E+04  0.10566000000E+00 0.  1.
          4    1    3    3  501    0  0.15741688769E+03  0.34047514617E+03 -0.21711871728E+04  0.22033513431E+04  0.00000000000E+00 0.  1.
         13    1    1    2    0    0  0.87085420105E+02  0.13717477315E+03 -0.13953415713E+03  0.21417418368E+03  0.10566000000E+00 0. -1.
<mgrwt>
<rscale>  1 0.64172250E+03</rscale>
<asrwt>0</asrwt>
<pdfrwt beam="2">  1       21 0.54903671E+00 0.10143632E+04</pdfrwt>
<pdfrwt beam="1">  1        4 0.17408902E-01 0.10143632E+04</pdfrwt>
<totfact> 0.66721801E-01</totfact>
</mgrwt>
</event>
<event>
 6    1  0.1431486E-005  0.1006258E+04  0.7818608E-02  0.9949498E-01
          4   -1    0    0  502    0 -0.00000000000E+00  0.00000000000E+00  0.35072207845E+03  0.35072207845E+03  0.00000000000E+00 0.  1.
         21   -1    0    0  501  502  0.00000000000E+00 -0.00000000000E+00 -0.89842748535E+03  0.89842748535E+03  0.00000000000E+00 0.  1.
    9000010    2    1    2  501    0  0.59603658658E+02 -0.93004416042E+02 -0.52991411292E+03  0.11372614106E+04  0.10001760502E+04 0.  0.
        -13    1    3    3    0    0  0.89398825094E+02 -0.28520651999E+03 -0.77134664244E+03  0.82723065885E+03  0.10566000000E+00 0.  1.
          4    1    3    3  501    0 -0.29795166435E+02  0.19220210395E+03  0.24143252952E+03  0.31003075172E+03  0.00000000000E+00 0.  1.
         13    1    1    2    0    0 -0.59603658658E+02  0.93004416042E+02 -0.17791293973E+02  0.11188815323E+03  0.10566000000E+00 0. -1.
<mgrwt>
<rscale>  1 0.57921219E+03</rscale>
<asrwt>0</asrwt>
<pdfrwt beam="2">  1       21 0.13821961E+00 0.10062577E+04</pdfrwt>
<pdfrwt beam="1">  1        4 0.53957243E-01 0.10062577E+04</pdfrwt>
<totfact> 0.44500517E+01</totfact>
</mgrwt>
</event>
<event>
 6    1  0.1431486E-005  0.1096531E+04  0.7818608E-02  0.9461490E-01
         21   -1    0    0  501  502  0.00000000000E+00  0.00000000000E+00  0.81858208099E+03  0.81858208099E+03  0.00000000000E+00 0.  1.
          4   -1    0    0  502    0 -0.00000000000E+00 -0.00000000000E+00 -0.80638212062E+03  0.80638212062E+03  0.00000000000E+00 0.  1.
    9000010    2    1    2  501    0  0.43815419787E+03  0.65758878323E+01  0.25245870093E+03  0.11252176489E+04  0.10051651696E+04 0.  0.
        -13    1    3    3    0    0  0.24436155037E+03  0.45055149635E+03 -0.10498244716E+03  0.52319264477E+03  0.10566000000E+00 0.  1.
          4    1    3    3  501    0  0.19379264750E+03 -0.44397560852E+03  0.35744114810E+03  0.60202500408E+03  0.00000000000E+00 0.  1.
         13    1    1    2    0    0 -0.43815419787E+03 -0.65758878323E+01 -0.24025874056E+03  0.49974655276E+03  0.10566000000E+00 0. -1.
<mgrwt>
<rscale>  1 0.87183548E+03</rscale>
<asrwt>0</asrwt>
<pdfrwt beam="1">  1       21 0.12593570E+00 0.10965306E+04</pdfrwt>
<pdfrwt beam="2">  1        4 0.12405879E+00 0.10965306E+04</pdfrwt>
<totfact> 0.81954435E+00</totfact>
</mgrwt>
</event>
<event>
 6    1  0.1431486E-005  0.1020890E+04  0.7818608E-02  0.9750850E-01
         21   -1    0    0  501  502  0.00000000000E+00  0.00000000000E+00  0.66632222006E+03  0.66632222006E+03  0.00000000000E+00 0.  1.
          4   -1    0    0  502    0 -0.00000000000E+00 -0.00000000000E+00 -0.57306904190E+03  0.57306904190E+03  0.00000000000E+00 0.  1.
    9000010    2    1    2  501    0 -0.18710002106E+03 -0.75510662945E+02  0.94974508896E+01  0.10209346047E+04  0.10007542093E+04 0.  0.
        -13    1    3    3    0    0  0.42764604596E+02 -0.51732315235E+03  0.48669306289E+02  0.52136433317E+03  0.10566000000E+00 0.  1.
          4    1    3    3  501    0 -0.22986462565E+03  0.44181248940E+03 -0.39171855400E+02  0.49957027151E+03  0.00000000000E+00 0.  1.
         13    1    1    2    0    0  0.18710002106E+03  0.75510662945E+02  0.83755727266E+02  0.21845665729E+03  0.10566000000E+00 0. -1.
<mgrwt>
<rscale>  1 0.68068277E+03</rscale>
<asrwt>0</asrwt>
<pdfrwt beam="1">  1       21 0.10251111E+00 0.10208904E+04</pdfrwt>
<pdfrwt beam="2">  1        4 0.88164468E-01 0.10208904E+04</pdfrwt>
<totfact> 0.32178870E+01</totfact>
</mgrwt>
</event>
<event>
 6    1  0.1431486E-005  0.1134377E+04  0.7818608E-02  0.9371925E-01
          4   -1    0    0  502    0 -0.00000000000E+00  0.00000000000E+00  0.15799426355E+04  0.15799426355E+04  0.00000000000E+00 0.  1.
         21   -1    0    0  501  502  0.00000000000E+00 -0.00000000000E+00 -0.50389069583E+03  0.50389069583E+03  0.00000000000E+00 0. -1.
    9000010    2    1    2  501    0  0.28429232104E+02 -0.54379977656E+03  0.37209703546E+03  0.11938451648E+04  0.99512996915E+03 0.  0.
        -13    1    3    3    0    0 -0.47471379768E+02  0.96866591019E-01 -0.31256607035E+03  0.31615044010E+03  0.10566000000E+00 0.  1.
          4    1    3    3  501    0  0.75900611872E+02 -0.54389664315E+03  0.68466310581E+03  0.87769472470E+03  0.00000000000E+00 0.  1.
         13    1    1    2    0    0 -0.28429232104E+02  0.54379977656E+03  0.70395490417E+03  0.88998816649E+03  0.10566000000E+00 0. -1.
<mgrwt>
<rscale>  1 0.94422576E+03</rscale>
<asrwt>0</asrwt>
<pdfrwt beam="2">  1       21 0.77521646E-01 0.11343765E+04</pdfrwt>
<pdfrwt beam="1">  1        4 0.24306810E+00 0.11343765E+04</pdfrwt>
<totfact> 0.38546699E+00</totfact>
</mgrwt>
</event>
<event>
 6    1  0.1431486E-005  0.1012795E+04  0.7818608E-02  0.9710322E-01
         21   -1    0    0  501  502  0.00000000000E+00  0.00000000000E+00  0.32639611516E+03  0.32639611516E+03  0.00000000000E+00 0.  1.
          4   -1    0    0  502    0 -0.00000000000E+00 -0.00000000000E+00 -0.13071765784E+04  0.13071765784E+04  0.00000000000E+00 0.  1.
    9000010    2    1    2  501    0  0.23441849889E+03 -0.31435844662E+02 -0.57701206295E+03  0.11656312686E+04  0.98479088573E+03 0.  0.
        -13    1    3    3    0    0 -0.94775912117E+02 -0.25331297091E+03 -0.69967173621E+03  0.75012697882E+03  0.10566000000E+00 0.  1.
          4    1    3    3  501    0  0.32919441101E+03  0.22187712624E+03  0.12265967326E+03  0.41550428979E+03  0.00000000000E+00 0.  1.
         13    1    1    2    0    0 -0.23441849889E+03  0.31435844662E+02 -0.40376840032E+03  0.46794142498E+03  0.10566000000E+00 0. -1.
<mgrwt>
<rscale>  1 0.70405511E+03</rscale>
<asrwt>0</asrwt>
<pdfrwt beam="1">  1       21 0.50214786E-01 0.10127948E+04</pdfrwt>
<pdfrwt beam="2">  1        4 0.20110409E+00 0.10127948E+04</pdfrwt>
<totfact> 0.19240780E+01</totfact>
</mgrwt>
</event>
<event>
 6    1  0.1431486E-005  0.1047194E+04  0.7818608E-02  0.9655244E-01
          4   -1    0    0  502    0 -0.00000000000E+00  0.00000000000E+00  0.70755190165E+03  0.70755190165E+03  0.00000000000E+00 0.  1.
         21   -1    0    0  501  502  0.00000000000E+00 -0.00000000000E+00 -0.14872009516E+04  0.14872009516E+04  0.00000000000E+00 0.  1.
    9000010    2    1    2  501    0  0.10889325683E+03  0.23339186717E+03 -0.12668721545E+04  0.16436486254E+04  0.10150301685E+04 0.  0.
        -13    1    3    3    0    0 -0.30714289848E+03  0.10142574007E+03 -0.11459766009E+04  0.11907503188E+04  0.10566000000E+00 0.  1.
          4    1    3    3  501    0  0.41603615531E+03  0.13196612710E+03 -0.12089555361E+03  0.45289830659E+03  0.00000000000E+00 0.  1.
         13    1    1    2    0    0 -0.10889325683E+03 -0.23339186717E+03  0.48722310461E+03  0.55110422778E+03  0.10566000000E+00 0. -1.
<mgrwt>
<rscale>  1 0.73745204E+03</rscale>
<asrwt>0</asrwt>
<pdfrwt beam="2">  1       21 0.22880015E+00 0.10471942E+04</pdfrwt>
<pdfrwt beam="1">  1        4 0.10885414E+00 0.10471942E+04</pdfrwt>
<totfact> 0.19431715E+00</totfact>
</mgrwt>
</event>
<event>
 6    1  0.1431486E-005  0.9794723E+03  0.7818608E-02  0.1007726E+00
         21   -1    0    0  501  502  0.00000000000E+00  0.00000000000E+00  0.73507938455E+03  0.73507938455E+03  0.00000000000E+00 0.  1.
          4   -1    0    0  502    0 -0.00000000000E+00 -0.00000000000E+00 -0.74138669866E+03  0.74138669866E+03  0.00000000000E+00 0.  1.
    9000010    2    1    2  501    0  0.22823872602E+02  0.76842958664E+02  0.40317933948E+03  0.10592070508E+04  0.97618657403E+03 0.  0.
        -13    1    3    3    0    0 -0.13759095782E+03  0.50058155792E+03  0.15096088324E+03  0.54064994889E+03  0.10566000000E+00 0.  1.
          4    1    3    3  501    0  0.16041483042E+03 -0.42373859926E+03  0.25221845624E+03  0.51855710196E+03  0.00000000000E+00 0.  1.
         13    1    1    2    0    0 -0.22823872602E+02 -0.76842958664E+02 -0.40948665359E+03  0.41725903236E+03  0.10566000000E+00 0. -1.
<mgrwt>
<rscale>  1 0.52388367E+03</rscale>
<asrwt>0</asrwt>
<pdfrwt beam="1">  1       21 0.11308914E+00 0.97947231E+03</pdfrwt>
<pdfrwt beam="2">  1        4 0.11405949E+00 0.97947231E+03</pdfrwt>
<totfact> 0.13551342E+01</totfact>
</mgrwt>
</event>
<event>
 6    1  0.1431486E-005  0.1046347E+04  0.7818608E-02  0.9601367E-01
         21   -1    0    0  501  502  0.00000000000E+00  0.00000000000E+00  0.15766211547E+04  0.15766211547E+04  0.00000000000E+00 0.  1.
          4   -1    0    0  502    0 -0.00000000000E+00 -0.00000000000E+00 -0.29178184573E+03  0.29178184573E+03  0.00000000000E+00 0.  1.
    9000010    2    1    2  501    0 -0.28474776585E+03 -0.12292955331E+03  0.99448361389E+03  0.14435507837E+04  0.99932389224E+03 0.  0.
        -13    1    3    3    0    0 -0.46745331485E+03 -0.35453234204E+03  0.98730826008E+03  0.11484700234E+04  0.10566000000E+00 0.  1.
          4    1    3    3  501    0  0.18270554900E+03  0.23160278874E+03  0.71753538061E+01  0.29508076028E+03  0.00000000000E+00 0.  1.
         13    1    1    2    0    0  0.28474776585E+03  0.12292955331E+03  0.29035569511E+03  0.42485221675E+03  0.10566000000E+00 0. -1.
<mgrwt>
<rscale>  1 0.77205741E+03</rscale>
<asrwt>0</asrwt>
<pdfrwt beam="1">  1       21 0.24255710E+00 0.10463466E+04</pdfrwt>
<pdfrwt beam="2">  1        4 0.44889516E-01 0.10463466E+04</pdfrwt>
<totfact> 0.11613042E+01</totfact>
</mgrwt>
</event>
<event>
 6    1  0.1431486E-005  0.1010418E+04  0.7818608E-02  0.9911125E-01
         21   -1    0    0  501  502  0.00000000000E+00  0.00000000000E+00  0.48175694561E+03  0.48175694561E+03  0.00000000000E+00 0.  1.
          4   -1    0    0  502    0 -0.00000000000E+00 -0.00000000000E+00 -0.85931712603E+03  0.85931712603E+03  0.00000000000E+00 0.  1.
    9000010    2    1    2  501    0 -0.82720640743E+02 -0.91496521930E+02 -0.73663758929E+02  0.10130994322E+04  0.10028608040E+04 0.  0.
        -13    1    3    3    0    0  0.45690086365E+03  0.23687271435E+02 -0.96008597980E+01  0.45761520266E+03  0.10566000000E+00 0.  1.
          4    1    3    3  501    0 -0.53962150439E+03 -0.11518379337E+03 -0.64062899131E+02  0.55548422957E+03  0.00000000000E+00 0.  1.
         13    1    1    2    0    0  0.82720640743E+02  0.91496521930E+02 -0.30389642150E+03  0.32797463940E+03  0.10566000000E+00 0. -1.
<mgrwt>
<rscale>  1 0.59725162E+03</rscale>
<asrwt>0</asrwt>
<pdfrwt beam="1">  1       21 0.74116453E-01 0.10104178E+04</pdfrwt>
<pdfrwt beam="2">  1        4 0.13220263E+00 0.10104178E+04</pdfrwt>
<totfact> 0.25940808E+01</totfact>
</mgrwt>
</event>
<event>
 6    1  0.1431486E-005  0.1271890E+04  0.7818608E-02  0.9287613E-01
         21   -1    0    0  501  502  0.00000000000E+00  0.00000000000E+00  0.70120901054E+03  0.70120901054E+03  0.00000000000E+00 0.  1.
          4   -1    0    0  502    0 -0.00000000000E+00 -0.00000000000E+00 -0.11508815250E+04  0.11508815250E+04  0.00000000000E+00 0.  1.
    9000010    2    1    2  501    0 -0.45485610429E+03  0.26149323343E+03 -0.30864434719E+03  0.13088026359E+04  0.11586329100E+04 0.  0.
        -13    1    3    3    0    0 -0.47749962394E+03 -0.39164283510E+03 -0.12686230112E+03  0.63046336591E+03  0.10566000000E+00 0.  1.
          4    1    3    3  501    0  0.22643519652E+02  0.65313606853E+03 -0.18178204608E+03  0.67833927004E+03  0.00000000000E+00 0.  1.
         13    1    1    2    0    0  0.45485610429E+03 -0.26149323343E+03 -0.14102816729E+03  0.54328789962E+03  0.10566000000E+00 0. -1.
<mgrwt>
<rscale>  1 0.10193128E+04</rscale>
<asrwt>0</asrwt>
<pdfrwt beam="1">  1       21 0.10787831E+00 0.12718895E+04</pdfrwt>
<pdfrwt beam="2">  1        4 0.17705869E+00 0.12718895E+04</pdfrwt>
<totfact> 0.46011610E+00</totfact>
</mgrwt>
</event>
<event>
 6    1  0.1431486E-005  0.1182391E+04  0.7818608E-02  0.9480575E-01
         21   -1    0    0  501  502  0.00000000000E+00  0.00000000000E+00  0.51563240561E+03  0.51563240561E+03  0.00000000000E+00 0.  1.
          4   -1    0    0  502    0 -0.00000000000E+00 -0.00000000000E+00 -0.11792176562E+04  0.11792176562E+04  0.00000000000E+00 0.  1.
    9000010    2    1    2  501    0 -0.23050283213E+02  0.32597873814E+03 -0.32935091434E+03  0.12274037484E+04  0.11363337905E+04 0.  0.
        -13    1    3    3    0    0  0.29553439759E+03  0.61387740404E+02 -0.64139577056E+03  0.70887063735E+03  0.10566000000E+00 0.  1.
          4    1    3    3  501    0 -0.31858468081E+03  0.26459099773E+03  0.31204485622E+03  0.51853311102E+03  0.00000000000E+00 0.  1.
         13    1    1    2    0    0  0.23050283213E+02 -0.32597873814E+03 -0.33423433627E+03  0.46744631347E+03  0.10566000000E+00 0. -1.
<mgrwt>
<rscale>  1 0.85731191E+03</rscale>
<asrwt>0</asrwt>
<pdfrwt beam="1">  1       21 0.79328063E-01 0.11823908E+04</pdfrwt>
<pdfrwt beam="2">  1        4 0.18141810E+00 0.11823908E+04</pdfrwt>
<totfact> 0.91729290E+00</totfact>
</mgrwt>
</event>
<event>
 6    1  0.1431486E-005  0.9465698E+03  0.7818608E-02  0.9854187E-01
          4   -1    0    0  502    0 -0.00000000000E+00  0.00000000000E+00  0.37772569521E+03  0.37772569521E+03  0.00000000000E+00 0.  1.
         21   -1    0    0  501  502  0.00000000000E+00 -0.00000000000E+00 -0.10082249435E+04  0.10082249435E+04  0.00000000000E+00 0.  1.
    9000010    2    1    2  501    0  0.14545631313E+03  0.10654493411E+03 -0.71554980971E+03  0.11865942463E+04  0.92923894298E+03 0.  0.
        -13    1    3    3    0    0  0.35141665245E+03 -0.96318325424E+02 -0.80529401390E+03  0.88389441870E+03  0.10566000000E+00 0.  1.
          4    1    3    3  501    0 -0.20596033932E+03  0.20286325953E+03  0.89744204188E+02  0.30269982760E+03  0.00000000000E+00 0.  1.
         13    1    1    2    0    0 -0.14545631313E+03 -0.10654493411E+03  0.85050561455E+02  0.19935639238E+03  0.10566000000E+00 0. -1.
<mgrwt>
<rscale>  1 0.62533906E+03</rscale>
<asrwt>0</asrwt>
<pdfrwt beam="2">  1       21 0.15511153E+00 0.94656979E+03</pdfrwt>
<pdfrwt beam="1">  1        4 0.58111645E-01 0.94656979E+03</pdfrwt>
<totfact> 0.27757177E+01</totfact>
</mgrwt>
</event>
<event>
 6    1  0.1431486E-005  0.1057210E+04  0.7818608E-02  0.9537523E-01
         21   -1    0    0  501  502  0.00000000000E+00  0.00000000000E+00  0.10785679413E+04  0.10785679413E+04  0.00000000000E+00 0.  1.
          4   -1    0    0  502    0 -0.00000000000E+00 -0.00000000000E+00 -0.47905529421E+03  0.47905529421E+03  0.00000000000E+00 0.  1.
    9000010    2    1    2  501    0 -0.18153449759E+03 -0.32780781597E+03  0.50248301184E+03  0.11705476624E+04  0.98857468851E+03 0.  0.
        -13    1    3    3    0    0 -0.27188420663E+03 -0.65955335184E+02  0.74912000967E+03  0.79965738170E+03  0.10566000000E+00 0.  1.
          4    1    3    3  501    0  0.90349709038E+02 -0.26185248079E+03 -0.24663699784E+03  0.37089028070E+03  0.00000000000E+00 0.  1.
         13    1    1    2    0    0  0.18153449759E+03  0.32780781597E+03  0.97029635277E+02  0.38707557313E+03  0.10566000000E+00 0. -1.
<mgrwt>
<rscale>  1 0.81573053E+03</rscale>
<asrwt>0</asrwt>
<pdfrwt beam="1">  1       21 0.16593353E+00 0.10572098E+04</pdfrwt>
<pdfrwt beam="2">  1        4 0.73700815E-01 0.10572098E+04</pdfrwt>
<totfact> 0.13356380E+01</totfact>
</mgrwt>
</event>
<event>
 6    1  0.1431486E-005  0.1045969E+04  0.7818608E-02  0.9654705E-01
          4   -1    0    0  502    0 -0.00000000000E+00  0.00000000000E+00  0.26261917464E+03  0.26261917464E+03  0.00000000000E+00 0.  1.
         21   -1    0    0  501  502  0.00000000000E+00 -0.00000000000E+00 -0.16467498209E+04  0.16467498209E+04  0.00000000000E+00 0.  1.
    9000010    2    1    2  501    0  0.25834897648E+03 -0.17236025482E+02 -0.11987249037E+04  0.15909093046E+04  0.10134148936E+04 0.  0.
        -13    1    3    3    0    0  0.51658760116E+02  0.46702568457E+03 -0.32682057730E+03  0.57235768402E+03  0.10566000000E+00 0.  1.
          4    1    3    3  501    0  0.20669021636E+03 -0.48426171005E+03 -0.87190432645E+03  0.10185516206E+04  0.00000000000E+00 0.  1.
         13    1    1    2    0    0 -0.25834897648E+03  0.17236025482E+02 -0.18540574256E+03  0.31845969095E+03  0.10566000000E+00 0. -1.
<mgrwt>
<rscale>  1 0.73778850E+03</rscale>
<asrwt>0</asrwt>
<pdfrwt beam="2">  1       21 0.25334613E+00 0.10459689E+04</pdfrwt>
<pdfrwt beam="1">  1        4 0.40402949E-01 0.10459689E+04</pdfrwt>
<totfact> 0.12312388E+01</totfact>
</mgrwt>
</event>
<event>
 6    1  0.1431486E-005  0.1121635E+04  0.7818608E-02  0.9414755E-01
          4   -1    0    0  502    0 -0.00000000000E+00  0.00000000000E+00  0.93610683597E+03  0.93610683597E+03  0.00000000000E+00 0.  1.
         21   -1    0    0  501  502  0.00000000000E+00 -0.00000000000E+00 -0.70630966288E+03  0.70630966288E+03  0.00000000000E+00 0.  1.
    9000010    2    1    2  501    0 -0.33183176284E+02  0.48208802121E+03  0.37291073132E+02  0.11222544154E+04  0.10122027294E+04 0.  0.
        -13    1    3    3    0    0  0.23029178481E+02  0.78795928886E+03  0.12727488504E+03  0.79850428395E+03  0.10566000000E+00 0.  1.
          4    1    3    3  501    0 -0.56212354765E+02 -0.30587126765E+03 -0.89983811911E+02  0.32375013144E+03  0.00000000000E+00 0.  1.
         13    1    1    2    0    0  0.33183176284E+02 -0.48208802121E+03  0.19250609996E+03  0.52016208345E+03  0.10566000000E+00 0. -1.
<mgrwt>
<rscale>  1 0.90871303E+03</rscale>
<asrwt>0</asrwt>
<pdfrwt beam="2">  1       21 0.10866302E+00 0.11216347E+04</pdfrwt>
<pdfrwt beam="1">  1        4 0.14401644E+00 0.11216347E+04</pdfrwt>
<totfact> 0.81212168E+00</totfact>
</mgrwt>
</event>
<event>
 6    1  0.1431486E-005  0.1062542E+04  0.7818608E-02  0.9606633E-01
         21   -1    0    0  501  502  0.00000000000E+00  0.00000000000E+00  0.59315745957E+03  0.59315745957E+03  0.00000000000E+00 0.  1.
          4   -1    0    0  502    0 -0.00000000000E+00 -0.00000000000E+00 -0.92157452448E+03  0.92157452448E+03  0.00000000000E+00 0.  1.
    9000010    2    1    2  501    0  0.20606475224E+03  0.20531999106E+03  0.17596461183E+02  0.10626873488E+04  0.10219470559E+04 0.  0.
        -13    1    3    3    0    0 -0.11830374125E+03  0.52447810366E+03  0.19830841725E+03  0.57306133697E+03  0.10566000000E+00 0.  1.
          4    1    3    3  501    0  0.32436849349E+03 -0.31915811260E+03 -0.18071195607E+03  0.48962601184E+03  0.00000000000E+00 0.  1.
         13    1    1    2    0    0 -0.20606475224E+03 -0.20531999106E+03 -0.34601352609E+03  0.45204463524E+03  0.10566000000E+00 0. -1.
<mgrwt>
<rscale>  1 0.76858686E+03</rscale>
<asrwt>0</asrwt>
<pdfrwt beam="1">  1       21 0.91254994E-01 0.10625417E+04</pdfrwt>
<pdfrwt beam="2">  1        4 0.14178070E+00 0.10625417E+04</pdfrwt>
<totfact> 0.13135403E+01</totfact>
</mgrwt>
</event>
<event>
 6    1  0.1431486E-005  0.1041692E+04  0.7818608E-02  0.9645997E-01
          4   -1    0    0  502    0 -0.00000000000E+00  0.00000000000E+00  0.14336014859E+04  0.14336014859E+04  0.00000000000E+00 0.  1.
         21   -1    0    0  501  502  0.00000000000E+00 -0.00000000000E+00 -0.39643787552E+03  0.39643787552E+03  0.00000000000E+00 0.  1.
    9000010    2    1    2  501    0  0.22232754006E+03 -0.15315987373E+03  0.36183381053E+03  0.11027444888E+04  0.10060985137E+04 0.  0.
        -13    1    3    3    0    0  0.58810892008E+03 -0.20624158122E+03  0.61042731028E+02  0.62620597081E+03  0.10566000000E+00 0.  1.
          4    1    3    3  501    0 -0.36578138002E+03  0.53081707494E+02  0.30079107950E+03  0.47653851801E+03  0.00000000000E+00 0.  1.
         13    1    1    2    0    0 -0.22232754006E+03  0.15315987373E+03  0.67532979980E+03  0.72729487256E+03  0.10566000000E+00 0. -1.
<mgrwt>
<rscale>  1 0.74325193E+03</rscale>
<asrwt>0</asrwt>
<pdfrwt beam="2">  1       21 0.60990443E-01 0.10416917E+04</pdfrwt>
<pdfrwt beam="1">  1        4 0.22055407E+00 0.10416917E+04</pdfrwt>
<totfact> 0.93547266E+00</totfact>
</mgrwt>
</event>
<event>
 6    1  0.1431486E-005  0.1057306E+04  0.7818608E-02  0.9615873E-01
          4   -1    0    0  502    0 -0.00000000000E+00  0.00000000000E+00  0.95285862509E+03  0.95285862509E+03  0.00000000000E+00 0.  1.
         21   -1    0    0  501  502  0.00000000000E+00 -0.00000000000E+00 -0.52106025667E+03  0.52106025667E+03  0.00000000000E+00 0.  1.
    9000010    2    1    2  501    0  0.28307482458E+03 -0.41226898126E+02  0.51491935258E+03  0.11760260779E+04  0.10178724786E+04 0.  0.
        -13    1    3    3    0    0 -0.11431125761E+03 -0.30681160063E+03  0.60662420215E+03  0.68934269830E+03  0.10566000000E+00 0.  1.
          4    1    3    3  501    0  0.39738608219E+03  0.26558470251E+03 -0.91704849575E+02  0.48668337958E+03  0.00000000000E+00 0.  1.
         13    1    1    2    0    0 -0.28307482458E+03  0.41226898126E+02 -0.83120984155E+02  0.29789280389E+03  0.10566000000E+00 0. -1.
<mgrwt>
<rscale>  1 0.76254458E+03</rscale>
<asrwt>0</asrwt>
<pdfrwt beam="2">  1       21 0.80163116E-01 0.10573057E+04</pdfrwt>
<pdfrwt beam="1">  1        4 0.14659363E+00 0.10573057E+04</pdfrwt>
<totfact> 0.16393570E+01</totfact>
</mgrwt>
</event>
<event>
 6    1  0.1431486E-005  0.1130253E+04  0.7818608E-02  0.9383479E-01
         21   -1    0    0  501  502  0.00000000000E+00  0.00000000000E+00  0.45434178806E+03  0.45434178806E+03  0.00000000000E+00 0.  1.
          4   -1    0    0  502    0 -0.00000000000E+00 -0.00000000000E+00 -0.24362997758E+04  0.24362997758E+04  0.00000000000E+00 0.  1.
    9000010    2    1    2  501    0 -0.49026255055E+03 -0.19640943474E+03 -0.36206968425E+03  0.11868304941E+04  0.99926879814E+03 0.  0.
        -13    1    3    3    0    0 -0.75299160930E+03  0.69790074911E+02 -0.23917001904E+03  0.79313890801E+03  0.10566000000E+00 0.  1.
          4    1    3    3  501    0  0.26272905874E+03 -0.26619950965E+03 -0.12289966521E+03  0.39369158609E+03  0.00000000000E+00 0.  1.
         13    1    1    2    0    0  0.49026255055E+03  0.19640943474E+03 -0.16198883034E+04  0.17038110697E+04  0.10566000000E+00 0. -1.
<mgrwt>
<rscale>  1 0.93447886E+03</rscale>
<asrwt>0</asrwt>
<pdfrwt beam="1">  1       21 0.69898736E-01 0.11302531E+04</pdfrwt>
<pdfrwt beam="2">  1        4 0.37481535E+00 0.11302531E+04</pdfrwt>
<totfact> 0.72075432E-01</totfact>
</mgrwt>
</event>
<event>
 6    1  0.1431486E-005  0.9932361E+03  0.7818608E-02  0.9622195E-01
          4   -1    0    0  502    0 -0.00000000000E+00  0.00000000000E+00  0.11535437062E+04  0.11535437062E+04  0.00000000000E+00 0.  1.
         21   -1    0    0  501  502  0.00000000000E+00 -0.00000000000E+00 -0.93196070347E+03  0.93196070347E+03  0.00000000000E+00 0.  1.
    9000010    2    1    2  501    0  0.33398501966E+03  0.49987964448E+02 -0.62536503925E+03  0.11737117869E+04  0.93406270478E+03 0.  0.
        -13    1    3    3    0    0  0.94837913219E+02  0.46248794008E+03 -0.13793280134E+03  0.49184834385E+03  0.10566000000E+00 0.  1.
          4    1    3    3  501    0  0.23914710644E+03 -0.41249997563E+03 -0.48743223791E+03  0.68186344305E+03  0.00000000000E+00 0.  1.
         13    1    1    2    0    0 -0.33398501966E+03 -0.49987964448E+02  0.84694804203E+03  0.91179262281E+03  0.10566000000E+00 0. -1.
<mgrwt>
<rscale>  1 0.75844450E+03</rscale>
<asrwt>0</asrwt>
<pdfrwt beam="2">  1       21 0.14337857E+00 0.99323609E+03</pdfrwt>
<pdfrwt beam="1">  1        4 0.17746826E+00 0.99323609E+03</pdfrwt>
<totfact> 0.22378595E+00</totfact>
</mgrwt>
</event>
<event>
 6    1  0.1431486E-005  0.1080753E+04  0.7818608E-02  0.9474114E-01
          4   -1    0    0  502    0 -0.00000000000E+00  0.00000000000E+00  0.10907903568E+04  0.10907903568E+04  0.00000000000E+00 0.  1.
         21   -1    0    0  501  502  0.00000000000E+00 -0.00000000000E+00 -0.52873976486E+03  0.52873976486E+03  0.00000000000E+00 0.  1.
    9000010    2    1    2  501    0  0.43300655075E+03  0.64377062464E+02  0.41580751194E+03  0.11579825848E+04  0.98812382853E+03 0.  0.
        -13    1    3    3    0    0  0.82725398421E+02 -0.40930965441E+03 -0.30774783931E+02  0.41871826236E+03  0.10566000000E+00 0.  1.
          4    1    3    3  501    0  0.35028115233E+03  0.47368671688E+03  0.44658229587E+03  0.73926432242E+03  0.00000000000E+00 0.  1.
         13    1    1    2    0    0 -0.43300655075E+03 -0.64377062464E+02  0.14624307998E+03  0.46154753685E+03  0.10566000000E+00 0. -1.
<mgrwt>
<rscale>  1 0.86219501E+03</rscale>
<asrwt>0</asrwt>
<pdfrwt beam="2">  1       21 0.81344579E-01 0.10807533E+04</pdfrwt>
<pdfrwt beam="1">  1        4 0.16781390E+00 0.10807533E+04</pdfrwt>
<totfact> 0.10914871E+01</totfact>
</mgrwt>
</event>
<event>
 6    1  0.1431486E-005  0.1117789E+04  0.7818608E-02  0.9404285E-01
          4   -1    0    0  502    0 -0.00000000000E+00  0.00000000000E+00  0.12968027900E+04  0.12968027900E+04  0.00000000000E+00 0.  1.
         21   -1    0    0  501  502  0.00000000000E+00 -0.00000000000E+00 -0.60508493923E+03  0.60508493923E+03  0.00000000000E+00 0. -1.
    9000010    2    1    2  501    0 -0.10906427435E+02 -0.50669840938E+03  0.99199523010E+02  0.11221825233E+04  0.99628853355E+03 0.  0.
        -13    1    3    3    0    0 -0.15152138920E+03 -0.41448319513E+03  0.51229909142E+03  0.67616966855E+03  0.10566000000E+00 0.  1.
          4    1    3    3  501    0  0.14061496177E+03 -0.92215214252E+02 -0.41309956841E+03  0.44601285478E+03  0.00000000000E+00 0.  1.
         13    1    1    2    0    0  0.10906427435E+02  0.50669840938E+03  0.59251832778E+03  0.77970520592E+03  0.10566000000E+00 0. -1.
<mgrwt>
<rscale>  1 0.91723900E+03</rscale>
<asrwt>0</asrwt>
<pdfrwt beam="2">  1       21 0.93089991E-01 0.11177894E+04</pdfrwt>
<pdfrwt beam="1">  1        4 0.19950812E+00 0.11177894E+04</pdfrwt>
<totfact> 0.47417719E+00</totfact>
</mgrwt>
</event>
<event>
 6    1  0.1431486E-005  0.1008658E+04  0.7818608E-02  0.1023107E+00
         21   -1    0    0  501  502  0.00000000000E+00  0.00000000000E+00  0.20534561224E+03  0.20534561224E+03  0.00000000000E+00 0.  1.
          4   -1    0    0  502    0 -0.00000000000E+00 -0.00000000000E+00 -0.14233730298E+04  0.14233730298E+04  0.00000000000E+00 0.  1.
    9000010    2    1    2  501    0 -0.21784559705E+02 -0.40380111508E+02 -0.10559868348E+04  0.14603075911E+04  0.10076134899E+04 0.  0.
        -13    1    3    3    0    0  0.16275230788E+03  0.60830886376E+02  0.15398683477E+03  0.23216517160E+03  0.10566000000E+00 0.  1.
          4    1    3    3  501    0 -0.18453686758E+03 -0.10121099788E+03 -0.12099736696E+04  0.12281424195E+04  0.00000000000E+00 0.  1.
         13    1    1    2    0    0  0.21784559705E+02  0.40380111508E+02 -0.16204058280E+03  0.16841105096E+03  0.10566000000E+00 0. -1.
<mgrwt>
<rscale>  1 0.46581956E+03</rscale>
<asrwt>0</asrwt>
<pdfrwt beam="1">  1       21 0.31591634E-01 0.10086576E+04</pdfrwt>
<pdfrwt beam="2">  1        4 0.21898046E+00 0.10086576E+04</pdfrwt>
<totfact> 0.38889940E+01</totfact>
</mgrwt>
</event>
<event>
 6    1  0.1431486E-005  0.9228292E+03  0.7818608E-02  0.1011705E+00
         21   -1    0    0  501  502  0.00000000000E+00  0.00000000000E+00  0.13063350789E+04  0.13063350789E+04  0.00000000000E+00 0.  1.
          4   -1    0    0  502    0 -0.00000000000E+00 -0.00000000000E+00 -0.19500492072E+03  0.19500492072E+03  0.00000000000E+00 0.  1.
    9000010    2    1    2  501    0  0.38590350907E+02 -0.75463388639E+02  0.10414838245E+04  0.13915107699E+04  0.91892857599E+03 0.  0.
        -13    1    3    3    0    0 -0.17076846028E+03  0.11799345550E+03  0.10836528712E+04  0.11033530165E+04  0.10566000000E+00 0.  1.
          4    1    3    3  501    0  0.20935881119E+03 -0.19345684414E+03 -0.42169046655E+02  0.28815775343E+03  0.00000000000E+00 0.  1.
         13    1    1    2    0    0 -0.38590350907E+02  0.75463388639E+02  0.69846333623E+02  0.10982922968E+03  0.10566000000E+00 0. -1.
<mgrwt>
<rscale>  1 0.50802653E+03</rscale>
<asrwt>0</asrwt>
<pdfrwt beam="1">  1       21 0.20097462E+00 0.92282916E+03</pdfrwt>
<pdfrwt beam="2">  1        4 0.30000758E-01 0.92282916E+03</pdfrwt>
<totfact> 0.49974655E+01</totfact>
</mgrwt>
</event>
<event>
 6    1  0.1431486E-005  0.1161816E+04  0.7818608E-02  0.9348840E-01
          4   -1    0    0  502    0 -0.00000000000E+00  0.00000000000E+00  0.17751929025E+04  0.17751929025E+04  0.00000000000E+00 0.  1.
         21   -1    0    0  501  502  0.00000000000E+00 -0.00000000000E+00 -0.48356478200E+03  0.48356478200E+03  0.00000000000E+00 0.  1.
    9000010    2    1    2  501    0 -0.54871176019E+03 -0.48660032675E+02  0.43558120788E+03  0.12407848350E+04  0.10229191676E+04 0.  0.
        -13    1    3    3    0    0  0.24562545084E+03  0.13896023093E+03 -0.56386510340E+02  0.28778682665E+03  0.10566000000E+00 0.  1.
          4    1    3    3  501    0 -0.79433721103E+03 -0.18762026360E+03  0.49196771822E+03  0.95299800835E+03  0.00000000000E+00 0.  1.
         13    1    1    2    0    0  0.54871176019E+03  0.48660032675E+02  0.85604691262E+03  0.10179728495E+04  0.10566000000E+00 0. -1.
<mgrwt>
<rscale>  1 0.96408270E+03</rscale>
<asrwt>0</asrwt>
<pdfrwt beam="2">  1       21 0.74394583E-01 0.11618158E+04</pdfrwt>
<pdfrwt beam="1">  1        4 0.27310660E+00 0.11618158E+04</pdfrwt>
<totfact> 0.27546592E+00</totfact>
</mgrwt>
</event>
<event>
 6    1  0.1431486E-005  0.9968969E+03  0.7818608E-02  0.9657555E-01
         21   -1    0    0  501  502  0.00000000000E+00  0.00000000000E+00  0.62869669770E+03  0.62869669770E+03  0.00000000000E+00 0.  1.
          4   -1    0    0  502    0 -0.00000000000E+00 -0.00000000000E+00 -0.68252093827E+03  0.68252093827E+03  0.00000000000E+00 0.  1.
    9000010    2    1    2  501    0  0.10924124172E+03  0.27532130203E+03  0.47867985004E+02  0.99804549776E+03  0.95187604412E+03 0.  0.
        -13    1    3    3    0    0  0.31111435410E+03 -0.27203759312E+03  0.94657384963E+01  0.41338384677E+03  0.10566000000E+00 0.  1.
          4    1    3    3  501    0 -0.20187311238E+03  0.54735889515E+03  0.38402246507E+02  0.58466165099E+03  0.00000000000E+00 0.  1.
         13    1    1    2    0    0 -0.10924124172E+03 -0.27532130203E+03 -0.10169222557E+03  0.31317213821E+03  0.10566000000E+00 0. -1.
<mgrwt>
<rscale>  1 0.73601150E+03</rscale>
<asrwt>0</asrwt>
<pdfrwt beam="1">  1       21 0.96722568E-01 0.99689692E+03</pdfrwt>
<pdfrwt beam="2">  1        4 0.10500322E+00 0.99689692E+03</pdfrwt>
<totfact> 0.24525722E+01</totfact>
</mgrwt>
</event>
<event>
 6    1  0.1431486E-005  0.1133719E+04  0.7818608E-02  0.9381164E-01
         21   -1    0    0  501  502  0.00000000000E+00  0.00000000000E+00  0.13154866668E+04  0.13154866668E+04  0.00000000000E+00 0.  1.
          4   -1    0    0  502    0 -0.00000000000E+00 -0.00000000000E+00 -0.52573550157E+03  0.52573550157E+03  0.00000000000E+00 0.  1.
    9000010    2    1    2  501    0 -0.11511982864E+03 -0.51496777035E+03  0.49816820625E+03  0.12383415727E+04  0.10034310687E+04 0.  0.
        -13    1    3    3    0    0 -0.84117562263E+02 -0.10564255162E+03  0.74647194762E+03  0.75858848709E+03  0.10566000000E+00 0.  1.
          4    1    3    3  501    0 -0.31002266376E+02 -0.40932521873E+03 -0.24830374137E+03  0.47975308564E+03  0.00000000000E+00 0.  1.
         13    1    1    2    0    0  0.11511982864E+03  0.51496777035E+03  0.29158295894E+03  0.60288059561E+03  0.10566000000E+00 0. -1.
<mgrwt>
<rscale>  1 0.93642149E+03</rscale>
<asrwt>0</asrwt>
<pdfrwt beam="1">  1       21 0.20238256E+00 0.11337188E+04</pdfrwt>
<pdfrwt beam="2">  1        4 0.80882385E-01 0.11337188E+04</pdfrwt>
<totfact> 0.58465113E+00</totfact>
</mgrwt>
</event>
<event>
 6    1  0.1431486E-005  0.1023611E+04  0.7818608E-02  0.9702778E-01
          4   -1    0    0  502    0 -0.00000000000E+00  0.00000000000E+00  0.17225805209E+04  0.17225805209E+04  0.00000000000E+00 0.  1.
         21   -1    0    0  501  502  0.00000000000E+00 -0.00000000000E+00 -0.23260071108E+03  0.23260071108E+03  0.00000000000E+00 0.  1.
    9000010    2    1    2  501    0  0.22257242493E+03  0.75285900883E+02  0.11237897037E+04  0.15200931303E+04  0.99627976771E+03 0.  0.
        -13    1    3    3    0    0  0.13897678073E+03  0.11750010971E+03  0.13041935756E+04  0.13168301771E+04  0.10566000000E+00 0.  1.
          4    1    3    3  501    0  0.83595644199E+02 -0.42214208826E+02 -0.18040387195E+03  0.20326295326E+03  0.00000000000E+00 0.  1.
         13    1    1    2    0    0 -0.22257242493E+03 -0.75285900883E+02  0.36619010616E+03  0.43508810168E+03  0.10566000000E+00 0. -1.
<mgrwt>
<rscale>  1 0.70851655E+03</rscale>
<asrwt>0</asrwt>
<pdfrwt beam="2">  1       21 0.35784726E-01 0.10236112E+04</pdfrwt>
<pdfrwt beam="1">  1        4 0.26501238E+00 0.10236112E+04</pdfrwt>
<totfact> 0.15526050E+01</totfact>
</mgrwt>
</event>
<event>
 6    1  0.1431486E-005  0.1102935E+04  0.7818608E-02  0.9491860E-01
         21   -1    0    0  501  502  0.00000000000E+00  0.00000000000E+00  0.22452217800E+04  0.22452217800E+04  0.00000000000E+00 0.  1.
          4   -1    0    0  502    0 -0.00000000000E+00 -0.00000000000E+00 -0.25921272717E+03  0.25921272717E+03  0.00000000000E+00 0.  1.
    9000010    2    1    2  501    0  0.16030309865E+03 -0.35223378971E+03  0.12097621283E+04  0.16370677883E+04  0.10328120885E+04 0.  0.
        -13    1    3    3    0    0 -0.37885420369E+03 -0.26012331786E+02  0.15870578544E+03  0.41157585759E+03  0.10566000000E+00 0.  1.
          4    1    3    3  501    0  0.53915730234E+03 -0.32622145792E+03  0.10510563429E+04  0.12254919307E+04  0.00000000000E+00 0.  1.
         13    1    1    2    0    0 -0.16030309865E+03  0.35223378971E+03  0.77624692456E+03  0.86736671893E+03  0.10566000000E+00 0. -1.
<mgrwt>
<rscale>  1 0.84886607E+03</rscale>
<asrwt>0</asrwt>
<pdfrwt beam="1">  1       21 0.34541872E+00 0.11029354E+04</pdfrwt>
<pdfrwt beam="2">  1        4 0.39878883E-01 0.11029354E+04</pdfrwt>
<totfact> 0.33195686E+00</totfact>
</mgrwt>
</event>
<event>
 6    1  0.1431486E-005  0.1359863E+04  0.7818608E-02  0.9082942E-01
         21   -1    0    0  501  502  0.00000000000E+00  0.00000000000E+00  0.15498250258E+04  0.15498250258E+04  0.00000000000E+00 0. -1.
          4   -1    0    0  502    0 -0.00000000000E+00 -0.00000000000E+00 -0.10748017122E+04  0.10748017122E+04  0.00000000000E+00 0.  1.
    9000010    2    1    2  501    0  0.15075904036E+03  0.91206737069E+03 -0.32940166807E+03  0.13991901875E+04  0.99731266151E+03 0.  0.
        -13    1    3    3    0    0  0.31690419676E+03  0.92988239735E+03  0.50982745634E+02  0.98372190905E+03  0.10566000000E+00 0.  1.
          4    1    3    3  501    0 -0.16614515640E+03 -0.17815026659E+02 -0.38038441371E+03  0.41546827841E+03  0.00000000000E+00 0.  1.
         13    1    1    2    0    0 -0.15075904036E+03 -0.91206737069E+03  0.80442498175E+03  0.12254365505E+04  0.10566000000E+00 0. -1.
<mgrwt>
<rscale>  1 0.12347855E+04</rscale>
<asrwt>0</asrwt>
<pdfrwt beam="1">  1       21 0.23843462E+00 0.13598631E+04</pdfrwt>
<pdfrwt beam="2">  1        4 0.16535411E+00 0.13598631E+04</pdfrwt>
<totfact> 0.53790623E-01</totfact>
</mgrwt>
</event>
<event>
 6    1  0.1431486E-005  0.1060529E+04  0.7818608E-02  0.9579195E-01
          4   -1    0    0  502    0 -0.00000000000E+00  0.00000000000E+00  0.39977193677E+03  0.39977193677E+03  0.00000000000E+00 0.  1.
         21   -1    0    0  501  502  0.00000000000E+00 -0.00000000000E+00 -0.15700125784E+04  0.15700125784E+04  0.00000000000E+00 0.  1.
    9000010    2    1    2  501    0 -0.28300688355E+03 -0.15238489031E+03 -0.12493379214E+04  0.16387702530E+04  0.10106476386E+04 0.  0.
        -13    1    3    3    0    0 -0.28667942408E+03  0.38547709152E+03 -0.82082899997E+03  0.95107199446E+03  0.10566000000E+00 0.  1.
          4    1    3    3  501    0  0.36725405306E+01 -0.53786198183E+03 -0.42850892139E+03  0.68769825851E+03  0.00000000000E+00 0.  1.
         13    1    1    2    0    0  0.28300688355E+03  0.15238489031E+03  0.79097279761E+02  0.33101426217E+03  0.10566000000E+00 0. -1.
<mgrwt>
<rscale>  1 0.78688629E+03</rscale>
<asrwt>0</asrwt>
<pdfrwt beam="2">  1       21 0.24154040E+00 0.10605294E+04</pdfrwt>
<pdfrwt beam="1">  1        4 0.61503374E-01 0.10605294E+04</pdfrwt>
<totfact> 0.60140207E+00</totfact>
</mgrwt>
</event>
<event>
 6    1  0.1431486E-005  0.1115721E+04  0.7818608E-02  0.9431017E-01
          4   -1    0    0  502    0 -0.00000000000E+00  0.00000000000E+00  0.92316592648E+03  0.92316592648E+03  0.00000000000E+00 0.  1.
         21   -1    0    0  501  502  0.00000000000E+00 -0.00000000000E+00 -0.97059202315E+03  0.97059202315E+03  0.00000000000E+00 0.  1.
    9000010    2    1    2  501    0  0.44056738530E+03  0.14352423588E+03 -0.52085732298E+03  0.12313109974E+04  0.10149559568E+04 0.  0.
        -13    1    3    3    0    0  0.34150633839E+03  0.46777080890E+03  0.34988744772E+02  0.58022438094E+03  0.10566000000E+00 0.  1.
          4    1    3    3  501    0  0.99061046905E+02 -0.32424657301E+03 -0.55584606775E+03  0.65108661648E+03  0.00000000000E+00 0.  1.
         13    1    1    2    0    0 -0.44056738530E+03 -0.14352423588E+03  0.47343122631E+03  0.66244695220E+03  0.10566000000E+00 0. -1.
<mgrwt>
<rscale>  1 0.89566491E+03</rscale>
<asrwt>0</asrwt>
<pdfrwt beam="2">  1       21 0.14932185E+00 0.11157215E+04</pdfrwt>
<pdfrwt beam="1">  1        4 0.14202553E+00 0.11157215E+04</pdfrwt>
<totfact> 0.36289037E+00</totfact>
</mgrwt>
</event>
<event>
 6    1  0.1431486E-005  0.1035772E+04  0.7818608E-02  0.9654511E-01
          4   -1    0    0  502    0 -0.00000000000E+00  0.00000000000E+00  0.66402021206E+03  0.66402021206E+03  0.00000000000E+00 0.  1.
         21   -1    0    0  501  502  0.00000000000E+00 -0.00000000000E+00 -0.65427372040E+03  0.65427372040E+03  0.00000000000E+00 0. -1.
    9000010    2    1    2  501    0 -0.13553726226E+03 -0.22983365853E+03  0.89973244101E+02  0.10396719609E+04  0.10008140395E+04 0.  0.
        -13    1    3    3    0    0 -0.47693173424E+03  0.12517441739E+03 -0.11480349695E+03  0.50627301722E+03  0.10566000000E+00 0.  1.
          4    1    3    3  501    0  0.34139447198E+03 -0.35500807592E+03  0.20477674105E+03  0.53339894370E+03  0.00000000000E+00 0.  1.
         13    1    1    2    0    0  0.13553726226E+03  0.22983365853E+03 -0.80226752440E+02  0.27862197154E+03  0.10566000000E+00 0. -1.
<mgrwt>
<rscale>  1 0.73790992E+03</rscale>
<asrwt>0</asrwt>
<pdfrwt beam="2">  1       21 0.10065749E+00 0.10357715E+04</pdfrwt>
<pdfrwt beam="1">  1        4 0.10215696E+00 0.10357715E+04</pdfrwt>
<totfact> 0.23677520E+01</totfact>
</mgrwt>
</event>
<event>
 6    1  0.1431486E-005  0.1096180E+04  0.7818608E-02  0.9482270E-01
          4   -1    0    0  502    0 -0.00000000000E+00  0.00000000000E+00  0.14718336810E+04  0.14718336810E+04  0.00000000000E+00 0.  1.
         21   -1    0    0  501  502  0.00000000000E+00 -0.00000000000E+00 -0.52386467243E+03  0.52386467243E+03  0.00000000000E+00 0.  1.
    9000010    2    1    2  501    0 -0.18442601211E+03  0.36358496698E+03  0.15903954025E+03  0.11076574201E+04  0.10175482312E+04 0.  0.
        -13    1    3    3    0    0 -0.37718337154E+03  0.10645456112E+03 -0.33682225677E+03  0.51676794905E+03  0.10566000000E+00 0.  1.
          4    1    3    3  501    0  0.19275735943E+03  0.25713040586E+03  0.49586179701E+03  0.59088947103E+03  0.00000000000E+00 0.  1.
         13    1    1    2    0    0  0.18442601211E+03 -0.36358496698E+03  0.78892946833E+03  0.88804093336E+03  0.10566000000E+00 0. -1.
<mgrwt>
<rscale>  1 0.85603727E+03</rscale>
<asrwt>0</asrwt>
<pdfrwt beam="2">  1       21 0.80594566E-01 0.10961804E+04</pdfrwt>
<pdfrwt beam="1">  1        4 0.22643595E+00 0.10961804E+04</pdfrwt>
<totfact> 0.44963796E+00</totfact>
</mgrwt>
</event>
<event>
 6    1  0.1431486E-005  0.1014252E+04  0.7818608E-02  0.1003230E+00
         21   -1    0    0  501  502  0.00000000000E+00  0.00000000000E+00  0.72824300250E+03  0.72824300250E+03  0.00000000000E+00 0.  1.
          4   -1    0    0  502    0 -0.00000000000E+00 -0.00000000000E+00 -0.42627078672E+03  0.42627078672E+03  0.00000000000E+00 0.  1.
    9000010    2    1    2  501    0 -0.73332713935E+02  0.38992256584E+02  0.33042839839E+03  0.10667194358E+04  0.10108458563E+04 0.  0.
        -13    1    3    3    0    0  0.89243404638E+01 -0.38579887274E+02  0.68931113974E+03  0.69044761574E+03  0.10566000000E+00 0.  1.
          4    1    3    3  501    0 -0.82257054399E+02  0.77572143858E+02 -0.35888274134E+03  0.37627182001E+03  0.00000000000E+00 0.  1.
         13    1    1    2    0    0  0.73332713935E+02 -0.38992256584E+02 -0.28456182613E+02  0.87794353461E+02  0.10566000000E+00 0. -1.
<mgrwt>
<rscale>  1 0.54256352E+03</rscale>
<asrwt>0</asrwt>
<pdfrwt beam="1">  1       21 0.11203739E+00 0.10142522E+04</pdfrwt>
<pdfrwt beam="2">  1        4 0.65580121E-01 0.10142522E+04</pdfrwt>
<totfact> 0.50470571E+01</totfact>
</mgrwt>
</event>
<event>
 6    1  0.1431486E-005  0.1018635E+04  0.7818608E-02  0.9784685E-01
          4   -1    0    0  502    0 -0.00000000000E+00  0.00000000000E+00  0.62855115048E+03  0.62855115048E+03  0.00000000000E+00 0.  1.
         21   -1    0    0  501  502  0.00000000000E+00 -0.00000000000E+00 -0.66373318200E+03  0.66373318200E+03  0.00000000000E+00 0.  1.
    9000010    2    1    2  501    0  0.15912047525E+03  0.87536817006E+02  0.15380513345E+03  0.10301809566E+04  0.10023147032E+04 0.  0.
        -13    1    3    3    0    0 -0.84258713884E+02  0.13049248898E+03  0.54541778464E+03  0.56710527374E+03  0.10566000000E+00 0.  1.
          4    1    3    3  501    0  0.24337918913E+03 -0.42955671972E+02 -0.39161265119E+03  0.46307568283E+03  0.00000000000E+00 0.  1.
         13    1    1    2    0    0 -0.15912047525E+03 -0.87536817006E+02 -0.18898716496E+03  0.26210337590E+03  0.10566000000E+00 0. -1.
<mgrwt>
<rscale>  1 0.66190948E+03</rscale>
<asrwt>0</asrwt>
<pdfrwt beam="2">  1       21 0.10211280E+00 0.10186348E+04</pdfrwt>
<pdfrwt beam="1">  1        4 0.96700177E-01 0.10186348E+04</pdfrwt>
<totfact> 0.26116607E+01</totfact>
</mgrwt>
</event>
<event>
 6    1  0.1431486E-005  0.1004652E+04  0.7818608E-02  0.9907434E-01
         21   -1    0    0  501  502  0.00000000000E+00  0.00000000000E+00  0.10187915563E+04  0.10187915563E+04  0.00000000000E+00 0.  1.
          4   -1    0    0  502    0 -0.00000000000E+00 -0.00000000000E+00 -0.36977277379E+03  0.36977277379E+03  0.00000000000E+00 0.  1.
    9000010    2    1    2  501    0 -0.12368042936E+03 -0.28750225182E+02  0.72650367197E+03  0.12398117055E+04  0.99659523165E+03 0.  0.
        -13    1    3    3    0    0 -0.29396158767E+03  0.27055008844E+03 -0.38019149663E+02  0.40131811856E+03  0.10566000000E+00 0.  1.
          4    1    3    3  501    0  0.17028115831E+03 -0.29930031362E+03  0.76452282163E+03  0.83849358698E+03  0.00000000000E+00 0.  1.
         13    1    1    2    0    0  0.12368042936E+03  0.28750225182E+02 -0.77484889452E+02  0.14875262456E+03  0.10566000000E+00 0. -1.
<mgrwt>
<rscale>  1 0.59902357E+03</rscale>
<asrwt>0</asrwt>
<pdfrwt beam="1">  1       21 0.15673716E+00 0.10046519E+04</pdfrwt>
<pdfrwt beam="2">  1        4 0.56888120E-01 0.10046519E+04</pdfrwt>
<totfact> 0.28039964E+01</totfact>
</mgrwt>
</event>
<event>
 6    1  0.1431486E-005  0.1213235E+04  0.7818608E-02  0.9258912E-01
         21   -1    0    0  501  502  0.00000000000E+00  0.00000000000E+00  0.96168996873E+03  0.96168996873E+03  0.00000000000E+00 0. -1.
          4   -1    0    0  502    0 -0.00000000000E+00 -0.00000000000E+00 -0.96980900027E+03  0.96980900027E+03  0.00000000000E+00 0.  1.
    9000010    2    1    2  501    0 -0.42988146385E+03 -0.51618557374E+03 -0.20735530859E+03  0.12308273449E+04  0.10102940708E+04 0.  0.
        -13    1    3    3    0    0 -0.80096286475E+02 -0.73375914967E+03 -0.31889788961E+03  0.80406080615E+03  0.10566000000E+00 0.  1.
          4    1    3    3  501    0 -0.34978517737E+03  0.21757357593E+03  0.11154258101E+03  0.42676653879E+03  0.00000000000E+00 0.  1.
         13    1    1    2    0    0  0.42988146385E+03  0.51618557374E+03  0.19923627705E+03  0.70067162406E+03  0.10566000000E+00 0. -1.
<mgrwt>
<rscale>  1 0.10465511E+04</rscale>
<asrwt>0</asrwt>
<pdfrwt beam="1">  1       21 0.14795230E+00 0.12132352E+04</pdfrwt>
<pdfrwt beam="2">  1        4 0.14920138E+00 0.12132352E+04</pdfrwt>
<totfact> 0.32259018E+00</totfact>
</mgrwt>
</event>
<event>
 6    1  0.1431486E-005  0.1050824E+04  0.7818608E-02  0.9633963E-01
         21   -1    0    0  501  502  0.00000000000E+00  0.00000000000E+00  0.16397087367E+04  0.16397087367E+04  0.00000000000E+00 0.  1.
          4   -1    0    0  502    0 -0.00000000000E+00 -0.00000000000E+00 -0.26854552071E+03  0.26854552071E+03  0.00000000000E+00 0.  1.
    9000010    2    1    2  501    0 -0.20182306299E+03 -0.18527688154E+03  0.11323088683E+04  0.15447828250E+04  0.10144804245E+04 0.  0.
        -13    1    3    3    0    0 -0.33820313979E+03 -0.26174847521E+03  0.27045822773E+02  0.42851501226E+03  0.10566000000E+00 0.  1.
          4    1    3    3  501    0  0.13638007681E+03  0.76471593661E+02  0.11052630455E+04  0.11162678128E+04  0.00000000000E+00 0.  1.
         13    1    1    2    0    0  0.20182306299E+03  0.18527688154E+03  0.23885434766E+03  0.36347143237E+03  0.10566000000E+00 0. -1.
<mgrwt>
<rscale>  1 0.75088520E+03</rscale>
<asrwt>0</asrwt>
<pdfrwt beam="1">  1       21 0.25226288E+00 0.10508238E+04</pdfrwt>
<pdfrwt beam="2">  1        4 0.41314697E-01 0.10508238E+04</pdfrwt>
<totfact> 0.11942297E+01</totfact>
</mgrwt>
</event>
<event>
 6    1  0.1431486E-005  0.9887008E+03  0.7818608E-02  0.9689367E-01
          4   -1    0    0  502    0 -0.00000000000E+00  0.00000000000E+00  0.45681846447E+03  0.45681846447E+03  0.00000000000E+00 0.  1.
         21   -1    0    0  501  502  0.00000000000E+00 -0.00000000000E+00 -0.10685927297E+04  0.10685927297E+04  0.00000000000E+00 0.  1.
    9000010    2    1    2  501    0  0.13680688505E+03  0.23594990723E+03 -0.72914375651E+03  0.12284868079E+04  0.95033717021E+03 0.  0.
        -13    1    3    3    0    0 -0.28152693924E+03 -0.53854056989E+02  0.56761759626E+02  0.29219785333E+03  0.10566000000E+00 0.  1.
          4    1    3    3  501    0  0.41833382428E+03  0.28980396422E+03 -0.78590551614E+03  0.93628895461E+03  0.00000000000E+00 0.  1.
         13    1    1    2    0    0 -0.13680688505E+03 -0.23594990723E+03  0.11736949126E+03  0.29692438627E+03  0.10566000000E+00 0. -1.
<mgrwt>
<rscale>  1 0.71653412E+03</rscale>
<asrwt>0</asrwt>
<pdfrwt beam="2">  1       21 0.16439888E+00 0.98870077E+03</pdfrwt>
<pdfrwt beam="1">  1        4 0.70279765E-01 0.98870077E+03</pdfrwt>
<totfact> 0.15393460E+01</totfact>
</mgrwt>
</event>
<event>
 6    1  0.1431486E-005  0.1016482E+04  0.7818608E-02  0.9779904E-01
         21   -1    0    0  501  502  0.00000000000E+00  0.00000000000E+00  0.30570862689E+03  0.30570862689E+03  0.00000000000E+00 0.  1.
          4   -1    0    0  502    0 -0.00000000000E+00 -0.00000000000E+00 -0.12256632002E+04  0.12256632002E+04  0.00000000000E+00 0.  1.
    9000010    2    1    2  501    0  0.18556040535E+03  0.63449082207E+01 -0.66013083953E+03  0.12120267071E+04  0.99938135436E+03 0.  0.
        -13    1    3    3    0    0 -0.12339932791E+03 -0.40939945044E+03 -0.81261889712E+02  0.43524568928E+03  0.10566000000E+00 0.  1.
          4    1    3    3  501    0  0.30895973326E+03  0.41574435866E+03 -0.57886894982E+03  0.77678101779E+03  0.00000000000E+00 0.  1.
         13    1    1    2    0    0 -0.18556040535E+03 -0.63449082207E+01 -0.25982373383E+03  0.31934512008E+03  0.10566000000E+00 0. -1.
<mgrwt>
<rscale>  1 0.66452237E+03</rscale>
<asrwt>0</asrwt>
<pdfrwt beam="1">  1       21 0.47032096E-01 0.10164822E+04</pdfrwt>
<pdfrwt beam="2">  1        4 0.18856357E+00 0.10164822E+04</pdfrwt>
<totfact> 0.26878104E+01</totfact>
</mgrwt>
</event>
<event>
 6    1  0.1431486E-005  0.1041369E+04  0.7818608E-02  0.9843302E-01
         21   -1    0    0  501  502  0.00000000000E+00  0.00000000000E+00  0.19373596160E+04  0.19373596160E+04  0.00000000000E+00 0.  1.
          4   -1    0    0  502    0 -0.00000000000E+00 -0.00000000000E+00 -0.18177216944E+03  0.18177216944E+03  0.00000000000E+00 0.  1.
    9000010    2    1    2  501    0 -0.50666934811E+02  0.13081774955E+03  0.16058042900E+04  0.19139113502E+04  0.10318763573E+04 0.  0.
        -13    1    3    3    0    0  0.67284384932E+02  0.28994535398E+03  0.17312091125E+01  0.29765501004E+03  0.10566000000E+00 0.  1.
          4    1    3    3  501    0 -0.11795131974E+03 -0.15912760444E+03  0.16040730809E+04  0.16162563402E+04  0.00000000000E+00 0.  1.
         13    1    1    2    0    0  0.50666934811E+02 -0.13081774955E+03  0.14978315657E+03  0.20522043523E+03  0.10566000000E+00 0. -1.
<mgrwt>
<rscale>  1 0.63089603E+03</rscale>
<asrwt>0</asrwt>
<pdfrwt beam="1">  1       21 0.29805531E+00 0.10413689E+04</pdfrwt>
<pdfrwt beam="2">  1        4 0.27964951E-01 0.10413689E+04</pdfrwt>
<totfact> 0.13442516E+01</totfact>
</mgrwt>
</event>
<event>
 6    1  0.1431486E-005  0.1048644E+04  0.7818608E-02  0.9564241E-01
         21   -1    0    0  501  502  0.00000000000E+00  0.00000000000E+00  0.29419127714E+03  0.29419127714E+03  0.00000000000E+00 0.  1.
          4   -1    0    0  502    0 -0.00000000000E+00 -0.00000000000E+00 -0.18299228896E+04  0.18299228896E+04  0.00000000000E+00 0.  1.
    9000010    2    1    2  501    0  0.95802471924E+02  0.33669405015E+03 -0.83377907645E+03  0.13397173469E+04  0.98849078101E+03 0.  0.
        -13    1    3    3    0    0  0.21238259922E+03 -0.16139664577E+03 -0.78118050871E+03  0.82546849974E+03  0.10566000000E+00 0.  1.
          4    1    3    3  501    0 -0.11658012730E+03  0.49809069592E+03 -0.52598567739E+02  0.51424884713E+03  0.00000000000E+00 0.  1.
         13    1    1    2    0    0 -0.95802471924E+02 -0.33669405015E+03 -0.70195253598E+03  0.78439681984E+03  0.10566000000E+00 0. -1.
<mgrwt>
<rscale>  1 0.79708815E+03</rscale>
<asrwt>0</asrwt>
<pdfrwt beam="1">  1       21 0.45260195E-01 0.10486444E+04</pdfrwt>
<pdfrwt beam="2">  1        4 0.28152661E+00 0.10486444E+04</pdfrwt>
<totfact> 0.74838268E+00</totfact>
</mgrwt>
</event>
<event>
 6    1  0.1431486E-005  0.1034320E+04  0.7818608E-02  0.9768374E-01
          4   -1    0    0  502    0 -0.00000000000E+00  0.00000000000E+00  0.30044673635E+03  0.30044673635E+03  0.00000000000E+00 0.  1.
         21   -1    0    0  501  502  0.00000000000E+00 -0.00000000000E+00 -0.12404288656E+04  0.12404288656E+04  0.00000000000E+00 0.  1.
    9000010    2    1    2  501    0  0.18267751348E+03 -0.11922641315E+02 -0.83891205068E+03  0.13317622469E+04  0.10179901916E+04 0.  0.
        -13    1    3    3    0    0 -0.30250091980E+01 -0.49791531654E+03 -0.52765504797E+03  0.72549891382E+03  0.10566000000E+00 0.  1.
          4    1    3    3  501    0  0.18570252268E+03  0.48599267523E+03 -0.31125700271E+03  0.60626333308E+03  0.00000000000E+00 0.  1.
         13    1    1    2    0    0 -0.18267751348E+03  0.11922641315E+02 -0.10107007852E+03  0.20911335501E+03  0.10566000000E+00 0. -1.
<mgrwt>
<rscale>  1 0.67087737E+03</rscale>
<asrwt>0</asrwt>
<pdfrwt beam="2">  1       21 0.19083521E+00 0.10343197E+04</pdfrwt>
<pdfrwt beam="1">  1        4 0.46222576E-01 0.10343197E+04</pdfrwt>
<totfact> 0.24249668E+01</totfact>
</mgrwt>
</event>
<event>
 6    1  0.1431486E-005  0.1068887E+04  0.7818608E-02  0.9510595E-01
          4   -1    0    0  502    0 -0.00000000000E+00  0.00000000000E+00  0.20465766132E+04  0.20465766132E+04  0.00000000000E+00 0.  1.
         21   -1    0    0  501  502  0.00000000000E+00 -0.00000000000E+00 -0.26482182910E+03  0.26482182910E+03  0.00000000000E+00 0.  1.
    9000010    2    1    2  501    0  0.39029076458E+03  0.78965958606E+02  0.12080313406E+04  0.16130281220E+04  0.99194631853E+03 0.  0.
        -13    1    3    3    0    0  0.37569064869E+03 -0.26869996913E+03  0.12942563155E+03  0.47968129231E+03  0.10566000000E+00 0.  1.
          4    1    3    3  501    0  0.14600115891E+02  0.34766592774E+03  0.10786057091E+04  0.11333468297E+04  0.00000000000E+00 0.  1.
         13    1    1    2    0    0 -0.39029076458E+03 -0.78965958606E+02  0.57372344348E+03  0.69837032032E+03  0.10566000000E+00 0. -1.
<mgrwt>
<rscale>  1 0.83507214E+03</rscale>
<asrwt>0</asrwt>
<pdfrwt beam="2">  1       21 0.40741821E-01 0.10688873E+04</pdfrwt>
<pdfrwt beam="1">  1        4 0.31485793E+00 0.10688873E+04</pdfrwt>
<totfact> 0.57937530E+00</totfact>
</mgrwt>
</event>
<event>
 6    1  0.1431486E-005  0.1061718E+04  0.7818608E-02  0.9556921E-01
         21   -1    0    0  501  502  0.00000000000E+00  0.00000000000E+00  0.13048452055E+04  0.13048452055E+04  0.00000000000E+00 0.  1.
          4   -1    0    0  502    0 -0.00000000000E+00 -0.00000000000E+00 -0.60836662102E+03  0.60836662102E+03  0.00000000000E+00 0.  1.
    9000010    2    1    2  501    0 -0.30752244446E+03  0.15840537844E+03  0.99590122081E+03  0.14557009042E+04  0.10037846199E+04 0.  0.
        -13    1    3    3    0    0 -0.46448439043E+03  0.49976420416E+03  0.69950204237E+03  0.97714539714E+03  0.10566000000E+00 0.  1.
          4    1    3    3  501    0  0.15696194596E+03 -0.34135882572E+03  0.29639917844E+03  0.47855550708E+03  0.00000000000E+00 0.  1.
         13    1    1    2    0    0  0.30752244446E+03 -0.15840537844E+03 -0.29942263630E+03  0.45751092234E+03  0.10566000000E+00 0. -1.
<mgrwt>
<rscale>  1 0.80214278E+03</rscale>
<asrwt>0</asrwt>
<pdfrwt beam="1">  1       21 0.20074541E+00 0.10617184E+04</pdfrwt>
<pdfrwt beam="2">  1        4 0.93594865E-01 0.10617184E+04</pdfrwt>
<totfact> 0.43043451E+00</totfact>
</mgrwt>
</event>
<event>
 6    1  0.1431486E-005  0.1012859E+04  0.7818608E-02  0.1007605E+00
          4   -1    0    0  502    0 -0.00000000000E+00  0.00000000000E+00  0.20008836470E+03  0.20008836470E+03  0.00000000000E+00 0.  1.
         21   -1    0    0  501  502  0.00000000000E+00 -0.00000000000E+00 -0.16686083082E+04  0.16686083082E+04  0.00000000000E+00 0.  1.
    9000010    2    1    2  501    0 -0.65081686887E+02  0.32544494894E+02 -0.14816443342E+04  0.17947572996E+04  0.10102420807E+04 0.  0.
        -13    1    3    3    0    0 -0.39906551537E+03 -0.89986780396E+02 -0.18279274803E+03  0.44806707768E+03  0.10566000000E+00 0.  1.
          4    1    3    3  501    0  0.33398382849E+03  0.12253127529E+03 -0.12988515861E+04  0.13466902220E+04  0.00000000000E+00 0.  1.
         13    1    1    2    0    0  0.65081686887E+02 -0.32544494894E+02  0.13124390702E+02  0.73939373214E+02  0.10566000000E+00 0. -1.
<mgrwt>
<rscale>  1 0.52437602E+03</rscale>
<asrwt>0</asrwt>
<pdfrwt beam="2">  1       21 0.25670896E+00 0.10128592E+04</pdfrwt>
<pdfrwt beam="1">  1        4 0.30782826E-01 0.10128592E+04</pdfrwt>
<totfact> 0.20307044E+01</totfact>
</mgrwt>
</event>
<event>
 6    1  0.1431486E-005  0.1009967E+04  0.7818608E-02  0.9938486E-01
         21   -1    0    0  501  502  0.00000000000E+00  0.00000000000E+00  0.32810771652E+03  0.32810771652E+03  0.00000000000E+00 0.  1.
          4   -1    0    0  502    0 -0.00000000000E+00 -0.00000000000E+00 -0.98605682947E+03  0.98605682947E+03  0.00000000000E+00 0.  1.
    9000010    2    1    2  501    0  0.92013035322E+02  0.65861892917E+02 -0.64930542556E+03  0.12006792513E+04  0.10036079620E+04 0.  0.
        -13    1    3    3    0    0  0.31263679638E+03  0.33927201558E+02 -0.84651824532E+03  0.90304261930E+03  0.10566000000E+00 0.  1.
          4    1    3    3  501    0 -0.22062376106E+03  0.31934691360E+02  0.19721281976E+03  0.29763663204E+03  0.00000000000E+00 0.  1.
         13    1    1    2    0    0 -0.92013035322E+02 -0.65861892917E+02 -0.86436873896E+01  0.11348529466E+03  0.10566000000E+00 0. -1.
<mgrwt>
<rscale>  1 0.58431826E+03</rscale>
<asrwt>0</asrwt>
<pdfrwt beam="1">  1       21 0.50478110E-01 0.10099669E+04</pdfrwt>
<pdfrwt beam="2">  1        4 0.15170105E+00 0.10099669E+04</pdfrwt>
<totfact> 0.42631654E+01</totfact>
</mgrwt>
</event>
<event>
 6    1  0.1431486E-005  0.1198580E+04  0.7818608E-02  0.9275608E-01
          4   -1    0    0  502    0 -0.00000000000E+00  0.00000000000E+00  0.17879614325E+04  0.17879614325E+04  0.00000000000E+00 0.  1.
         21   -1    0    0  501  502  0.00000000000E+00 -0.00000000000E+00 -0.53314315781E+03  0.53314315781E+03  0.00000000000E+00 0. -1.
    9000010    2    1    2  501    0 -0.39362541176E+03 -0.52374759337E+03  0.11434677078E+04  0.16565359586E+04  0.10036635278E+04 0.  0.
        -13    1    3    3    0    0 -0.58182420388E+03  0.57260034086E+02  0.61994601457E+03  0.85213331578E+03  0.10566000000E+00 0.  1.
          4    1    3    3  501    0  0.18819879211E+03 -0.58100762745E+03  0.52352169323E+03  0.80440264283E+03  0.00000000000E+00 0.  1.
         13    1    1    2    0    0  0.39362541176E+03  0.52374759337E+03  0.11135056690E+03  0.66456863171E+03  0.10566000000E+00 0. -1.
<mgrwt>
<rscale>  1 0.10305980E+04</rscale>
<asrwt>0</asrwt>
<pdfrwt beam="2">  1       21 0.82022025E-01 0.11985796E+04</pdfrwt>
<pdfrwt beam="1">  1        4 0.27507099E+00 0.11985796E+04</pdfrwt>
<totfact> 0.21197441E+00</totfact>
</mgrwt>
</event>
<event>
 6    1  0.1431486E-005  0.1081593E+04  0.7818608E-02  0.9476973E-01
          4   -1    0    0  502    0 -0.00000000000E+00  0.00000000000E+00  0.19279724087E+04  0.19279724087E+04  0.00000000000E+00 0.  1.
         21   -1    0    0  501  502  0.00000000000E+00 -0.00000000000E+00 -0.38705357979E+03  0.38705357979E+03  0.00000000000E+00 0.  1.
    9000010    2    1    2  501    0  0.37493287095E+03  0.21535103647E+03  0.50737472693E+03  0.11946849027E+04  0.99140918725E+03 0.  0.
        -13    1    3    3    0    0  0.63585806748E+03  0.11137992373E+03  0.61718436457E+03  0.89310554831E+03  0.10566000000E+00 0.  1.
          4    1    3    3  501    0 -0.26092519653E+03  0.10397111274E+03 -0.10980963764E+03  0.30157935438E+03  0.00000000000E+00 0.  1.
         13    1    1    2    0    0 -0.37493287095E+03 -0.21535103647E+03  0.10335441019E+04  0.11203410858E+04  0.10566000000E+00 0. -1.
<mgrwt>
<rscale>  1 0.86003025E+03</rscale>
<asrwt>0</asrwt>
<pdfrwt beam="2">  1       21 0.59546706E-01 0.10815928E+04</pdfrwt>
<pdfrwt beam="1">  1        4 0.29661113E+00 0.10815928E+04</pdfrwt>
<totfact> 0.33074161E+00</totfact>
</mgrwt>
</event>
<event>
 6    1  0.1431486E-005  0.1027860E+04  0.7818608E-02  0.9703560E-01
          4   -1    0    0  502    0 -0.00000000000E+00  0.00000000000E+00  0.26371758167E+04  0.26371758167E+04  0.00000000000E+00 0.  1.
         21   -1    0    0  501  502  0.00000000000E+00 -0.00000000000E+00 -0.20073311926E+03  0.20073311926E+03  0.00000000000E+00 0.  1.
    9000010    2    1    2  501    0  0.33213127333E+01  0.23142746013E+03  0.12001805789E+04  0.15801674135E+04  0.10014618976E+04 0.  0.
        -13    1    3    3    0    0 -0.47310017994E+02  0.57929452237E+03  0.39825411558E+03  0.70457556954E+03  0.10566000000E+00 0.  1.
          4    1    3    3  501    0  0.50631330727E+02 -0.34786706224E+03  0.80192646327E+03  0.87559184392E+03  0.00000000000E+00 0.  1.
         13    1    1    2    0    0 -0.33213127333E+01 -0.23142746013E+03  0.12362621186E+04  0.12577415225E+04  0.10566000000E+00 0. -1.
<mgrwt>
<rscale>  1 0.70805224E+03</rscale>
<asrwt>0</asrwt>
<pdfrwt beam="2">  1       21 0.30882020E-01 0.10278597E+04</pdfrwt>
<pdfrwt beam="1">  1        4 0.40571933E+00 0.10278597E+04</pdfrwt>
<totfact> 0.26045708E+00</totfact>
</mgrwt>
</event>
<event>
 6    1  0.1431486E-005  0.1000312E+04  0.7818608E-02  0.9919258E-01
         21   -1    0    0  501  502  0.00000000000E+00  0.00000000000E+00  0.10417923864E+04  0.10417923864E+04  0.00000000000E+00 0.  1.
          4   -1    0    0  502    0 -0.00000000000E+00 -0.00000000000E+00 -0.34103781422E+03  0.34103781422E+03  0.00000000000E+00 0.  1.
    9000010    2    1    2  501    0 -0.12306669661E+03  0.13903366105E+02  0.43730944274E+03  0.10917253007E+04  0.99261566982E+03 0.  0.
        -13    1    3    3    0    0 -0.19732461093E+03 -0.44273619466E+03  0.39843407459E+03  0.62745682170E+03  0.10566000000E+00 0.  1.
          4    1    3    3  501    0  0.74257914315E+02  0.45663956077E+03  0.38875368150E+02  0.46426847895E+03  0.00000000000E+00 0.  1.
         13    1    1    2    0    0  0.12306669661E+03 -0.13903366105E+02  0.26344512948E+03  0.29110490002E+03  0.10566000000E+00 0. -1.
<mgrwt>
<rscale>  1 0.59336975E+03</rscale>
<asrwt>0</asrwt>
<pdfrwt beam="1">  1       21 0.16027575E+00 0.10003122E+04</pdfrwt>
<pdfrwt beam="2">  1        4 0.52467357E-01 0.10003122E+04</pdfrwt>
<totfact> 0.31303448E+01</totfact>
</mgrwt>
</event>
<event>
 6    1  0.1431486E-005  0.1096280E+04  0.7818608E-02  0.9448870E-01
          4   -1    0    0  502    0 -0.00000000000E+00  0.00000000000E+00  0.39704663236E+03  0.39704663236E+03  0.00000000000E+00 0.  1.
         21   -1    0    0  501  502  0.00000000000E+00 -0.00000000000E+00 -0.15368861188E+04  0.15368861188E+04  0.00000000000E+00 0.  1.
    9000010    2    1    2  501    0  0.45712447126E+03  0.35431224472E+02 -0.88812939496E+03  0.14108876907E+04  0.99579721821E+03 0.  0.
        -13    1    3    3    0    0  0.81377256132E+02  0.41455043468E+03 -0.74794697019E+03  0.85901047845E+03  0.10566000000E+00 0.  1.
          4    1    3    3  501    0  0.37574721513E+03 -0.37911921021E+03 -0.14018242477E+03  0.55187721229E+03  0.00000000000E+00 0.  1.
         13    1    1    2    0    0 -0.45712447126E+03 -0.35431224472E+02 -0.25171009145E+03  0.52304506039E+03  0.10566000000E+00 0. -1.
<mgrwt>
<rscale>  1 0.88160685E+03</rscale>
<asrwt>0</asrwt>
<pdfrwt beam="2">  1       21 0.23644401E+00 0.10962802E+04</pdfrwt>
<pdfrwt beam="1">  1        4 0.61084099E-01 0.10962802E+04</pdfrwt>
<totfact> 0.65514529E+00</totfact>
</mgrwt>
</event>
<event>
 6    1  0.1431486E-005  0.9850434E+03  0.7818608E-02  0.1008003E+00
         21   -1    0    0  501  502  0.00000000000E+00  0.00000000000E+00  0.31056740305E+03  0.31056740305E+03  0.00000000000E+00 0.  1.
          4   -1    0    0  502    0 -0.00000000000E+00 -0.00000000000E+00 -0.11364967584E+04  0.11364967584E+04  0.00000000000E+00 0.  1.
    9000010    2    1    2  501    0 -0.70745243052E+02 -0.33169972611E+02 -0.48626423883E+03  0.10985278806E+04  0.98193964074E+03 0.  0.
        -13    1    3    3    0    0  0.93038212727E+02 -0.35306118309E+03  0.12796291053E+03  0.38688864763E+03  0.10566000000E+00 0.  1.
          4    1    3    3  501    0 -0.16378345578E+03  0.31989121048E+03 -0.61422714936E+03  0.71163923300E+03  0.00000000000E+00 0.  1.
         13    1    1    2    0    0  0.70745243052E+02  0.33169972611E+02 -0.33966511656E+03  0.34853628085E+03  0.10566000000E+00 0. -1.
<mgrwt>
<rscale>  1 0.52276146E+03</rscale>
<asrwt>0</asrwt>
<pdfrwt beam="1">  1       21 0.47779602E-01 0.98504345E+03</pdfrwt>
<pdfrwt beam="2">  1        4 0.17484565E+00 0.98504345E+03</pdfrwt>
<totfact> 0.32451004E+01</totfact>
</mgrwt>
</event>
<event>
 6    1  0.1431486E-005  0.1008805E+04  0.7818608E-02  0.9906672E-01
         21   -1    0    0  501  502  0.00000000000E+00  0.00000000000E+00  0.10629216658E+04  0.10629216658E+04  0.00000000000E+00 0.  1.
          4   -1    0    0  502    0 -0.00000000000E+00 -0.00000000000E+00 -0.36096977291E+03  0.36096977291E+03  0.00000000000E+00 0.  1.
    9000010    2    1    2  501    0  0.10420039611E+03 -0.70347137758E+02  0.78064022348E+03  0.12755731767E+04  0.10009402221E+04 0.  0.
        -13    1    3    3    0    0  0.38585667249E+03 -0.35071881464E+03  0.69530137912E+03  0.86909900334E+03  0.10566000000E+00 0.  1.
          4    1    3    3  501    0 -0.28165627638E+03  0.28037167688E+03  0.85338844370E+02  0.40647417333E+03  0.00000000000E+00 0.  1.
         13    1    1    2    0    0 -0.10420039611E+03  0.70347137758E+02 -0.78688330547E+02  0.14831826208E+03  0.10566000000E+00 0. -1.
<mgrwt>
<rscale>  1 0.59939037E+03</rscale>
<asrwt>0</asrwt>
<pdfrwt beam="1">  1       21 0.16352641E+00 0.10088051E+04</pdfrwt>
<pdfrwt beam="2">  1        4 0.55533812E-01 0.10088051E+04</pdfrwt>
<totfact> 0.26144771E+01</totfact>
</mgrwt>
</event>
<event>
 6    1  0.1431486E-005  0.1436968E+04  0.7818608E-02  0.9071681E-01
          4   -1    0    0  502    0 -0.00000000000E+00  0.00000000000E+00  0.14311027144E+04  0.14311027144E+04  0.00000000000E+00 0.  1.
         21   -1    0    0  501  502  0.00000000000E+00 -0.00000000000E+00 -0.12495489078E+04  0.12495489078E+04  0.00000000000E+00 0. -1.
    9000010    2    1    2  501    0  0.71497131315E+03 -0.39758966699E+03 -0.59257709772E+03  0.15543567275E+04  0.11813617979E+04 0.  0.
        -13    1    3    3    0    0  0.62715423532E+02 -0.66003490526E+03 -0.47445880149E+02  0.66470325952E+03  0.10566000000E+00 0.  1.
          4    1    3    3  501    0  0.65225588962E+03  0.26244523827E+03 -0.54513121757E+03  0.88965346793E+03  0.00000000000E+00 0.  1.
         13    1    1    2    0    0 -0.71497131315E+03  0.39758966699E+03  0.77413090431E+03  0.11262948948E+04  0.10566000000E+00 0. -1.
<mgrwt>
<rscale>  1 0.12482018E+04</rscale>
<asrwt>0</asrwt>
<pdfrwt beam="2">  1       21 0.19223829E+00 0.14369681E+04</pdfrwt>
<pdfrwt beam="1">  1        4 0.22016965E+00 0.14369681E+04</pdfrwt>
<totfact> 0.46146834E-01</totfact>
</mgrwt>
</event>
<event>
 6    1  0.1431486E-005  0.9994290E+03  0.7818608E-02  0.9817161E-01
         21   -1    0    0  501  502  0.00000000000E+00  0.00000000000E+00  0.13872821062E+04  0.13872821062E+04  0.00000000000E+00 0.  1.
          4   -1    0    0  502    0 -0.00000000000E+00 -0.00000000000E+00 -0.26351954468E+03  0.26351954468E+03  0.00000000000E+00 0.  1.
    9000010    2    1    2  501    0 -0.85889731539E+02 -0.14998094882E+03  0.10820881835E+04  0.14730149924E+04  0.98437137298E+03 0.  0.
        -13    1    3    3    0    0  0.14687407461E+03 -0.41241665397E+03  0.10289685812E+04  0.11182288865E+04  0.10566000000E+00 0.  1.
          4    1    3    3  501    0 -0.23276380614E+03  0.26243570515E+03  0.53119602260E+02  0.35478610589E+03  0.00000000000E+00 0.  1.
         13    1    1    2    0    0  0.85889731539E+02  0.14998094882E+03  0.41674378039E+02  0.17778665850E+03  0.10566000000E+00 0. -1.
<mgrwt>
<rscale>  1 0.64449686E+03</rscale>
<asrwt>0</asrwt>
<pdfrwt beam="1">  1       21 0.21342801E+00 0.99942900E+03</pdfrwt>
<pdfrwt beam="2">  1        4 0.40541469E-01 0.99942900E+03</pdfrwt>
<totfact> 0.22348233E+01</totfact>
</mgrwt>
</event>
<event>
 6    1  0.1431486E-005  0.1051189E+04  0.7818608E-02  0.9604774E-01
          4   -1    0    0  502    0 -0.00000000000E+00  0.00000000000E+00  0.60466800704E+03  0.60466800704E+03  0.00000000000E+00 0.  1.
         21   -1    0    0  501  502  0.00000000000E+00 -0.00000000000E+00 -0.76532295364E+03  0.76532295364E+03  0.00000000000E+00 0.  1.
    9000010    2    1    2  501    0  0.21398003045E+03  0.21358916234E+03 -0.18230125362E+03  0.10668798301E+04  0.10067725866E+04 0.  0.
        -13    1    3    3    0    0  0.20634296555E+03  0.41151806124E+03  0.29728510219E+03  0.54799906688E+03  0.10566000000E+00 0.  1.
          4    1    3    3  501    0  0.76370648924E+01 -0.19792889890E+03 -0.47958635580E+03  0.51888076323E+03  0.00000000000E+00 0.  1.
         13    1    1    2    0    0 -0.21398003045E+03 -0.21358916234E+03  0.21646307015E+02  0.30311113056E+03  0.10566000000E+00 0. -1.
<mgrwt>
<rscale>  1 0.76981007E+03</rscale>
<asrwt>0</asrwt>
<pdfrwt beam="2">  1       21 0.11774199E+00 0.10511892E+04</pdfrwt>
<pdfrwt beam="1">  1        4 0.93025848E-01 0.10511892E+04</pdfrwt>
<totfact> 0.19900770E+01</totfact>
</mgrwt>
</event>
<event>
 6    1  0.1431486E-005  0.1087776E+04  0.7818608E-02  0.9502815E-01
          4   -1    0    0  502    0 -0.00000000000E+00  0.00000000000E+00  0.98086422777E+03  0.98086422777E+03  0.00000000000E+00 0.  1.
         21   -1    0    0  501  502  0.00000000000E+00 -0.00000000000E+00 -0.14327058091E+04  0.14327058091E+04  0.00000000000E+00 0.  1.
    9000010    2    1    2  501    0 -0.42502331345E+02 -0.38589014041E+03 -0.11697812172E+04  0.15973868585E+04  0.10161392774E+04 0.  0.
        -13    1    3    3    0    0  0.11181158281E+03  0.61928733086E+02  0.14888982646E+03  0.19622739264E+03  0.10566000000E+00 0.  1.
          4    1    3    3  501    0 -0.15431391416E+03 -0.44781887350E+03 -0.13186710436E+04  0.14011594659E+04  0.00000000000E+00 0.  1.
         13    1    1    2    0    0  0.42502331345E+02  0.38589014041E+03  0.71793963587E+03  0.81618317831E+03  0.10566000000E+00 0. -1.
<mgrwt>
<rscale>  1 0.84076598E+03</rscale>
<asrwt>0</asrwt>
<pdfrwt beam="2">  1       21 0.22041628E+00 0.10877760E+04</pdfrwt>
<pdfrwt beam="1">  1        4 0.15090219E+00 0.10877760E+04</pdfrwt>
<totfact> 0.94744566E-01</totfact>
</mgrwt>
</event>
<event>
 6    1  0.1431486E-005  0.1034527E+04  0.7818608E-02  0.9615357E-01
          4   -1    0    0  502    0 -0.00000000000E+00  0.00000000000E+00  0.13864102718E+04  0.13864102718E+04  0.00000000000E+00 0.  1.
         21   -1    0    0  501  502  0.00000000000E+00 -0.00000000000E+00 -0.59630832548E+03  0.59630832548E+03  0.00000000000E+00 0. -1.
    9000010    2    1    2  501    0 -0.20810677343E+03  0.22422187604E+03 -0.10207629151E+03  0.10395505857E+04  0.98826209686E+03 0.  0.
        -13    1    3    3    0    0 -0.33233290780E+03  0.54208324033E+03 -0.22843584914E+03  0.67563477514E+03  0.10566000000E+00 0.  1.
          4    1    3    3  501    0  0.12422613437E+03 -0.31786136429E+03  0.12635955763E+03  0.36391581056E+03  0.00000000000E+00 0.  1.
         13    1    1    2    0    0  0.20810677343E+03 -0.22422187604E+03  0.89217823782E+03  0.94316801157E+03  0.10566000000E+00 0. -1.
<mgrwt>
<rscale>  1 0.76288042E+03</rscale>
<asrwt>0</asrwt>
<pdfrwt beam="2">  1       21 0.91739743E-01 0.10345269E+04</pdfrwt>
<pdfrwt beam="1">  1        4 0.21329389E+00 0.10345269E+04</pdfrwt>
<totfact> 0.40331401E+00</totfact>
</mgrwt>
</event>
<event>
 6    1  0.1431486E-005  0.1080547E+04  0.7818608E-02  0.9584460E-01
          4   -1    0    0  502    0 -0.00000000000E+00  0.00000000000E+00  0.94457045654E+03  0.94457045654E+03  0.00000000000E+00 0.  1.
         21   -1    0    0  501  502  0.00000000000E+00 -0.00000000000E+00 -0.87324923062E+03  0.87324923062E+03  0.00000000000E+00 0.  1.
    9000010    2    1    2  501    0 -0.12582881828E+03  0.27061501645E+03 -0.48662812383E+03  0.11850694468E+04  0.10385168676E+04 0.  0.
        -13    1    3    3    0    0 -0.17838363216E+03  0.65898301648E+03 -0.36818700338E+03  0.77565521777E+03  0.10566000000E+00 0.  1.
          4    1    3    3  501    0  0.52554813884E+02 -0.38836800003E+03 -0.11844112045E+03  0.40941422902E+03  0.00000000000E+00 0.  1.
         13    1    1    2    0    0  0.12582881828E+03 -0.27061501645E+03  0.55794934975E+03  0.63275024037E+03  0.10566000000E+00 0. -1.
<mgrwt>
<rscale>  1 0.78333311E+03</rscale>
<asrwt>0</asrwt>
<pdfrwt beam="2">  1       21 0.13434604E+00 0.10805474E+04</pdfrwt>
<pdfrwt beam="1">  1        4 0.14531853E+00 0.10805474E+04</pdfrwt>
<totfact> 0.45819010E+00</totfact>
</mgrwt>
</event>
<event>
 6    1  0.1431486E-005  0.1170493E+04  0.7818608E-02  0.9730243E-01
         21   -1    0    0  501  502  0.00000000000E+00  0.00000000000E+00  0.73744194788E+03  0.73744194788E+03  0.00000000000E+00 0.  1.
          4   -1    0    0  502    0 -0.00000000000E+00 -0.00000000000E+00 -0.61449476760E+03  0.61449476760E+03  0.00000000000E+00 0.  1.
    9000010    2    1    2  501    0  0.11998625260E+03  0.78457728266E+02  0.11826707983E+02  0.11705529057E+04  0.11616806437E+04 0.  0.
        -13    1    3    3    0    0 -0.50569717998E+03  0.60116281026E+02  0.14724987760E+03  0.53011898919E+03  0.10566000000E+00 0.  1.
          4    1    3    3  501    0  0.62568343258E+03  0.18341447241E+02 -0.13542316961E+03  0.64043391646E+03  0.00000000000E+00 0.  1.
         13    1    1    2    0    0 -0.11998625260E+03 -0.78457728266E+02  0.11112047230E+03  0.18138380982E+03  0.10566000000E+00 0. -1.
<mgrwt>
<rscale>  1 0.69244349E+03</rscale>
<asrwt>0</asrwt>
<pdfrwt beam="1">  1       21 0.11345261E+00 0.11704932E+04</pdfrwt>
<pdfrwt beam="2">  1        4 0.94537657E-01 0.11704932E+04</pdfrwt>
<totfact> 0.20835963E+01</totfact>
</mgrwt>
</event>
<event>
 6    1  0.1431486E-005  0.1025061E+04  0.7818608E-02  0.9708788E-01
          4   -1    0    0  502    0 -0.00000000000E+00  0.00000000000E+00  0.29323395241E+04  0.29323395241E+04  0.00000000000E+00 0.  1.
         21   -1    0    0  501  502  0.00000000000E+00 -0.00000000000E+00 -0.14782585653E+03  0.14782585653E+03  0.00000000000E+00 0.  1.
    9000010    2    1    2  501    0 -0.40347374746E+02  0.22572453530E+03  0.18204545181E+04  0.20892115314E+04  0.99908492830E+03 0.  0.
        -13    1    3    3    0    0 -0.27296285219E+03 -0.31943542620E+03  0.60062747965E+03  0.73300824734E+03  0.10566000000E+00 0.  1.
          4    1    3    3  501    0  0.23261547744E+03  0.54515996150E+03  0.12198270385E+04  0.13562032841E+04  0.00000000000E+00 0.  1.
         13    1    1    2    0    0  0.40347374746E+02 -0.22572453530E+03  0.96405914942E+03  0.99095384920E+03  0.10566000000E+00 0. -1.
<mgrwt>
<rscale>  1 0.70495979E+03</rscale>
<asrwt>0</asrwt>
<pdfrwt beam="2">  1       21 0.22742442E-01 0.10250611E+04</pdfrwt>
<pdfrwt beam="1">  1        4 0.45112911E+00 0.10250611E+04</pdfrwt>
<totfact> 0.22514080E+00</totfact>
</mgrwt>
</event>
<event>
 6    1  0.1431486E-005  0.1026812E+04  0.7818608E-02  0.9734918E-01
          4   -1    0    0  502    0 -0.00000000000E+00  0.00000000000E+00  0.10834203943E+04  0.10834203943E+04  0.00000000000E+00 0.  1.
         21   -1    0    0  501  502  0.00000000000E+00 -0.00000000000E+00 -0.36258433619E+03  0.36258433619E+03  0.00000000000E+00 0.  1.
    9000010    2    1    2  501    0 -0.19747062583E+03 -0.68686420701E+02  0.50062609764E+03  0.11423521160E+04  0.10053006489E+04 0.  0.
        -13    1    3    3    0    0 -0.13727105472E+03 -0.11470760607E+03 -0.29398603555E+03  0.34413511535E+03  0.10566000000E+00 0.  1.
          4    1    3    3  501    0 -0.60199571118E+02  0.46021185370E+02  0.79461213319E+03  0.79821700062E+03  0.00000000000E+00 0.  1.
         13    1    1    2    0    0  0.19747062583E+03  0.68686420701E+02  0.22020996048E+03  0.30365261454E+03  0.10566000000E+00 0. -1.
<mgrwt>
<rscale>  1 0.68975321E+03</rscale>
<asrwt>0</asrwt>
<pdfrwt beam="2">  1       21 0.55782206E-01 0.10268115E+04</pdfrwt>
<pdfrwt beam="1">  1        4 0.16668006E+00 0.10268115E+04</pdfrwt>
<totfact> 0.26424870E+01</totfact>
</mgrwt>
</event>
<event>
 6    1  0.1431486E-005  0.9927427E+03  0.7818608E-02  0.9912097E-01
         21   -1    0    0  501  502  0.00000000000E+00  0.00000000000E+00  0.64560292340E+03  0.64560292340E+03  0.00000000000E+00 0.  1.
          4   -1    0    0  502    0 -0.00000000000E+00 -0.00000000000E+00 -0.97212484579E+03  0.97212484579E+03  0.00000000000E+00 0.  1.
    9000010    2    1    2  501    0  0.10029401754E+03 -0.82155362489E+02  0.25251487541E+03  0.10243543472E+04  0.98424065798E+03 0.  0.
        -13    1    3    3    0    0  0.44235108248E+03 -0.11390517559E+03  0.43894527140E+03  0.63349966980E+03  0.10566000000E+00 0.  1.
          4    1    3    3  501    0 -0.34205706494E+03  0.31749813102E+02 -0.18643039599E+03  0.39085467742E+03  0.00000000000E+00 0.  1.
         13    1    1    2    0    0 -0.10029401754E+03  0.82155362489E+02 -0.57903679779E+03  0.59337342197E+03  0.10566000000E+00 0. -1.
<mgrwt>
<rscale>  1 0.59678560E+03</rscale>
<asrwt>0</asrwt>
<pdfrwt beam="1">  1       21 0.99323528E-01 0.99274270E+03</pdfrwt>
<pdfrwt beam="2">  1        4 0.14955767E+00 0.99274270E+03</pdfrwt>
<totfact> 0.93310356E+00</totfact>
</mgrwt>
</event>
<event>
 6    1  0.1431486E-005  0.1076780E+04  0.7818608E-02  0.9582906E-01
          4   -1    0    0  502    0 -0.00000000000E+00  0.00000000000E+00  0.88876440736E+03  0.88876440736E+03  0.00000000000E+00 0.  1.
         21   -1    0    0  501  502  0.00000000000E+00 -0.00000000000E+00 -0.98824749057E+03  0.98824749057E+03  0.00000000000E+00 0.  1.
    9000010    2    1    2  501    0  0.69953480208E+02 -0.29501654921E+03 -0.64335433397E+03  0.12543368605E+04  0.10332124210E+04 0.  0.
        -13    1    3    3    0    0  0.47979003142E+03 -0.27802914585E+03 -0.63638662325E+03  0.84408922846E+03  0.10566000000E+00 0.  1.
          4    1    3    3  501    0 -0.40983655121E+03 -0.16987403360E+02 -0.69677107150E+01  0.41024763201E+03  0.00000000000E+00 0.  1.
         13    1    1    2    0    0 -0.69953480208E+02  0.29501654921E+03  0.54387125076E+03  0.62267503745E+03  0.10566000000E+00 0. -1.
<mgrwt>
<rscale>  1 0.78437999E+03</rscale>
<asrwt>0</asrwt>
<pdfrwt beam="2">  1       21 0.15203808E+00 0.10767805E+04</pdfrwt>
<pdfrwt beam="1">  1        4 0.13673299E+00 0.10767805E+04</pdfrwt>
<totfact> 0.38324293E+00</totfact>
</mgrwt>
</event>
<event>
 6    1  0.1431486E-005  0.1015787E+04  0.7818608E-02  0.1006997E+00
         21   -1    0    0  501  502  0.00000000000E+00  0.00000000000E+00  0.23307121843E+03  0.23307121843E+03  0.00000000000E+00 0.  1.
          4   -1    0    0  502    0 -0.00000000000E+00 -0.00000000000E+00 -0.14583674934E+04  0.14583674934E+04  0.00000000000E+00 0.  1.
    9000010    2    1    2  501    0 -0.62706446327E+02 -0.38365738653E+02 -0.12528759013E+04  0.16129232657E+04  0.10131235901E+04 0.  0.
        -13    1    3    3    0    0  0.10081394349E+03  0.34608267704E+03 -0.81903522861E+02  0.36965506728E+03  0.10566000000E+00 0.  1.
          4    1    3    3  501    0 -0.16352038982E+03 -0.38444841569E+03 -0.11709723785E+04  0.12432681985E+04  0.00000000000E+00 0.  1.
         13    1    1    2    0    0  0.62706446327E+02  0.38365738653E+02  0.27579626372E+02  0.78515446049E+02  0.10566000000E+00 0. -1.
<mgrwt>
<rscale>  1 0.52685595E+03</rscale>
<asrwt>0</asrwt>
<pdfrwt beam="1">  1       21 0.35857110E-01 0.10157871E+04</pdfrwt>
<pdfrwt beam="2">  1        4 0.22436423E+00 0.10157871E+04</pdfrwt>
<totfact> 0.27714476E+01</totfact>
</mgrwt>
</event>
<event>
 6    1  0.1431486E-005  0.1008899E+04  0.7818608E-02  0.9868849E-01
          4   -1    0    0  502    0 -0.00000000000E+00  0.00000000000E+00  0.67201619570E+03  0.67201619570E+03  0.00000000000E+00 0.  1.
         21   -1    0    0  501  502  0.00000000000E+00 -0.00000000000E+00 -0.51668669222E+03  0.51668669222E+03  0.00000000000E+00 0.  1.
    9000010    2    1    2  501    0 -0.94719796631E+02 -0.10578550508E+03  0.46803190694E+02  0.10099841573E+04  0.99885686978E+03 0.  0.
        -13    1    3    3    0    0  0.12959751280E+02 -0.44290273515E+03  0.33346417884E+03  0.55455311531E+03  0.10566000000E+00 0.  1.
          4    1    3    3  501    0 -0.10767954791E+03  0.33711723008E+03 -0.28666098815E+03  0.45543104196E+03  0.00000000000E+00 0.  1.
         13    1    1    2    0    0  0.94719796631E+02  0.10578550508E+03  0.10852631278E+03  0.17871873066E+03  0.10566000000E+00 0. -1.
<mgrwt>
<rscale>  1 0.61795045E+03</rscale>
<asrwt>0</asrwt>
<pdfrwt beam="2">  1       21 0.79490260E-01 0.10088991E+04</pdfrwt>
<pdfrwt beam="1">  1        4 0.10338711E+00 0.10088991E+04</pdfrwt>
<totfact> 0.40754212E+01</totfact>
</mgrwt>
</event>
<event>
 6    1  0.1431486E-005  0.1123673E+04  0.7818608E-02  0.9389441E-01
          4   -1    0    0  502    0 -0.00000000000E+00  0.00000000000E+00  0.71654361936E+03  0.71654361936E+03  0.00000000000E+00 0.  1.
         21   -1    0    0  501  502  0.00000000000E+00 -0.00000000000E+00 -0.95244266613E+03  0.95244266613E+03  0.00000000000E+00 0.  1.
    9000010    2    1    2  501    0  0.49314952139E+03  0.18327984571E+03 -0.20290918077E+03  0.11418465557E+04  0.99290154036E+03 0.  0.
        -13    1    3    3    0    0  0.50698099603E+02  0.51696637593E+03 -0.26687495788E+03  0.58399211078E+03  0.10566000000E+00 0.  1.
          4    1    3    3  501    0  0.44245142178E+03 -0.33368653021E+03  0.63965777107E+02  0.55785444493E+03  0.00000000000E+00 0.  1.
         13    1    1    2    0    0 -0.49314952139E+03 -0.18327984571E+03 -0.32989866002E+02  0.52713972978E+03  0.10566000000E+00 0. -1.
<mgrwt>
<rscale>  1 0.92949790E+03</rscale>
<asrwt>0</asrwt>
<pdfrwt beam="2">  1       21 0.14652964E+00 0.11236732E+04</pdfrwt>
<pdfrwt beam="1">  1        4 0.11023748E+00 0.11236732E+04</pdfrwt>
<totfact> 0.72914599E+00</totfact>
</mgrwt>
</event>
<event>
 6    1  0.1431486E-005  0.1003932E+04  0.7818608E-02  0.1006337E+00
          4   -1    0    0  502    0 -0.00000000000E+00  0.00000000000E+00  0.12374159292E+04  0.12374159292E+04  0.00000000000E+00 0.  1.
         21   -1    0    0  501  502  0.00000000000E+00 -0.00000000000E+00 -0.24337737097E+03  0.24337737097E+03  0.00000000000E+00 0.  1.
    9000010    2    1    2  501    0 -0.74473158197E+02  0.22258959754E+02  0.84299455507E+03  0.13109227182E+04  0.10009179989E+04 0.  0.
        -13    1    3    3    0    0 -0.11322803207E+03  0.37293856056E+03  0.87378466764E+03  0.95676716800E+03  0.10566000000E+00 0.  1.
          4    1    3    3  501    0  0.38754873873E+02 -0.35067960081E+03 -0.30790112567E+02  0.35415555015E+03  0.00000000000E+00 0.  1.
         13    1    1    2    0    0  0.74473158197E+02 -0.22258959754E+02  0.15104400315E+03  0.16987058201E+03  0.10566000000E+00 0. -1.
<mgrwt>
<rscale>  1 0.52956977E+03</rscale>
<asrwt>0</asrwt>
<pdfrwt beam="2">  1       21 0.37442673E-01 0.10039315E+04</pdfrwt>
<pdfrwt beam="1">  1        4 0.19037168E+00 0.10039315E+04</pdfrwt>
<totfact> 0.42307229E+01</totfact>
</mgrwt>
</event>
<event>
 6    1  0.1431486E-005  0.1076200E+04  0.7818608E-02  0.9677089E-01
         21   -1    0    0  501  502  0.00000000000E+00  0.00000000000E+00  0.17034943738E+04  0.17034943738E+04  0.00000000000E+00 0.  1.
          4   -1    0    0  502    0 -0.00000000000E+00 -0.00000000000E+00 -0.24790666067E+03  0.24790666067E+03  0.00000000000E+00 0.  1.
    9000010    2    1    2  501    0 -0.21787008186E+03  0.33307102269E+02  0.11551580704E+04  0.15787957245E+04  0.10533893090E+04 0.  0.
        -13    1    3    3    0    0  0.89348814025E+02 -0.44634517070E+03  0.75877853995E+03  0.88484580907E+03  0.10566000000E+00 0.  1.
          4    1    3    3  501    0 -0.30721889588E+03  0.47965227296E+03  0.39637953046E+03  0.69394991542E+03  0.00000000000E+00 0.  1.
         13    1    1    2    0    0  0.21787008186E+03 -0.33307102269E+02  0.30042964269E+03  0.37260530995E+03  0.10566000000E+00 0. -1.
<mgrwt>
<rscale>  1 0.72397447E+03</rscale>
<asrwt>0</asrwt>
<pdfrwt beam="1">  1       21 0.26207605E+00 0.10761997E+04</pdfrwt>
<pdfrwt beam="2">  1        4 0.38139487E-01 0.10761997E+04</pdfrwt>
<totfact> 0.12139978E+01</totfact>
</mgrwt>
</event>
<event>
 6    1  0.1431486E-005  0.1056840E+04  0.7818608E-02  0.9623155E-01
          4   -1    0    0  502    0 -0.00000000000E+00  0.00000000000E+00  0.21618173136E+04  0.21618173136E+04  0.00000000000E+00 0.  1.
         21   -1    0    0  501  502  0.00000000000E+00 -0.00000000000E+00 -0.23586009391E+03  0.23586009391E+03  0.00000000000E+00 0.  1.
    9000010    2    1    2  501    0 -0.13266579298E+03 -0.24590894737E+03  0.10985995497E+04  0.15244121853E+04  0.10192350647E+04 0.  0.
        -13    1    3    3    0    0  0.16518124901E+03 -0.97917020991E+02 -0.14275674937E+03  0.23927408694E+03  0.10566000000E+00 0.  1.
          4    1    3    3  501    0 -0.29784704199E+03 -0.14799192638E+03  0.12413562991E+04  0.12851380984E+04  0.00000000000E+00 0.  1.
         13    1    1    2    0    0  0.13266579298E+03  0.24590894737E+03  0.82735767004E+03  0.87326522223E+03  0.10566000000E+00 0. -1.
<mgrwt>
<rscale>  1 0.75782436E+03</rscale>
<asrwt>0</asrwt>
<pdfrwt beam="2">  1       21 0.36286170E-01 0.10568404E+04</pdfrwt>
<pdfrwt beam="1">  1        4 0.33258726E+00 0.10568404E+04</pdfrwt>
<totfact> 0.57099543E+00</totfact>
</mgrwt>
</event>
<event>
 6    1  0.1431486E-005  0.1044002E+04  0.7818608E-02  0.9627988E-01
         21   -1    0    0  501  502  0.00000000000E+00  0.00000000000E+00  0.65353080289E+03  0.65353080289E+03  0.00000000000E+00 0. -1.
          4   -1    0    0  502    0 -0.00000000000E+00 -0.00000000000E+00 -0.67720276897E+03  0.67720276897E+03  0.00000000000E+00 0.  1.
    9000010    2    1    2  501    0  0.18512025252E+03  0.21684244807E+03 -0.43704822379E+02  0.10449163546E+04  0.10043156483E+04 0.  0.
        -13    1    3    3    0    0 -0.64736116415E+02 -0.17820146199E+03  0.37318791092E+03  0.41858780900E+03  0.10566000000E+00 0.  1.
          4    1    3    3  501    0  0.24985636894E+03  0.39504391005E+03 -0.41689273330E+03  0.62632854561E+03  0.00000000000E+00 0.  1.
         13    1    1    2    0    0 -0.18512025252E+03 -0.21684244807E+03  0.20032856308E+02  0.28581721724E+03  0.10566000000E+00 0. -1.
<mgrwt>
<rscale>  1 0.75471119E+03</rscale>
<asrwt>0</asrwt>
<pdfrwt beam="1">  1       21 0.10054320E+00 0.10440020E+04</pdfrwt>
<pdfrwt beam="2">  1        4 0.10418504E+00 0.10440020E+04</pdfrwt>
<totfact> 0.22617143E+01</totfact>
</mgrwt>
</event>
<event>
 6    1  0.1431486E-005  0.9967041E+03  0.7818608E-02  0.9999510E-01
         21   -1    0    0  501  502  0.00000000000E+00  0.00000000000E+00  0.14479136256E+03  0.14479136256E+03  0.00000000000E+00 0.  1.
          4   -1    0    0  502    0 -0.00000000000E+00 -0.00000000000E+00 -0.20654909047E+04  0.20654909047E+04  0.00000000000E+00 0.  1.
    9000010    2    1    2  501    0 -0.83228862094E+02 -0.49848865160E+02 -0.17467241076E+04  0.20110853400E+04  0.99197136242E+03 0.  0.
        -13    1    3    3    0    0 -0.59614377187E+02  0.43229181797E+03 -0.12244995349E+04  0.12999343106E+04  0.10566000000E+00 0.  1.
          4    1    3    3  501    0 -0.23614484906E+02 -0.48214068313E+03 -0.52222457269E+03  0.71115102935E+03  0.00000000000E+00 0.  1.
         13    1    1    2    0    0  0.83228862094E+02  0.49848865160E+02 -0.17397543452E+03  0.19919692724E+03  0.10566000000E+00 0. -1.
<mgrwt>
<rscale>  1 0.55671731E+03</rscale>
<asrwt>0</asrwt>
<pdfrwt beam="1">  1       21 0.22275596E-01 0.99670414E+03</pdfrwt>
<pdfrwt beam="2">  1        4 0.31776781E+00 0.99670414E+03</pdfrwt>
<totfact> 0.19008078E+01</totfact>
</mgrwt>
</event>
<event>
 6    1  0.1431486E-005  0.1016384E+04  0.7818608E-02  0.9733673E-01
          4   -1    0    0  502    0 -0.00000000000E+00  0.00000000000E+00  0.83754903240E+03  0.83754903240E+03  0.00000000000E+00 0.  1.
         21   -1    0    0  501  502  0.00000000000E+00 -0.00000000000E+00 -0.50642680976E+03  0.50642680976E+03  0.00000000000E+00 0.  1.
    9000010    2    1    2  501    0 -0.15905145448E+03  0.14684158183E+03  0.90644390136E+02  0.10204184061E+04  0.99306470219E+03 0.  0.
        -13    1    3    3    0    0  0.18289024726E+03 -0.38038294409E+02 -0.37192625819E+03  0.41620296381E+03  0.10566000000E+00 0.  1.
          4    1    3    3  501    0 -0.34194170174E+03  0.18487987624E+03  0.46257064833E+03  0.60421544231E+03  0.00000000000E+00 0.  1.
         13    1    1    2    0    0  0.15905145448E+03 -0.14684158183E+03  0.24047783251E+03  0.32355743605E+03  0.10566000000E+00 0. -1.
<mgrwt>
<rscale>  1 0.69046805E+03</rscale>
<asrwt>0</asrwt>
<pdfrwt beam="2">  1       21 0.77911817E-01 0.10163844E+04</pdfrwt>
<pdfrwt beam="1">  1        4 0.12885370E+00 0.10163844E+04</pdfrwt>
<totfact> 0.24653622E+01</totfact>
</mgrwt>
</event>
<event>
 6    1  0.1431486E-005  0.1192366E+04  0.7818608E-02  0.9268229E-01
          4   -1    0    0  502    0 -0.00000000000E+00  0.00000000000E+00  0.13997625413E+04  0.13997625413E+04  0.00000000000E+00 0.  1.
         21   -1    0    0  501  502  0.00000000000E+00 -0.00000000000E+00 -0.77036027256E+03  0.77036027256E+03  0.00000000000E+00 0.  1.
    9000010    2    1    2  501    0 -0.67823047668E+03 -0.86855134132E+02 -0.66878706649E+02  0.11942398282E+04  0.97682936691E+03 0.  0.
        -13    1    3    3    0    0  0.14283093467E+03 -0.25077168865E+03  0.15567107559E+03  0.32790335568E+03  0.10566000000E+00 0.  1.
          4    1    3    3  501    0 -0.82106141135E+03  0.16391655452E+03 -0.22254978224E+03  0.86633647253E+03  0.00000000000E+00 0.  1.
         13    1    1    2    0    0  0.67823047668E+03  0.86855134132E+02  0.69628097542E+03  0.97588298567E+03  0.10566000000E+00 0. -1.
<mgrwt>
<rscale>  1 0.10376109E+04</rscale>
<asrwt>0</asrwt>
<pdfrwt beam="2">  1       21 0.11851697E+00 0.11923657E+04</pdfrwt>
<pdfrwt beam="1">  1        4 0.21534808E+00 0.11923657E+04</pdfrwt>
<totfact> 0.20161825E+00</totfact>
</mgrwt>
</event>
<event>
 6    1  0.1431486E-005  0.1133067E+04  0.7818608E-02  0.9433068E-01
         21   -1    0    0  501  502  0.00000000000E+00  0.00000000000E+00  0.17491201978E+04  0.17491201978E+04  0.00000000000E+00 0. -1.
          4   -1    0    0  502    0 -0.00000000000E+00 -0.00000000000E+00 -0.35763480779E+03  0.35763480779E+03  0.00000000000E+00 0.  1.
    9000010    2    1    2  501    0  0.37299455118E+03 -0.23186914942E+03  0.89510512174E+03  0.14439717684E+04  0.10444869799E+04 0.  0.
        -13    1    3    3    0    0  0.22911238694E+03 -0.61620802880E+03  0.30383840480E+03  0.72423933061E+03  0.10566000000E+00 0.  1.
          4    1    3    3  501    0  0.14388216425E+03  0.38433887937E+03  0.59126671694E+03  0.71973243775E+03  0.00000000000E+00 0.  1.
         13    1    1    2    0    0 -0.37299455118E+03  0.23186914942E+03  0.49638026828E+03  0.66278323724E+03  0.10566000000E+00 0. -1.
<mgrwt>
<rscale>  1 0.89403604E+03</rscale>
<asrwt>0</asrwt>
<pdfrwt beam="1">  1       21 0.26909541E+00 0.11330672E+04</pdfrwt>
<pdfrwt beam="2">  1        4 0.55020741E-01 0.11330672E+04</pdfrwt>
<totfact> 0.50640435E+00</totfact>
</mgrwt>
</event>
<event>
 6    1  0.1431486E-005  0.1002457E+04  0.7818608E-02  0.1003759E+00
          4   -1    0    0  502    0 -0.00000000000E+00  0.00000000000E+00  0.12546165267E+04  0.12546165267E+04  0.00000000000E+00 0.  1.
         21   -1    0    0  501  502  0.00000000000E+00 -0.00000000000E+00 -0.24385907358E+03  0.24385907358E+03  0.00000000000E+00 0.  1.
    9000010    2    1    2  501    0  0.24289311155E+02 -0.81046204058E+02  0.83985126150E+03  0.13077732266E+04  0.99888047981E+03 0.  0.
        -13    1    3    3    0    0  0.29151428350E+03  0.37019705136E+03  0.32169720157E+03  0.57053968747E+03  0.10566000000E+00 0.  1.
          4    1    3    3  501    0 -0.26722497234E+03 -0.45124325542E+03  0.51815405993E+03  0.73723353913E+03  0.00000000000E+00 0.  1.
         13    1    1    2    0    0 -0.24289311155E+02  0.81046204058E+02  0.17090619164E+03  0.19070237369E+03  0.10566000000E+00 0. -1.
<mgrwt>
<rscale>  1 0.54032111E+03</rscale>
<asrwt>0</asrwt>
<pdfrwt beam="2">  1       21 0.37516781E-01 0.10024573E+04</pdfrwt>
<pdfrwt beam="1">  1        4 0.19301792E+00 0.10024573E+04</pdfrwt>
<totfact> 0.40441419E+01</totfact>
</mgrwt>
</event>
<event>
 6    1  0.1431486E-005  0.1135985E+04  0.7818608E-02  0.9327139E-01
         21   -1    0    0  501  502  0.00000000000E+00  0.00000000000E+00  0.71457875152E+03  0.71457875152E+03  0.00000000000E+00 0.  1.
          4   -1    0    0  502    0 -0.00000000000E+00 -0.00000000000E+00 -0.11424322895E+04  0.11424322895E+04  0.00000000000E+00 0.  1.
    9000010    2    1    2  501    0  0.57560228640E+03  0.27406235036E+03 -0.10066700894E+03  0.11404364113E+04  0.94023039601E+03 0.  0.
        -13    1    3    3    0    0  0.11611841199E+03 -0.25085312063E+03  0.23818131138E+03  0.36488508052E+03  0.10566000000E+00 0.  1.
          4    1    3    3  501    0  0.45948387440E+03  0.52491547098E+03 -0.33884832032E+03  0.77555133080E+03  0.00000000000E+00 0.  1.
         13    1    1    2    0    0 -0.57560228640E+03 -0.27406235036E+03 -0.32718652902E+03  0.71657462970E+03  0.10566000000E+00 0. -1.
<mgrwt>
<rscale>  1 0.98322373E+03</rscale>
<asrwt>0</asrwt>
<pdfrwt beam="1">  1       21 0.10993519E+00 0.11359848E+04</pdfrwt>
<pdfrwt beam="2">  1        4 0.17575881E+00 0.11359848E+04</pdfrwt>
<totfact> 0.45468361E+00</totfact>
</mgrwt>
</event>
<event>
 6    1  0.1431486E-005  0.9892373E+03  0.7818608E-02  0.9908558E-01
          4   -1    0    0  502    0 -0.00000000000E+00  0.00000000000E+00  0.47446674928E+03  0.47446674928E+03  0.00000000000E+00 0.  1.
         21   -1    0    0  501  502  0.00000000000E+00 -0.00000000000E+00 -0.10041743581E+04  0.10041743581E+04  0.00000000000E+00 0.  1.
    9000010    2    1    2  501    0  0.13227227571E+03  0.82194854738E+01 -0.73631156936E+03  0.12331849554E+04  0.98031979079E+03 0.  0.
        -13    1    3    3    0    0 -0.96490820379E+02  0.38729128758E+03 -0.30882228582E+02  0.40032329817E+03  0.10566000000E+00 0.  1.
          4    1    3    3  501    0  0.22876309609E+03 -0.37907180210E+03 -0.70542934078E+03  0.83286165725E+03  0.00000000000E+00 0.  1.
         13    1    1    2    0    0 -0.13227227571E+03 -0.82194854738E+01  0.20660396054E+03  0.24545615196E+03  0.10566000000E+00 0. -1.
<mgrwt>
<rscale>  1 0.59848300E+03</rscale>
<asrwt>0</asrwt>
<pdfrwt beam="2">  1       21 0.15448836E+00 0.98923729E+03</pdfrwt>
<pdfrwt beam="1">  1        4 0.72994886E-01 0.98923729E+03</pdfrwt>
<totfact> 0.16881406E+01</totfact>
</mgrwt>
</event>
<event>
 6    1  0.1431486E-005  0.1064321E+04  0.7818608E-02  0.9534234E-01
         21   -1    0    0  501  502  0.00000000000E+00  0.00000000000E+00  0.13913267183E+04  0.13913267183E+04  0.00000000000E+00 0.  1.
          4   -1    0    0  502    0 -0.00000000000E+00 -0.00000000000E+00 -0.42914630976E+03  0.42914630976E+03  0.00000000000E+00 0.  1.
    9000010    2    1    2  501    0 -0.18254437132E+03 -0.32352813063E+03  0.38049247082E+03  0.11302891635E+04  0.99738968013E+03 0.  0.
        -13    1    3    3    0    0  0.21612643501E+03 -0.54157764072E+03  0.87559125542E+02  0.58964700327E+03  0.10566000000E+00 0.  1.
          4    1    3    3  501    0 -0.39867080633E+03  0.21804951009E+03  0.29293334528E+03  0.54064216026E+03  0.00000000000E+00 0.  1.
         13    1    1    2    0    0  0.18254437132E+03  0.32352813063E+03  0.58168793776E+03  0.69018386457E+03  0.10566000000E+00 0. -1.
<mgrwt>
<rscale>  1 0.81806273E+03</rscale>
<asrwt>0</asrwt>
<pdfrwt beam="1">  1       21 0.21405026E+00 0.10643209E+04</pdfrwt>
<pdfrwt beam="2">  1        4 0.66022510E-01 0.10643209E+04</pdfrwt>
<totfact> 0.77816977E+00</totfact>
</mgrwt>
</event>
<event>
 6    1  0.1431486E-005  0.9932582E+03  0.7818608E-02  0.1004044E+00
          4   -1    0    0  502    0 -0.00000000000E+00  0.00000000000E+00  0.48216653310E+03  0.48216653310E+03  0.00000000000E+00 0.  1.
         21   -1    0    0  501  502  0.00000000000E+00 -0.00000000000E+00 -0.62367967139E+03  0.62367967139E+03  0.00000000000E+00 0.  1.
    9000010    2    1    2  501    0  0.51186517798E+02  0.69368109083E+02 -0.18332186515E+03  0.10100340186E+04  0.98950988793E+03 0.  0.
        -13    1    3    3    0    0  0.25672666286E+03  0.46869473974E+03 -0.16973856188E+03  0.56070895217E+03  0.10566000000E+00 0.  1.
          4    1    3    3  501    0 -0.20554014506E+03 -0.39932663066E+03 -0.13583303265E+02  0.44932506642E+03  0.00000000000E+00 0.  1.
         13    1    1    2    0    0 -0.51186517798E+02 -0.69368109083E+02  0.41808726858E+02  0.95812185903E+02  0.10566000000E+00 0. -1.
<mgrwt>
<rscale>  1 0.53911928E+03</rscale>
<asrwt>0</asrwt>
<pdfrwt beam="2">  1       21 0.95950718E-01 0.99325818E+03</pdfrwt>
<pdfrwt beam="1">  1        4 0.74179467E-01 0.99325818E+03</pdfrwt>
<totfact> 0.56545647E+01</totfact>
</mgrwt>
</event>
<event>
 6    1  0.1431486E-005  0.1178836E+04  0.7818608E-02  0.9298847E-01
          4   -1    0    0  502    0 -0.00000000000E+00  0.00000000000E+00  0.64458478613E+03  0.64458478613E+03  0.00000000000E+00 0.  1.
         21   -1    0    0  501  502  0.00000000000E+00 -0.00000000000E+00 -0.13244209383E+04  0.13244209383E+04  0.00000000000E+00 0. -1.
    9000010    2    1    2  501    0  0.60837333939E+03  0.17279200994E+03 -0.62480485103E+03  0.13341800365E+04  0.99482665278E+03 0.  0.
        -13    1    3    3    0    0  0.67473569894E+03 -0.23907372657E+03 -0.21030398609E+03  0.74609134018E+03  0.10566000000E+00 0.  1.
          4    1    3    3  501    0 -0.66362359554E+02  0.41186573651E+03 -0.41450086494E+03  0.58808869630E+03  0.00000000000E+00 0.  1.
         13    1    1    2    0    0 -0.60837333939E+03 -0.17279200994E+03 -0.55031301117E+02  0.63482568792E+03  0.10566000000E+00 0. -1.
<mgrwt>
<rscale>  1 0.10088911E+04</rscale>
<asrwt>0</asrwt>
<pdfrwt beam="2">  1       21 0.20375707E+00 0.11788364E+04</pdfrwt>
<pdfrwt beam="1">  1        4 0.99166891E-01 0.11788364E+04</pdfrwt>
<totfact> 0.35184826E+00</totfact>
</mgrwt>
</event>
<event>
 6    1  0.1431486E-005  0.1129580E+04  0.7818608E-02  0.9374774E-01
         21   -1    0    0  501  502  0.00000000000E+00  0.00000000000E+00  0.37015533620E+03  0.37015533620E+03  0.00000000000E+00 0.  1.
          4   -1    0    0  502    0 -0.00000000000E+00 -0.00000000000E+00 -0.19670510022E+04  0.19670510022E+04  0.00000000000E+00 0.  1.
    9000010    2    1    2  501    0 -0.54374033763E+03  0.48374507288E+02 -0.85778479881E+03  0.14183600330E+04  0.98891697049E+03 0.  0.
        -13    1    3    3    0    0 -0.61907911566E+03  0.42121505275E+03 -0.58694240258E+03  0.95141077733E+03  0.10566000000E+00 0.  1.
          4    1    3    3  501    0  0.75338778026E+02 -0.37284054546E+03 -0.27084239623E+03  0.46694925571E+03  0.00000000000E+00 0.  1.
         13    1    1    2    0    0  0.54374033763E+03 -0.48374507288E+02 -0.73911086724E+03  0.91884630541E+03  0.10566000000E+00 0. -1.
<mgrwt>
<rscale>  1 0.94181055E+03</rscale>
<asrwt>0</asrwt>
<pdfrwt beam="1">  1       21 0.56946975E-01 0.11295798E+04</pdfrwt>
<pdfrwt beam="2">  1        4 0.30262323E+00 0.11295798E+04</pdfrwt>
<totfact> 0.33299996E+00</totfact>
</mgrwt>
</event>
<event>
 6    1  0.1431486E-005  0.1007209E+04  0.7818608E-02  0.9902785E-01
         21   -1    0    0  501  502  0.00000000000E+00  0.00000000000E+00  0.33303890472E+03  0.33303890472E+03  0.00000000000E+00 0.  1.
          4   -1    0    0  502    0 -0.00000000000E+00 -0.00000000000E+00 -0.97823271992E+03  0.97823271992E+03  0.00000000000E+00 0.  1.
    9000010    2    1    2  501    0 -0.27156155290E+01  0.12788149948E+03 -0.52532694506E+03  0.11359743623E+04  0.99905370227E+03 0.  0.
        -13    1    3    3    0    0  0.32367240266E+03  0.27644151988E+03 -0.63187556192E+03  0.76187300455E+03  0.10566000000E+00 0.  1.
          4    1    3    3  501    0 -0.32638801819E+03 -0.14856002040E+03  0.10654861685E+03  0.37410135770E+03  0.00000000000E+00 0.  1.
         13    1    1    2    0    0  0.27156155290E+01 -0.12788149948E+03 -0.11986687014E+03  0.17529726239E+03  0.10566000000E+00 0. -1.
<mgrwt>
<rscale>  1 0.60126516E+03</rscale>
<asrwt>0</asrwt>
<pdfrwt beam="1">  1       21 0.51236755E-01 0.10072087E+04</pdfrwt>
<pdfrwt beam="2">  1        4 0.15049734E+00 0.10072087E+04</pdfrwt>
<totfact> 0.42178508E+01</totfact>
</mgrwt>
</event>
<event>
 6    1  0.1431486E-005  0.1001934E+04  0.7818608E-02  0.9961621E-01
          4   -1    0    0  502    0 -0.00000000000E+00  0.00000000000E+00  0.45017279430E+03  0.45017279430E+03  0.00000000000E+00 0.  1.
         21   -1    0    0  501  502  0.00000000000E+00 -0.00000000000E+00 -0.10003629400E+04  0.10003629400E+04  0.00000000000E+00 0.  1.
    9000010    2    1    2  501    0 -0.95899648008E+02 -0.48946419093E+02 -0.73089051502E+03  0.12401904727E+04  0.99613200387E+03 0.  0.
        -13    1    3    3    0    0 -0.45755022782E+03  0.25021170166E+03 -0.29237166675E+03  0.59786228289E+03  0.10566000000E+00 0.  1.
          4    1    3    3  501    0  0.36165057981E+03 -0.29915812076E+03 -0.43851884828E+03  0.64232818978E+03  0.00000000000E+00 0.  1.
         13    1    1    2    0    0  0.95899648008E+02  0.48946419093E+02  0.18070036935E+03  0.21034526160E+03  0.10566000000E+00 0. -1.
<mgrwt>
<rscale>  1 0.57365589E+03</rscale>
<asrwt>0</asrwt>
<pdfrwt beam="2">  1       21 0.15390199E+00 0.10019339E+04</pdfrwt>
<pdfrwt beam="1">  1        4 0.69257354E-01 0.10019339E+04</pdfrwt>
<totfact> 0.19172990E+01</totfact>
</mgrwt>
</event>
<event>
 6    1  0.1431486E-005  0.1002714E+04  0.7818608E-02  0.9779564E-01
          4   -1    0    0  502    0 -0.00000000000E+00  0.00000000000E+00  0.35700490470E+03  0.35700490470E+03  0.00000000000E+00 0.  1.
         21   -1    0    0  501  502  0.00000000000E+00 -0.00000000000E+00 -0.15293610410E+04  0.15293610410E+04  0.00000000000E+00 0.  1.
    9000010    2    1    2  501    0  0.59143606036E+02 -0.18438669693E+03 -0.13093315626E+04  0.16491767835E+04  0.98383865658E+03 0.  0.
        -13    1    3    3    0    0  0.51426586198E+03 -0.45342681907E+02 -0.80003434314E+03  0.95214510289E+03  0.10566000000E+00 0.  1.
          4    1    3    3  501    0 -0.45512225595E+03 -0.13904401502E+03 -0.50929721946E+03  0.69703168057E+03  0.00000000000E+00 0.  1.
         13    1    1    2    0    0 -0.59143606036E+02  0.18438669693E+03  0.13697542626E+03  0.23718916228E+03  0.10566000000E+00 0. -1.
<mgrwt>
<rscale>  1 0.66470888E+03</rscale>
<asrwt>0</asrwt>
<pdfrwt beam="2">  1       21 0.23528631E+00 0.10027138E+04</pdfrwt>
<pdfrwt beam="1">  1        4 0.54923832E-01 0.10027138E+04</pdfrwt>
<totfact> 0.85046932E+00</totfact>
</mgrwt>
</event>
<event>
 6    1  0.1431486E-005  0.1145985E+04  0.7818608E-02  0.9343841E-01
         21   -1    0    0  501  502  0.00000000000E+00  0.00000000000E+00  0.10034735160E+04  0.10034735160E+04  0.00000000000E+00 0.  1.
          4   -1    0    0  502    0 -0.00000000000E+00 -0.00000000000E+00 -0.84452099213E+03  0.84452099213E+03  0.00000000000E+00 0.  1.
    9000010    2    1    2  501    0  0.55935430386E+03  0.16954522156E+03  0.40275636680E+03  0.12146990443E+04  0.98572727359E+03 0.  0.
        -13    1    3    3    0    0  0.35125750727E+03  0.55765041870E+03  0.70044077942E+02  0.66276844366E+03  0.10566000000E+00 0.  1.
          4    1    3    3  501    0  0.20809679659E+03 -0.38810519714E+03  0.33271228886E+03  0.55193060067E+03  0.00000000000E+00 0.  1.
         13    1    1    2    0    0 -0.55935430386E+03 -0.16954522156E+03 -0.24380384297E+03  0.63329546376E+03  0.10566000000E+00 0. -1.
<mgrwt>
<rscale>  1 0.96845065E+03</rscale>
<asrwt>0</asrwt>
<pdfrwt beam="1">  1       21 0.15438054E+00 0.11459848E+04</pdfrwt>
<pdfrwt beam="2">  1        4 0.12992631E+00 0.11459848E+04</pdfrwt>
<totfact> 0.41538964E+00</totfact>
</mgrwt>
</event>
<event>
 6    1  0.1431486E-005  0.1039628E+04  0.7818608E-02  0.9627660E-01
          4   -1    0    0  502    0 -0.00000000000E+00  0.00000000000E+00  0.83812920300E+03  0.83812920300E+03  0.00000000000E+00 0.  1.
         21   -1    0    0  501  502  0.00000000000E+00 -0.00000000000E+00 -0.54103210893E+03  0.54103210893E+03  0.00000000000E+00 0.  1.
    9000010    2    1    2  501    0 -0.28709035243E+03 -0.33608815640E+02  0.13666434560E+03  0.10485722908E+04  0.99863721278E+03 0.  0.
        -13    1    3    3    0    0 -0.54120834512E+02 -0.47518890760E+03 -0.11141623561E+03  0.49106735929E+03  0.10566000000E+00 0.  1.
          4    1    3    3  501    0 -0.23296951792E+03  0.44158009196E+03  0.24808058121E+03  0.55750493152E+03  0.00000000000E+00 0.  1.
         13    1    1    2    0    0  0.28709035243E+03  0.33608815640E+02  0.16043274847E+03  0.33058902113E+03  0.10566000000E+00 0. -1.
<mgrwt>
<rscale>  1 0.75492206E+03</rscale>
<asrwt>0</asrwt>
<pdfrwt beam="2">  1       21 0.83235709E-01 0.10396282E+04</pdfrwt>
<pdfrwt beam="1">  1        4 0.12894295E+00 0.10396282E+04</pdfrwt>
<totfact> 0.21013791E+01</totfact>
</mgrwt>
</event>
<event>
 6    1  0.1431486E-005  0.1216168E+04  0.7818608E-02  0.9255269E-01
          4   -1    0    0  502    0 -0.00000000000E+00  0.00000000000E+00  0.10681781444E+04  0.10681781444E+04  0.00000000000E+00 0.  1.
         21   -1    0    0  501  502  0.00000000000E+00 -0.00000000000E+00 -0.83868718347E+03  0.83868718347E+03  0.00000000000E+00 0.  1.
    9000010    2    1    2  501    0  0.47437421211E+02  0.67425534483E+03  0.17588589011E+03  0.12288210124E+04  0.10110364262E+04 0.  0.
        -13    1    3    3    0    0 -0.27639838597E+03  0.76872078294E+03 -0.57031184660E+02  0.81888966111E+03  0.10566000000E+00 0.  1.
          4    1    3    3  501    0  0.32383580719E+03 -0.94465438111E+02  0.23291707477E+03  0.40993135125E+03  0.00000000000E+00 0.  1.
         13    1    1    2    0    0 -0.47437421211E+02 -0.67425534483E+03  0.53605070766E+02  0.67804431547E+03  0.10566000000E+00 0. -1.
<mgrwt>
<rscale>  1 0.10500729E+04</rscale>
<asrwt>0</asrwt>
<pdfrwt beam="2">  1       21 0.12902880E+00 0.12161683E+04</pdfrwt>
<pdfrwt beam="1">  1        4 0.16433510E+00 0.12161683E+04</pdfrwt>
<totfact> 0.35927311E+00</totfact>
</mgrwt>
</event>
<event>
 6    1  0.1431486E-005  0.1037499E+04  0.7818608E-02  0.9639698E-01
          4   -1    0    0  502    0 -0.00000000000E+00  0.00000000000E+00  0.26054956834E+03  0.26054956834E+03  0.00000000000E+00 0.  1.
         21   -1    0    0  501  502  0.00000000000E+00 -0.00000000000E+00 -0.17127611981E+04  0.17127611981E+04  0.00000000000E+00 0.  1.
    9000010    2    1    2  501    0 -0.13695260066E+02  0.27883207023E+03 -0.12701321695E+04  0.16400123647E+04  0.99923467967E+03 0.  0.
        -13    1    3    3    0    0 -0.98375543698E+02  0.13867925912E+03  0.14009539072E+03  0.22030981406E+03  0.10566000000E+00 0.  1.
          4    1    3    3  501    0  0.84680283632E+02  0.14015281111E+03 -0.14102275602E+04  0.14197025507E+04  0.00000000000E+00 0.  1.
         13    1    1    2    0    0  0.13695260066E+02 -0.27883207023E+03 -0.18207946027E+03  0.33329840167E+03  0.10566000000E+00 0. -1.
<mgrwt>
<rscale>  1 0.74723526E+03</rscale>
<asrwt>0</asrwt>
<pdfrwt beam="2">  1       21 0.26350172E+00 0.10374993E+04</pdfrwt>
<pdfrwt beam="1">  1        4 0.40084549E-01 0.10374993E+04</pdfrwt>
<totfact> 0.10807722E+01</totfact>
</mgrwt>
</event>
<event>
 6    1  0.1431486E-005  0.7718892E+03  0.7818608E-02  0.1002609E+00
          4   -1    0    0  502    0 -0.00000000000E+00  0.00000000000E+00  0.11739940379E+04  0.11739940379E+04  0.00000000000E+00 0.  1.
         21   -1    0    0  501  502  0.00000000000E+00 -0.00000000000E+00 -0.19920671487E+03  0.19920671487E+03  0.00000000000E+00 0.  1.
    9000010    2    1    2  501    0 -0.14672091084E+03 -0.12404135292E+03  0.73406349341E+03  0.10652052070E+04  0.74759590536E+03 0.  0.
        -13    1    3    3    0    0 -0.26724917877E+03 -0.30858458398E+03  0.13998995213E+03  0.43155969098E+03  0.10566000000E+00 0.  1.
          4    1    3    3  501    0  0.12052826793E+03  0.18454323106E+03  0.59407354127E+03  0.63364551600E+03  0.00000000000E+00 0.  1.
         13    1    1    2    0    0  0.14672091084E+03  0.12404135292E+03  0.24072382959E+03  0.30799554576E+03  0.10566000000E+00 0. -1.
<mgrwt>
<rscale>  1 0.54521032E+03</rscale>
<asrwt>0</asrwt>
<pdfrwt beam="2">  1       21 0.30647188E-01 0.77188919E+03</pdfrwt>
<pdfrwt beam="1">  1        4 0.18061446E+00 0.77188919E+03</pdfrwt>
<totfact> 0.75866722E+01</totfact>
</mgrwt>
</event>
<event>
 6    1  0.1431486E-005  0.1062784E+04  0.7818608E-02  0.9556641E-01
         21   -1    0    0  501  502  0.00000000000E+00  0.00000000000E+00  0.46889239954E+03  0.46889239954E+03  0.00000000000E+00 0.  1.
          4   -1    0    0  502    0 -0.00000000000E+00 -0.00000000000E+00 -0.10694206670E+04  0.10694206670E+04  0.00000000000E+00 0.  1.
    9000010    2    1    2  501    0  0.30545063647E+02 -0.34386251721E+03 -0.38002922797E+03  0.11286860786E+04  0.10051545246E+04 0.  0.
        -13    1    3    3    0    0  0.11102714580E+03 -0.61463357363E+03  0.36228193389E+02  0.62563084171E+03  0.10566000000E+00 0.  1.
          4    1    3    3  501    0 -0.80482082148E+02  0.27077105641E+03 -0.41625742136E+03  0.50305523690E+03  0.00000000000E+00 0.  1.
         13    1    1    2    0    0 -0.30545063647E+02  0.34386251721E+03 -0.22049903948E+03  0.40962698792E+03  0.10566000000E+00 0. -1.
<mgrwt>
<rscale>  1 0.80233674E+03</rscale>
<asrwt>0</asrwt>
<pdfrwt beam="1">  1       21 0.72137292E-01 0.10627841E+04</pdfrwt>
<pdfrwt beam="2">  1        4 0.16452626E+00 0.10627841E+04</pdfrwt>
<totfact> 0.15299047E+01</totfact>
</mgrwt>
</event>
<event>
 6    1  0.1431486E-005  0.9626526E+03  0.7818608E-02  0.9733604E-01
          4   -1    0    0  502    0 -0.00000000000E+00  0.00000000000E+00  0.89573648707E+03  0.89573648707E+03  0.00000000000E+00 0.  1.
         21   -1    0    0  501  502  0.00000000000E+00 -0.00000000000E+00 -0.41658316010E+03  0.41658316010E+03  0.00000000000E+00 0.  1.
    9000010    2    1    2  501    0  0.13317234477E+03  0.21727429046E+03  0.42234398588E+03  0.10512252139E+04  0.92830868634E+03 0.  0.
        -13    1    3    3    0    0  0.33411983948E+03  0.43654529099E+03  0.18976787907E+02  0.55006180368E+03  0.10566000000E+00 0.  1.
          4    1    3    3  501    0 -0.20094749471E+03 -0.21927100053E+03  0.40336719797E+03  0.50116341018E+03  0.00000000000E+00 0.  1.
         13    1    1    2    0    0 -0.13317234477E+03 -0.21727429046E+03  0.56809341089E+02  0.26109443331E+03  0.10566000000E+00 0. -1.
<mgrwt>
<rscale>  1 0.69050811E+03</rscale>
<asrwt>0</asrwt>
<pdfrwt beam="2">  1       21 0.64089717E-01 0.96265259E+03</pdfrwt>
<pdfrwt beam="1">  1        4 0.13780561E+00 0.96265259E+03</pdfrwt>
<totfact> 0.32611610E+01</totfact>
</mgrwt>
</event>
<event>
 6    1  0.1431486E-005  0.1045190E+04  0.7818608E-02  0.9653665E-01
         21   -1    0    0  501  502  0.00000000000E+00  0.00000000000E+00  0.46294250667E+03  0.46294250667E+03  0.00000000000E+00 0.  1.
          4   -1    0    0  502    0 -0.00000000000E+00 -0.00000000000E+00 -0.96481436483E+03  0.96481436483E+03  0.00000000000E+00 0.  1.
    9000010    2    1    2  501    0 -0.25928026311E+03  0.24317212746E+02 -0.27104066669E+03  0.10797617109E+04  0.10122276067E+04 0.  0.
        -13    1    3    3    0    0 -0.35047450300E+03  0.35288514522E+03  0.16700398634E+03  0.52464335084E+03  0.10566000000E+00 0.  1.
          4    1    3    3  501    0  0.91194239887E+02 -0.32856793247E+03 -0.43804465303E+03  0.55511836006E+03  0.00000000000E+00 0.  1.
         13    1    1    2    0    0  0.25928026311E+03 -0.24317212746E+02 -0.23083119147E+03  0.34799516059E+03  0.10566000000E+00 0. -1.
<mgrwt>
<rscale>  1 0.73843837E+03</rscale>
<asrwt>0</asrwt>
<pdfrwt beam="1">  1       21 0.71221925E-01 0.10451901E+04</pdfrwt>
<pdfrwt beam="2">  1        4 0.14843298E+00 0.10451901E+04</pdfrwt>
<totfact> 0.20905712E+01</totfact>
</mgrwt>
</event>
<event>
 6    1  0.1431486E-005  0.1039112E+04  0.7818608E-02  0.9619575E-01
         21   -1    0    0  501  502  0.00000000000E+00  0.00000000000E+00  0.42711965240E+03  0.42711965240E+03  0.00000000000E+00 0.  1.
          4   -1    0    0  502    0 -0.00000000000E+00 -0.00000000000E+00 -0.10605699934E+04  0.10605699934E+04  0.00000000000E+00 0.  1.
    9000010    2    1    2  501    0  0.21044439832E+03 -0.21038102585E+03 -0.56326287792E+03  0.11819555915E+04  0.99559375744E+03 0.  0.
        -13    1    3    3    0    0  0.14433134171E+03  0.35228459761E+03 -0.47475683601E+03  0.60854748246E+03  0.10566000000E+00 0.  1.
          4    1    3    3  501    0  0.66113056610E+02 -0.56266562345E+03 -0.88506041914E+02  0.57340810905E+03  0.00000000000E+00 0.  1.
         13    1    1    2    0    0 -0.21044439832E+03  0.21038102585E+03 -0.70187463087E+02  0.30573405430E+03  0.10566000000E+00 0. -1.
<mgrwt>
<rscale>  1 0.76014003E+03</rscale>
<asrwt>0</asrwt>
<pdfrwt beam="1">  1       21 0.65710716E-01 0.10391121E+04</pdfrwt>
<pdfrwt beam="2">  1        4 0.16316461E+00 0.10391121E+04</pdfrwt>
<totfact> 0.19425576E+01</totfact>
</mgrwt>
</event>
<event>
 6    1  0.1431486E-005  0.9945283E+03  0.7818608E-02  0.9872606E-01
         21   -1    0    0  501  502  0.00000000000E+00  0.00000000000E+00  0.41748191985E+03  0.41748191985E+03  0.00000000000E+00 0.  1.
          4   -1    0    0  502    0 -0.00000000000E+00 -0.00000000000E+00 -0.81280020075E+03  0.81280020075E+03  0.00000000000E+00 0.  1.
    9000010    2    1    2  501    0 -0.13309767552E+03 -0.61089302188E+02 -0.25329237949E+03  0.10262765768E+04  0.98368678372E+03 0.  0.
        -13    1    3    3    0    0  0.13670130099E+03  0.38143039378E+03  0.75973457313E+02  0.41224794526E+03  0.10566000000E+00 0.  1.
          4    1    3    3  501    0 -0.26979897651E+03 -0.44251969597E+03 -0.32926583680E+03  0.61402863152E+03  0.00000000000E+00 0.  1.
         13    1    1    2    0    0  0.13309767552E+03  0.61089302188E+02 -0.14202590141E+03  0.20400554381E+03  0.10566000000E+00 0. -1.
<mgrwt>
<rscale>  1 0.61607480E+03</rscale>
<asrwt>0</asrwt>
<pdfrwt beam="1">  1       21 0.64227988E-01 0.99452832E+03</pdfrwt>
<pdfrwt beam="2">  1        4 0.12504618E+00 0.99452832E+03</pdfrwt>
<totfact> 0.41558094E+01</totfact>
</mgrwt>
</event>
<event>
 6    1  0.1431486E-005  0.1035344E+04  0.7818608E-02  0.9676815E-01
         21   -1    0    0  501  502  0.00000000000E+00  0.00000000000E+00  0.25668000656E+03  0.25668000656E+03  0.00000000000E+00 0. -1.
          4   -1    0    0  502    0 -0.00000000000E+00 -0.00000000000E+00 -0.16270046664E+04  0.16270046664E+04  0.00000000000E+00 0.  1.
    9000010    2    1    2  501    0 -0.14000006206E+03 -0.20441963058E+03 -0.10099352181E+04  0.14463427431E+04  0.10052615495E+04 0.  0.
        -13    1    3    3    0    0 -0.17136730660E+03  0.21288189197E+03  0.75088963936E+02  0.28341456803E+03  0.10566000000E+00 0.  1.
          4    1    3    3  501    0  0.31367244546E+02 -0.41730152255E+03 -0.10850241820E+04  0.11629281750E+04  0.00000000000E+00 0.  1.
         13    1    1    2    0    0  0.14000006206E+03  0.20441963058E+03 -0.36038944173E+03  0.43734192986E+03  0.10566000000E+00 0. -1.
<mgrwt>
<rscale>  1 0.72414172E+03</rscale>
<asrwt>0</asrwt>
<pdfrwt beam="1">  1       21 0.39489232E-01 0.10353445E+04</pdfrwt>
<pdfrwt beam="2">  1        4 0.25030841E+00 0.10353445E+04</pdfrwt>
<totfact> 0.15576544E+01</totfact>
</mgrwt>
</event>
<event>
 6    1  0.1431486E-005  0.1106185E+04  0.7818608E-02  0.9439385E-01
          4   -1    0    0  502    0 -0.00000000000E+00  0.00000000000E+00  0.11068865235E+04  0.11068865235E+04  0.00000000000E+00 0.  1.
         21   -1    0    0  501  502  0.00000000000E+00 -0.00000000000E+00 -0.68467076183E+03  0.68467076183E+03  0.00000000000E+00 0. -1.
    9000010    2    1    2  501    0  0.12621509377E+03  0.44394115671E+03  0.64347420337E+03  0.12797279097E+04  0.10053011847E+04 0.  0.
        -13    1    3    3    0    0  0.34400383229E+02 -0.88528195121E+02 -0.23214055399E+03  0.25081841174E+03  0.10566000000E+00 0.  1.
          4    1    3    3  501    0  0.91814710537E+02  0.53246935183E+03  0.87561475736E+03  0.10289094980E+04  0.00000000000E+00 0.  1.
         13    1    1    2    0    0 -0.12621509377E+03 -0.44394115671E+03 -0.22125844173E+03  0.51182937559E+03  0.10566000000E+00 0. -1.
<mgrwt>
<rscale>  1 0.88904101E+03</rscale>
<asrwt>0</asrwt>
<pdfrwt beam="2">  1       21 0.10533396E+00 0.11061846E+04</pdfrwt>
<pdfrwt beam="1">  1        4 0.17029023E+00 0.11061846E+04</pdfrwt>
<totfact> 0.55624225E+00</totfact>
</mgrwt>
</event>
<event>
 6    1  0.1431486E-005  0.9574919E+03  0.7818608E-02  0.9880279E-01
         21   -1    0    0  501  502  0.00000000000E+00  0.00000000000E+00  0.53300744237E+03  0.53300744237E+03  0.00000000000E+00 0.  1.
          4   -1    0    0  502    0 -0.00000000000E+00 -0.00000000000E+00 -0.59064581992E+03  0.59064581992E+03  0.00000000000E+00 0.  1.
    9000010    2    1    2  501    0 -0.14338065548E+03 -0.71202781077E+02 -0.84950987597E+02  0.96125302143E+03  0.94401422263E+03 0.  0.
        -13    1    3    3    0    0  0.82843766513E+02  0.28787024495E+03  0.27358209032E+03  0.40568403824E+03  0.10566000000E+00 0.  1.
          4    1    3    3  501    0 -0.22622442199E+03 -0.35907302602E+03 -0.35853307792E+03  0.55556898319E+03  0.00000000000E+00 0.  1.
         13    1    1    2    0    0  0.14338065548E+03  0.71202781077E+02  0.27312610045E+02  0.16240024085E+03  0.10566000000E+00 0. -1.
<mgrwt>
<rscale>  1 0.61226639E+03</rscale>
<asrwt>0</asrwt>
<pdfrwt beam="1">  1       21 0.82001145E-01 0.95749188E+03</pdfrwt>
<pdfrwt beam="2">  1        4 0.90868587E-01 0.95749188E+03</pdfrwt>
<totfact> 0.51801474E+01</totfact>
</mgrwt>
</event>
<event>
 6    1  0.1431486E-005  0.1029210E+04  0.7818608E-02  0.9608025E-01
          4   -1    0    0  502    0 -0.00000000000E+00  0.00000000000E+00  0.11845239689E+04  0.11845239689E+04  0.00000000000E+00 0.  1.
         21   -1    0    0  501  502  0.00000000000E+00 -0.00000000000E+00 -0.44665057346E+03  0.44665057346E+03  0.00000000000E+00 0.  1.
    9000010    2    1    2  501    0 -0.20186411943E+03 -0.24643876962E+03  0.26806466724E+03  0.10635466342E+04  0.97866827240E+03 0.  0.
        -13    1    3    3    0    0  0.19653916449E+03  0.29048342585E+03  0.16300411331E+03  0.38675394761E+03  0.10566000000E+00 0.  1.
          4    1    3    3  501    0 -0.39840328392E+03 -0.53692219547E+03  0.10506055393E+03  0.67679268659E+03  0.00000000000E+00 0.  1.
         13    1    1    2    0    0  0.20186411943E+03  0.24643876962E+03  0.46980872824E+03  0.56762790821E+03  0.10566000000E+00 0. -1.
<mgrwt>
<rscale>  1 0.76767276E+03</rscale>
<asrwt>0</asrwt>
<pdfrwt beam="2">  1       21 0.68715473E-01 0.10292098E+04</pdfrwt>
<pdfrwt beam="1">  1        4 0.18223446E+00 0.10292098E+04</pdfrwt>
<totfact> 0.12832417E+01</totfact>
</mgrwt>
</event>
<event>
 6    1  0.1431486E-005  0.9752713E+03  0.7818608E-02  0.9961788E-01
          4   -1    0    0  502    0 -0.00000000000E+00  0.00000000000E+00  0.59293661299E+03  0.59293661299E+03  0.00000000000E+00 0.  1.
         21   -1    0    0  501  502  0.00000000000E+00 -0.00000000000E+00 -0.51335810456E+03  0.51335810456E+03  0.00000000000E+00 0.  1.
    9000010    2    1    2  501    0  0.10247236684E+03 -0.55801128169E+02  0.12040940046E+03  0.98267625300E+03  0.96826641098E+03 0.  0.
        -13    1    3    3    0    0 -0.93356639891E+02 -0.18151943326E+03 -0.37969294627E+03  0.43108179209E+03  0.10566000000E+00 0.  1.
          4    1    3    3  501    0  0.19582900673E+03  0.12571830509E+03  0.50010234672E+03  0.55159446091E+03  0.00000000000E+00 0.  1.
         13    1    1    2    0    0 -0.10247236684E+03  0.55801128169E+02 -0.40830892030E+02  0.12361846455E+03  0.10566000000E+00 0. -1.
<mgrwt>
<rscale>  1 0.57357976E+03</rscale>
<asrwt>0</asrwt>
<pdfrwt beam="2">  1       21 0.78978170E-01 0.97527134E+03</pdfrwt>
<pdfrwt beam="1">  1        4 0.91221017E-01 0.97527134E+03</pdfrwt>
<totfact> 0.55993703E+01</totfact>
</mgrwt>
</event>
<event>
 6    1  0.1431486E-005  0.1337698E+04  0.7818608E-02  0.9105656E-01
         21   -1    0    0  501  502  0.00000000000E+00  0.00000000000E+00  0.18321583327E+04  0.18321583327E+04  0.00000000000E+00 0.  1.
          4   -1    0    0  502    0 -0.00000000000E+00 -0.00000000000E+00 -0.94601815992E+03  0.94601815992E+03  0.00000000000E+00 0.  1.
    9000010    2    1    2  501    0 -0.41149413832E+03  0.78957368172E+03  0.12362291629E+04  0.18214548315E+04  0.99833918838E+03 0.  0.
        -13    1    3    3    0    0 -0.41141266778E+03  0.11704684598E+03  0.10343152913E+04  0.11192714060E+04  0.10566000000E+00 0.  1.
          4    1    3    3  501    0 -0.81470534073E-01  0.67252683574E+03  0.20191387166E+03  0.70218342547E+03  0.00000000000E+00 0.  1.
         13    1    1    2    0    0  0.41149413832E+03 -0.78957368172E+03 -0.35008899015E+03  0.95672166115E+03  0.10566000000E+00 0. -1.
<mgrwt>
<rscale>  1 0.12082611E+04</rscale>
<asrwt>0</asrwt>
<pdfrwt beam="1">  1       21 0.28187051E+00 0.13376977E+04</pdfrwt>
<pdfrwt beam="2">  1        4 0.14554126E+00 0.13376977E+04</pdfrwt>
<totfact> 0.40434294E-01</totfact>
</mgrwt>
</event>
<event>
 6    1  0.1431486E-005  0.1400448E+04  0.7818608E-02  0.9044432E-01
         21   -1    0    0  501  502  0.00000000000E+00  0.00000000000E+00  0.15658293369E+04  0.15658293369E+04  0.00000000000E+00 0. -1.
          4   -1    0    0  502    0 -0.00000000000E+00 -0.00000000000E+00 -0.98029639796E+03  0.98029639796E+03  0.00000000000E+00 0.  1.
    9000010    2    1    2  501    0 -0.14173538639E+02 -0.98156196906E+03 -0.51377578797E+01  0.14004570779E+04  0.99879369350E+03 0.  0.
        -13    1    3    3    0    0  0.16488920485E+03 -0.85145582386E+03  0.38736174760E+03  0.94984977999E+03  0.10566000000E+00 0.  1.
          4    1    3    3  501    0 -0.17906274349E+03 -0.13010614519E+03 -0.39249950548E+03  0.45060729791E+03  0.00000000000E+00 0.  1.
         13    1    1    2    0    0  0.14173538639E+02  0.98156196906E+03  0.59067069679E+03  0.11456686569E+04  0.10566000000E+00 0. -1.
<mgrwt>
<rscale>  1 0.12814184E+04</rscale>
<asrwt>0</asrwt>
<pdfrwt beam="1">  1       21 0.24089682E+00 0.14004477E+04</pdfrwt>
<pdfrwt beam="2">  1        4 0.15081483E+00 0.14004477E+04</pdfrwt>
<totfact> 0.66451412E-01</totfact>
</mgrwt>
</event>
<event>
 6    1  0.1431486E-005  0.1039026E+04  0.7818608E-02  0.9815482E-01
          4   -1    0    0  502    0 -0.00000000000E+00  0.00000000000E+00  0.18408145460E+04  0.18408145460E+04  0.00000000000E+00 0.  1.
         21   -1    0    0  501  502  0.00000000000E+00 -0.00000000000E+00 -0.19690099676E+03  0.19690099676E+03  0.00000000000E+00 0.  1.
    9000010    2    1    2  501    0 -0.14191155265E+03 -0.61499637473E+02  0.13297597630E+04  0.16875531422E+04  0.10274499921E+04 0.  0.
        -13    1    3    3    0    0 -0.50200773111E+03  0.17322775774E+03  0.10442499615E+04  0.11715278961E+04  0.10566000000E+00 0.  1.
          4    1    3    3  501    0  0.36009617847E+03 -0.23472739521E+03  0.28550980145E+03  0.51602524603E+03  0.00000000000E+00 0.  1.
         13    1    1    2    0    0  0.14191155265E+03  0.61499637473E+02  0.31415378623E+03  0.35016240054E+03  0.10566000000E+00 0. -1.
<mgrwt>
<rscale>  1 0.64538282E+03</rscale>
<asrwt>0</asrwt>
<pdfrwt beam="2">  1       21 0.30292462E-01 0.10390258E+04</pdfrwt>
<pdfrwt beam="1">  1        4 0.28320223E+00 0.10390258E+04</pdfrwt>
<totfact> 0.16828999E+01</totfact>
</mgrwt>
</event>
<event>
 6    1  0.2206172E-005  0.7765921E+03  0.7818608E-02  0.9973282E-01
          4   -1    0    0  502    0 -0.00000000000E+00  0.00000000000E+00  0.61855196404E+03  0.61855196404E+03  0.00000000000E+00 0.  1.
         21   -1    0    0  501  502  0.00000000000E+00 -0.00000000000E+00 -0.41016806252E+03  0.41016806252E+03  0.00000000000E+00 0.  1.
    9000010    2    1    2  501    0  0.64120989901E+02  0.21339712937E+03  0.21498399875E+03  0.80579984214E+03  0.74393913038E+03 0.  0.
        -13    1    3    3    0    0  0.37575448693E+02  0.45304146155E+03  0.30610051518E+03  0.54804745851E+03  0.10566000000E+00 0.  1.
          4    1    3    3  501    0  0.26545541208E+02 -0.23964433218E+03 -0.91116516424E+02  0.25775238363E+03  0.00000000000E+00 0.  1.
         13    1    1    2    0    0 -0.64120989901E+02 -0.21339712937E+03 -0.66000972341E+01  0.22292018441E+03  0.10566000000E+00 0. -1.
<mgrwt>
<rscale>  1 0.56837441E+03</rscale>
<asrwt>0</asrwt>
<pdfrwt beam="2">  1       21 0.63102779E-01 0.77659208E+03</pdfrwt>
<pdfrwt beam="1">  1        4 0.95161841E-01 0.77659208E+03</pdfrwt>
<totfact> 0.86113529E+01</totfact>
</mgrwt>
</event>
<event>
 6    1  0.1431486E-005  0.1011530E+04  0.7818608E-02  0.9992207E-01
          4   -1    0    0  502    0 -0.00000000000E+00  0.00000000000E+00  0.15381179798E+03  0.15381179798E+03  0.00000000000E+00 0.  1.
         21   -1    0    0  501  502  0.00000000000E+00 -0.00000000000E+00 -0.24723304843E+04  0.24723304843E+04  0.00000000000E+00 0.  1.
    9000010    2    1    2  501    0  0.88811467531E+02  0.33655181896E+02 -0.23202451435E+04  0.25311520730E+04  0.10070616380E+04 0.  0.
        -13    1    3    3    0    0 -0.14495523265E+03  0.30712503019E+03 -0.22999116887E+03  0.41016308045E+03  0.10566000000E+00 0.  1.
          4    1    3    3  501    0  0.23376670018E+03 -0.27346984830E+03 -0.20902539746E+04  0.21209889925E+04  0.00000000000E+00 0.  1.
         13    1    1    2    0    0 -0.88811467531E+02 -0.33655181896E+02  0.17264572155E+01  0.94990209243E+02  0.10566000000E+00 0. -1.
<mgrwt>
<rscale>  1 0.55993280E+03</rscale>
<asrwt>0</asrwt>
<pdfrwt beam="2">  1       21 0.38035850E+00 0.10115302E+04</pdfrwt>
<pdfrwt beam="1">  1        4 0.23663356E-01 0.10115302E+04</pdfrwt>
<totfact> 0.56398458E+00</totfact>
</mgrwt>
</event>
<event>
 6    1  0.1431486E-005  0.8716338E+03  0.7818608E-02  0.9813460E-01
         21   -1    0    0  501  502  0.00000000000E+00  0.00000000000E+00  0.14150025312E+04  0.14150025312E+04  0.00000000000E+00 0.  1.
          4   -1    0    0  502    0 -0.00000000000E+00 -0.00000000000E+00 -0.50449158560E+03  0.50449158560E+03  0.00000000000E+00 0.  1.
    9000010    2    1    2  501    0 -0.26198800078E+03 -0.30173005059E+02  0.12285452346E+04  0.15063428818E+04  0.83078117541E+03 0.  0.
        -13    1    3    3    0    0  0.23150190817E+03  0.19766629702E+03  0.28265432700E+03  0.41540170703E+03  0.10566000000E+00 0.  1.
          4    1    3    3  501    0 -0.49348990895E+03 -0.22783930208E+03  0.94589090757E+03  0.10909411748E+04  0.00000000000E+00 0.  1.
         13    1    1    2    0    0  0.26198800078E+03  0.30173005059E+02 -0.31803428902E+03  0.41315123495E+03  0.10566000000E+00 0. -1.
<mgrwt>
<rscale>  1 0.64645192E+03</rscale>
<asrwt>0</asrwt>
<pdfrwt beam="1">  1       21 0.21769270E+00 0.87163380E+03</pdfrwt>
<pdfrwt beam="2">  1        4 0.77614091E-01 0.87163380E+03</pdfrwt>
<totfact> 0.52685603E+00</totfact>
</mgrwt>
</event>
<event>
 6    1  0.1431486E-005  0.1012326E+04  0.7818608E-02  0.9687101E-01
         21   -1    0    0  501  502  0.00000000000E+00  0.00000000000E+00  0.11778267950E+04  0.11778267950E+04  0.00000000000E+00 0.  1.
          4   -1    0    0  502    0 -0.00000000000E+00 -0.00000000000E+00 -0.35985689828E+03  0.35985689828E+03  0.00000000000E+00 0.  1.
    9000010    2    1    2  501    0  0.22768238524E+03  0.11710349193E+03  0.78188748182E+03  0.12791214219E+04  0.97941364158E+03 0.  0.
        -13    1    3    3    0    0  0.40143955620E+03  0.45728914278E+03  0.60530551054E+03  0.85829007314E+03  0.10566000000E+00 0.  1.
          4    1    3    3  501    0 -0.17375717096E+03 -0.34018565085E+03  0.17658197128E+03  0.42083134874E+03  0.00000000000E+00 0.  1.
         13    1    1    2    0    0 -0.22768238524E+03 -0.11710349193E+03  0.36082414916E+02  0.25856227142E+03  0.10566000000E+00 0. -1.
<mgrwt>
<rscale>  1 0.71789991E+03</rscale>
<asrwt>0</asrwt>
<pdfrwt beam="1">  1       21 0.18120412E+00 0.10123258E+04</pdfrwt>
<pdfrwt beam="2">  1        4 0.55362600E-01 0.10123258E+04</pdfrwt>
<totfact> 0.19438675E+01</totfact>
</mgrwt>
</event>
<event>
 6    1  0.1431486E-005  0.1003029E+04  0.7818608E-02  0.9812391E-01
          4   -1    0    0  502    0 -0.00000000000E+00  0.00000000000E+00  0.24352833624E+04  0.24352833624E+04  0.00000000000E+00 0.  1.
         21   -1    0    0  501  502  0.00000000000E+00 -0.00000000000E+00 -0.14238005537E+03  0.14238005537E+03  0.00000000000E+00 0.  1.
    9000010    2    1    2  501    0 -0.13105991592E+03  0.11394977091E+03  0.19905895273E+04  0.22290161972E+04  0.98787918759E+03 0.  0.
        -13    1    3    3    0    0 -0.52933472233E+03  0.23103921541E+03  0.99730044792E+03  0.11524680308E+04  0.10566000000E+00 0.  1.
          4    1    3    3  501    0  0.39827480641E+03 -0.11708944450E+03  0.99328907939E+03  0.10765481664E+04  0.00000000000E+00 0.  1.
         13    1    1    2    0    0  0.13105991592E+03 -0.11394977091E+03  0.30231377975E+03  0.34864722062E+03  0.10566000000E+00 0. -1.
<mgrwt>
<rscale>  1 0.64701785E+03</rscale>
<asrwt>0</asrwt>
<pdfrwt beam="2">  1       21 0.21904626E-01 0.10030287E+04</pdfrwt>
<pdfrwt beam="1">  1        4 0.37465895E+00 0.10030287E+04</pdfrwt>
<totfact> 0.84280854E+00</totfact>
</mgrwt>
</event>
<event>
 6    1  0.1431486E-005  0.1072264E+04  0.7818608E-02  0.9504274E-01
         21   -1    0    0  501  502  0.00000000000E+00  0.00000000000E+00  0.70521207263E+03  0.70521207263E+03  0.00000000000E+00 0.  1.
          4   -1    0    0  502    0 -0.00000000000E+00 -0.00000000000E+00 -0.90964947733E+03  0.90964947733E+03  0.00000000000E+00 0.  1.
    9000010    2    1    2  501    0  0.38237754752E+03 -0.12807432856E+03  0.14404135350E+03  0.10818952484E+04  0.99354607069E+03 0.  0.
        -13    1    3    3    0    0  0.72831006518E+02 -0.11508538980E+03  0.55260778736E+03  0.56914354979E+03  0.10566000000E+00 0.  1.
          4    1    3    3  501    0  0.30954654100E+03 -0.12988938760E+02 -0.40856643386E+03  0.51275169864E+03  0.00000000000E+00 0.  1.
         13    1    1    2    0    0 -0.38237754752E+03  0.12807432856E+03 -0.34847875821E+03  0.53296630153E+03  0.10566000000E+00 0. -1.
<mgrwt>
<rscale>  1 0.83969484E+03</rscale>
<asrwt>0</asrwt>
<pdfrwt beam="1">  1       21 0.10849417E+00 0.10722637E+04</pdfrwt>
<pdfrwt beam="2">  1        4 0.13994607E+00 0.10722637E+04</pdfrwt>
<totfact> 0.88428628E+00</totfact>
</mgrwt>
</event>
<event>
 6    1  0.1431486E-005  0.1181225E+04  0.7818608E-02  0.9292991E-01
          4   -1    0    0  502    0 -0.00000000000E+00  0.00000000000E+00  0.13378096193E+04  0.13378096193E+04  0.00000000000E+00 0.  1.
         21   -1    0    0  501  502  0.00000000000E+00 -0.00000000000E+00 -0.16422467908E+04  0.16422467908E+04  0.00000000000E+00 0.  1.
    9000010    2    1    2  501    0 -0.38909123138E+03  0.51092643686E+03 -0.13244729528E+04  0.17746889074E+04  0.99139008730E+03 0.  0.
        -13    1    3    3    0    0 -0.13155226548E+03 -0.15326296045E+03 -0.94736923449E+03  0.96866093718E+03  0.10566000000E+00 0.  1.
          4    1    3    3  501    0 -0.25753896590E+03  0.66418939730E+03 -0.37710371833E+03  0.80602797025E+03  0.00000000000E+00 0.  1.
         13    1    1    2    0    0  0.38909123138E+03 -0.51092643686E+03  0.10200357813E+04  0.12053675027E+04  0.10566000000E+00 0. -1.
<mgrwt>
<rscale>  1 0.10143066E+04</rscale>
<asrwt>0</asrwt>
<pdfrwt beam="2">  1       21 0.25265335E+00 0.11812248E+04</pdfrwt>
<pdfrwt beam="1">  1        4 0.20581686E+00 0.11812248E+04</pdfrwt>
<totfact> 0.23534273E-01</totfact>
</mgrwt>
</event>
<event>
 6    1  0.1431486E-005  0.1002286E+04  0.7818608E-02  0.9777546E-01
          4   -1    0    0  502    0 -0.00000000000E+00  0.00000000000E+00  0.97740173046E+03  0.97740173046E+03  0.00000000000E+00 0.  1.
         21   -1    0    0  501  502  0.00000000000E+00 -0.00000000000E+00 -0.48239036040E+03  0.48239036040E+03  0.00000000000E+00 0.  1.
    9000010    2    1    2  501    0 -0.12429920523E+03  0.15048662876E+03  0.85232845612E+02  0.10059033731E+04  0.98309737065E+03 0.  0.
        -13    1    3    3    0    0 -0.30112488505E+03  0.41382790646E+03  0.32676712239E+03  0.60721206839E+03  0.10566000000E+00 0.  1.
          4    1    3    3  501    0  0.17682567982E+03 -0.26334127771E+03 -0.24153427678E+03  0.39869130471E+03  0.00000000000E+00 0.  1.
         13    1    1    2    0    0  0.12429920523E+03 -0.15048662876E+03  0.40977852444E+03  0.45388871777E+03  0.10566000000E+00 0. -1.
<mgrwt>
<rscale>  1 0.66581624E+03</rscale>
<asrwt>0</asrwt>
<pdfrwt beam="2">  1       21 0.74213902E-01 0.10022859E+04</pdfrwt>
<pdfrwt beam="1">  1        4 0.15036950E+00 0.10022859E+04</pdfrwt>
<totfact> 0.18437474E+01</totfact>
</mgrwt>
</event>
<event>
 6    1  0.1431486E-005  0.1111981E+04  0.7818608E-02  0.9419268E-01
         21   -1    0    0  501  502  0.00000000000E+00  0.00000000000E+00  0.35281872326E+03  0.35281872326E+03  0.00000000000E+00 0.  1.
          4   -1    0    0  502    0 -0.00000000000E+00 -0.00000000000E+00 -0.21069780092E+04  0.21069780092E+04  0.00000000000E+00 0.  1.
    9000010    2    1    2  501    0 -0.11365492020E+03  0.47459535362E+03 -0.74397387365E+03  0.13379086948E+04  0.99917183733E+03 0.  0.
        -13    1    3    3    0    0  0.83685131094E+02 -0.23909893384E+03  0.43440112644E+02  0.25701859053E+03  0.10566000000E+00 0.  1.
          4    1    3    3  501    0 -0.19734005129E+03  0.71369428746E+03 -0.78741398630E+03  0.10808901043E+04  0.00000000000E+00 0.  1.
         13    1    1    2    0    0  0.11365492020E+03 -0.47459535362E+03 -0.10101854123E+04  0.11218880376E+04  0.10566000000E+00 0. -1.
<mgrwt>
<rscale>  1 0.90506824E+03</rscale>
<asrwt>0</asrwt>
<pdfrwt beam="1">  1       21 0.54279805E-01 0.11119814E+04</pdfrwt>
<pdfrwt beam="2">  1        4 0.32415046E+00 0.11119814E+04</pdfrwt>
<totfact> 0.27194932E+00</totfact>
</mgrwt>
</event>
<event>
 6    1  0.1431486E-005  0.1199559E+04  0.7818608E-02  0.9298435E-01
          4   -1    0    0  502    0 -0.00000000000E+00  0.00000000000E+00  0.20351623056E+04  0.20351623056E+04  0.00000000000E+00 0.  1.
         21   -1    0    0  501  502  0.00000000000E+00 -0.00000000000E+00 -0.50697482927E+03  0.50697482927E+03  0.00000000000E+00 0.  1.
    9000010    2    1    2  501    0 -0.18965310742E+03  0.57042535797E+03  0.40123459133E+03  0.12648837511E+04  0.10380695142E+04 0.  0.
        -13    1    3    3    0    0  0.31619069510E+03  0.10890629180E+03 -0.16816879492E+03  0.37432324375E+03  0.10566000000E+00 0.  1.
          4    1    3    3  501    0 -0.50584380252E+03  0.46151906617E+03  0.56940338625E+03  0.89056050736E+03  0.00000000000E+00 0.  1.
         13    1    1    2    0    0  0.18965310742E+03 -0.57042535797E+03  0.11269528850E+04  0.12772533837E+04  0.10566000000E+00 0. -1.
<mgrwt>
<rscale>  1 0.10092708E+04</rscale>
<asrwt>0</asrwt>
<pdfrwt beam="2">  1       21 0.77996128E-01 0.11995590E+04</pdfrwt>
<pdfrwt beam="1">  1        4 0.31310189E+00 0.11995590E+04</pdfrwt>
<totfact> 0.13851503E+00</totfact>
</mgrwt>
</event>
<event>
 6    1  0.1431486E-005  0.1103718E+04  0.7818608E-02  0.9502608E-01
          4   -1    0    0  502    0 -0.00000000000E+00  0.00000000000E+00  0.78766086147E+03  0.78766086147E+03  0.00000000000E+00 0.  1.
         21   -1    0    0  501  502  0.00000000000E+00 -0.00000000000E+00 -0.83417469407E+03  0.83417469407E+03  0.00000000000E+00 0.  1.
    9000010    2    1    2  501    0  0.30225718797E+03  0.21670032171E+03 -0.33246232725E+03  0.11527033888E+04  0.10391705666E+04 0.  0.
        -13    1    3    3    0    0  0.87263560615E+02 -0.40828080824E+03 -0.25005941682E+03  0.48665991256E+03  0.10566000000E+00 0.  1.
          4    1    3    3  501    0  0.21499362736E+03  0.62498112995E+03 -0.82402910422E+02  0.66604347624E+03  0.00000000000E+00 0.  1.
         13    1    1    2    0    0 -0.30225718797E+03 -0.21670032171E+03  0.28594849465E+03  0.46913216673E+03  0.10566000000E+00 0. -1.
<mgrwt>
<rscale>  1 0.84091804E+03</rscale>
<asrwt>0</asrwt>
<pdfrwt beam="2">  1       21 0.12833457E+00 0.11037182E+04</pdfrwt>
<pdfrwt beam="1">  1        4 0.12117859E+00 0.11037182E+04</pdfrwt>
<totfact> 0.82690145E+00</totfact>
</mgrwt>
</event>
<event>
 6    1  0.1431486E-005  0.1002072E+04  0.7818608E-02  0.1027869E+00
          4   -1    0    0  502    0 -0.00000000000E+00  0.00000000000E+00  0.22678329582E+03  0.22678329582E+03  0.00000000000E+00 0.  1.
         21   -1    0    0  501  502  0.00000000000E+00 -0.00000000000E+00 -0.13830663960E+04  0.13830663960E+04  0.00000000000E+00 0.  1.
    9000010    2    1    2  501    0 -0.37331450744E+02  0.15894678903E+02 -0.11909789552E+04  0.15564634431E+04  0.10012498688E+04 0.  0.
        -13    1    3    3    0    0 -0.13039025318E+03  0.43975619060E+03 -0.96210768136E+03  0.10658509872E+04  0.10566000000E+00 0.  1.
          4    1    3    3  501    0  0.93058802433E+02 -0.42386151169E+03 -0.22887127387E+03  0.49061245582E+03  0.00000000000E+00 0.  1.
         13    1    1    2    0    0  0.37331450744E+02 -0.15894678903E+02  0.34695855070E+02  0.53386248746E+02  0.10566000000E+00 0. -1.
<mgrwt>
<rscale>  1 0.44950792E+03</rscale>
<asrwt>0</asrwt>
<pdfrwt beam="2">  1       21 0.21277945E+00 0.10020716E+04</pdfrwt>
<pdfrwt beam="1">  1        4 0.34889738E-01 0.10020716E+04</pdfrwt>
<totfact> 0.30559904E+01</totfact>
</mgrwt>
</event>
<event>
 6    1  0.1431486E-005  0.1011801E+04  0.7818608E-02  0.9838537E-01
         21   -1    0    0  501  502  0.00000000000E+00  0.00000000000E+00  0.11561912240E+04  0.11561912240E+04  0.00000000000E+00 0.  1.
          4   -1    0    0  502    0 -0.00000000000E+00 -0.00000000000E+00 -0.30915960482E+03  0.30915960482E+03  0.00000000000E+00 0.  1.
    9000010    2    1    2  501    0 -0.57895474386E+02  0.14414817879E+03  0.83075882701E+03  0.13091605656E+04  0.99980526828E+03 0.  0.
        -13    1    3    3    0    0  0.35041985319E+02 -0.39437767620E+03  0.12224020105E+03  0.41437226034E+03  0.10566000000E+00 0.  1.
          4    1    3    3  501    0 -0.92937459705E+02  0.53852585499E+03  0.70851862595E+03  0.89478830526E+03  0.00000000000E+00 0.  1.
         13    1    1    2    0    0  0.57895474386E+02 -0.14414817879E+03  0.16272792192E+02  0.15619026324E+03  0.10566000000E+00 0. -1.
<mgrwt>
<rscale>  1 0.63334787E+03</rscale>
<asrwt>0</asrwt>
<pdfrwt beam="1">  1       21 0.17787557E+00 0.10118009E+04</pdfrwt>
<pdfrwt beam="2">  1        4 0.47563017E-01 0.10118009E+04</pdfrwt>
<totfact> 0.28362750E+01</totfact>
</mgrwt>
</event>
<event>
 6    1  0.1431486E-005  0.1123578E+04  0.7818608E-02  0.9404600E-01
         21   -1    0    0  501  502  0.00000000000E+00  0.00000000000E+00  0.68723304054E+03  0.68723304054E+03  0.00000000000E+00 0. -1.
          4   -1    0    0  502    0 -0.00000000000E+00 -0.00000000000E+00 -0.11962439110E+04  0.11962439110E+04  0.00000000000E+00 0.  1.
    9000010    2    1    2  501    0 -0.29826630401E+02 -0.49756770990E+03  0.62272606736E+02  0.11253027788E+04  0.10069583966E+04 0.  0.
        -13    1    3    3    0    0 -0.10477807085E+03 -0.54680089462E+02  0.49059838746E+03  0.50463367432E+03  0.10566000000E+00 0.  1.
          4    1    3    3  501    0  0.74951440444E+02 -0.44288762044E+03 -0.42832578073E+03  0.62066910443E+03  0.00000000000E+00 0.  1.
         13    1    1    2    0    0  0.29826630401E+02  0.49756770990E+03 -0.57128347721E+03  0.75817417281E+03  0.10566000000E+00 0. -1.
<mgrwt>
<rscale>  1 0.91698095E+03</rscale>
<asrwt>0</asrwt>
<pdfrwt beam="1">  1       21 0.10572816E+00 0.11235784E+04</pdfrwt>
<pdfrwt beam="2">  1        4 0.18403753E+00 0.11235784E+04</pdfrwt>
<totfact> 0.43981299E+00</totfact>
</mgrwt>
</event>
<event>
 6    1  0.1431486E-005  0.1011615E+04  0.7818608E-02  0.9823344E-01
          4   -1    0    0  502    0 -0.00000000000E+00  0.00000000000E+00  0.75350860361E+03  0.75350860361E+03  0.00000000000E+00 0.  1.
         21   -1    0    0  501  502  0.00000000000E+00 -0.00000000000E+00 -0.52624219126E+03  0.52624219126E+03  0.00000000000E+00 0.  1.
    9000010    2    1    2  501    0  0.15856950046E+03  0.39129744641E+02  0.14748813936E+02  0.10117225050E+04  0.99834336585E+03 0.  0.
        -13    1    3    3    0    0 -0.10069747447E+03 -0.22693771771E+03 -0.39000526184E+03  0.46232545302E+03  0.10566000000E+00 0.  1.
          4    1    3    3  501    0  0.25926697493E+03  0.26606746235E+03  0.40475407578E+03  0.54939705193E+03  0.00000000000E+00 0.  1.
         13    1    1    2    0    0 -0.15856950046E+03 -0.39129744641E+02  0.21251759842E+03  0.26802828991E+03  0.10566000000E+00 0. -1.
<mgrwt>
<rscale>  1 0.64124705E+03</rscale>
<asrwt>0</asrwt>
<pdfrwt beam="2">  1       21 0.80960338E-01 0.10116150E+04</pdfrwt>
<pdfrwt beam="1">  1        4 0.11592440E+00 0.10116150E+04</pdfrwt>
<totfact> 0.29449774E+01</totfact>
</mgrwt>
</event>
<event>
 6    1  0.1431486E-005  0.1181753E+04  0.7818608E-02  0.9294941E-01
          4   -1    0    0  502    0 -0.00000000000E+00  0.00000000000E+00  0.43117049225E+03  0.43117049225E+03  0.00000000000E+00 0.  1.
         21   -1    0    0  501  502  0.00000000000E+00 -0.00000000000E+00 -0.19801730667E+04  0.19801730667E+04  0.00000000000E+00 0.  1.
    9000010    2    1    2  501    0  0.49353584236E+03 -0.40240304934E+03 -0.12041766437E+04  0.16871814393E+04  0.99550689510E+03 0.  0.
        -13    1    3    3    0    0  0.69010081298E+03 -0.18671070827E+03 -0.37321593335E+03  0.80646770842E+03  0.10566000000E+00 0.  1.
          4    1    3    3  501    0 -0.19656497062E+03 -0.21569234107E+03 -0.83096071036E+03  0.88071373092E+03  0.00000000000E+00 0.  1.
         13    1    1    2    0    0 -0.49353584236E+03  0.40240304934E+03 -0.34482593075E+03  0.72416211962E+03  0.10566000000E+00 0. -1.
<mgrwt>
<rscale>  1 0.10124991E+04</rscale>
<asrwt>0</asrwt>
<pdfrwt beam="2">  1       21 0.30464201E+00 0.11817529E+04</pdfrwt>
<pdfrwt beam="1">  1        4 0.66333923E-01 0.11817529E+04</pdfrwt>
<totfact> 0.20001290E+00</totfact>
</mgrwt>
</event>
<event>
 6    1  0.1431486E-005  0.1049585E+04  0.7818608E-02  0.9722522E-01
         21   -1    0    0  501  502  0.00000000000E+00  0.00000000000E+00  0.71203079610E+03  0.71203079610E+03  0.00000000000E+00 0.  1.
          4   -1    0    0  502    0 -0.00000000000E+00 -0.00000000000E+00 -0.59489938482E+03  0.59489938482E+03  0.00000000000E+00 0.  1.
    9000010    2    1    2  501    0  0.90453256354E+02 -0.18286919771E+03  0.22896933354E+03  0.10742701992E+04  0.10295662049E+04 0.  0.
        -13    1    3    3    0    0 -0.16369879732E+03 -0.36051376792E+03  0.51690309872E+03  0.65111926537E+03  0.10566000000E+00 0.  1.
          4    1    3    3  501    0  0.25415205368E+03  0.17764457021E+03 -0.28793376518E+03  0.42315093388E+03  0.00000000000E+00 0.  1.
         13    1    1    2    0    0 -0.90453256354E+02  0.18286919771E+03 -0.11183792226E+03  0.23265998168E+03  0.10566000000E+00 0. -1.
<mgrwt>
<rscale>  1 0.69691520E+03</rscale>
<asrwt>0</asrwt>
<pdfrwt beam="1">  1       21 0.10954320E+00 0.10495854E+04</pdfrwt>
<pdfrwt beam="2">  1        4 0.91522983E-01 0.10495854E+04</pdfrwt>
<totfact> 0.24869003E+01</totfact>
</mgrwt>
</event>
<event>
 6    1  0.1431486E-005  0.9799283E+03  0.7818608E-02  0.1004083E+00
          4   -1    0    0  502    0 -0.00000000000E+00  0.00000000000E+00  0.70326388380E+03  0.70326388380E+03  0.00000000000E+00 0.  1.
         21   -1    0    0  501  502  0.00000000000E+00 -0.00000000000E+00 -0.42499109505E+03  0.42499109505E+03  0.00000000000E+00 0.  1.
    9000010    2    1    2  501    0  0.84046639868E+02 -0.31240803356E+02  0.18198579704E+03  0.99668362405E+03  0.97581739616E+03 0.  0.
        -13    1    3    3    0    0 -0.11014533462E+03  0.44702886470E+03  0.12686998417E+03  0.47755921587E+03  0.10566000000E+00 0.  1.
          4    1    3    3  501    0  0.19419197448E+03 -0.47826966806E+03  0.55115812873E+02  0.51912440818E+03  0.00000000000E+00 0.  1.
         13    1    1    2    0    0 -0.84046639868E+02  0.31240803356E+02  0.96286991712E+02  0.13157135480E+03  0.10566000000E+00 0. -1.
<mgrwt>
<rscale>  1 0.53895390E+03</rscale>
<asrwt>0</asrwt>
<pdfrwt beam="2">  1       21 0.65383245E-01 0.97992827E+03</pdfrwt>
<pdfrwt beam="1">  1        4 0.10819444E+00 0.97992827E+03</pdfrwt>
<totfact> 0.57343419E+01</totfact>
</mgrwt>
</event>
<event>
 6    1  0.1431486E-005  0.9265294E+03  0.7818608E-02  0.1002097E+00
          4   -1    0    0  502    0 -0.00000000000E+00  0.00000000000E+00  0.15853840305E+04  0.15853840305E+04  0.00000000000E+00 0.  1.
         21   -1    0    0  501  502  0.00000000000E+00 -0.00000000000E+00 -0.20530633487E+03  0.20530633487E+03  0.00000000000E+00 0.  1.
    9000010    2    1    2  501    0  0.39877011462E+02  0.10560930402E+03  0.87931472359E+03  0.12773609716E+04  0.91962664575E+03 0.  0.
        -13    1    3    3    0    0  0.13987645217E+03 -0.23837899837E+03 -0.50466441023E+02  0.28095701018E+03  0.10566000000E+00 0.  1.
          4    1    3    3  501    0 -0.99999440709E+02  0.34398830239E+03  0.92978116462E+03  0.99640396145E+03  0.00000000000E+00 0.  1.
         13    1    1    2    0    0 -0.39877011462E+02 -0.10560930402E+03  0.50076297199E+03  0.51332939369E+03  0.10566000000E+00 0. -1.
<mgrwt>
<rscale>  1 0.54740093E+03</rscale>
<asrwt>0</asrwt>
<pdfrwt beam="2">  1       21 0.31585591E-01 0.92652937E+03</pdfrwt>
<pdfrwt beam="1">  1        4 0.24390523E+00 0.92652937E+03</pdfrwt>
<totfact> 0.27350535E+01</totfact>
</mgrwt>
</event>
<event>
 6    1  0.1431486E-005  0.9765304E+03  0.7818608E-02  0.9937098E-01
          4   -1    0    0  502    0 -0.00000000000E+00  0.00000000000E+00  0.24162400740E+04  0.24162400740E+04  0.00000000000E+00 0.  1.
         21   -1    0    0  501  502  0.00000000000E+00 -0.00000000000E+00 -0.13695428886E+03  0.13695428886E+03  0.00000000000E+00 0.  1.
    9000010    2    1    2  501    0  0.50925836469E+02  0.11496282470E+03  0.17008498813E+04  0.19612501105E+04  0.96840166531E+03 0.  0.
        -13    1    3    3    0    0  0.42034377271E+03 -0.12270870136E+03  0.41835324984E+03  0.60561189343E+03  0.10566000000E+00 0.  1.
          4    1    3    3  501    0 -0.36941793624E+03  0.23767152605E+03  0.12824966314E+04  0.13556382170E+04  0.00000000000E+00 0.  1.
         13    1    1    2    0    0 -0.50925836469E+02 -0.11496282470E+03  0.57843590393E+03  0.59194425245E+03  0.10566000000E+00 0. -1.
<mgrwt>
<rscale>  1 0.58496581E+03</rscale>
<asrwt>0</asrwt>
<pdfrwt beam="2">  1       21 0.21069892E-01 0.97653043E+03</pdfrwt>
<pdfrwt beam="1">  1        4 0.37172921E+00 0.97653043E+03</pdfrwt>
<totfact> 0.95435171E+00</totfact>
</mgrwt>
</event>
<event>
 6    1  0.1431486E-005  0.1054495E+04  0.7818608E-02  0.9579569E-01
         21   -1    0    0  501  502  0.00000000000E+00  0.00000000000E+00  0.10484946889E+04  0.10484946889E+04  0.00000000000E+00 0.  1.
          4   -1    0    0  502    0 -0.00000000000E+00 -0.00000000000E+00 -0.55475853873E+03  0.55475853873E+03  0.00000000000E+00 0.  1.
    9000010    2    1    2  501    0 -0.13043759241E+03 -0.29937259021E+03  0.65260764721E+03  0.12401030149E+04  0.10026568871E+04 0.  0.
        -13    1    3    3    0    0 -0.12037584420E+03 -0.65843551812E+03  0.28927089481E+03  0.72918127865E+03  0.10566000000E+00 0.  1.
          4    1    3    3  501    0 -0.10061748201E+02  0.35906292791E+03  0.36333675240E+03  0.51092173629E+03  0.00000000000E+00 0.  1.
         13    1    1    2    0    0  0.13043759241E+03  0.29937259021E+03 -0.15887149700E+03  0.36315021273E+03  0.10566000000E+00 0. -1.
<mgrwt>
<rscale>  1 0.78663309E+03</rscale>
<asrwt>0</asrwt>
<pdfrwt beam="1">  1       21 0.16130687E+00 0.10544945E+04</pdfrwt>
<pdfrwt beam="2">  1        4 0.85347468E-01 0.10544945E+04</pdfrwt>
<totfact> 0.10352162E+01</totfact>
</mgrwt>
</event>
<event>
 6    1  0.1431486E-005  0.1026329E+04  0.7818608E-02  0.9671918E-01
         21   -1    0    0  501  502  0.00000000000E+00  0.00000000000E+00  0.48537008346E+03  0.48537008346E+03  0.00000000000E+00 0.  1.
          4   -1    0    0  502    0 -0.00000000000E+00 -0.00000000000E+00 -0.85058837207E+03  0.85058837207E+03  0.00000000000E+00 0.  1.
    9000010    2    1    2  501    0  0.12342632977E+03  0.22722809781E+03 -0.28340695451E+03  0.10647394059E+04  0.99321892519E+03 0.  0.
        -13    1    3    3    0    0  0.38506482286E+02  0.27770059152E+03  0.33594379762E+03  0.43755984051E+03  0.10566000000E+00 0.  1.
          4    1    3    3  501    0  0.84919847483E+02 -0.50472493711E+02 -0.61935075213E+03  0.62717956542E+03  0.00000000000E+00 0.  1.
         13    1    1    2    0    0 -0.12342632977E+03 -0.22722809781E+03 -0.81811334093E+02  0.27121904960E+03  0.10566000000E+00 0. -1.
<mgrwt>
<rscale>  1 0.72713669E+03</rscale>
<asrwt>0</asrwt>
<pdfrwt beam="1">  1       21 0.74672321E-01 0.10263287E+04</pdfrwt>
<pdfrwt beam="2">  1        4 0.13085975E+00 0.10263287E+04</pdfrwt>
<totfact> 0.26136362E+01</totfact>
</mgrwt>
</event>
<event>
 6    1  0.1431486E-005  0.1059195E+04  0.7818608E-02  0.9586239E-01
         21   -1    0    0  501  502  0.00000000000E+00  0.00000000000E+00  0.96270703534E+03  0.96270703534E+03  0.00000000000E+00 0.  1.
          4   -1    0    0  502    0 -0.00000000000E+00 -0.00000000000E+00 -0.51575306059E+03  0.51575306059E+03  0.00000000000E+00 0.  1.
    9000010    2    1    2  501    0 -0.16518307673E+03  0.26812455603E+03  0.47790775513E+03  0.11620199372E+04  0.10112953503E+04 0.  0.
        -13    1    3    3    0    0 -0.91388751239E+02 -0.40839349262E+02  0.74212368723E+03  0.74884399885E+03  0.10566000000E+00 0.  1.
          4    1    3    3  501    0 -0.73794325493E+02  0.30896390529E+03 -0.26421593210E+03  0.41317593834E+03  0.00000000000E+00 0.  1.
         13    1    1    2    0    0  0.16518307673E+03 -0.26812455603E+03 -0.30953780380E+02  0.31644015875E+03  0.10566000000E+00 0. -1.
<mgrwt>
<rscale>  1 0.78213724E+03</rscale>
<asrwt>0</asrwt>
<pdfrwt beam="1">  1       21 0.14810877E+00 0.10591952E+04</pdfrwt>
<pdfrwt beam="2">  1        4 0.79346625E-01 0.10591952E+04</pdfrwt>
<totfact> 0.15585978E+01</totfact>
</mgrwt>
</event>
<event>
 6    1  0.1431486E-005  0.1009253E+04  0.7818608E-02  0.9795881E-01
          4   -1    0    0  502    0 -0.00000000000E+00  0.00000000000E+00  0.89476834461E+03  0.89476834461E+03  0.00000000000E+00 0.  1.
         21   -1    0    0  501  502  0.00000000000E+00 -0.00000000000E+00 -0.52577215338E+03  0.52577215338E+03  0.00000000000E+00 0. -1.
    9000010    2    1    2  501    0 -0.30104458144E+02 -0.17743091510E+03 -0.82644002495E+00  0.10092537394E+04  0.99307825445E+03 0.  0.
        -13    1    3    3    0    0 -0.11762947007E+03 -0.10674635629E+03 -0.48595190604E+03  0.51125408845E+03  0.10566000000E+00 0.  1.
          4    1    3    3  501    0  0.87525011923E+02 -0.70684558811E+02  0.48512546602E+03  0.49799965095E+03  0.00000000000E+00 0.  1.
         13    1    1    2    0    0  0.30104458144E+02  0.17743091510E+03  0.36982263125E+03  0.41128675858E+03  0.10566000000E+00 0. -1.
<mgrwt>
<rscale>  1 0.65584047E+03</rscale>
<asrwt>0</asrwt>
<pdfrwt beam="2">  1       21 0.80888023E-01 0.10092534E+04</pdfrwt>
<pdfrwt beam="1">  1        4 0.13765667E+00 0.10092534E+04</pdfrwt>
<totfact> 0.19044198E+01</totfact>
</mgrwt>
</event>
<event>
 6    1  0.1431486E-005  0.1057206E+04  0.7818608E-02  0.9554444E-01
          4   -1    0    0  502    0 -0.00000000000E+00  0.00000000000E+00  0.20376377356E+04  0.20376377356E+04  0.00000000000E+00 0.  1.
         21   -1    0    0  501  502  0.00000000000E+00 -0.00000000000E+00 -0.27883485761E+03  0.27883485761E+03  0.00000000000E+00 0.  1.
    9000010    2    1    2  501    0  0.35086967385E+03 -0.42076562460E+02  0.90219381551E+03  0.13898340109E+04  0.99639597148E+03 0.  0.
        -13    1    3    3    0    0  0.55975500534E+03  0.31309063892E+03  0.60605752745E+03  0.88241552113E+03  0.10566000000E+00 0.  1.
          4    1    3    3  501    0 -0.20888533149E+03 -0.35516720139E+03  0.29613628806E+03  0.50741848977E+03  0.00000000000E+00 0.  1.
         13    1    1    2    0    0 -0.35086967385E+03  0.42076562460E+02  0.85660906245E+03  0.92663858228E+03  0.10566000000E+00 0. -1.
<mgrwt>
<rscale>  1 0.80386176E+03</rscale>
<asrwt>0</asrwt>
<pdfrwt beam="2">  1       21 0.42897672E-01 0.10572062E+04</pdfrwt>
<pdfrwt beam="1">  1        4 0.31348272E+00 0.10572062E+04</pdfrwt>
<totfact> 0.53088006E+00</totfact>
</mgrwt>
</event>
<event>
 6    1  0.1431486E-005  0.1267726E+04  0.7818608E-02  0.9192689E-01
          4   -1    0    0  502    0 -0.00000000000E+00  0.00000000000E+00  0.10176610614E+04  0.10176610614E+04  0.00000000000E+00 0.  1.
         21   -1    0    0  501  502  0.00000000000E+00 -0.00000000000E+00 -0.11254466531E+04  0.11254466531E+04  0.00000000000E+00 0. -1.
    9000010    2    1    2  501    0  0.73001293358E+03  0.18453556512E+03 -0.40907253668E+03  0.13320922446E+04  0.10198809489E+04 0.  0.
        -13    1    3    3    0    0  0.22254366308E+03 -0.29969687185E+03 -0.50087835774E+03  0.62467834714E+03  0.10566000000E+00 0.  1.
          4    1    3    3  501    0  0.50746927050E+03  0.48423243696E+03  0.91805821065E+02  0.70741389744E+03  0.00000000000E+00 0.  1.
         13    1    1    2    0    0 -0.73001293358E+03 -0.18453556512E+03  0.30128694495E+03  0.81101546985E+03  0.10566000000E+00 0. -1.
<mgrwt>
<rscale>  1 0.11129209E+04</rscale>
<asrwt>0</asrwt>
<pdfrwt beam="2">  1       21 0.17314564E+00 0.12677261E+04</pdfrwt>
<pdfrwt beam="1">  1        4 0.15656324E+00 0.12677261E+04</pdfrwt>
<totfact> 0.17882763E+00</totfact>
</mgrwt>
</event>
<event>
 6    1  0.1431486E-005  0.9899075E+03  0.7818608E-02  0.9905610E-01
          4   -1    0    0  502    0 -0.00000000000E+00  0.00000000000E+00  0.14816853550E+04  0.14816853550E+04  0.00000000000E+00 0.  1.
         21   -1    0    0  501  502  0.00000000000E+00 -0.00000000000E+00 -0.21304166890E+03  0.21304166890E+03  0.00000000000E+00 0.  1.
    9000010    2    1    2  501    0  0.12453351700E+03 -0.48147138859E+02  0.11292124483E+04  0.15016782604E+04  0.98086191723E+03 0.  0.
        -13    1    3    3    0    0 -0.23513916245E+03  0.34030699879E+03  0.27497610991E+03  0.49670026306E+03  0.10566000000E+00 0.  1.
          4    1    3    3  501    0  0.35967267945E+03 -0.38845413765E+03  0.85423633840E+03  0.10049779974E+04  0.00000000000E+00 0.  1.
         13    1    1    2    0    0 -0.12453351700E+03  0.48147138859E+02  0.13943123782E+03  0.19304876348E+03  0.10566000000E+00 0. -1.
<mgrwt>
<rscale>  1 0.59990164E+03</rscale>
<asrwt>0</asrwt>
<pdfrwt beam="2">  1       21 0.32775642E-01 0.98990749E+03</pdfrwt>
<pdfrwt beam="1">  1        4 0.22795159E+00 0.98990749E+03</pdfrwt>
<totfact> 0.31708188E+01</totfact>
</mgrwt>
</event>
<event>
 6    1  0.1431486E-005  0.1091654E+04  0.7818608E-02  0.9470822E-01
          4   -1    0    0  502    0 -0.00000000000E+00  0.00000000000E+00  0.14761413744E+04  0.14761413744E+04  0.00000000000E+00 0.  1.
         21   -1    0    0  501  502  0.00000000000E+00 -0.00000000000E+00 -0.41739994742E+03  0.41739994742E+03  0.00000000000E+00 0.  1.
    9000010    2    1    2  501    0 -0.19698621493E+03 -0.38192428859E+03  0.53391699443E+03  0.12152269203E+04  0.10035135175E+04 0.  0.
        -13    1    3    3    0    0 -0.38204018697E+02  0.14805405289E+03 -0.22745398394E+03  0.27407093169E+03  0.10566000000E+00 0.  1.
          4    1    3    3  501    0 -0.15878219624E+03 -0.52997834148E+03  0.76137097836E+03  0.94115598865E+03  0.00000000000E+00 0.  1.
         13    1    1    2    0    0  0.19698621493E+03  0.38192428859E+03  0.52482443257E+03  0.67831440149E+03  0.10566000000E+00 0. -1.
<mgrwt>
<rscale>  1 0.86469573E+03</rscale>
<asrwt>0</asrwt>
<pdfrwt beam="2">  1       21 0.64215377E-01 0.10916543E+04</pdfrwt>
<pdfrwt beam="1">  1        4 0.22709867E+00 0.10916543E+04</pdfrwt>
<totfact> 0.75277823E+00</totfact>
</mgrwt>
</event>
<event>
 6    1  0.1431486E-005  0.1111970E+04  0.7818608E-02  0.9442004E-01
         21   -1    0    0  501  502  0.00000000000E+00  0.00000000000E+00  0.12880248743E+04  0.12880248743E+04  0.00000000000E+00 0.  1.
          4   -1    0    0  502    0 -0.00000000000E+00 -0.00000000000E+00 -0.49252306196E+03  0.49252306196E+03  0.00000000000E+00 0.  1.
    9000010    2    1    2  501    0  0.11152066415E+03 -0.43613828945E+03  0.71832871931E+03  0.13238104148E+04  0.10167715571E+04 0.  0.
        -13    1    3    3    0    0  0.20204239607E+03  0.21728105022E+03 -0.60866791431E+02  0.30288110218E+03  0.10566000000E+00 0.  1.
          4    1    3    3  501    0 -0.90521731920E+02 -0.65341933967E+03  0.77919551074E+03  0.10209293126E+04  0.00000000000E+00 0.  1.
         13    1    1    2    0    0 -0.11152066415E+03  0.43613828945E+03  0.77173093028E+02  0.45673752146E+03  0.10566000000E+00 0. -1.
<mgrwt>
<rscale>  1 0.88698063E+03</rscale>
<asrwt>0</asrwt>
<pdfrwt beam="1">  1       21 0.19815767E+00 0.11119703E+04</pdfrwt>
<pdfrwt beam="2">  1        4 0.75772779E-01 0.11119703E+04</pdfrwt>
<totfact> 0.72812078E+00</totfact>
</mgrwt>
</event>
<event>
 6    1  0.1431486E-005  0.1034195E+04  0.7818608E-02  0.9646592E-01
         21   -1    0    0  501  502  0.00000000000E+00  0.00000000000E+00  0.44293663021E+03  0.44293663021E+03  0.00000000000E+00 0.  1.
          4   -1    0    0  502    0 -0.00000000000E+00 -0.00000000000E+00 -0.15501875750E+04  0.15501875750E+04  0.00000000000E+00 0.  1.
    9000010    2    1    2  501    0  0.23150010021E+03  0.14905255302E+03 -0.21095464560E+03  0.10554910002E+04  0.99687031711E+03 0.  0.
        -13    1    3    3    0    0 -0.14150780414E+03 -0.44928401662E+02 -0.51543007172E+03  0.53638716419E+03  0.10566000000E+00 0.  1.
          4    1    3    3  501    0  0.37300790436E+03  0.19398095468E+03  0.30447542612E+03  0.51910383605E+03  0.00000000000E+00 0.  1.
         13    1    1    2    0    0 -0.23150010021E+03 -0.14905255302E+03 -0.89629629921E+03  0.93763320499E+03  0.10566000000E+00 0. -1.
<mgrwt>
<rscale>  1 0.74287700E+03</rscale>
<asrwt>0</asrwt>
<pdfrwt beam="1">  1       21 0.68144097E-01 0.10341950E+04</pdfrwt>
<pdfrwt beam="2">  1        4 0.23849039E+00 0.10341950E+04</pdfrwt>
<totfact> 0.56163607E+00</totfact>
</mgrwt>
</event>
<event>
 6    1  0.1431486E-005  0.1045300E+04  0.7818608E-02  0.9615131E-01
         21   -1    0    0  501  502  0.00000000000E+00  0.00000000000E+00  0.44446359082E+03  0.44446359082E+03  0.00000000000E+00 0. -1.
          4   -1    0    0  502    0 -0.00000000000E+00 -0.00000000000E+00 -0.10283729052E+04  0.10283729052E+04  0.00000000000E+00 0.  1.
    9000010    2    1    2  501    0 -0.23043886709E+03 -0.18702356058E+03 -0.52705373366E+03  0.11706569932E+04  0.10022835297E+04 0.  0.
        -13    1    3    3    0    0 -0.34900904379E+03  0.24195215550E+03 -0.58387670572E+03  0.72198350178E+03  0.10566000000E+00 0.  1.
          4    1    3    3  501    0  0.11857017670E+03 -0.42897571607E+03  0.56822972056E+02  0.44867349146E+03  0.00000000000E+00 0.  1.
         13    1    1    2    0    0  0.23043886709E+03  0.18702356058E+03 -0.56855580704E+02  0.30217950278E+03  0.10566000000E+00 0. -1.
<mgrwt>
<rscale>  1 0.76302783E+03</rscale>
<asrwt>0</asrwt>
<pdfrwt beam="1">  1       21 0.68379015E-01 0.10453000E+04</pdfrwt>
<pdfrwt beam="2">  1        4 0.15821121E+00 0.10453000E+04</pdfrwt>
<totfact> 0.19308989E+01</totfact>
</mgrwt>
</event>
<event>
 6    1  0.1431486E-005  0.1063065E+04  0.7818608E-02  0.9591502E-01
         21   -1    0    0  501  502  0.00000000000E+00  0.00000000000E+00  0.17802203204E+03  0.17802203204E+03  0.00000000000E+00 0.  1.
          4   -1    0    0  502    0 -0.00000000000E+00 -0.00000000000E+00 -0.30136646680E+04  0.30136646680E+04  0.00000000000E+00 0.  1.
    9000010    2    1    2  501    0  0.29018538842E+03 -0.96843244952E+02 -0.16163637468E+04  0.19346158212E+04  0.10180964787E+04 0.  0.
        -13    1    3    3    0    0  0.39727702295E+03  0.34447776723E+03 -0.48433862399E+03  0.71489711073E+03  0.10566000000E+00 0.  1.
          4    1    3    3  501    0 -0.10709163453E+03 -0.44132101218E+03 -0.11320251228E+04  0.12197187105E+04  0.00000000000E+00 0.  1.
         13    1    1    2    0    0 -0.29018538842E+03  0.96843244952E+02 -0.12192788892E+04  0.12570708789E+04  0.10566000000E+00 0. -1.
<mgrwt>
<rscale>  1 0.77861228E+03</rscale>
<asrwt>0</asrwt>
<pdfrwt beam="1">  1       21 0.27388010E-01 0.10630647E+04</pdfrwt>
<pdfrwt beam="2">  1        4 0.46364063E+00 0.10630647E+04</pdfrwt>
<totfact> 0.12465133E+00</totfact>
</mgrwt>
</event>
<event>
 6    1  0.1431486E-005  0.1053161E+04  0.7818608E-02  0.9563970E-01
          4   -1    0    0  502    0 -0.00000000000E+00  0.00000000000E+00  0.78256184953E+03  0.78256184953E+03  0.00000000000E+00 0.  1.
         21   -1    0    0  501  502  0.00000000000E+00 -0.00000000000E+00 -0.62581102244E+03  0.62581102244E+03  0.00000000000E+00 0. -1.
    9000010    2    1    2  501    0  0.34499487729E+03 -0.24968496736E+02  0.13521740864E+03  0.10618060091E+04  0.99473783587E+03 0.  0.
        -13    1    3    3    0    0 -0.64110927574E+02  0.43375279317E+03  0.51332913844E+02  0.44145982357E+03  0.10566000000E+00 0.  1.
          4    1    3    3  501    0  0.40910580487E+03 -0.45872128991E+03  0.83884494795E+02  0.62034618550E+03  0.00000000000E+00 0.  1.
         13    1    1    2    0    0 -0.34499487729E+03  0.24968496736E+02  0.21533418445E+02  0.34656686290E+03  0.10566000000E+00 0. -1.
<mgrwt>
<rscale>  1 0.79727460E+03</rscale>
<asrwt>0</asrwt>
<pdfrwt beam="2">  1       21 0.96278619E-01 0.10531611E+04</pdfrwt>
<pdfrwt beam="1">  1        4 0.12039413E+00 0.10531611E+04</pdfrwt>
<totfact> 0.17586665E+01</totfact>
</mgrwt>
</event>
<event>
 6    1  0.1431486E-005  0.1108019E+04  0.7818608E-02  0.9432995E-01
          4   -1    0    0  502    0 -0.00000000000E+00  0.00000000000E+00  0.13599190999E+04  0.13599190999E+04  0.00000000000E+00 0.  1.
         21   -1    0    0  501  502  0.00000000000E+00 -0.00000000000E+00 -0.54444912169E+03  0.54444912169E+03  0.00000000000E+00 0. -1.
    9000010    2    1    2  501    0 -0.24456007199E+03 -0.40109777646E+03  0.89946173887E+03  0.14271432410E+04  0.10035025439E+04 0.  0.
        -13    1    3    3    0    0  0.28418639536E+02  0.30208859272E+03  0.80893768294E+02  0.31402062008E+03  0.10566000000E+00 0.  1.
          4    1    3    3  501    0 -0.27297871152E+03 -0.70318636918E+03  0.81856797058E+03  0.11131226209E+04  0.00000000000E+00 0.  1.
         13    1    1    2    0    0  0.24456007199E+03  0.40109777646E+03 -0.83991760644E+02  0.47722498060E+03  0.10566000000E+00 0. -1.
<mgrwt>
<rscale>  1 0.89409384E+03</rscale>
<asrwt>0</asrwt>
<pdfrwt beam="2">  1       21 0.83761404E-01 0.11080191E+04</pdfrwt>
<pdfrwt beam="1">  1        4 0.20921832E+00 0.11080191E+04</pdfrwt>
<totfact> 0.52858662E+00</totfact>
</mgrwt>
</event>
<event>
 6    1  0.1431486E-005  0.1028399E+04  0.7818608E-02  0.9835001E-01
         21   -1    0    0  501  502  0.00000000000E+00  0.00000000000E+00  0.29114325817E+03  0.29114325817E+03  0.00000000000E+00 0.  1.
          4   -1    0    0  502    0 -0.00000000000E+00 -0.00000000000E+00 -0.13972543866E+04  0.13972543866E+04  0.00000000000E+00 0.  1.
    9000010    2    1    2  501    0 -0.13575320519E+03 -0.62988365319E+02 -0.67018599578E+03  0.12274993921E+04  0.10174522209E+04 0.  0.
        -13    1    3    3    0    0 -0.21422701473E+03  0.60977697431E+02  0.22721774474E+03  0.31818140755E+03  0.10566000000E+00 0.  1.
          4    1    3    3  501    0  0.78473809534E+02 -0.12396606275E+03 -0.89740374052E+03  0.90931798453E+03  0.00000000000E+00 0.  1.
         13    1    1    2    0    0  0.13575320519E+03  0.62988365319E+02 -0.43592513264E+03  0.46089825267E+03  0.10566000000E+00 0. -1.
<mgrwt>
<rscale>  1 0.63517567E+03</rscale>
<asrwt>0</asrwt>
<pdfrwt beam="1">  1       21 0.44791270E-01 0.10283995E+04</pdfrwt>
<pdfrwt beam="2">  1        4 0.21496221E+00 0.10283995E+04</pdfrwt>
<totfact> 0.19942814E+01</totfact>
</mgrwt>
</event>
<event>
 6    1  0.1431486E-005  0.1065089E+04  0.7818608E-02  0.9541860E-01
         21   -1    0    0  501  502  0.00000000000E+00  0.00000000000E+00  0.59698600921E+03  0.59698600921E+03  0.00000000000E+00 0.  1.
          4   -1    0    0  502    0 -0.00000000000E+00 -0.00000000000E+00 -0.86553257925E+03  0.86553257925E+03  0.00000000000E+00 0.  1.
    9000010    2    1    2  501    0  0.32685945699E+03 -0.15321823692E+03 -0.11876818644E+03  0.10716906108E+04  0.10020488763E+04 0.  0.
        -13    1    3    3    0    0 -0.26033037768E+03 -0.27918859532E+03 -0.25086541408E+03  0.45678402385E+03  0.10566000000E+00 0.  1.
          4    1    3    3  501    0  0.58718983467E+03  0.12597035840E+03  0.13209722765E+03  0.61490658696E+03  0.00000000000E+00 0.  1.
         13    1    1    2    0    0 -0.32685945699E+03  0.15321823692E+03 -0.14977838361E+03  0.39082797764E+03  0.10566000000E+00 0. -1.
<mgrwt>
<rscale>  1 0.81266754E+03</rscale>
<asrwt>0</asrwt>
<pdfrwt beam="1">  1       21 0.91844002E-01 0.10650891E+04</pdfrwt>
<pdfrwt beam="2">  1        4 0.13315886E+00 0.10650891E+04</pdfrwt>
<totfact> 0.15234119E+01</totfact>
</mgrwt>
</event>
<event>
 6    1  0.1431486E-005  0.1222740E+04  0.7818608E-02  0.9584920E-01
          4   -1    0    0  502    0 -0.00000000000E+00  0.00000000000E+00  0.13837800499E+04  0.13837800499E+04  0.00000000000E+00 0.  1.
         21   -1    0    0  501  502  0.00000000000E+00 -0.00000000000E+00 -0.36987371430E+03  0.36987371430E+03  0.00000000000E+00 0.  1.
    9000010    2    1    2  501    0 -0.19868261030E+03 -0.53017526988E+02  0.83053175622E+03  0.14781326482E+04  0.12053246409E+04 0.  0.
        -13    1    3    3    0    0 -0.50564850971E+03 -0.15898060711E+03 -0.56950691498E+02  0.53310284302E+03  0.10566000000E+00 0.  1.
          4    1    3    3  501    0  0.30696589941E+03  0.10596308012E+03  0.88748244772E+03  0.94502980522E+03  0.00000000000E+00 0.  1.
         13    1    1    2    0    0  0.19868261030E+03  0.53017526988E+02  0.18337457935E+03  0.27552111593E+03  0.10566000000E+00 0. -1.
<mgrwt>
<rscale>  1 0.78302336E+03</rscale>
<asrwt>0</asrwt>
<pdfrwt beam="2">  1       21 0.56903649E-01 0.12227400E+04</pdfrwt>
<pdfrwt beam="1">  1        4 0.21288924E+00 0.12227400E+04</pdfrwt>
<totfact> 0.12004942E+01</totfact>
</mgrwt>
</event>
<event>
 6    1  0.1431486E-005  0.1035509E+04  0.7818608E-02  0.9738190E-01
         21   -1    0    0  501  502  0.00000000000E+00  0.00000000000E+00  0.31338435738E+03  0.31338435738E+03  0.00000000000E+00 0.  1.
          4   -1    0    0  502    0 -0.00000000000E+00 -0.00000000000E+00 -0.12655358674E+04  0.12655358674E+04  0.00000000000E+00 0.  1.
    9000010    2    1    2  501    0  0.80582186296E+02 -0.18484191316E+03 -0.89668038745E+03  0.13697861094E+04  0.10156860965E+04 0.  0.
        -13    1    3    3    0    0 -0.28213732717E+03 -0.19336439143E+03  0.59416646007E+02  0.34716222180E+03  0.10566000000E+00 0.  1.
          4    1    3    3  501    0  0.36271951347E+03  0.85224782708E+01 -0.95609703346E+03  0.10226238876E+04  0.00000000000E+00 0.  1.
         13    1    1    2    0    0 -0.80582186296E+02  0.18484191316E+03 -0.55471122554E+02  0.20913411537E+03  0.10566000000E+00 0. -1.
<mgrwt>
<rscale>  1 0.68787786E+03</rscale>
<asrwt>0</asrwt>
<pdfrwt beam="1">  1       21 0.48212979E-01 0.10355087E+04</pdfrwt>
<pdfrwt beam="2">  1        4 0.19469782E+00 0.10355087E+04</pdfrwt>
<totfact> 0.23122659E+01</totfact>
</mgrwt>
</event>
<event>
 6    1  0.1431486E-005  0.1290615E+04  0.7818608E-02  0.9334596E-01
         21   -1    0    0  501  502  0.00000000000E+00  0.00000000000E+00  0.78847197406E+03  0.78847197406E+03  0.00000000000E+00 0.  1.
          4   -1    0    0  502    0 -0.00000000000E+00 -0.00000000000E+00 -0.93843904100E+03  0.93843904100E+03  0.00000000000E+00 0.  1.
    9000010    2    1    2  501    0 -0.11731943824E+03  0.40653155076E+03 -0.47147277755E+02  0.12914759768E+04  0.12192848643E+04 0.  0.
        -13    1    3    3    0    0  0.91464560763E+02  0.53598147149E+02 -0.59655950123E+03  0.60590574920E+03  0.10566000000E+00 0.  1.
          4    1    3    3  501    0 -0.20878399901E+03  0.35293340362E+03  0.54941222347E+03  0.68557022757E+03  0.00000000000E+00 0.  1.
         13    1    1    2    0    0  0.11731943824E+03 -0.40653155076E+03 -0.10281978919E+03  0.43543503829E+03  0.10566000000E+00 0. -1.
<mgrwt>
<rscale>  1 0.97659347E+03</rscale>
<asrwt>0</asrwt>
<pdfrwt beam="1">  1       21 0.12130338E+00 0.12906151E+04</pdfrwt>
<pdfrwt beam="2">  1        4 0.14437524E+00 0.12906151E+04</pdfrwt>
<totfact> 0.59757835E+00</totfact>
</mgrwt>
</event>
<event>
 6    1  0.1431486E-005  0.9947529E+03  0.7818608E-02  0.9931812E-01
          4   -1    0    0  502    0 -0.00000000000E+00  0.00000000000E+00  0.63630466327E+03  0.63630466327E+03  0.00000000000E+00 0.  1.
         21   -1    0    0  501  502  0.00000000000E+00 -0.00000000000E+00 -0.52103919483E+03  0.52103919483E+03  0.00000000000E+00 0.  1.
    9000010    2    1    2  501    0  0.80866150666E+02 -0.89980622614E+02  0.66713500912E+01  0.99477528649E+03  0.98736898722E+03 0.  0.
        -13    1    3    3    0    0 -0.30255559576E+02  0.16167423464E+03  0.44659417102E+03  0.47592049944E+03  0.10566000000E+00 0.  1.
          4    1    3    3  501    0  0.11112171024E+03 -0.25165485726E+03 -0.43992282093E+03  0.51885478705E+03  0.00000000000E+00 0.  1.
         13    1    1    2    0    0 -0.80866150666E+02  0.89980622614E+02  0.10859411835E+03  0.16256857160E+03  0.10566000000E+00 0. -1.
<mgrwt>
<rscale>  1 0.58744023E+03</rscale>
<asrwt>0</asrwt>
<pdfrwt beam="2">  1       21 0.80159876E-01 0.99475292E+03</pdfrwt>
<pdfrwt beam="1">  1        4 0.97893025E-01 0.99475292E+03</pdfrwt>
<totfact> 0.45649482E+01</totfact>
</mgrwt>
</event>
<event>
 6    1  0.1431486E-005  0.1029908E+04  0.7818608E-02  0.9697583E-01
         21   -1    0    0  501  502  0.00000000000E+00  0.00000000000E+00  0.29187395989E+03  0.29187395989E+03  0.00000000000E+00 0.  1.
          4   -1    0    0  502    0 -0.00000000000E+00 -0.00000000000E+00 -0.13709139290E+04  0.13709139290E+04  0.00000000000E+00 0.  1.
    9000010    2    1    2  501    0 -0.12869668096E+03 -0.19630520316E+03 -0.86061473535E+03  0.13421507694E+04  0.10028022720E+04 0.  0.
        -13    1    3    3    0    0 -0.12565728726E+03 -0.54707809929E+03 -0.20314082103E+03  0.59695092335E+03  0.10566000000E+00 0.  1.
          4    1    3    3  501    0 -0.30393936966E+01  0.35077289613E+03 -0.65747391432E+03  0.74519984607E+03  0.00000000000E+00 0.  1.
         13    1    1    2    0    0  0.12869668096E+03  0.19630520316E+03 -0.21842523379E+03  0.32063711950E+03  0.10566000000E+00 0. -1.
<mgrwt>
<rscale>  1 0.71160902E+03</rscale>
<asrwt>0</asrwt>
<pdfrwt beam="1">  1       21 0.44903687E-01 0.10299082E+04</pdfrwt>
<pdfrwt beam="2">  1        4 0.21090983E+00 0.10299082E+04</pdfrwt>
<totfact> 0.21066447E+01</totfact>
</mgrwt>
</event>
<event>
 6    1  0.1431486E-005  0.1082343E+04  0.7818608E-02  0.9486321E-01
          4   -1    0    0  502    0 -0.00000000000E+00  0.00000000000E+00  0.27493502681E+03  0.27493502681E+03  0.00000000000E+00 0.  1.
         21   -1    0    0  501  502  0.00000000000E+00 -0.00000000000E+00 -0.21414810630E+04  0.21414810630E+04  0.00000000000E+00 0.  1.
    9000010    2    1    2  501    0  0.41087699342E+03  0.74295752845E+02 -0.15588130932E+04  0.18977260687E+04  0.99856207108E+03 0.  0.
        -13    1    3    3    0    0  0.12185677265E+03  0.13460461500E+03 -0.15904589403E+04  0.16007895325E+04  0.10566000000E+00 0.  1.
          4    1    3    3  501    0  0.28902022077E+03 -0.60308862152E+02  0.31645847167E+02  0.29693653617E+03  0.00000000000E+00 0.  1.
         13    1    1    2    0    0 -0.41087699342E+03 -0.74295752845E+02 -0.30773294305E+03  0.51869002113E+03  0.10566000000E+00 0. -1.
<mgrwt>
<rscale>  1 0.85299835E+03</rscale>
<asrwt>0</asrwt>
<pdfrwt beam="2">  1       21 0.32945863E+00 0.10823428E+04</pdfrwt>
<pdfrwt beam="1">  1        4 0.42297695E-01 0.10823428E+04</pdfrwt>
<totfact> 0.37210649E+00</totfact>
</mgrwt>
</event>
<event>
 6    1  0.1431486E-005  0.1017001E+04  0.7818608E-02  0.9533095E-01
          4   -1    0    0  502    0 -0.00000000000E+00  0.00000000000E+00  0.72713531641E+03  0.72713531641E+03  0.00000000000E+00 0.  1.
         21   -1    0    0  501  502  0.00000000000E+00 -0.00000000000E+00 -0.75962061719E+03  0.75962061719E+03  0.00000000000E+00 0.  1.
    9000010    2    1    2  501    0  0.37626888106E+02  0.42580569285E+03 -0.18345389708E+03  0.10334152240E+04  0.92280302450E+03 0.  0.
        -13    1    3    3    0    0  0.12518325039E+03 -0.29688777767E+02  0.32238608677E+03  0.34710959337E+03  0.10566000000E+00 0.  1.
          4    1    3    3  501    0 -0.87556362283E+02  0.45549447062E+03 -0.50583998385E+03  0.68630563061E+03  0.00000000000E+00 0.  1.
         13    1    1    2    0    0 -0.37626888106E+02 -0.42580569285E+03  0.15096859630E+03  0.45334070963E+03  0.10566000000E+00 0. -1.
<mgrwt>
<rscale>  1 0.81887246E+03</rscale>
<asrwt>0</asrwt>
<pdfrwt beam="2">  1       21 0.11686471E+00 0.10170013E+04</pdfrwt>
<pdfrwt beam="1">  1        4 0.11186697E+00 0.10170013E+04</pdfrwt>
<totfact> 0.13019743E+01</totfact>
</mgrwt>
</event>
<event>
 6    1  0.1431486E-005  0.1026725E+04  0.7818608E-02  0.9714358E-01
          4   -1    0    0  502    0 -0.00000000000E+00  0.00000000000E+00  0.15943398538E+04  0.15943398538E+04  0.00000000000E+00 0.  1.
         21   -1    0    0  501  502  0.00000000000E+00 -0.00000000000E+00 -0.26335293748E+03  0.26335293748E+03  0.00000000000E+00 0.  1.
    9000010    2    1    2  501    0 -0.96919744212E+02 -0.20192119913E+03  0.87231134503E+03  0.13472528846E+04  0.10019968288E+04 0.  0.
        -13    1    3    3    0    0 -0.54035620371E+03 -0.41486526401E+02  0.57313080732E+03  0.78878697519E+03  0.10566000000E+00 0.  1.
          4    1    3    3  501    0  0.44343645950E+03 -0.16043467273E+03  0.29918053771E+03  0.55846590941E+03  0.00000000000E+00 0.  1.
         13    1    1    2    0    0  0.96919744212E+02  0.20192119913E+03  0.45867557125E+03  0.51043990665E+03  0.10566000000E+00 0. -1.
<mgrwt>
<rscale>  1 0.70168343E+03</rscale>
<asrwt>0</asrwt>
<pdfrwt beam="2">  1       21 0.40515838E-01 0.10267245E+04</pdfrwt>
<pdfrwt beam="1">  1        4 0.24528305E+00 0.10267245E+04</pdfrwt>
<totfact> 0.15874836E+01</totfact>
</mgrwt>
</event>
<event>
 6    1  0.1431486E-005  0.1056659E+04  0.7818608E-02  0.9789362E-01
          4   -1    0    0  502    0 -0.00000000000E+00  0.00000000000E+00  0.29574683313E+03  0.29574683313E+03  0.00000000000E+00 0.  1.
         21   -1    0    0  501  502  0.00000000000E+00 -0.00000000000E+00 -0.13029896999E+04  0.13029896999E+04  0.00000000000E+00 0.  1.
    9000010    2    1    2  501    0  0.13483311599E+03  0.86537029768E+02 -0.96972486945E+03  0.14341879446E+04  0.10444424882E+04 0.  0.
        -13    1    3    3    0    0  0.48679379641E+01 -0.37734025883E+03 -0.30473769710E+02  0.37860009187E+03  0.10566000000E+00 0.  1.
          4    1    3    3  501    0  0.12996517802E+03  0.46387728860E+03 -0.93925109974E+03  0.10555878527E+04  0.00000000000E+00 0.  1.
         13    1    1    2    0    0 -0.13483311599E+03 -0.86537029768E+02 -0.37517997327E+02  0.16454858849E+03  0.10566000000E+00 0. -1.
<mgrwt>
<rscale>  1 0.65936603E+03</rscale>
<asrwt>0</asrwt>
<pdfrwt beam="2">  1       21 0.20045995E+00 0.10566592E+04</pdfrwt>
<pdfrwt beam="1">  1        4 0.45499513E-01 0.10566592E+04</pdfrwt>
<totfact> 0.21419255E+01</totfact>
</mgrwt>
</event>
<event>
 6    1  0.1431486E-005  0.1083368E+04  0.7818608E-02  0.9517218E-01
         21   -1    0    0  501  502  0.00000000000E+00  0.00000000000E+00  0.69633222421E+03  0.69633222421E+03  0.00000000000E+00 0.  1.
          4   -1    0    0  502    0 -0.00000000000E+00 -0.00000000000E+00 -0.81809583618E+03  0.81809583618E+03  0.00000000000E+00 0.  1.
    9000010    2    1    2  501    0 -0.12709682512E+03  0.35143201095E+03  0.86129246305E+02  0.10867862559E+04  0.10168717017E+04 0.  0.
        -13    1    3    3    0    0 -0.28990584541E+02 -0.34512567118E+03  0.15607697593E+03  0.37988447780E+03  0.10566000000E+00 0.  1.
          4    1    3    3  501    0 -0.98106240577E+02  0.69655768213E+03 -0.69947729621E+02  0.70690177808E+03  0.00000000000E+00 0.  1.
         13    1    1    2    0    0  0.12709682512E+03 -0.35143201095E+03 -0.20789285828E+03  0.42764180451E+03  0.10566000000E+00 0. -1.
<mgrwt>
<rscale>  1 0.83026216E+03</rscale>
<asrwt>0</asrwt>
<pdfrwt beam="1">  1       21 0.10712803E+00 0.10833680E+04</pdfrwt>
<pdfrwt beam="2">  1        4 0.12586090E+00 0.10833680E+04</pdfrwt>
<totfact> 0.12001675E+01</totfact>
</mgrwt>
</event>
<event>
 6    1  0.1431486E-005  0.1043180E+04  0.7818608E-02  0.9572172E-01
         21   -1    0    0  501  502  0.00000000000E+00  0.00000000000E+00  0.13906646226E+04  0.13906646226E+04  0.00000000000E+00 0.  1.
          4   -1    0    0  502    0 -0.00000000000E+00 -0.00000000000E+00 -0.35027185960E+03  0.35027185960E+03  0.00000000000E+00 0.  1.
    9000010    2    1    2  501    0  0.14738204245E+03 -0.31303642943E+03  0.70502565542E+03  0.12590813374E+04  0.98412975098E+03 0.  0.
        -13    1    3    3    0    0  0.29122010087E+02 -0.16111973083E+03  0.94065775870E+03  0.95480086369E+03  0.10566000000E+00 0.  1.
          4    1    3    3  501    0  0.11826003236E+03 -0.15191669860E+03 -0.23563210329E+03  0.30428047369E+03  0.00000000000E+00 0.  1.
         13    1    1    2    0    0 -0.14738204245E+03  0.31303642943E+03  0.33536710763E+03  0.48185514486E+03  0.10566000000E+00 0. -1.
<mgrwt>
<rscale>  1 0.79165745E+03</rscale>
<asrwt>0</asrwt>
<pdfrwt beam="1">  1       21 0.21394840E+00 0.10431801E+04</pdfrwt>
<pdfrwt beam="2">  1        4 0.53887979E-01 0.10431801E+04</pdfrwt>
<totfact> 0.12162391E+01</totfact>
</mgrwt>
</event>
<event>
 6    1  0.1431486E-005  0.1008292E+04  0.7818608E-02  0.9885111E-01
         21   -1    0    0  501  502  0.00000000000E+00  0.00000000000E+00  0.20854975241E+04  0.20854975241E+04  0.00000000000E+00 0.  1.
          4   -1    0    0  502    0 -0.00000000000E+00 -0.00000000000E+00 -0.16630197758E+03  0.16630197758E+03  0.00000000000E+00 0.  1.
    9000010    2    1    2  501    0  0.41271717983E+02 -0.12850181703E+03  0.18319204502E+04  0.20910729473E+04  0.99921842624E+03 0.  0.
        -13    1    3    3    0    0 -0.18093576136E+03 -0.51875932346E+03  0.11509050227E+04  0.12753161835E+04  0.10566000000E+00 0.  1.
          4    1    3    3  501    0  0.22220747934E+03  0.39025750643E+03  0.68101542744E+03  0.81575676376E+03  0.00000000000E+00 0.  1.
         13    1    1    2    0    0 -0.41271717983E+02  0.12850181703E+03  0.87275096324E+02  0.16072655439E+03  0.10566000000E+00 0. -1.
<mgrwt>
<rscale>  1 0.60988330E+03</rscale>
<asrwt>0</asrwt>
<pdfrwt beam="1">  1       21 0.32084576E+00 0.10082924E+04</pdfrwt>
<pdfrwt beam="2">  1        4 0.25584921E-01 0.10082924E+04</pdfrwt>
<totfact> 0.11574520E+01</totfact>
</mgrwt>
</event>
<event>
 6    1  0.1431486E-005  0.9304145E+03  0.7818608E-02  0.9921938E-01
         21   -1    0    0  501  502  0.00000000000E+00  0.00000000000E+00  0.11711904920E+04  0.11711904920E+04  0.00000000000E+00 0.  1.
          4   -1    0    0  502    0 -0.00000000000E+00 -0.00000000000E+00 -0.27321666604E+03  0.27321666604E+03  0.00000000000E+00 0.  1.
    9000010    2    1    2  501    0 -0.12071084148E+03  0.93351804587E+02  0.89614472587E+03  0.12917997419E+04  0.91781563341E+03 0.  0.
        -13    1    3    3    0    0  0.85453566823E+02 -0.32938524868E+03  0.79583962144E+02  0.34947184769E+03  0.10566000000E+00 0.  1.
          4    1    3    3  501    0 -0.20616440830E+03  0.42273705327E+03  0.81656076372E+03  0.94232789426E+03  0.00000000000E+00 0.  1.
         13    1    1    2    0    0  0.12071084148E+03 -0.93351804587E+02  0.18291000860E+01  0.15260741608E+03  0.10566000000E+00 0. -1.
<mgrwt>
<rscale>  1 0.59209784E+03</rscale>
<asrwt>0</asrwt>
<pdfrwt beam="1">  1       21 0.18018315E+00 0.93041453E+03</pdfrwt>
<pdfrwt beam="2">  1        4 0.42033334E-01 0.93041453E+03</pdfrwt>
<totfact> 0.35584806E+01</totfact>
</mgrwt>
</event>
<event>
 6    1  0.1431486E-005  0.1148230E+04  0.7818608E-02  0.9328534E-01
          4   -1    0    0  502    0 -0.00000000000E+00  0.00000000000E+00  0.79648527660E+03  0.79648527660E+03  0.00000000000E+00 0.  1.
         21   -1    0    0  501  502  0.00000000000E+00 -0.00000000000E+00 -0.11719738479E+04  0.11719738479E+04  0.00000000000E+00 0.  1.
    9000010    2    1    2  501    0  0.18776629687E+03 -0.58481196486E+03 -0.62287549003E+03  0.13062948585E+04  0.97013976563E+03 0.  0.
        -13    1    3    3    0    0 -0.28827220915E+02 -0.49577511085E+03 -0.84718964914E+03  0.98201541840E+03  0.10566000000E+00 0.  1.
          4    1    3    3  501    0  0.21659351779E+03 -0.89036854016E+02  0.22431415910E+03  0.32427944014E+03  0.00000000000E+00 0.  1.
         13    1    1    2    0    0 -0.18776629687E+03  0.58481196486E+03  0.24738691868E+03  0.66216426601E+03  0.10566000000E+00 0. -1.
<mgrwt>
<rscale>  1 0.98197848E+03</rscale>
<asrwt>0</asrwt>
<pdfrwt beam="2">  1       21 0.18030367E+00 0.11482301E+04</pdfrwt>
<pdfrwt beam="1">  1        4 0.12253620E+00 0.11482301E+04</pdfrwt>
<totfact> 0.30645289E+00</totfact>
</mgrwt>
</event>
<event>
 6    1  0.1431486E-005  0.1024841E+04  0.7818608E-02  0.9682152E-01
         21   -1    0    0  501  502  0.00000000000E+00  0.00000000000E+00  0.56187005530E+03  0.56187005530E+03  0.00000000000E+00 0.  1.
          4   -1    0    0  502    0 -0.00000000000E+00 -0.00000000000E+00 -0.82800485300E+03  0.82800485300E+03  0.00000000000E+00 0.  1.
    9000010    2    1    2  501    0 -0.24791938220E+03 -0.38621398637E+02 -0.10051330890E+01  0.10248415088E+04  0.99365158654E+03 0.  0.
        -13    1    3    3    0    0 -0.36919262948E+03  0.36813038055E+03  0.19588754957E+03  0.55695162984E+03  0.10566000000E+00 0.  1.
          4    1    3    3  501    0  0.12127324728E+03 -0.40675177918E+03 -0.19689268266E+03  0.46788987899E+03  0.00000000000E+00 0.  1.
         13    1    1    2    0    0  0.24791938220E+03  0.38621398637E+02 -0.26512966462E+03  0.36503339947E+03  0.10566000000E+00 0. -1.
<mgrwt>
<rscale>  1 0.72089449E+03</rscale>
<asrwt>0</asrwt>
<pdfrwt beam="1">  1       21 0.86441548E-01 0.10248410E+04</pdfrwt>
<pdfrwt beam="2">  1        4 0.12738536E+00 0.10248410E+04</pdfrwt>
<totfact> 0.19837729E+01</totfact>
</mgrwt>
</event>
<event>
 6    1  0.1431486E-005  0.1121364E+04  0.7818608E-02  0.1001792E+00
          4   -1    0    0  502    0 -0.00000000000E+00  0.00000000000E+00  0.53281723704E+03  0.53281723704E+03  0.00000000000E+00 0.  1.
         21   -1    0    0  501  502  0.00000000000E+00 -0.00000000000E+00 -0.76763923433E+03  0.76763923433E+03  0.00000000000E+00 0.  1.
    9000010    2    1    2  501    0 -0.56828470770E+02 -0.30063564548E+02 -0.34470400926E+03  0.11731483384E+04  0.11195190382E+04 0.  0.
        -13    1    3    3    0    0  0.48279761258E+03  0.21523377550E+03 -0.16216595693E+03  0.55291674019E+03  0.10566000000E+00 0.  1.
          4    1    3    3  501    0 -0.53962608335E+03 -0.24529734005E+03 -0.18253805233E+03  0.62023159820E+03  0.00000000000E+00 0.  1.
         13    1    1    2    0    0  0.56828470770E+02  0.30063564548E+02  0.10988201197E+03  0.12730813298E+03  0.10566000000E+00 0. -1.
<mgrwt>
<rscale>  1 0.54871520E+03</rscale>
<asrwt>0</asrwt>
<pdfrwt beam="2">  1       21 0.11809834E+00 0.11213635E+04</pdfrwt>
<pdfrwt beam="1">  1        4 0.81971882E-01 0.11213635E+04</pdfrwt>
<totfact> 0.26383993E+01</totfact>
</mgrwt>
</event>
<event>
 6    1  0.1431486E-005  0.1010764E+04  0.7818608E-02  0.9847243E-01
          4   -1    0    0  502    0 -0.00000000000E+00  0.00000000000E+00  0.12028802370E+04  0.12028802370E+04  0.00000000000E+00 0.  1.
         21   -1    0    0  501  502  0.00000000000E+00 -0.00000000000E+00 -0.52020021681E+03  0.52020021681E+03  0.00000000000E+00 0.  1.
    9000010    2    1    2  501    0  0.61045703831E+02  0.13861874896E+03 -0.13257345053E+02  0.10108511628E+04  0.99935107971E+03 0.  0.
        -13    1    3    3    0    0  0.45933238873E+03 -0.16352962932E+03 -0.11435688776E+03  0.50080504385E+03  0.10566000000E+00 0.  1.
          4    1    3    3  501    0 -0.39828668490E+03  0.30214837828E+03  0.10109954271E+03  0.51004611890E+03  0.00000000000E+00 0.  1.
         13    1    1    2    0    0 -0.61045703831E+02 -0.13861874896E+03  0.69593736524E+03  0.71222929104E+03  0.10566000000E+00 0. -1.
<mgrwt>
<rscale>  1 0.62887699E+03</rscale>
<asrwt>0</asrwt>
<pdfrwt beam="2">  1       21 0.80030803E-01 0.10107642E+04</pdfrwt>
<pdfrwt beam="1">  1        4 0.18505850E+00 0.10107642E+04</pdfrwt>
<totfact> 0.86344941E+00</totfact>
</mgrwt>
</event>
<event>
 6    1  0.1431486E-005  0.1065124E+04  0.7818608E-02  0.9475288E-01
         21   -1    0    0  501  502  0.00000000000E+00  0.00000000000E+00  0.15110403030E+04  0.15110403030E+04  0.00000000000E+00 0.  1.
          4   -1    0    0  502    0 -0.00000000000E+00 -0.00000000000E+00 -0.74798976468E+03  0.74798976468E+03  0.00000000000E+00 0.  1.
    9000010    2    1    2  501    0 -0.36024817265E+03  0.27864506465E+03  0.12161231458E+04  0.16166153911E+04  0.96284370427E+03 0.  0.
        -13    1    3    3    0    0 -0.27588395152E+03  0.21822154859E+03 -0.41968589383E+02  0.35425128459E+03  0.10566000000E+00 0.  1.
          4    1    3    3  501    0 -0.84364221137E+02  0.60423516064E+02  0.12580917352E+04  0.12623641065E+04  0.00000000000E+00 0.  1.
         13    1    1    2    0    0  0.36024817265E+03 -0.27864506465E+03 -0.45307260748E+03  0.64241467664E+03  0.10566000000E+00 0. -1.
<mgrwt>
<rscale>  1 0.86130513E+03</rscale>
<asrwt>0</asrwt>
<pdfrwt beam="1">  1       21 0.23246774E+00 0.10651243E+04</pdfrwt>
<pdfrwt beam="2">  1        4 0.11507535E+00 0.10651243E+04</pdfrwt>
<totfact> 0.15985189E+00</totfact>
</mgrwt>
</event>
<event>
 6    1  0.1431486E-005  0.9926086E+03  0.7818608E-02  0.1014934E+00
         21   -1    0    0  501  502  0.00000000000E+00  0.00000000000E+00  0.76259945570E+03  0.76259945570E+03  0.00000000000E+00 0.  1.
          4   -1    0    0  502    0 -0.00000000000E+00 -0.00000000000E+00 -0.47470267144E+03  0.47470267144E+03  0.00000000000E+00 0.  1.
    9000010    2    1    2  501    0  0.23508832319E+02  0.57031577972E+02  0.43048853230E+03  0.10819390561E+04  0.99068990029E+03 0.  0.
        -13    1    3    3    0    0  0.34061575616E+03  0.44236108151E+02 -0.18449839209E+03  0.38989177275E+03  0.10566000000E+00 0.  1.
          4    1    3    3  501    0 -0.31710692384E+03  0.12795469821E+02  0.61498692438E+03  0.69204728332E+03  0.00000000000E+00 0.  1.
         13    1    1    2    0    0 -0.23508832319E+02 -0.57031577972E+02 -0.14259174804E+03  0.15536307108E+03  0.10566000000E+00 0. -1.
<mgrwt>
<rscale>  1 0.49560057E+03</rscale>
<asrwt>0</asrwt>
<pdfrwt beam="1">  1       21 0.11732299E+00 0.99260856E+03</pdfrwt>
<pdfrwt beam="2">  1        4 0.73031180E-01 0.99260856E+03</pdfrwt>
<totfact> 0.35343867E+01</totfact>
</mgrwt>
</event>
<event>
 6    1  0.1431486E-005  0.9789698E+03  0.7818608E-02  0.1010355E+00
          4   -1    0    0  502    0 -0.00000000000E+00  0.00000000000E+00  0.57513601645E+03  0.57513601645E+03  0.00000000000E+00 0.  1.
         21   -1    0    0  501  502  0.00000000000E+00 -0.00000000000E+00 -0.77068668951E+03  0.77068668951E+03  0.00000000000E+00 0.  1.
    9000010    2    1    2  501    0  0.51994404750E+02 -0.52672356196E+02 -0.45245480320E+03  0.10784698708E+04  0.97616807876E+03 0.  0.
        -13    1    3    3    0    0  0.31176870575E+03 -0.41825455734E+03 -0.17095255237E+03  0.54896392135E+03  0.10566000000E+00 0.  1.
          4    1    3    3  501    0 -0.25977430100E+03  0.36558220114E+03 -0.28150225083E+03  0.52950594942E+03  0.00000000000E+00 0.  1.
         13    1    1    2    0    0 -0.51994404750E+02  0.52672356196E+02  0.25690413014E+03  0.26735283518E+03  0.10566000000E+00 0. -1.
<mgrwt>
<rscale>  1 0.51333729E+03</rscale>
<asrwt>0</asrwt>
<pdfrwt beam="2">  1       21 0.11856718E+00 0.97896982E+03</pdfrwt>
<pdfrwt beam="1">  1        4 0.88482464E-01 0.97896982E+03</pdfrwt>
<totfact> 0.22154745E+01</totfact>
</mgrwt>
</event>
<event>
 6    1  0.1431486E-005  0.1014083E+04  0.7818608E-02  0.9801579E-01
         21   -1    0    0  501  502  0.00000000000E+00  0.00000000000E+00  0.17863424075E+04  0.17863424075E+04  0.00000000000E+00 0.  1.
          4   -1    0    0  502    0 -0.00000000000E+00 -0.00000000000E+00 -0.31791664711E+03  0.31791664711E+03  0.00000000000E+00 0.  1.
    9000010    2    1    2  501    0 -0.15411331265E+03 -0.81032602268E+02  0.15942447547E+04  0.18894390688E+04  0.99902275301E+03 0.  0.
        -13    1    3    3    0    0 -0.48952859545E+03  0.15115780307E+03  0.47685892433E+03  0.69991526063E+03  0.10566000000E+00 0.  1.
          4    1    3    3  501    0  0.33541528279E+03 -0.23219040534E+03  0.11173858304E+04  0.11895238082E+04  0.00000000000E+00 0.  1.
         13    1    1    2    0    0  0.15411331265E+03  0.81032602268E+02 -0.12581899438E+03  0.21481998575E+03  0.10566000000E+00 0. -1.
<mgrwt>
<rscale>  1 0.65277899E+03</rscale>
<asrwt>0</asrwt>
<pdfrwt beam="1">  1       21 0.27482190E+00 0.10140827E+04</pdfrwt>
<pdfrwt beam="2">  1        4 0.48910254E-01 0.10140827E+04</pdfrwt>
<totfact> 0.60994894E+00</totfact>
</mgrwt>
</event>
<event>
 6    1  0.1431486E-005  0.9017492E+03  0.7818608E-02  0.1012131E+00
          4   -1    0    0  502    0 -0.00000000000E+00  0.00000000000E+00  0.27431286534E+03  0.27431286534E+03  0.00000000000E+00 0.  1.
         21   -1    0    0  501  502  0.00000000000E+00 -0.00000000000E+00 -0.93446275368E+03  0.93446275368E+03  0.00000000000E+00 0.  1.
    9000010    2    1    2  501    0 -0.89335114927E+02 -0.76069527735E+01 -0.66271379061E+03  0.11190805063E+04  0.89728088289E+03 0.  0.
        -13    1    3    3    0    0  0.23330952381E+03 -0.35242914061E+03 -0.38206527670E+03  0.56974864622E+03  0.10566000000E+00 0.  1.
          4    1    3    3  501    0 -0.32264463873E+03  0.34482218783E+03 -0.28064851391E+03  0.54933186007E+03  0.00000000000E+00 0.  1.
         13    1    1    2    0    0  0.89335114927E+02  0.76069527735E+01  0.25639022717E+01  0.89695112734E+02  0.10566000000E+00 0. -1.
<mgrwt>
<rscale>  1 0.50636321E+03</rscale>
<asrwt>0</asrwt>
<pdfrwt beam="2">  1       21 0.14376350E+00 0.90174920E+03</pdfrwt>
<pdfrwt beam="1">  1        4 0.42201980E-01 0.90174920E+03</pdfrwt>
<totfact> 0.67541112E+01</totfact>
</mgrwt>
</event>
<event>
 6    1  0.1431486E-005  0.1022615E+04  0.7818608E-02  0.9754240E-01
          4   -1    0    0  502    0 -0.00000000000E+00  0.00000000000E+00  0.35387547511E+03  0.35387547511E+03  0.00000000000E+00 0.  1.
         21   -1    0    0  501  502  0.00000000000E+00 -0.00000000000E+00 -0.10535378610E+04  0.10535378610E+04  0.00000000000E+00 0.  1.
    9000010    2    1    2  501    0  0.16825911851E+03  0.10531351278E+03 -0.59136316606E+03  0.11812921316E+04  0.10031643131E+04 0.  0.
        -13    1    3    3    0    0 -0.56835906481E+02  0.69285235095E+02  0.27302186019E+03  0.28735293869E+03  0.10566000000E+00 0.  1.
          4    1    3    3  501    0  0.22509502499E+03  0.36028277687E+02 -0.86438502625E+03  0.89393919294E+03  0.00000000000E+00 0.  1.
         13    1    1    2    0    0 -0.16825911851E+03 -0.10531351278E+03 -0.10829921983E+03  0.22612120448E+03  0.10566000000E+00 0. -1.
<mgrwt>
<rscale>  1 0.67877196E+03</rscale>
<asrwt>0</asrwt>
<pdfrwt beam="2">  1       21 0.16208275E+00 0.10226146E+04</pdfrwt>
<pdfrwt beam="1">  1        4 0.54442381E-01 0.10226146E+04</pdfrwt>
<totfact> 0.27946683E+01</totfact>
</mgrwt>
</event>
<event>
 6    1  0.1431486E-005  0.1052369E+04  0.7818608E-02  0.9643660E-01
          4   -1    0    0  502    0 -0.00000000000E+00  0.00000000000E+00  0.14676653267E+04  0.14676653267E+04  0.00000000000E+00 0.  1.
         21   -1    0    0  501  502  0.00000000000E+00 -0.00000000000E+00 -0.30007986592E+03  0.30007986592E+03  0.00000000000E+00 0.  1.
    9000010    2    1    2  501    0  0.10620022160E+03  0.24161660653E+03  0.10189943629E+04  0.14648650230E+04  0.10187359581E+04 0.  0.
        -13    1    3    3    0    0 -0.40659447241E+03  0.25548760164E+02  0.15234326708E+03  0.43494860194E+03  0.10566000000E+00 0.  1.
          4    1    3    3  501    0  0.51279469401E+03  0.21606784637E+03  0.86665109586E+03  0.10299164211E+04  0.00000000000E+00 0.  1.
         13    1    1    2    0    0 -0.10620022160E+03 -0.24161660653E+03  0.14859109782E+03  0.30288016960E+03  0.10566000000E+00 0. -1.
<mgrwt>
<rscale>  1 0.74472628E+03</rscale>
<asrwt>0</asrwt>
<pdfrwt beam="2">  1       21 0.46166134E-01 0.10523688E+04</pdfrwt>
<pdfrwt beam="1">  1        4 0.22579466E+00 0.10523688E+04</pdfrwt>
<totfact> 0.15905579E+01</totfact>
</mgrwt>
</event>
<event>
 6    1  0.1431486E-005  0.1072940E+04  0.7818608E-02  0.9505745E-01
         21   -1    0    0  501  502  0.00000000000E+00  0.00000000000E+00  0.18227555841E+04  0.18227555841E+04  0.00000000000E+00 0.  1.
          4   -1    0    0  502    0 -0.00000000000E+00 -0.00000000000E+00 -0.79162743002E+03  0.79162743002E+03  0.00000000000E+00 0.  1.
    9000010    2    1    2  501    0  0.69283264913E+02  0.39438995530E+03  0.15953022772E+04  0.19225477302E+04  0.99541790804E+03 0.  0.
        -13    1    3    3    0    0 -0.21728010505E+03  0.62303552024E+03  0.73692759164E+03  0.98916438979E+03  0.10566000000E+00 0.  1.
          4    1    3    3  501    0  0.28656336996E+03 -0.22864556494E+03  0.85837468554E+03  0.93338334041E+03  0.00000000000E+00 0.  1.
         13    1    1    2    0    0 -0.69283264913E+02 -0.39438995530E+03 -0.56417412314E+03  0.69183528388E+03  0.10566000000E+00 0. -1.
<mgrwt>
<rscale>  1 0.83861584E+03</rscale>
<asrwt>0</asrwt>
<pdfrwt beam="1">  1       21 0.28042393E+00 0.10729401E+04</pdfrwt>
<pdfrwt beam="2">  1        4 0.12178884E+00 0.10729401E+04</pdfrwt>
<totfact> 0.68691398E-01</totfact>
</mgrwt>
</event>
<event>
 6    1  0.1431486E-005  0.1131946E+04  0.7818608E-02  0.9395214E-01
          4   -1    0    0  502    0 -0.00000000000E+00  0.00000000000E+00  0.27471250383E+03  0.27471250383E+03  0.00000000000E+00 0.  1.
         21   -1    0    0  501  502  0.00000000000E+00 -0.00000000000E+00 -0.29018973172E+04  0.29018973172E+04  0.00000000000E+00 0. -1.
    9000010    2    1    2  501    0 -0.50326340544E+03 -0.29435442922E+02 -0.23325518591E+04  0.25927013612E+04  0.10134898482E+04 0.  0.
        -13    1    3    3    0    0 -0.76276393476E+03  0.18083762639E+03 -0.18108529058E+04  0.19732458856E+04  0.10566000000E+00 0.  1.
          4    1    3    3  501    0  0.25950052932E+03 -0.21027306931E+03 -0.52169895330E+03  0.61945547562E+03  0.00000000000E+00 0.  1.
         13    1    1    2    0    0  0.50326340544E+03  0.29435442922E+02 -0.29463295420E+03  0.58390845980E+03  0.10566000000E+00 0. -1.
<mgrwt>
<rscale>  1 0.92470578E+03</rscale>
<asrwt>0</asrwt>
<pdfrwt beam="2">  1       21 0.44644577E+00 0.11319462E+04</pdfrwt>
<pdfrwt beam="1">  1        4 0.42263459E-01 0.11319462E+04</pdfrwt>
<totfact> 0.63617923E-01</totfact>
</mgrwt>
</event>
<event>
 6    1  0.1431486E-005  0.1054813E+04  0.7818608E-02  0.9733703E-01
         21   -1    0    0  501  502  0.00000000000E+00  0.00000000000E+00  0.10507054699E+04  0.10507054699E+04  0.00000000000E+00 0.  1.
          4   -1    0    0  502    0 -0.00000000000E+00 -0.00000000000E+00 -0.44392084010E+03  0.44392084010E+03  0.00000000000E+00 0.  1.
    9000010    2    1    2  501    0 -0.13809606480E+03  0.13574840703E+03  0.24289179032E+03  0.10824174274E+04  0.10368861616E+04 0.  0.
        -13    1    3    3    0    0 -0.69811896136E+02  0.42732165460E+03  0.51844256769E+03  0.67547035796E+03  0.10566000000E+00 0.  1.
          4    1    3    3  501    0 -0.68284168664E+02 -0.29157324757E+03 -0.27555077736E+03  0.40694706941E+03  0.00000000000E+00 0.  1.
         13    1    1    2    0    0  0.13809606480E+03 -0.13574840703E+03  0.36389283945E+03  0.41220888259E+03  0.10566000000E+00 0. -1.
<mgrwt>
<rscale>  1 0.69045122E+03</rscale>
<asrwt>0</asrwt>
<pdfrwt beam="1">  1       21 0.16164699E+00 0.10548133E+04</pdfrwt>
<pdfrwt beam="2">  1        4 0.68295514E-01 0.10548133E+04</pdfrwt>
<totfact> 0.17100158E+01</totfact>
</mgrwt>
</event>
<event>
 6    1  0.1431486E-005  0.1022836E+04  0.7818608E-02  0.1005337E+00
         21   -1    0    0  501  502  0.00000000000E+00  0.00000000000E+00  0.66328876264E+03  0.66328876264E+03  0.00000000000E+00 0.  1.
          4   -1    0    0  502    0 -0.00000000000E+00 -0.00000000000E+00 -0.46474651920E+03  0.46474651920E+03  0.00000000000E+00 0.  1.
    9000010    2    1    2  501    0 -0.53535051344E+02  0.53693791806E+02  0.22579874113E+03  0.10474626262E+04  0.10200214982E+04 0.  0.
        -13    1    3    3    0    0  0.10165818960E+02 -0.47753364301E+02 -0.40371324831E+03  0.40665479918E+03  0.10566000000E+00 0.  1.
          4    1    3    3  501    0 -0.63700870303E+02  0.10144715611E+03  0.62951198944E+03  0.64080782705E+03  0.00000000000E+00 0.  1.
         13    1    1    2    0    0  0.53535051344E+02 -0.53693791806E+02 -0.27256497693E+02  0.80572655606E+02  0.10566000000E+00 0. -1.
<mgrwt>
<rscale>  1 0.53370810E+03</rscale>
<asrwt>0</asrwt>
<pdfrwt beam="1">  1       21 0.10204443E+00 0.10228357E+04</pdfrwt>
<pdfrwt beam="2">  1        4 0.71499464E-01 0.10228357E+04</pdfrwt>
<totfact> 0.52638174E+01</totfact>
</mgrwt>
</event>
<event>
 6    1  0.1431486E-005  0.1015521E+04  0.7818608E-02  0.1000145E+00
          4   -1    0    0  502    0 -0.00000000000E+00  0.00000000000E+00  0.91360498193E+03  0.91360498193E+03  0.00000000000E+00 0.  1.
         21   -1    0    0  501  502  0.00000000000E+00 -0.00000000000E+00 -0.39566679906E+03  0.39566679906E+03  0.00000000000E+00 0.  1.
    9000010    2    1    2  501    0  0.42008866193E+02 -0.80906855114E+02  0.27842649812E+03  0.10529974703E+04  0.10114206313E+04 0.  0.
        -13    1    3    3    0    0 -0.40539118181E+03 -0.15709073755E+02  0.41533653680E+03  0.58059730903E+03  0.10566000000E+00 0.  1.
          4    1    3    3  501    0  0.44740004800E+03 -0.65197781359E+02 -0.13691003868E+03  0.47240016124E+03  0.00000000000E+00 0.  1.
         13    1    1    2    0    0 -0.42008866193E+02  0.80906855114E+02  0.23951168474E+03  0.25627431072E+03  0.10566000000E+00 0. -1.
<mgrwt>
<rscale>  1 0.55586731E+03</rscale>
<asrwt>0</asrwt>
<pdfrwt beam="2">  1       21 0.60871816E-01 0.10155207E+04</pdfrwt>
<pdfrwt beam="1">  1        4 0.14055461E+00 0.10155207E+04</pdfrwt>
<totfact> 0.34594597E+01</totfact>
</mgrwt>
</event>
<event>
 6    1  0.1431486E-005  0.9657493E+03  0.7818608E-02  0.9748423E-01
          4   -1    0    0  502    0 -0.00000000000E+00  0.00000000000E+00  0.15371711299E+04  0.15371711299E+04  0.00000000000E+00 0.  1.
         21   -1    0    0  501  502  0.00000000000E+00 -0.00000000000E+00 -0.49487497315E+03  0.49487497315E+03  0.00000000000E+00 0.  1.
    9000010    2    1    2  501    0  0.10886161784E+02  0.24001463077E+03  0.34264235820E+01  0.96575539917E+03  0.93538559918E+03 0.  0.
        -13    1    3    3    0    0 -0.10771637947E+02  0.18636357872E+03 -0.46119668450E+03  0.49754377155E+03  0.10566000000E+00 0.  1.
          4    1    3    3  501    0  0.21657799731E+02  0.53651052056E+02  0.46462310808E+03  0.46821162762E+03  0.00000000000E+00 0.  1.
         13    1    1    2    0    0 -0.10886161784E+02 -0.24001463077E+03  0.10388697331E+04  0.10662907038E+04  0.10566000000E+00 0. -1.
<mgrwt>
<rscale>  1 0.68205487E+03</rscale>
<asrwt>0</asrwt>
<pdfrwt beam="2">  1       21 0.76134612E-01 0.96574932E+03</pdfrwt>
<pdfrwt beam="1">  1        4 0.23648786E+00 0.96574932E+03</pdfrwt>
<totfact> 0.45188089E+00</totfact>
</mgrwt>
</event>
<event>
 6    1  0.1431486E-005  0.1023519E+04  0.7818608E-02  0.9993023E-01
         21   -1    0    0  501  502  0.00000000000E+00  0.00000000000E+00  0.84741590514E+03  0.84741590514E+03  0.00000000000E+00 0.  1.
          4   -1    0    0  502    0 -0.00000000000E+00 -0.00000000000E+00 -0.45872477271E+03  0.45872477271E+03  0.00000000000E+00 0.  1.
    9000010    2    1    2  501    0 -0.78271111336E+02 -0.47274876859E+02  0.51849943115E+03  0.11473594244E+04  0.10194266565E+04 0.  0.
        -13    1    3    3    0    0  0.42838076444E+03 -0.91582840690E+02  0.25118679163E+02  0.43878064595E+03  0.10566000000E+00 0.  1.
          4    1    3    3  501    0 -0.50665187578E+03  0.44307963831E+02  0.49338075199E+03  0.70857877849E+03  0.00000000000E+00 0.  1.
         13    1    1    2    0    0  0.78271111336E+02  0.47274876859E+02 -0.12980829872E+03  0.15878125341E+03  0.10566000000E+00 0. -1.
<mgrwt>
<rscale>  1 0.55957234E+03</rscale>
<asrwt>0</asrwt>
<pdfrwt beam="1">  1       21 0.13037168E+00 0.10235194E+04</pdfrwt>
<pdfrwt beam="2">  1        4 0.70573042E-01 0.10235194E+04</pdfrwt>
<totfact> 0.28867843E+01</totfact>
</mgrwt>
</event>
<event>
 6    1  0.1431486E-005  0.1036240E+04  0.7818608E-02  0.9663856E-01
         21   -1    0    0  501  502  0.00000000000E+00  0.00000000000E+00  0.26670268416E+04  0.26670268416E+04  0.00000000000E+00 0.  1.
          4   -1    0    0  502    0 -0.00000000000E+00 -0.00000000000E+00 -0.23079644618E+03  0.23079644618E+03  0.00000000000E+00 0.  1.
    9000010    2    1    2  501    0  0.24804682550E+03 -0.71580881803E+02  0.24275955780E+04  0.26395102576E+04  0.10035651746E+04 0.  0.
        -13    1    3    3    0    0  0.55824041293E+03 -0.69784037267E+01  0.76533879506E+03  0.94732493852E+03  0.10566000000E+00 0.  1.
          4    1    3    3  501    0 -0.31019358743E+03 -0.64602478076E+02  0.16622567829E+04  0.16921853191E+04  0.00000000000E+00 0.  1.
         13    1    1    2    0    0 -0.24804682550E+03  0.71580881803E+02  0.86348173760E+01  0.25831303009E+03  0.10566000000E+00 0. -1.
<mgrwt>
<rscale>  1 0.73210145E+03</rscale>
<asrwt>0</asrwt>
<pdfrwt beam="1">  1       21 0.41031180E+00 0.10362404E+04</pdfrwt>
<pdfrwt beam="2">  1        4 0.35507147E-01 0.10362404E+04</pdfrwt>
<totfact> 0.16198587E+00</totfact>
</mgrwt>
</event>
<event>
 6    1  0.1431486E-005  0.1024891E+04  0.7818608E-02  0.9648537E-01
         21   -1    0    0  501  502  0.00000000000E+00  0.00000000000E+00  0.57220397297E+03  0.57220397297E+03  0.00000000000E+00 0.  1.
          4   -1    0    0  502    0 -0.00000000000E+00 -0.00000000000E+00 -0.92781242234E+03  0.92781242234E+03  0.00000000000E+00 0.  1.
    9000010    2    1    2  501    0  0.13712801027E+03 -0.24531684243E+03  0.27041363048E+02  0.10252476785E+04  0.98560495256E+03 0.  0.
        -13    1    3    3    0    0 -0.50095000905E+02 -0.58337498719E+03  0.17552217234E+03  0.61126420551E+03  0.10566000000E+00 0.  1.
          4    1    3    3  501    0  0.18722301118E+03  0.33805814476E+03 -0.14848080929E+03  0.41398347296E+03  0.00000000000E+00 0.  1.
         13    1    1    2    0    0 -0.13712801027E+03  0.24531684243E+03 -0.38264981243E+03  0.47476871684E+03  0.10566000000E+00 0. -1.
<mgrwt>
<rscale>  1 0.74165335E+03</rscale>
<asrwt>0</asrwt>
<pdfrwt beam="1">  1       21 0.88031381E-01 0.10248910E+04</pdfrwt>
<pdfrwt beam="2">  1        4 0.14274037E+00 0.10248910E+04</pdfrwt>
<totfact> 0.14127657E+01</totfact>
</mgrwt>
</event>
<event>
 6    1  0.1431486E-005  0.1049637E+04  0.7818608E-02  0.9543176E-01
          4   -1    0    0  502    0 -0.00000000000E+00  0.00000000000E+00  0.43656270693E+03  0.43656270693E+03  0.00000000000E+00 0.  1.
         21   -1    0    0  501  502  0.00000000000E+00 -0.00000000000E+00 -0.12010024671E+04  0.12010024671E+04  0.00000000000E+00 0. -1.
    9000010    2    1    2  501    0 -0.22179259199E+03 -0.30293704273E+03 -0.68623621970E+03  0.12540568812E+04  0.98019166820E+03 0.  0.
        -13    1    3    3    0    0 -0.16063535083E+03 -0.37063288975E+03 -0.91910493587E+03  0.10039553522E+04  0.10566000000E+00 0.  1.
          4    1    3    3  501    0 -0.61157241154E+02  0.67695847023E+02  0.23286871617E+03  0.25010152903E+03  0.00000000000E+00 0.  1.
         13    1    1    2    0    0  0.22179259199E+03  0.30293704273E+03 -0.78203540438E+02  0.38350829276E+03  0.10566000000E+00 0. -1.
<mgrwt>
<rscale>  1 0.81174107E+03</rscale>
<asrwt>0</asrwt>
<pdfrwt beam="2">  1       21 0.18476961E+00 0.10496373E+04</pdfrwt>
<pdfrwt beam="1">  1        4 0.67163494E-01 0.10496373E+04</pdfrwt>
<totfact> 0.11958301E+01</totfact>
</mgrwt>
</event>
<event>
 6    1  0.1431486E-005  0.1128088E+04  0.7818608E-02  0.9378547E-01
          4   -1    0    0  502    0 -0.00000000000E+00  0.00000000000E+00  0.44810361348E+03  0.44810361348E+03  0.00000000000E+00 0.  1.
         21   -1    0    0  501  502  0.00000000000E+00 -0.00000000000E+00 -0.18607348973E+04  0.18607348973E+04  0.00000000000E+00 0.  1.
    9000010    2    1    2  501    0  0.36228755759E+03 -0.40134708600E+03 -0.13579665564E+04  0.17654049809E+04  0.99007566404E+03 0.  0.
        -13    1    3    3    0    0 -0.71459071914E+02 -0.53845921844E+03 -0.11361194968E+04  0.12592903760E+04  0.10566000000E+00 0.  1.
          4    1    3    3  501    0  0.43374662950E+03  0.13711213244E+03 -0.22184705960E+03  0.50611460493E+03  0.00000000000E+00 0.  1.
         13    1    1    2    0    0 -0.36228755759E+03  0.40134708600E+03 -0.54664727441E+02  0.54343352990E+03  0.10566000000E+00 0. -1.
<mgrwt>
<rscale>  1 0.93862391E+03</rscale>
<asrwt>0</asrwt>
<pdfrwt beam="2">  1       21 0.28626691E+00 0.11280876E+04</pdfrwt>
<pdfrwt beam="1">  1        4 0.68939017E-01 0.11280876E+04</pdfrwt>
<totfact> 0.24121977E+00</totfact>
</mgrwt>
</event>
<event>
 6    1  0.1431486E-005  0.1068675E+04  0.7818608E-02  0.9540717E-01
         21   -1    0    0  501  502  0.00000000000E+00  0.00000000000E+00  0.68218439209E+03  0.68218439209E+03  0.00000000000E+00 0.  1.
          4   -1    0    0  502    0 -0.00000000000E+00 -0.00000000000E+00 -0.74676391772E+03  0.74676391772E+03  0.00000000000E+00 0.  1.
    9000010    2    1    2  501    0 -0.25604217714E+03  0.25133757876E+03 -0.44609485754E+02  0.10696058706E+04  0.10066471761E+04 0.  0.
        -13    1    3    3    0    0  0.68448736010E+02  0.24140310358E+03 -0.47101518710E+03  0.53368155817E+03  0.10566000000E+00 0.  1.
          4    1    3    3  501    0 -0.32449091315E+03  0.99344751742E+01  0.42640570135E+03  0.53592431243E+03  0.00000000000E+00 0.  1.
         13    1    1    2    0    0  0.25604217714E+03 -0.25133757876E+03 -0.19970039877E+02  0.35934243922E+03  0.10566000000E+00 0. -1.
<mgrwt>
<rscale>  1 0.81347369E+03</rscale>
<asrwt>0</asrwt>
<pdfrwt beam="1">  1       21 0.10495145E+00 0.10686752E+04</pdfrwt>
<pdfrwt beam="2">  1        4 0.11488676E+00 0.10686752E+04</pdfrwt>
<totfact> 0.15930748E+01</totfact>
</mgrwt>
</event>
<event>
 6    1  0.1431486E-005  0.1023258E+04  0.7818608E-02  0.9932755E-01
         21   -1    0    0  501  502  0.00000000000E+00  0.00000000000E+00  0.73721417084E+03  0.73721417084E+03  0.00000000000E+00 0.  1.
          4   -1    0    0  502    0 -0.00000000000E+00 -0.00000000000E+00 -0.63099381123E+03  0.63099381123E+03  0.00000000000E+00 0.  1.
    9000010    2    1    2  501    0 -0.21284319181E+02  0.10874945030E+03  0.36523331061E+03  0.10864861598E+04  0.10172400597E+04 0.  0.
        -13    1    3    3    0    0  0.19372020925E+03  0.23700753825E+03  0.64324409027E+03  0.71236441762E+03  0.10566000000E+00 0.  1.
          4    1    3    3  501    0 -0.21500452843E+03 -0.12825808795E+03 -0.27801077966E+03  0.37412174219E+03  0.00000000000E+00 0.  1.
         13    1    1    2    0    0  0.21284319181E+02 -0.10874945030E+03 -0.25901295100E+03  0.28172182225E+03  0.10566000000E+00 0. -1.
<mgrwt>
<rscale>  1 0.58699760E+03</rscale>
<asrwt>0</asrwt>
<pdfrwt beam="1">  1       21 0.11341756E+00 0.10232579E+04</pdfrwt>
<pdfrwt beam="2">  1        4 0.97075971E-01 0.10232579E+04</pdfrwt>
<totfact> 0.19841376E+01</totfact>
</mgrwt>
</event>
<event>
 6    1  0.1866284E-005  0.8328340E+03  0.7818608E-02  0.1002429E+00
          4   -1    0    0  502    0 -0.00000000000E+00  0.00000000000E+00  0.34434466732E+03  0.34434466732E+03  0.00000000000E+00 0.  1.
         21   -1    0    0  501  502  0.00000000000E+00 -0.00000000000E+00 -0.78865042470E+03  0.78865042470E+03  0.00000000000E+00 0.  1.
    9000010    2    1    2  501    0  0.82162325524E+02  0.13004381288E+03 -0.49764244470E+03  0.97018583436E+03  0.81850504544E+03 0.  0.
        -13    1    3    3    0    0 -0.33578581126E+03  0.22366038962E+03 -0.21678549612E+03  0.45800878094E+03  0.10566000000E+00 0.  1.
          4    1    3    3  501    0  0.41794813678E+03 -0.93616576739E+02 -0.28085694858E+03  0.51217705342E+03  0.00000000000E+00 0.  1.
         13    1    1    2    0    0 -0.82162325524E+02 -0.13004381288E+03  0.53336687321E+02  0.16280925766E+03  0.10566000000E+00 0. -1.
<mgrwt>
<rscale>  1 0.54597833E+03</rscale>
<asrwt>0</asrwt>
<pdfrwt beam="2">  1       21 0.12133083E+00 0.83283405E+03</pdfrwt>
<pdfrwt beam="1">  1        4 0.52976104E-01 0.83283405E+03</pdfrwt>
<totfact> 0.66451234E+01</totfact>
</mgrwt>
</event>
<event>
 6    1  0.1431486E-005  0.1277362E+04  0.7818608E-02  0.9172091E-01
          4   -1    0    0  502    0 -0.00000000000E+00  0.00000000000E+00  0.17895831224E+04  0.17895831224E+04  0.00000000000E+00 0.  1.
         21   -1    0    0  501  502  0.00000000000E+00 -0.00000000000E+00 -0.60939921752E+03  0.60939921752E+03  0.00000000000E+00 0. -1.
    9000010    2    1    2  501    0 -0.31020039749E+03  0.73216881977E+03  0.58075307079E+03  0.14031847685E+04  0.99967889744E+03 0.  0.
        -13    1    3    3    0    0 -0.16619379865E+03  0.84656609033E+03  0.75751654666E+03  0.11480966221E+04  0.10566000000E+00 0.  1.
          4    1    3    3  501    0 -0.14400659885E+03 -0.11439727056E+03 -0.17676347587E+03  0.25508814639E+03  0.00000000000E+00 0.  1.
         13    1    1    2    0    0  0.31020039749E+03 -0.73216881977E+03  0.59943083405E+03  0.99579757141E+03  0.10566000000E+00 0. -1.
<mgrwt>
<rscale>  1 0.11346201E+04</rscale>
<asrwt>0</asrwt>
<pdfrwt beam="2">  1       21 0.93753727E-01 0.12773619E+04</pdfrwt>
<pdfrwt beam="1">  1        4 0.27532048E+00 0.12773619E+04</pdfrwt>
<totfact> 0.15146413E+00</totfact>
</mgrwt>
</event>
<event>
 6    1  0.1431486E-005  0.9734611E+03  0.7818608E-02  0.1004856E+00
          4   -1    0    0  502    0 -0.00000000000E+00  0.00000000000E+00  0.87143329049E+03  0.87143329049E+03  0.00000000000E+00 0.  1.
         21   -1    0    0  501  502  0.00000000000E+00 -0.00000000000E+00 -0.41144543435E+03  0.41144543435E+03  0.00000000000E+00 0.  1.
    9000010    2    1    2  501    0 -0.87483682908E+02  0.17834844471E+02  0.18125024199E+03  0.99019093016E+03  0.96935800997E+03 0.  0.
        -13    1    3    3    0    0  0.38009158518E+03 -0.20865008700E+03  0.18304284465E+03  0.47064760286E+03  0.10566000000E+00 0.  1.
          4    1    3    3  501    0 -0.46757526809E+03  0.22648493147E+03 -0.17926026574E+01  0.51954332730E+03  0.00000000000E+00 0.  1.
         13    1    1    2    0    0  0.87483682908E+02 -0.17834844471E+02  0.27873761415E+03  0.29268779469E+03  0.10566000000E+00 0. -1.
<mgrwt>
<rscale>  1 0.53571198E+03</rscale>
<asrwt>0</asrwt>
<pdfrwt beam="2">  1       21 0.63299298E-01 0.97346106E+03</pdfrwt>
<pdfrwt beam="1">  1        4 0.13406666E+00 0.97346106E+03</pdfrwt>
<totfact> 0.35983938E+01</totfact>
</mgrwt>
</event>
<event>
 6    1  0.1431486E-005  0.1064462E+04  0.7818608E-02  0.9566122E-01
         21   -1    0    0  501  502  0.00000000000E+00  0.00000000000E+00  0.10333682336E+04  0.10333682336E+04  0.00000000000E+00 0.  1.
          4   -1    0    0  502    0 -0.00000000000E+00 -0.00000000000E+00 -0.48564212956E+03  0.48564212956E+03  0.00000000000E+00 0.  1.
    9000010    2    1    2  501    0 -0.32732579875E+03  0.58539372789E+02  0.52181527379E+03  0.11854831245E+04  0.10111923762E+04 0.  0.
        -13    1    3    3    0    0  0.11576310191E+03 -0.39381143551E+03  0.32135716602E+03  0.52130507557E+03  0.10566000000E+00 0.  1.
          4    1    3    3  501    0 -0.44308890066E+03  0.45235080830E+03  0.20045810777E+03  0.66417804889E+03  0.00000000000E+00 0.  1.
         13    1    1    2    0    0  0.32732579875E+03 -0.58539372789E+02  0.25910830303E+02  0.33352723874E+03  0.10566000000E+00 0. -1.
<mgrwt>
<rscale>  1 0.79579604E+03</rscale>
<asrwt>0</asrwt>
<pdfrwt beam="1">  1       21 0.15897973E+00 0.10644619E+04</pdfrwt>
<pdfrwt beam="2">  1        4 0.74714174E-01 0.10644619E+04</pdfrwt>
<totfact> 0.14638630E+01</totfact>
</mgrwt>
</event>
<event>
 6    1  0.1431486E-005  0.1001675E+04  0.7818608E-02  0.9724272E-01
          4   -1    0    0  502    0 -0.00000000000E+00  0.00000000000E+00  0.25596751508E+03  0.25596751508E+03  0.00000000000E+00 0.  1.
         21   -1    0    0  501  502  0.00000000000E+00 -0.00000000000E+00 -0.21996394826E+04  0.21996394826E+04  0.00000000000E+00 0.  1.
    9000010    2    1    2  501    0  0.20165487806E+03 -0.11741439474E+03 -0.19804735668E+04  0.22193757576E+04  0.97411620183E+03 0.  0.
        -13    1    3    3    0    0 -0.50678888906E+02 -0.50000889115E+03 -0.13453523536E+04  0.14361581416E+04  0.10566000000E+00 0.  1.
          4    1    3    3  501    0  0.25233376696E+03  0.38259449641E+03 -0.63512121319E+03  0.78321761604E+03  0.00000000000E+00 0.  1.
         13    1    1    2    0    0 -0.20165487806E+03  0.11741439474E+03  0.36801599253E+02  0.23623124012E+03  0.10566000000E+00 0. -1.
<mgrwt>
<rscale>  1 0.69589828E+03</rscale>
<asrwt>0</asrwt>
<pdfrwt beam="2">  1       21 0.33840606E+00 0.10016752E+04</pdfrwt>
<pdfrwt beam="1">  1        4 0.39379619E-01 0.10016752E+04</pdfrwt>
<totfact> 0.38422367E+00</totfact>
</mgrwt>
</event>
<event>
 6    1  0.1431486E-005  0.1209025E+04  0.7818608E-02  0.9528901E-01
          4   -1    0    0  502    0 -0.00000000000E+00  0.00000000000E+00  0.11196586659E+04  0.11196586659E+04  0.00000000000E+00 0.  1.
         21   -1    0    0  501  502  0.00000000000E+00 -0.00000000000E+00 -0.12131654498E+04  0.12131654498E+04  0.00000000000E+00 0.  1.
    9000010    2    1    2  501    0 -0.13145745207E+03 -0.22218439947E+03 -0.88627902611E+03  0.14990766669E+04  0.11811407080E+04 0.  0.
        -13    1    3    3    0    0  0.23938375836E+03 -0.60976740061E+03 -0.61257408392E+03  0.89686558974E+03  0.10566000000E+00 0.  1.
          4    1    3    3  501    0 -0.37084121042E+03  0.38758300114E+03 -0.27370494219E+03  0.60221107720E+03  0.00000000000E+00 0.  1.
         13    1    1    2    0    0  0.13145745207E+03  0.22218439947E+03  0.79277224223E+03  0.83374744874E+03  0.10566000000E+00 0. -1.
<mgrwt>
<rscale>  1 0.82186199E+03</rscale>
<asrwt>0</asrwt>
<pdfrwt beam="2">  1       21 0.18664084E+00 0.12090245E+04</pdfrwt>
<pdfrwt beam="1">  1        4 0.17225518E+00 0.12090245E+04</pdfrwt>
<totfact> 0.10996497E+00</totfact>
</mgrwt>
</event>
<event>
 6    1  0.1431486E-005  0.1020807E+04  0.7818608E-02  0.9696100E-01
         21   -1    0    0  501  502  0.00000000000E+00  0.00000000000E+00  0.14294791634E+04  0.14294791634E+04  0.00000000000E+00 0.  1.
          4   -1    0    0  502    0 -0.00000000000E+00 -0.00000000000E+00 -0.33746536272E+03  0.33746536272E+03  0.00000000000E+00 0.  1.
    9000010    2    1    2  501    0 -0.22933862921E+03 -0.78085765391E+02  0.11287789473E+04  0.15219031403E+04  0.99164190253E+03 0.  0.
        -13    1    3    3    0    0 -0.60277621125E+03 -0.16408778882E+03  0.81331890659E+03  0.10255494226E+04  0.10566000000E+00 0.  1.
          4    1    3    3  501    0  0.37343758204E+03  0.86002023432E+02  0.31546004073E+03  0.49635371763E+03  0.00000000000E+00 0.  1.
         13    1    1    2    0    0  0.22933862921E+03  0.78085765391E+02 -0.36765146633E+02  0.24504138585E+03  0.10566000000E+00 0. -1.
<mgrwt>
<rscale>  1 0.71249468E+03</rscale>
<asrwt>0</asrwt>
<pdfrwt beam="1">  1       21 0.21991987E+00 0.10208072E+04</pdfrwt>
<pdfrwt beam="2">  1        4 0.51917749E-01 0.10208072E+04</pdfrwt>
<totfact> 0.12052641E+01</totfact>
</mgrwt>
</event>
<event>
 6    1  0.1431486E-005  0.1202394E+04  0.7818608E-02  0.9273329E-01
          4   -1    0    0  502    0 -0.00000000000E+00  0.00000000000E+00  0.77587262034E+03  0.77587262034E+03  0.00000000000E+00 0.  1.
         21   -1    0    0  501  502  0.00000000000E+00 -0.00000000000E+00 -0.11114270967E+04  0.11114270967E+04  0.00000000000E+00 0.  1.
    9000010    2    1    2  501    0 -0.53169960410E+03  0.38151574828E+03 -0.19806228169E+03  0.12185973543E+04  0.10087081388E+04 0.  0.
        -13    1    3    3    0    0 -0.48097581305E+01 -0.13469011063E+03 -0.42580093872E+03  0.44662177539E+03  0.10566000000E+00 0.  1.
          4    1    3    3  501    0 -0.52688984597E+03  0.51620585891E+03  0.22773865703E+03  0.77197557893E+03  0.00000000000E+00 0.  1.
         13    1    1    2    0    0  0.53169960410E+03 -0.38151574828E+03 -0.13749219471E+03  0.66870236276E+03  0.10566000000E+00 0. -1.
<mgrwt>
<rscale>  1 0.10327576E+04</rscale>
<asrwt>0</asrwt>
<pdfrwt beam="2">  1       21 0.17098878E+00 0.12023938E+04</pdfrwt>
<pdfrwt beam="1">  1        4 0.11936502E+00 0.12023938E+04</pdfrwt>
<totfact> 0.38122269E+00</totfact>
</mgrwt>
</event>
<event>
 6    1  0.1431486E-005  0.1003541E+04  0.7818608E-02  0.1000830E+00
          4   -1    0    0  502    0 -0.00000000000E+00  0.00000000000E+00  0.13691618527E+04  0.13691618527E+04  0.00000000000E+00 0.  1.
         21   -1    0    0  501  502  0.00000000000E+00 -0.00000000000E+00 -0.22903249057E+03  0.22903249057E+03  0.00000000000E+00 0.  1.
    9000010    2    1    2  501    0 -0.22610815287E+02  0.89644803754E+02  0.92823626995E+03  0.13670101451E+04  0.99927309787E+03 0.  0.
        -13    1    3    3    0    0  0.28255973195E+02 -0.33588014056E+03 -0.82033959760E+01  0.33716639174E+03  0.10566000000E+00 0.  1.
          4    1    3    3  501    0 -0.50866788482E+02  0.42552494432E+03  0.93643966593E+03  0.10298437534E+04  0.00000000000E+00 0.  1.
         13    1    1    2    0    0  0.22610815287E+02 -0.89644803754E+02  0.21189309216E+03  0.23118419816E+03  0.10566000000E+00 0. -1.
<mgrwt>
<rscale>  1 0.55287997E+03</rscale>
<asrwt>0</asrwt>
<pdfrwt beam="2">  1       21 0.35235769E-01 0.10035408E+04</pdfrwt>
<pdfrwt beam="1">  1        4 0.21064028E+00 0.10035408E+04</pdfrwt>
<totfact> 0.35221458E+01</totfact>
</mgrwt>
</event>
<event>
 6    1  0.1431486E-005  0.1215270E+04  0.7818608E-02  0.9246091E-01
          4   -1    0    0  502    0 -0.00000000000E+00  0.00000000000E+00  0.14156322335E+04  0.14156322335E+04  0.00000000000E+00 0.  1.
         21   -1    0    0  501  502  0.00000000000E+00 -0.00000000000E+00 -0.64929234826E+03  0.64929234826E+03  0.00000000000E+00 0. -1.
    9000010    2    1    2  501    0  0.49225944654E+03 -0.49877356833E+03  0.44783900029E+03  0.12951601632E+04  0.99286738442E+03 0.  0.
        -13    1    3    3    0    0  0.53665668139E+03 -0.19503917589E+03 -0.17799488075E+03  0.59809937514E+03  0.10566000000E+00 0.  1.
          4    1    3    3  501    0 -0.44397234845E+02 -0.30373439243E+03  0.62583388105E+03  0.69706078808E+03  0.00000000000E+00 0.  1.
         13    1    1    2    0    0 -0.49225944654E+03  0.49877356833E+03  0.31850088494E+03  0.76976441854E+03  0.10566000000E+00 0. -1.
<mgrwt>
<rscale>  1 0.10590101E+04</rscale>
<asrwt>0</asrwt>
<pdfrwt beam="2">  1       21 0.99891131E-01 0.12152695E+04</pdfrwt>
<pdfrwt beam="1">  1        4 0.21778957E+00 0.12152695E+04</pdfrwt>
<totfact> 0.29932709E+00</totfact>
</mgrwt>
</event>
<event>
 6    1  0.1431486E-005  0.1176746E+04  0.7818608E-02  0.9281144E-01
         21   -1    0    0  501  502  0.00000000000E+00  0.00000000000E+00  0.10107526930E+04  0.10107526930E+04  0.00000000000E+00 0. -1.
          4   -1    0    0  502    0 -0.00000000000E+00 -0.00000000000E+00 -0.92087359147E+03  0.92087359147E+03  0.00000000000E+00 0.  1.
    9000010    2    1    2  501    0 -0.13738906668E+03 -0.66433419171E+03 -0.20049006704E+03  0.11937035655E+04  0.96151768653E+03 0.  0.
        -13    1    3    3    0    0 -0.14856086654E+03 -0.55493194612E+03  0.32282007815E+03  0.65896328419E+03  0.10566000000E+00 0.  1.
          4    1    3    3  501    0  0.11171799854E+02 -0.10940224559E+03 -0.52331014519E+03  0.53474028136E+03  0.00000000000E+00 0.  1.
         13    1    1    2    0    0  0.13738906668E+03  0.66433419171E+03  0.29036916860E+03  0.73792271896E+03  0.10566000000E+00 0. -1.
<mgrwt>
<rscale>  1 0.10253742E+04</rscale>
<asrwt>0</asrwt>
<pdfrwt beam="1">  1       21 0.15550041E+00 0.11767463E+04</pdfrwt>
<pdfrwt beam="2">  1        4 0.14167286E+00 0.11767463E+04</pdfrwt>
<totfact> 0.32350058E+00</totfact>
</mgrwt>
</event>
<event>
 6    1  0.1431486E-005  0.1026468E+04  0.7818608E-02  0.9613243E-01
         21   -1    0    0  501  502  0.00000000000E+00  0.00000000000E+00  0.12943523752E+04  0.12943523752E+04  0.00000000000E+00 0.  1.
          4   -1    0    0  502    0 -0.00000000000E+00 -0.00000000000E+00 -0.56654155529E+03  0.56654155529E+03  0.00000000000E+00 0.  1.
    9000010    2    1    2  501    0  0.37277158364E+02 -0.31323505871E+03  0.10082448914E+04  0.14388168426E+04  0.97679596489E+03 0.  0.
        -13    1    3    3    0    0 -0.98053269323E+02  0.17062370351E+03  0.90466711453E+03  0.92582368251E+03  0.10566000000E+00 0.  1.
          4    1    3    3  501    0  0.13533042769E+03 -0.48385876222E+03  0.10357777682E+03  0.51299316007E+03  0.00000000000E+00 0.  1.
         13    1    1    2    0    0 -0.37277158364E+02  0.31323505871E+03 -0.28043407144E+03  0.42207708790E+03  0.10566000000E+00 0. -1.
<mgrwt>
<rscale>  1 0.76425809E+03</rscale>
<asrwt>0</asrwt>
<pdfrwt beam="1">  1       21 0.19913113E+00 0.10264678E+04</pdfrwt>
<pdfrwt beam="2">  1        4 0.87160240E-01 0.10264678E+04</pdfrwt>
<totfact> 0.52489626E+00</totfact>
</mgrwt>
</event>
<event>
 6    1  0.1431486E-005  0.1006984E+04  0.7818608E-02  0.1000455E+00
          4   -1    0    0  502    0 -0.00000000000E+00  0.00000000000E+00  0.45464973817E+03  0.45464973817E+03  0.00000000000E+00 0.  1.
         21   -1    0    0  501  502  0.00000000000E+00 -0.00000000000E+00 -0.84078430331E+03  0.84078430331E+03  0.00000000000E+00 0.  1.
    9000010    2    1    2  501    0  0.60163577330E+02  0.70382850403E+02 -0.51948865123E+03  0.11330864973E+04  0.10027178815E+04 0.  0.
        -13    1    3    3    0    0  0.10115474636E+02  0.52712618115E+03 -0.16398493709E+03  0.55213712467E+03  0.10566000000E+00 0.  1.
          4    1    3    3  501    0  0.50048102694E+02 -0.45674333075E+03 -0.35550371415E+03  0.58094937261E+03  0.00000000000E+00 0.  1.
         13    1    1    2    0    0 -0.60163577330E+02 -0.70382850403E+02  0.13335408609E+03  0.16234754421E+03  0.10566000000E+00 0. -1.
<mgrwt>
<rscale>  1 0.55451220E+03</rscale>
<asrwt>0</asrwt>
<pdfrwt beam="2">  1       21 0.12935143E+00 0.10069839E+04</pdfrwt>
<pdfrwt beam="1">  1        4 0.69946114E-01 0.10069839E+04</pdfrwt>
<totfact> 0.30120305E+01</totfact>
</mgrwt>
</event>
<event>
 6    1  0.1431486E-005  0.1022482E+04  0.7818608E-02  0.9723956E-01
          4   -1    0    0  502    0 -0.00000000000E+00  0.00000000000E+00  0.18191540365E+03  0.18191540365E+03  0.00000000000E+00 0.  1.
         21   -1    0    0  501  502  0.00000000000E+00 -0.00000000000E+00 -0.22488790373E+04  0.22488790373E+04  0.00000000000E+00 0.  1.
    9000010    2    1    2  501    0 -0.19672702795E+03  0.97632041684E+02 -0.18895868898E+04  0.21484895357E+04  0.99861660910E+03 0.  0.
        -13    1    3    3    0    0 -0.48277475377E+02 -0.41602555408E+03 -0.12303579619E+04  0.12996879248E+04  0.10566000000E+00 0.  1.
          4    1    3    3  501    0 -0.14844955258E+03  0.51365759577E+03 -0.65922892785E+03  0.84880161090E+03  0.00000000000E+00 0.  1.
         13    1    1    2    0    0  0.19672702795E+03 -0.97632041684E+02 -0.17737674391E+03  0.28230490526E+03  0.10566000000E+00 0. -1.
<mgrwt>
<rscale>  1 0.69608181E+03</rscale>
<asrwt>0</asrwt>
<pdfrwt beam="2">  1       21 0.34598141E+00 0.10224816E+04</pdfrwt>
<pdfrwt beam="1">  1        4 0.27986983E-01 0.10224816E+04</pdfrwt>
<totfact> 0.67554679E+00</totfact>
</mgrwt>
</event>
<event>
 6    1  0.1431486E-005  0.9448101E+03  0.7818608E-02  0.9834038E-01
          4   -1    0    0  502    0 -0.00000000000E+00  0.00000000000E+00  0.41672492569E+03  0.41672492569E+03  0.00000000000E+00 0.  1.
         21   -1    0    0  501  502  0.00000000000E+00 -0.00000000000E+00 -0.81331658685E+03  0.81331658685E+03  0.00000000000E+00 0.  1.
    9000010    2    1    2  501    0 -0.12429331273E+03  0.14843175965E+03 -0.42202062169E+03  0.10347789763E+04  0.92476229909E+03 0.  0.
        -13    1    3    3    0    0  0.21017438358E+03  0.39652887134E+03 -0.42534737772E+03  0.61832743770E+03  0.10566000000E+00 0.  1.
          4    1    3    3  501    0 -0.33446769631E+03 -0.24809711169E+03  0.33267560268E+01  0.41645153860E+03  0.00000000000E+00 0.  1.
         13    1    1    2    0    0  0.12429331273E+03 -0.14843175965E+03  0.25428960528E+02  0.19526253624E+03  0.10566000000E+00 0. -1.
<mgrwt>
<rscale>  1 0.63567413E+03</rscale>
<asrwt>0</asrwt>
<pdfrwt beam="2">  1       21 0.12512563E+00 0.94481010E+03</pdfrwt>
<pdfrwt beam="1">  1        4 0.64111528E-01 0.94481010E+03</pdfrwt>
<totfact> 0.40138325E+01</totfact>
</mgrwt>
</event>
<event>
 6    1  0.1431486E-005  0.1117399E+04  0.7818608E-02  0.9393253E-01
         21   -1    0    0  501  502  0.00000000000E+00  0.00000000000E+00  0.12714766107E+04  0.12714766107E+04  0.00000000000E+00 0.  1.
          4   -1    0    0  502    0 -0.00000000000E+00 -0.00000000000E+00 -0.59153480699E+03  0.59153480699E+03  0.00000000000E+00 0.  1.
    9000010    2    1    2  501    0  0.25276932019E+03 -0.46329448474E+03  0.72711307846E+03  0.13331442181E+04  0.98490911695E+03 0.  0.
        -13    1    3    3    0    0  0.15797985686E+03  0.30471788449E+03  0.23829459614E+03  0.41784560548E+03  0.10566000000E+00 0.  1.
          4    1    3    3  501    0  0.94789463333E+02 -0.76801236924E+03  0.48881848232E+03  0.91529861265E+03  0.00000000000E+00 0.  1.
         13    1    1    2    0    0 -0.25276932019E+03  0.46329448474E+03 -0.47171274770E+02  0.52986719955E+03  0.10566000000E+00 0. -1.
<mgrwt>
<rscale>  1 0.92633047E+03</rscale>
<asrwt>0</asrwt>
<pdfrwt beam="1">  1       21 0.19561179E+00 0.11173988E+04</pdfrwt>
<pdfrwt beam="2">  1        4 0.91005355E-01 0.11173988E+04</pdfrwt>
<totfact> 0.49561654E+00</totfact>
</mgrwt>
</event>
<event>
 6    1  0.1431486E-005  0.1007213E+04  0.7818608E-02  0.9790370E-01
         21   -1    0    0  501  502  0.00000000000E+00  0.00000000000E+00  0.28954854787E+03  0.28954854787E+03  0.00000000000E+00 0.  1.
          4   -1    0    0  502    0 -0.00000000000E+00 -0.00000000000E+00 -0.12344230681E+04  0.12344230681E+04  0.00000000000E+00 0.  1.
    9000010    2    1    2  501    0  0.64054528498E+02 -0.17288953847E+03 -0.75061107229E+03  0.12561431755E+04  0.99019438520E+03 0.  0.
        -13    1    3    3    0    0  0.42185734180E+03 -0.38794410198E+03 -0.54466796715E+03  0.79065001657E+03  0.10566000000E+00 0.  1.
          4    1    3    3  501    0 -0.35780281330E+03  0.21505456351E+03 -0.20594310514E+03  0.46549315897E+03  0.00000000000E+00 0.  1.
         13    1    1    2    0    0 -0.64054528498E+02  0.17288953847E+03 -0.19426344796E+03  0.26782844044E+03  0.10566000000E+00 0. -1.
<mgrwt>
<rscale>  1 0.65881889E+03</rscale>
<asrwt>0</asrwt>
<pdfrwt beam="1">  1       21 0.44545931E-01 0.10072133E+04</pdfrwt>
<pdfrwt beam="2">  1        4 0.18991124E+00 0.10072133E+04</pdfrwt>
<totfact> 0.29578668E+01</totfact>
</mgrwt>
</event>
<event>
 6    1  0.1431486E-005  0.1033725E+04  0.7818608E-02  0.9686749E-01
         21   -1    0    0  501  502  0.00000000000E+00  0.00000000000E+00  0.16160708359E+04  0.16160708359E+04  0.00000000000E+00 0.  1.
          4   -1    0    0  502    0 -0.00000000000E+00 -0.00000000000E+00 -0.25685128754E+03  0.25685128754E+03  0.00000000000E+00 0.  1.
    9000010    2    1    2  501    0  0.19496697682E+03 -0.14122823470E+03  0.12020967927E+04  0.15854415017E+04  0.10053012087E+04 0.  0.
        -13    1    3    3    0    0  0.97346577753E+02  0.41642132180E+03  0.73991712653E+03  0.85461127933E+03  0.10566000000E+00 0.  1.
          4    1    3    3  501    0  0.97620399063E+02 -0.55764955651E+03  0.46217966615E+03  0.73083022241E+03  0.00000000000E+00 0.  1.
         13    1    1    2    0    0 -0.19496697682E+03  0.14122823470E+03  0.15712275564E+03  0.28748062166E+03  0.10566000000E+00 0. -1.
<mgrwt>
<rscale>  1 0.71811272E+03</rscale>
<asrwt>0</asrwt>
<pdfrwt beam="1">  1       21 0.24862628E+00 0.10337253E+04</pdfrwt>
<pdfrwt beam="2">  1        4 0.39515584E-01 0.10337253E+04</pdfrwt>
<totfact> 0.13829694E+01</totfact>
</mgrwt>
</event>
<event>
 6    1  0.1431486E-005  0.1010024E+04  0.7818608E-02  0.9870550E-01
          4   -1    0    0  502    0 -0.00000000000E+00  0.00000000000E+00  0.46294638401E+03  0.46294638401E+03  0.00000000000E+00 0.  1.
         21   -1    0    0  501  502  0.00000000000E+00 -0.00000000000E+00 -0.71554154629E+03  0.71554154629E+03  0.00000000000E+00 0. -1.
    9000010    2    1    2  501    0 -0.86133796527E+01 -0.14047937020E+03 -0.21236996338E+03  0.10321092380E+04  0.10001699026E+04 0.  0.
        -13    1    3    3    0    0  0.22038323270E+03  0.37695697479E+03 -0.30334982685E+02  0.43770486911E+03  0.10566000000E+00 0.  1.
          4    1    3    3  501    0 -0.22899661235E+03 -0.51743634500E+03 -0.18203498070E+03  0.59440436892E+03  0.00000000000E+00 0.  1.
         13    1    1    2    0    0  0.86133796527E+01  0.14047937020E+03 -0.40225198889E+02  0.14637869227E+03  0.10566000000E+00 0. -1.
<mgrwt>
<rscale>  1 0.61710021E+03</rscale>
<asrwt>0</asrwt>
<pdfrwt beam="2">  1       21 0.11008331E+00 0.10100240E+04</pdfrwt>
<pdfrwt beam="1">  1        4 0.71222521E-01 0.10100240E+04</pdfrwt>
<totfact> 0.43919722E+01</totfact>
</mgrwt>
</event>
<event>
 6    1  0.1431486E-005  0.9981277E+03  0.7818608E-02  0.1030271E+00
         21   -1    0    0  501  502  0.00000000000E+00  0.00000000000E+00  0.29205041358E+03  0.29205041358E+03  0.00000000000E+00 0.  1.
          4   -1    0    0  502    0 -0.00000000000E+00 -0.00000000000E+00 -0.95365502307E+03  0.95365502307E+03  0.00000000000E+00 0.  1.
    9000010    2    1    2  501    0 -0.29913332025E+02  0.23802869572E+02 -0.57709513241E+03  0.11529517472E+04  0.99739538569E+03 0.  0.
        -13    1    3    3    0    0 -0.12794569189E+03 -0.11836141469E+03 -0.82922949471E+03  0.84734945012E+03  0.10566000000E+00 0.  1.
          4    1    3    3  501    0  0.98032359866E+02  0.14216428426E+03  0.25213436230E+03  0.30560229703E+03  0.00000000000E+00 0.  1.
         13    1    1    2    0    0  0.29913332025E+02 -0.23802869572E+02 -0.84509477086E+02  0.92753689490E+02  0.10566000000E+00 0. -1.
<mgrwt>
<rscale>  1 0.44155575E+03</rscale>
<asrwt>0</asrwt>
<pdfrwt beam="1">  1       21 0.44930832E-01 0.99812772E+03</pdfrwt>
<pdfrwt beam="2">  1        4 0.14671616E+00 0.99812772E+03</pdfrwt>
<totfact> 0.59920903E+01</totfact>
</mgrwt>
</event>
<event>
 6    1  0.1431486E-005  0.1125136E+04  0.7818608E-02  0.9384113E-01
          4   -1    0    0  502    0 -0.00000000000E+00  0.00000000000E+00  0.15437791847E+04  0.15437791847E+04  0.00000000000E+00 0.  1.
         21   -1    0    0  501  502  0.00000000000E+00 -0.00000000000E+00 -0.44819819614E+03  0.44819819614E+03  0.00000000000E+00 0.  1.
    9000010    2    1    2  501    0 -0.10044063184E+03  0.52463418633E+03  0.67471022951E+03  0.13119321199E+04  0.99025382774E+03 0.  0.
        -13    1    3    3    0    0 -0.40368581601E+03 -0.73460870770E+02  0.85188832535E+02  0.41906549123E+03  0.10566000000E+00 0.  1.
          4    1    3    3  501    0  0.30324518417E+03  0.59809505710E+03  0.58952139698E+03  0.89286662864E+03  0.00000000000E+00 0.  1.
         13    1    1    2    0    0  0.10044063184E+03 -0.52463418633E+03  0.42087075908E+03  0.68004526099E+03  0.10566000000E+00 0. -1.
<mgrwt>
<rscale>  1 0.93394693E+03</rscale>
<asrwt>0</asrwt>
<pdfrwt beam="2">  1       21 0.68953569E-01 0.11251364E+04</pdfrwt>
<pdfrwt beam="1">  1        4 0.23750449E+00 0.11251364E+04</pdfrwt>
<totfact> 0.54838805E+00</totfact>
</mgrwt>
</event>
<event>
 6    1  0.1431486E-005  0.1333800E+04  0.7818608E-02  0.9115079E-01
          4   -1    0    0  502    0 -0.00000000000E+00  0.00000000000E+00  0.66103887023E+03  0.66103887023E+03  0.00000000000E+00 0.  1.
         21   -1    0    0  501  502  0.00000000000E+00 -0.00000000000E+00 -0.18682577503E+04  0.18682577503E+04  0.00000000000E+00 0. -1.
    9000010    2    1    2  501    0 -0.81476565306E+03 -0.29497874658E+03 -0.90387947269E+03  0.16112169194E+04  0.10139853697E+04 0.  0.
        -13    1    3    3    0    0 -0.22147371750E+03 -0.60746675974E+03 -0.57084481060E+03  0.86251393072E+03  0.10566000000E+00 0.  1.
          4    1    3    3  501    0 -0.59329193556E+03  0.31248801316E+03 -0.33303466209E+03  0.74870298872E+03  0.00000000000E+00 0.  1.
         13    1    1    2    0    0  0.81476565306E+03  0.29497874658E+03 -0.30333940740E+03  0.91807970111E+03  0.10566000000E+00 0. -1.
<mgrwt>
<rscale>  1 0.11974642E+04</rscale>
<asrwt>0</asrwt>
<pdfrwt beam="2">  1       21 0.28742427E+00 0.13337998E+04</pdfrwt>
<pdfrwt beam="1">  1        4 0.10169829E+00 0.13337998E+04</pdfrwt>
<totfact> 0.92909232E-01</totfact>
</mgrwt>
</event>
<event>
 6    1  0.1431486E-005  0.1053038E+04  0.7818608E-02  0.9609482E-01
          4   -1    0    0  502    0 -0.00000000000E+00  0.00000000000E+00  0.53508773872E+03  0.53508773872E+03  0.00000000000E+00 0.  1.
         21   -1    0    0  501  502  0.00000000000E+00 -0.00000000000E+00 -0.92486573925E+03  0.92486573925E+03  0.00000000000E+00 0.  1.
    9000010    2    1    2  501    0  0.27312000853E+03 -0.11396757141E+03 -0.47024519854E+03  0.11532645028E+04  0.10105965170E+04 0.  0.
        -13    1    3    3    0    0  0.51867426379E+03  0.18777956513E+03 -0.11458534551E+02  0.55173858500E+03  0.10566000000E+00 0.  1.
          4    1    3    3  501    0 -0.24555425525E+03 -0.30174713654E+03 -0.45878666399E+03  0.60152591776E+03  0.00000000000E+00 0.  1.
         13    1    1    2    0    0 -0.27312000853E+03  0.11396757141E+03  0.80467198011E+02  0.30668897521E+03  0.10566000000E+00 0. -1.
<mgrwt>
<rscale>  1 0.76671776E+03</rscale>
<asrwt>0</asrwt>
<pdfrwt beam="2">  1       21 0.14228703E+00 0.10530377E+04</pdfrwt>
<pdfrwt beam="1">  1        4 0.82321192E-01 0.10530377E+04</pdfrwt>
<totfact> 0.16006127E+01</totfact>
</mgrwt>
</event>
<event>
 6    1  0.1431486E-005  0.1310167E+04  0.7818608E-02  0.9126178E-01
         21   -1    0    0  501  502  0.00000000000E+00  0.00000000000E+00  0.73079394843E+03  0.73079394843E+03  0.00000000000E+00 0. -1.
          4   -1    0    0  502    0 -0.00000000000E+00 -0.00000000000E+00 -0.16374277387E+04  0.16374277387E+04  0.00000000000E+00 0.  1.
    9000010    2    1    2  501    0  0.32479422135E+03 -0.81408699721E+03 -0.50548613449E+03  0.14042982575E+04  0.97381129521E+03 0.  0.
        -13    1    3    3    0    0 -0.69366147155E+02 -0.57394927795E+03 -0.69616020052E+03  0.90491351630E+03  0.10566000000E+00 0.  1.
          4    1    3    3  501    0  0.39416036851E+03 -0.24013771926E+03  0.19067406603E+03  0.49938474123E+03  0.00000000000E+00 0.  1.
         13    1    1    2    0    0 -0.32479422135E+03  0.81408699721E+03 -0.40114765582E+03  0.96392342963E+03  0.10566000000E+00 0. -1.
<mgrwt>
<rscale>  1 0.11848989E+04</rscale>
<asrwt>0</asrwt>
<pdfrwt beam="1">  1       21 0.11242984E+00 0.13101669E+04</pdfrwt>
<pdfrwt beam="2">  1        4 0.25191196E+00 0.13101669E+04</pdfrwt>
<totfact> 0.13360306E+00</totfact>
</mgrwt>
</event>
<event>
 6    1  0.1431486E-005  0.9755849E+03  0.7818608E-02  0.9909060E-01
          4   -1    0    0  502    0 -0.00000000000E+00  0.00000000000E+00  0.19411690138E+04  0.19411690138E+04  0.00000000000E+00 0.  1.
         21   -1    0    0  501  502  0.00000000000E+00 -0.00000000000E+00 -0.19174534715E+03  0.19174534715E+03  0.00000000000E+00 0.  1.
    9000010    2    1    2  501    0  0.20634670869E+02  0.13639484405E+03  0.11056469539E+04  0.14745240435E+04  0.96578290776E+03 0.  0.
        -13    1    3    3    0    0  0.18297491874E+03  0.11294249468E+03 -0.11435684845E+03  0.24354327735E+03  0.10566000000E+00 0.  1.
          4    1    3    3  501    0 -0.16234024787E+03  0.23452349372E+02  0.12200038024E+04  0.12309807661E+04  0.00000000000E+00 0.  1.
         13    1    1    2    0    0 -0.20634670869E+02 -0.13639484405E+03  0.64377671270E+03  0.65839031744E+03  0.10566000000E+00 0. -1.
<mgrwt>
<rscale>  1 0.59824189E+03</rscale>
<asrwt>0</asrwt>
<pdfrwt beam="2">  1       21 0.29499286E-01 0.97558494E+03</pdfrwt>
<pdfrwt beam="1">  1        4 0.29864137E+00 0.97558494E+03</pdfrwt>
<totfact> 0.14364925E+01</totfact>
</mgrwt>
</event>
<event>
 6    1  0.1431486E-005  0.1010073E+04  0.7818608E-02  0.9703686E-01
          4   -1    0    0  502    0 -0.00000000000E+00  0.00000000000E+00  0.68019073979E+03  0.68019073979E+03  0.00000000000E+00 0.  1.
         21   -1    0    0  501  502  0.00000000000E+00 -0.00000000000E+00 -0.72882998386E+03  0.72882998386E+03  0.00000000000E+00 0.  1.
    9000010    2    1    2  501    0 -0.23122879918E+03  0.77252836609E+02 -0.30512845382E+03  0.10551542457E+04  0.98021036036E+03 0.  0.
        -13    1    3    3    0    0 -0.17291221818E+03  0.51498336467E+03 -0.50929495085E+02  0.54561921311E+03  0.10566000000E+00 0.  1.
          4    1    3    3  501    0 -0.58316581000E+02 -0.43773052806E+03 -0.25419895873E+03  0.50953503259E+03  0.00000000000E+00 0.  1.
         13    1    1    2    0    0  0.23122879918E+03 -0.77252836609E+02  0.25648920974E+03  0.35386647794E+03  0.10566000000E+00 0. -1.
<mgrwt>
<rscale>  1 0.70797772E+03</rscale>
<asrwt>0</asrwt>
<pdfrwt beam="2">  1       21 0.11212769E+00 0.10100728E+04</pdfrwt>
<pdfrwt beam="1">  1        4 0.10464473E+00 0.10100728E+04</pdfrwt>
<totfact> 0.17058784E+01</totfact>
</mgrwt>
</event>
<event>
 6    1  0.1431486E-005  0.1151290E+04  0.7818608E-02  0.9288956E-01
         21   -1    0    0  501  502  0.00000000000E+00  0.00000000000E+00  0.49000464608E+03  0.49000464608E+03  0.00000000000E+00 0.  1.
          4   -1    0    0  502    0 -0.00000000000E+00 -0.00000000000E+00 -0.17689981141E+04  0.17689981141E+04  0.00000000000E+00 0.  1.
    9000010    2    1    2  501    0  0.33491030334E+03 -0.61917331598E+03 -0.69878520211E+03  0.13467625783E+04  0.91100393908E+03 0.  0.
        -13    1    3    3    0    0  0.30293706864E+02 -0.79255246002E+03 -0.41125428360E+03  0.89341323446E+03  0.10566000000E+00 0.  1.
          4    1    3    3  501    0  0.30461659648E+03  0.17337914403E+03 -0.28753091851E+03  0.45334934381E+03  0.00000000000E+00 0.  1.
         13    1    1    2    0    0 -0.33491030334E+03  0.61917331598E+03 -0.58020826590E+03  0.91224018191E+03  0.10566000000E+00 0. -1.
<mgrwt>
<rscale>  1 0.10180602E+04</rscale>
<asrwt>0</asrwt>
<pdfrwt beam="1">  1       21 0.75385330E-01 0.11512900E+04</pdfrwt>
<pdfrwt beam="2">  1        4 0.27215355E+00 0.11512900E+04</pdfrwt>
<totfact> 0.27112500E+00</totfact>
</mgrwt>
</event>
<event>
 6    1  0.1431486E-005  0.9934076E+03  0.7818608E-02  0.9696755E-01
         21   -1    0    0  501  502  0.00000000000E+00  0.00000000000E+00  0.39484420614E+03  0.39484420614E+03  0.00000000000E+00 0.  1.
          4   -1    0    0  502    0 -0.00000000000E+00 -0.00000000000E+00 -0.10537634851E+04  0.10537634851E+04  0.00000000000E+00 0.  1.
    9000010    2    1    2  501    0 -0.22598137845E+03 -0.13315780060E+03 -0.37436367280E+03  0.10616057695E+04  0.95815451107E+03 0.  0.
        -13    1    3    3    0    0 -0.40917112585E+03 -0.45188471945E+03 -0.13950018325E+03  0.62536479129E+03  0.10566000000E+00 0.  1.
          4    1    3    3  501    0  0.18318974740E+03  0.31872691885E+03 -0.23486348955E+03  0.43624097822E+03  0.00000000000E+00 0.  1.
         13    1    1    2    0    0  0.22598137845E+03  0.13315780060E+03 -0.28455560619E+03  0.38700192176E+03  0.10566000000E+00 0. -1.
<mgrwt>
<rscale>  1 0.71210339E+03</rscale>
<asrwt>0</asrwt>
<pdfrwt beam="1">  1       21 0.60745264E-01 0.99340760E+03</pdfrwt>
<pdfrwt beam="2">  1        4 0.16211745E+00 0.99340760E+03</pdfrwt>
<totfact> 0.23703778E+01</totfact>
</mgrwt>
</event>
<event>
 6    1  0.1431486E-005  0.1134358E+04  0.7818608E-02  0.9390090E-01
         21   -1    0    0  501  502  0.00000000000E+00  0.00000000000E+00  0.55135482817E+03  0.55135482817E+03  0.00000000000E+00 0.  1.
          4   -1    0    0  502    0 -0.00000000000E+00 -0.00000000000E+00 -0.13372627118E+04  0.13372627118E+04  0.00000000000E+00 0.  1.
    9000010    2    1    2  501    0 -0.34465075542E+02  0.50902462595E+03 -0.27632542680E+03  0.11675293327E+04  0.10131510696E+04 0.  0.
        -13    1    3    3    0    0 -0.33882220876E+03  0.32182222538E+03  0.25107683051E+03  0.53048055561E+03  0.10566000000E+00 0.  1.
          4    1    3    3  501    0  0.30435713322E+03  0.18720240057E+03 -0.52740225730E+03  0.63704877704E+03  0.00000000000E+00 0.  1.
         13    1    1    2    0    0  0.34465075542E+02 -0.50902462595E+03 -0.50958245682E+03  0.72108820731E+03  0.10566000000E+00 0. -1.
<mgrwt>
<rscale>  1 0.92895724E+03</rscale>
<asrwt>0</asrwt>
<pdfrwt beam="1">  1       21 0.84823820E-01 0.11343584E+04</pdfrwt>
<pdfrwt beam="2">  1        4 0.20573272E+00 0.11343584E+04</pdfrwt>
<totfact> 0.53889508E+00</totfact>
</mgrwt>
</event>
<event>
 6    1  0.1431486E-005  0.1021320E+04  0.7818608E-02  0.9629242E-01
         21   -1    0    0  501  502  0.00000000000E+00  0.00000000000E+00  0.35812161475E+03  0.35812161475E+03  0.00000000000E+00 0.  1.
          4   -1    0    0  502    0 -0.00000000000E+00 -0.00000000000E+00 -0.16206056940E+04  0.16206056940E+04  0.00000000000E+00 0.  1.
    9000010    2    1    2  501    0  0.12106395705E+03 -0.27802299811E+03 -0.45861148656E+03  0.11195623504E+04  0.97526513918E+03 0.  0.
        -13    1    3    3    0    0  0.48137752604E+03 -0.37372121703E+03 -0.13117202054E+03  0.62337627543E+03  0.10566000000E+00 0.  1.
          4    1    3    3  501    0 -0.36031356899E+03  0.95698218917E+02 -0.32743946602E+03  0.49618607499E+03  0.00000000000E+00 0.  1.
         13    1    1    2    0    0 -0.12106395705E+03  0.27802299811E+03 -0.80387259268E+03  0.85916495832E+03  0.10566000000E+00 0. -1.
<mgrwt>
<rscale>  1 0.75390636E+03</rscale>
<asrwt>0</asrwt>
<pdfrwt beam="1">  1       21 0.55095634E-01 0.10213204E+04</pdfrwt>
<pdfrwt beam="2">  1        4 0.24932395E+00 0.10213204E+04</pdfrwt>
<totfact> 0.77524711E+00</totfact>
</mgrwt>
</event>
<event>
 6    1  0.1431486E-005  0.1000978E+04  0.7818608E-02  0.1024990E+00
         21   -1    0    0  501  502  0.00000000000E+00  0.00000000000E+00  0.16484364664E+04  0.16484364664E+04  0.00000000000E+00 0.  1.
          4   -1    0    0  502    0 -0.00000000000E+00 -0.00000000000E+00 -0.31825260493E+03  0.31825260493E+03  0.00000000000E+00 0.  1.
    9000010    2    1    2  501    0  0.15645950077E+02  0.41514489889E+02  0.14932432618E+04  0.17977020073E+04  0.99999440981E+03 0.  0.
        -13    1    3    3    0    0  0.31678330846E+03 -0.27745622386E+02  0.50184944158E+02  0.32193170683E+03  0.10566000000E+00 0.  1.
          4    1    3    3  501    0 -0.30113735838E+03  0.69260112275E+02  0.14430583176E+04  0.14757703005E+04  0.00000000000E+00 0.  1.
         13    1    1    2    0    0 -0.15645950077E+02 -0.41514489889E+02 -0.16305940028E+03  0.16898706403E+03  0.10566000000E+00 0. -1.
<mgrwt>
<rscale>  1 0.45928125E+03</rscale>
<asrwt>0</asrwt>
<pdfrwt beam="1">  1       21 0.25360561E+00 0.10009781E+04</pdfrwt>
<pdfrwt beam="2">  1        4 0.48961940E-01 0.10009781E+04</pdfrwt>
<totfact> 0.82921590E+00</totfact>
</mgrwt>
</event>
<event>
 6    1  0.1431486E-005  0.1017394E+04  0.7818608E-02  0.9838397E-01
          4   -1    0    0  502    0 -0.00000000000E+00  0.00000000000E+00  0.11264850508E+04  0.11264850508E+04  0.00000000000E+00 0.  1.
         21   -1    0    0  501  502  0.00000000000E+00 -0.00000000000E+00 -0.42672554758E+03  0.42672554758E+03  0.00000000000E+00 0.  1.
    9000010    2    1    2  501    0  0.15280558617E+03 -0.41592198115E+01  0.20826232874E+03  0.10384909369E+04  0.10058446113E+04 0.  0.
        -13    1    3    3    0    0  0.15120606672E+03 -0.64663588870E+02  0.61022539804E+03  0.63199659960E+03  0.10566000000E+00 0.  1.
          4    1    3    3  501    0  0.15995194505E+01  0.60504369059E+02 -0.40196306930E+03  0.40649433725E+03  0.00000000000E+00 0.  1.
         13    1    1    2    0    0 -0.15280558617E+03  0.41592198115E+01  0.49149717448E+03  0.51471966153E+03  0.10566000000E+00 0. -1.
<mgrwt>
<rscale>  1 0.63342014E+03</rscale>
<asrwt>0</asrwt>
<pdfrwt beam="2">  1       21 0.65650085E-01 0.10173938E+04</pdfrwt>
<pdfrwt beam="1">  1        4 0.17330539E+00 0.10173938E+04</pdfrwt>
<totfact> 0.16471692E+01</totfact>
</mgrwt>
</event>
<event>
 6    1  0.1431486E-005  0.9490890E+03  0.7818608E-02  0.9934334E-01
          4   -1    0    0  502    0 -0.00000000000E+00  0.00000000000E+00  0.11353656481E+04  0.11353656481E+04  0.00000000000E+00 0.  1.
         21   -1    0    0  501  502  0.00000000000E+00 -0.00000000000E+00 -0.27807267775E+03  0.27807267775E+03  0.00000000000E+00 0.  1.
    9000010    2    1    2  501    0  0.54886212652E+02  0.12680785206E+03  0.60422055176E+03  0.11251010444E+04  0.93897665423E+03 0.  0.
        -13    1    3    3    0    0  0.22057076270E+03  0.34503799462E+03  0.71946798330E+03  0.82785075300E+03  0.10566000000E+00 0.  1.
          4    1    3    3  501    0 -0.16568455004E+03 -0.21823014256E+03 -0.11524743153E+03  0.29725029137E+03  0.00000000000E+00 0.  1.
         13    1    1    2    0    0 -0.54886212652E+02 -0.12680785206E+03  0.25307241863E+03  0.28833728153E+03  0.10566000000E+00 0. -1.
<mgrwt>
<rscale>  1 0.58625792E+03</rscale>
<asrwt>0</asrwt>
<pdfrwt beam="2">  1       21 0.42780413E-01 0.94908898E+03</pdfrwt>
<pdfrwt beam="1">  1        4 0.17467164E+00 0.94908898E+03</pdfrwt>
<totfact> 0.41312628E+01</totfact>
</mgrwt>
</event>
<event>
 6    1  0.1431486E-005  0.1108121E+04  0.7818608E-02  0.9437851E-01
          4   -1    0    0  502    0 -0.00000000000E+00  0.00000000000E+00  0.12372194318E+04  0.12372194318E+04  0.00000000000E+00 0.  1.
         21   -1    0    0  501  502  0.00000000000E+00 -0.00000000000E+00 -0.53436040916E+03  0.53436040916E+03  0.00000000000E+00 0.  1.
    9000010    2    1    2  501    0  0.36360357048E+03 -0.28440960662E+03  0.27401398907E+03  0.11414969458E+04  0.10073903068E+04 0.  0.
        -13    1    3    3    0    0 -0.25785623434E+03  0.19119552656E+02  0.36140487076E+03  0.44437471424E+03  0.10566000000E+00 0.  1.
          4    1    3    3  501    0  0.62145980482E+03 -0.30352915928E+03 -0.87390881690E+02  0.69712223157E+03  0.00000000000E+00 0.  1.
         13    1    1    2    0    0 -0.36360357048E+03  0.28440960662E+03  0.42884503361E+03  0.63008289520E+03  0.10566000000E+00 0. -1.
<mgrwt>
<rscale>  1 0.89025071E+03</rscale>
<asrwt>0</asrwt>
<pdfrwt beam="2">  1       21 0.82209294E-01 0.11081208E+04</pdfrwt>
<pdfrwt beam="1">  1        4 0.19034145E+00 0.11081208E+04</pdfrwt>
<totfact> 0.73765044E+00</totfact>
</mgrwt>
</event>
<event>
 6    1  0.1431486E-005  0.1030098E+04  0.7818608E-02  0.1046588E+00
         21   -1    0    0  501  502  0.00000000000E+00  0.00000000000E+00  0.39441683693E+03  0.39441683693E+03  0.00000000000E+00 0.  1.
          4   -1    0    0  502    0 -0.00000000000E+00 -0.00000000000E+00 -0.70239102243E+03  0.70239102243E+03  0.00000000000E+00 0.  1.
    9000010    2    1    2  501    0  0.33187810449E+00 -0.21598480672E+02 -0.29457995574E+03  0.10713909149E+04  0.10298711268E+04 0.  0.
        -13    1    3    3    0    0 -0.34098850445E+03 -0.21851062644E+03  0.18955823388E+03  0.44716036187E+03  0.10566000000E+00 0.  1.
          4    1    3    3  501    0  0.34132038256E+03  0.19691214576E+03 -0.48413818962E+03  0.62423055304E+03  0.00000000000E+00 0.  1.
         13    1    1    2    0    0 -0.33187810449E+00  0.21598480672E+02 -0.13394229762E+02  0.25416944454E+02  0.10566000000E+00 0. -1.
<mgrwt>
<rscale>  1 0.39199336E+03</rscale>
<asrwt>0</asrwt>
<pdfrwt beam="1">  1       21 0.60679514E-01 0.10300976E+04</pdfrwt>
<pdfrwt beam="2">  1        4 0.10806016E+00 0.10300976E+04</pdfrwt>
<totfact> 0.67776546E+01</totfact>
</mgrwt>
</event>
<event>
 6    1  0.1431486E-005  0.8033580E+03  0.7818608E-02  0.1029354E+00
          4   -1    0    0  502    0 -0.00000000000E+00  0.00000000000E+00  0.51840321404E+03  0.51840321404E+03  0.00000000000E+00 0.  1.
         21   -1    0    0  501  502  0.00000000000E+00 -0.00000000000E+00 -0.40040860460E+03  0.40040860460E+03  0.00000000000E+00 0.  1.
    9000010    2    1    2  501    0  0.36812365564E+02 -0.65735092999E+02  0.31318234570E+02  0.80396819525E+03  0.79981733817E+03 0.  0.
        -13    1    3    3    0    0 -0.33932497941E+03  0.11802947736E+03  0.11467173678E+03  0.37712334529E+03  0.10566000000E+00 0.  1.
          4    1    3    3  501    0  0.37613734498E+03 -0.18376457036E+03 -0.83353502214E+02  0.42684484996E+03  0.00000000000E+00 0.  1.
         13    1    1    2    0    0 -0.36812365564E+02  0.65735092999E+02  0.86676374873E+02  0.11484362340E+03  0.10566000000E+00 0. -1.
<mgrwt>
<rscale>  1 0.44456949E+03</rscale>
<asrwt>0</asrwt>
<pdfrwt beam="2">  1       21 0.61601323E-01 0.80335797E+03</pdfrwt>
<pdfrwt beam="1">  1        4 0.79754341E-01 0.80335797E+03</pdfrwt>
<totfact> 0.13678693E+02</totfact>
</mgrwt>
</event>
<event>
 6    1  0.1431486E-005  0.7902171E+03  0.7818608E-02  0.9986653E-01
         21   -1    0    0  501  502  0.00000000000E+00  0.00000000000E+00  0.12674529035E+04  0.12674529035E+04  0.00000000000E+00 0.  1.
          4   -1    0    0  502    0 -0.00000000000E+00 -0.00000000000E+00 -0.33525201385E+03  0.33525201385E+03  0.00000000000E+00 0.  1.
    9000010    2    1    2  501    0  0.54734866249E+02 -0.19520367356E+03  0.10896425345E+04  0.13460178268E+04  0.76376878518E+03 0.  0.
        -13    1    3    3    0    0 -0.28684906501E+03  0.12306884886E+03  0.55037587237E+03  0.63272580136E+03  0.10566000000E+00 0.  1.
          4    1    3    3  501    0  0.34158393126E+03 -0.31827252242E+03  0.53926666211E+03  0.71329202539E+03  0.00000000000E+00 0.  1.
         13    1    1    2    0    0 -0.54734866249E+02  0.19520367356E+03 -0.15744164488E+03  0.25668709056E+03  0.10566000000E+00 0. -1.
<mgrwt>
<rscale>  1 0.56239387E+03</rscale>
<asrwt>0</asrwt>
<pdfrwt beam="1">  1       21 0.19499275E+00 0.79021715E+03</pdfrwt>
<pdfrwt beam="2">  1        4 0.51577234E-01 0.79021715E+03</pdfrwt>
<totfact> 0.18617467E+01</totfact>
</mgrwt>
</event>
<event>
 6    1  0.1431486E-005  0.1009142E+04  0.7818608E-02  0.9971666E-01
          4   -1    0    0  502    0 -0.00000000000E+00  0.00000000000E+00  0.54128209876E+03  0.54128209876E+03  0.00000000000E+00 0.  1.
         21   -1    0    0  501  502  0.00000000000E+00 -0.00000000000E+00 -0.57212648288E+03  0.57212648288E+03  0.00000000000E+00 0.  1.
    9000010    2    1    2  501    0  0.73063965628E+02 -0.71276182036E+02 -0.98003204630E+01  0.10091900565E+04  0.10039670745E+04 0.  0.
        -13    1    3    3    0    0  0.11852150382E+03  0.46040187261E+03 -0.12121838372E+02  0.47556722059E+03  0.10566000000E+00 0.  1.
          4    1    3    3  501    0 -0.45457538194E+02 -0.53167805465E+03  0.23215179090E+01  0.53362283592E+03  0.00000000000E+00 0.  1.
         13    1    1    2    0    0 -0.73063965628E+02  0.71276182036E+02 -0.21044063654E+02  0.10421852512E+03  0.10566000000E+00 0. -1.
<mgrwt>
<rscale>  1 0.56910295E+03</rscale>
<asrwt>0</asrwt>
<pdfrwt beam="2">  1       21 0.88019458E-01 0.10091425E+04</pdfrwt>
<pdfrwt beam="1">  1        4 0.83274169E-01 0.10091425E+04</pdfrwt>
<totfact> 0.53423569E+01</totfact>
</mgrwt>
</event>
<event>
 6    1  0.1431486E-005  0.1105527E+04  0.7818608E-02  0.9424964E-01
         21   -1    0    0  501  502  0.00000000000E+00  0.00000000000E+00  0.47491842537E+03  0.47491842537E+03  0.00000000000E+00 0. -1.
          4   -1    0    0  502    0 -0.00000000000E+00 -0.00000000000E+00 -0.13577168731E+04  0.13577168731E+04  0.00000000000E+00 0.  1.
    9000010    2    1    2  501    0  0.42802177695E+02  0.48476359230E+03 -0.49934978297E+03  0.12130704056E+04  0.99265393582E+03 0.  0.
        -13    1    3    3    0    0 -0.46687710481E+03  0.14297337770E+03 -0.26988112677E+03  0.55789914095E+03  0.10566000000E+00 0.  1.
          4    1    3    3  501    0  0.50967928250E+03  0.34179021461E+03 -0.22946865619E+03  0.65517126462E+03  0.00000000000E+00 0.  1.
         13    1    1    2    0    0 -0.42802177695E+02 -0.48476359230E+03 -0.38344866477E+03  0.61956489290E+03  0.10566000000E+00 0. -1.
<mgrwt>
<rscale>  1 0.90049447E+03</rscale>
<asrwt>0</asrwt>
<pdfrwt beam="1">  1       21 0.73064373E-01 0.11055268E+04</pdfrwt>
<pdfrwt beam="2">  1        4 0.20887952E+00 0.11055268E+04</pdfrwt>
<totfact> 0.73234352E+00</totfact>
</mgrwt>
</event>
<event>
 6    1  0.1431486E-005  0.1016000E+04  0.7818608E-02  0.1003271E+00
         21   -1    0    0  501  502  0.00000000000E+00  0.00000000000E+00  0.60236000978E+03  0.60236000978E+03  0.00000000000E+00 0.  1.
          4   -1    0    0  502    0 -0.00000000000E+00 -0.00000000000E+00 -0.52571778398E+03  0.52571778398E+03  0.00000000000E+00 0.  1.
    9000010    2    1    2  501    0 -0.82519758765E+02  0.54825586818E+00  0.13788517203E+03  0.10253133992E+04  0.10126427972E+04 0.  0.
        -13    1    3    3    0    0 -0.35738563372E+03  0.33359742176E+03  0.28887016621E+03  0.56785360357E+03  0.10566000000E+00 0.  1.
          4    1    3    3  501    0  0.27486587496E+03 -0.33304916589E+03 -0.15098499418E+03  0.45745979559E+03  0.00000000000E+00 0.  1.
         13    1    1    2    0    0  0.82519758765E+02 -0.54825586818E+00 -0.61242946229E+02  0.10276439460E+03  0.10566000000E+00 0. -1.
<mgrwt>
<rscale>  1 0.54239058E+03</rscale>
<asrwt>0</asrwt>
<pdfrwt beam="1">  1       21 0.92670771E-01 0.10159996E+04</pdfrwt>
<pdfrwt beam="2">  1        4 0.80879659E-01 0.10159996E+04</pdfrwt>
<totfact> 0.50431979E+01</totfact>
</mgrwt>
</event>
<event>
 6    1  0.1431486E-005  0.1072493E+04  0.7818608E-02  0.9615071E-01
          4   -1    0    0  502    0 -0.00000000000E+00  0.00000000000E+00  0.27132059646E+04  0.27132059646E+04  0.00000000000E+00 0.  1.
         21   -1    0    0  501  502  0.00000000000E+00 -0.00000000000E+00 -0.18678732256E+03  0.18678732256E+03  0.00000000000E+00 0.  1.
    9000010    2    1    2  501    0 -0.25205311327E+03 -0.10955302266E+03  0.15445936638E+04  0.18804282153E+04  0.10366812673E+04 0.  0.
        -13    1    3    3    0    0  0.78015090675E+00 -0.19200080133E+03 -0.98609642361E+02  0.21584436308E+03  0.10566000000E+00 0.  1.
          4    1    3    3  501    0 -0.25283326418E+03  0.82447778666E+02  0.16432033062E+04  0.16645838522E+04  0.00000000000E+00 0.  1.
         13    1    1    2    0    0  0.25205311327E+03  0.10955302266E+03  0.98182497820E+03  0.10195650718E+04  0.10566000000E+00 0. -1.
<mgrwt>
<rscale>  1 0.76306689E+03</rscale>
<asrwt>0</asrwt>
<pdfrwt beam="2">  1       21 0.28736513E-01 0.10724927E+04</pdfrwt>
<pdfrwt beam="1">  1        4 0.41741627E+00 0.10724927E+04</pdfrwt>
<totfact> 0.24741868E+00</totfact>
</mgrwt>
</event>
<event>
 6    1  0.1431486E-005  0.1000654E+04  0.7818608E-02  0.9747670E-01
         21   -1    0    0  501  502  0.00000000000E+00  0.00000000000E+00  0.87073953717E+03  0.87073953717E+03  0.00000000000E+00 0.  1.
          4   -1    0    0  502    0 -0.00000000000E+00 -0.00000000000E+00 -0.48825369633E+03  0.48825369633E+03  0.00000000000E+00 0.  1.
    9000010    2    1    2  501    0 -0.21353824753E+03 -0.35850244037E+02  0.49343073158E+03  0.11156979333E+04  0.97694634876E+03 0.  0.
        -13    1    3    3    0    0  0.17120417719E+03  0.29974946562E+03 -0.73323200350E+02  0.35289788226E+03  0.10566000000E+00 0.  1.
          4    1    3    3  501    0 -0.38474242473E+03 -0.33559970966E+03  0.56675393193E+03  0.76280005104E+03  0.00000000000E+00 0.  1.
         13    1    1    2    0    0  0.21353824753E+03  0.35850244037E+02 -0.11094489074E+03  0.24329530020E+03  0.10566000000E+00 0. -1.
<mgrwt>
<rscale>  1 0.68248132E+03</rscale>
<asrwt>0</asrwt>
<pdfrwt beam="1">  1       21 0.13395993E+00 0.10006538E+04</pdfrwt>
<pdfrwt beam="2">  1        4 0.75115953E-01 0.10006538E+04</pdfrwt>
<totfact> 0.23379303E+01</totfact>
</mgrwt>
</event>
<event>
 6    1  0.1431486E-005  0.1000693E+04  0.7818608E-02  0.1007558E+00
         21   -1    0    0  501  502  0.00000000000E+00  0.00000000000E+00  0.10742238068E+04  0.10742238068E+04  0.00000000000E+00 0.  1.
          4   -1    0    0  502    0 -0.00000000000E+00 -0.00000000000E+00 -0.28641306359E+03  0.28641306359E+03  0.00000000000E+00 0.  1.
    9000010    2    1    2  501    0 -0.51758121664E+02 -0.55050795679E+02  0.80363181764E+03  0.12834370594E+04  0.99783620592E+03 0.  0.
        -13    1    3    3    0    0 -0.18559763827E+03 -0.46361303861E+03  0.19026470687E+03  0.53440078849E+03  0.10566000000E+00 0.  1.
          4    1    3    3  501    0  0.13383951660E+03  0.40856224293E+03  0.61336711077E+03  0.74903627090E+03  0.00000000000E+00 0.  1.
         13    1    1    2    0    0  0.51758121664E+02  0.55050795679E+02 -0.15821074393E+02  0.77199811024E+02  0.10566000000E+00 0. -1.
<mgrwt>
<rscale>  1 0.52456640E+03</rscale>
<asrwt>0</asrwt>
<pdfrwt beam="1">  1       21 0.16526520E+00 0.10006931E+04</pdfrwt>
<pdfrwt beam="2">  1        4 0.44063549E-01 0.10006931E+04</pdfrwt>
<totfact> 0.41332303E+01</totfact>
</mgrwt>
</event>
<event>
 6    1  0.1431486E-005  0.1032896E+04  0.7818608E-02  0.9698970E-01
          4   -1    0    0  502    0 -0.00000000000E+00  0.00000000000E+00  0.58779600207E+03  0.58779600207E+03  0.00000000000E+00 0.  1.
         21   -1    0    0  501  502  0.00000000000E+00 -0.00000000000E+00 -0.81271207505E+03  0.81271207505E+03  0.00000000000E+00 0.  1.
    9000010    2    1    2  501    0 -0.22018610492E+03 -0.71870978352E+02 -0.40259990861E+03  0.11085852878E+04  0.10065919211E+04 0.  0.
        -13    1    3    3    0    0 -0.22848053557E+03 -0.22746553189E+03  0.26854186600E+03  0.41959345597E+03  0.10566000000E+00 0.  1.
          4    1    3    3  501    0  0.82944306499E+01  0.15559455353E+03 -0.67114177461E+03  0.68899183180E+03  0.00000000000E+00 0.  1.
         13    1    1    2    0    0  0.22018610492E+03  0.71870978352E+02  0.17768383564E+03  0.29192278935E+03  0.10566000000E+00 0. -1.
<mgrwt>
<rscale>  1 0.71078144E+03</rscale>
<asrwt>0</asrwt>
<pdfrwt beam="2">  1       21 0.12503263E+00 0.10328962E+04</pdfrwt>
<pdfrwt beam="1">  1        4 0.90430155E-01 0.10328962E+04</pdfrwt>
<totfact> 0.18220612E+01</totfact>
</mgrwt>
</event>
<event>
 6    1  0.1431486E-005  0.1016319E+04  0.7818608E-02  0.9775523E-01
          4   -1    0    0  502    0 -0.00000000000E+00  0.00000000000E+00  0.22703726249E+03  0.22703726249E+03  0.00000000000E+00 0.  1.
         21   -1    0    0  501  502  0.00000000000E+00 -0.00000000000E+00 -0.15991317916E+04  0.15991317916E+04  0.00000000000E+00 0.  1.
    9000010    2    1    2  501    0  0.12302494933E+03  0.14276937987E+03 -0.11723010865E+04  0.15515135155E+04  0.99869220355E+03 0.  0.
        -13    1    3    3    0    0  0.13156202482E+03 -0.28207516002E+03 -0.10701276251E+04  0.11144721205E+04  0.10566000000E+00 0.  1.
          4    1    3    3  501    0 -0.85370754879E+01  0.42484453990E+03 -0.10217346143E+03  0.43704139502E+03  0.00000000000E+00 0.  1.
         13    1    1    2    0    0 -0.12302494933E+03 -0.14276937987E+03 -0.19979344260E+03  0.27465553855E+03  0.10566000000E+00 0. -1.
<mgrwt>
<rscale>  1 0.66692804E+03</rscale>
<asrwt>0</asrwt>
<pdfrwt beam="2">  1       21 0.24602028E+00 0.10163190E+04</pdfrwt>
<pdfrwt beam="1">  1        4 0.34928810E-01 0.10163190E+04</pdfrwt>
<totfact> 0.18475248E+01</totfact>
</mgrwt>
</event>
<event>
 6    1  0.1431486E-005  0.9778716E+03  0.7818608E-02  0.9917987E-01
          4   -1    0    0  502    0 -0.00000000000E+00  0.00000000000E+00  0.29018475726E+04  0.29018475726E+04  0.00000000000E+00 0.  1.
         21   -1    0    0  501  502  0.00000000000E+00 -0.00000000000E+00 -0.10686047030E+03  0.10686047030E+03  0.00000000000E+00 0. -1.
    9000010    2    1    2  501    0 -0.44298010390E+02  0.12552733903E+03  0.23862481771E+04  0.25788395203E+04  0.96876905518E+03 0.  0.
        -13    1    3    3    0    0  0.14481853037E+03  0.44983803645E+03  0.19348493624E+04  0.19917250644E+04  0.10566000000E+00 0.  1.
          4    1    3    3  501    0 -0.18911654076E+03 -0.32431069742E+03  0.45139881471E+03  0.58711445594E+03  0.00000000000E+00 0.  1.
         13    1    1    2    0    0  0.44298010390E+02 -0.12552733903E+03  0.40873892523E+03  0.42986852261E+03  0.10566000000E+00 0. -1.
<mgrwt>
<rscale>  1 0.59397426E+03</rscale>
<asrwt>0</asrwt>
<pdfrwt beam="2">  1       21 0.16440075E-01 0.97787162E+03</pdfrwt>
<pdfrwt beam="1">  1        4 0.44643803E+00 0.97787162E+03</pdfrwt>
<totfact> 0.45944005E+00</totfact>
</mgrwt>
</event>
<event>
 6    1  0.1431486E-005  0.7826116E+03  0.7818608E-02  0.1005273E+00
         21   -1    0    0  501  502  0.00000000000E+00  0.00000000000E+00  0.49140490698E+03  0.49140490698E+03  0.00000000000E+00 0.  1.
          4   -1    0    0  502    0 -0.00000000000E+00 -0.00000000000E+00 -0.47613036752E+03  0.47613036752E+03  0.00000000000E+00 0.  1.
    9000010    2    1    2  501    0 -0.12977617566E+03 -0.10919413497E+03  0.78481934395E+02  0.78653692971E+03  0.76401290099E+03 0.  0.
        -13    1    3    3    0    0 -0.43281275685E+03 -0.18294880308E+03  0.29333755979E+02  0.47080529675E+03  0.10566000000E+00 0.  1.
          4    1    3    3  501    0  0.30303658119E+03  0.73754668112E+02  0.49148178416E+02  0.31573163296E+03  0.00000000000E+00 0.  1.
         13    1    1    2    0    0  0.12977617566E+03  0.10919413497E+03 -0.63207394932E+02  0.18099834479E+03  0.10566000000E+00 0. -1.
<mgrwt>
<rscale>  1 0.53397163E+03</rscale>
<asrwt>0</asrwt>
<pdfrwt beam="1">  1       21 0.75600755E-01 0.78261161E+03</pdfrwt>
<pdfrwt beam="2">  1        4 0.73250825E-01 0.78261161E+03</pdfrwt>
<totfact> 0.10438772E+02</totfact>
</mgrwt>
</event>
<event>
 6    1  0.1431486E-005  0.1036635E+04  0.7818608E-02  0.9638299E-01
         21   -1    0    0  501  502  0.00000000000E+00  0.00000000000E+00  0.60228421580E+03  0.60228421580E+03  0.00000000000E+00 0.  1.
          4   -1    0    0  502    0 -0.00000000000E+00 -0.00000000000E+00 -0.76353571734E+03  0.76353571734E+03  0.00000000000E+00 0.  1.
    9000010    2    1    2  501    0  0.15912361895E+02  0.28074942567E+03  0.97998662321E+01  0.10366816266E+04  0.99776716431E+03 0.  0.
        -13    1    3    3    0    0  0.16613481471E+03 -0.14686221213E+03  0.38766122062E+03  0.44659883469E+03  0.10566000000E+00 0.  1.
          4    1    3    3  501    0 -0.15022245281E+03  0.42761163780E+03 -0.37786135439E+03  0.59008279186E+03  0.00000000000E+00 0.  1.
         13    1    1    2    0    0 -0.15912361895E+02 -0.28074942567E+03 -0.17105136777E+03  0.32913830658E+03  0.10566000000E+00 0. -1.
<mgrwt>
<rscale>  1 0.74812357E+03</rscale>
<asrwt>0</asrwt>
<pdfrwt beam="1">  1       21 0.92659110E-01 0.10366353E+04</pdfrwt>
<pdfrwt beam="2">  1        4 0.11746703E+00 0.10366353E+04</pdfrwt>
<totfact> 0.20577827E+01</totfact>
</mgrwt>
</event>
<event>
 6    1  0.1431486E-005  0.9968444E+03  0.7818608E-02  0.1025729E+00
          4   -1    0    0  502    0 -0.00000000000E+00  0.00000000000E+00  0.47844113001E+03  0.47844113001E+03  0.00000000000E+00 0.  1.
         21   -1    0    0  501  502  0.00000000000E+00 -0.00000000000E+00 -0.62463030691E+03  0.62463030691E+03  0.00000000000E+00 0.  1.
    9000010    2    1    2  501    0  0.10819703275E+02 -0.42582632892E+02 -0.21657372836E+03  0.10200994968E+04  0.99587572364E+03 0.  0.
        -13    1    3    3    0    0  0.22301628595E+03 -0.41460234692E+03  0.10765634350E+03  0.48292988035E+03  0.10566000000E+00 0.  1.
          4    1    3    3  501    0 -0.21219658268E+03  0.37201971403E+03 -0.32423007185E+03  0.53716961644E+03  0.00000000000E+00 0.  1.
         13    1    1    2    0    0 -0.10819703275E+02  0.42582632892E+02  0.70384551448E+02  0.82971940133E+02  0.10566000000E+00 0. -1.
<mgrwt>
<rscale>  1 0.45674654E+03</rscale>
<asrwt>0</asrwt>
<pdfrwt beam="2">  1       21 0.96096970E-01 0.99684442E+03</pdfrwt>
<pdfrwt beam="1">  1        4 0.73606328E-01 0.99684442E+03</pdfrwt>
<totfact> 0.57315549E+01</totfact>
</mgrwt>
</event>
<event>
 6    1  0.1431486E-005  0.9995322E+03  0.7818608E-02  0.9909976E-01
         21   -1    0    0  501  502  0.00000000000E+00  0.00000000000E+00  0.45522060406E+03  0.45522060406E+03  0.00000000000E+00 0.  1.
          4   -1    0    0  502    0 -0.00000000000E+00 -0.00000000000E+00 -0.70426415482E+03  0.70426415482E+03  0.00000000000E+00 0.  1.
    9000010    2    1    2  501    0 -0.79692953079E+02 -0.10002554343E+03 -0.25468528135E+03  0.10314694614E+04  0.99131658975E+03 0.  0.
        -13    1    3    3    0    0  0.45230313037E+03 -0.50489103571E+02 -0.19033856769E+03  0.49331131432E+03  0.10566000000E+00 0.  1.
          4    1    3    3  501    0 -0.53199608345E+03 -0.49536439858E+02 -0.64346713662E+02  0.53815814705E+03  0.00000000000E+00 0.  1.
         13    1    1    2    0    0  0.79692953079E+02  0.10002554343E+03  0.56417305965E+01  0.12801529751E+03  0.10566000000E+00 0. -1.
<mgrwt>
<rscale>  1 0.59780230E+03</rscale>
<asrwt>0</asrwt>
<pdfrwt beam="1">  1       21 0.70033939E-01 0.99953222E+03</pdfrwt>
<pdfrwt beam="2">  1        4 0.10834833E+00 0.99953222E+03</pdfrwt>
<totfact> 0.48792111E+01</totfact>
</mgrwt>
</event>
<event>
 6    1  0.1431486E-005  0.1047863E+04  0.7818608E-02  0.9722844E-01
          4   -1    0    0  502    0 -0.00000000000E+00  0.00000000000E+00  0.52738286094E+03  0.52738286094E+03  0.00000000000E+00 0.  1.
         21   -1    0    0  501  502  0.00000000000E+00 -0.00000000000E+00 -0.75982079406E+03  0.75982079406E+03  0.00000000000E+00 0.  1.
    9000010    2    1    2  501    0 -0.15934638803E+03  0.12866101599E+03 -0.26240191519E+03  0.10802186802E+04  0.10276539804E+04 0.  0.
        -13    1    3    3    0    0  0.11729106676E+03 -0.37389131172E+03 -0.31691773926E+03  0.50397298731E+03  0.10566000000E+00 0.  1.
          4    1    3    3  501    0 -0.27663745480E+03  0.50255232770E+03  0.54515824069E+02  0.57624569287E+03  0.00000000000E+00 0.  1.
         13    1    1    2    0    0  0.15934638803E+03 -0.12866101599E+03  0.29963982067E+02  0.20698497481E+03  0.10566000000E+00 0. -1.
<mgrwt>
<rscale>  1 0.69672828E+03</rscale>
<asrwt>0</asrwt>
<pdfrwt beam="2">  1       21 0.11689551E+00 0.10478634E+04</pdfrwt>
<pdfrwt beam="1">  1        4 0.81135825E-01 0.10478634E+04</pdfrwt>
<totfact> 0.27918199E+01</totfact>
</mgrwt>
</event>
<event>
 6    1  0.1431486E-005  0.1022861E+04  0.7818608E-02  0.9702319E-01
          4   -1    0    0  502    0 -0.00000000000E+00  0.00000000000E+00  0.64855993795E+03  0.64855993795E+03  0.00000000000E+00 0.  1.
         21   -1    0    0  501  502  0.00000000000E+00 -0.00000000000E+00 -0.61526814731E+03  0.61526814731E+03  0.00000000000E+00 0.  1.
    9000010    2    1    2  501    0  0.26199228713E+02  0.23438021580E+03  0.69523421084E+02  0.10252212384E+04  0.99530125917E+03 0.  0.
        -13    1    3    3    0    0 -0.13407390362E+03  0.57778906640E+03  0.19760932087E+03  0.62519234780E+03  0.10566000000E+00 0.  1.
          4    1    3    3  501    0  0.16027313233E+03 -0.34340885060E+03 -0.12808589979E+03  0.40002889063E+03  0.00000000000E+00 0.  1.
         13    1    1    2    0    0 -0.26199228713E+02 -0.23438021580E+03 -0.36231630448E+02  0.23860684683E+03  0.10566000000E+00 0. -1.
<mgrwt>
<rscale>  1 0.70878897E+03</rscale>
<asrwt>0</asrwt>
<pdfrwt beam="2">  1       21 0.94656637E-01 0.10228612E+04</pdfrwt>
<pdfrwt beam="1">  1        4 0.99778453E-01 0.10228612E+04</pdfrwt>
<totfact> 0.29200745E+01</totfact>
</mgrwt>
</event>
<event>
 6    1  0.1431486E-005  0.1002976E+04  0.7818608E-02  0.1010854E+00
          4   -1    0    0  502    0 -0.00000000000E+00  0.00000000000E+00  0.51856859217E+03  0.51856859217E+03  0.00000000000E+00 0.  1.
         21   -1    0    0  501  502  0.00000000000E+00 -0.00000000000E+00 -0.56478402147E+03  0.56478402147E+03  0.00000000000E+00 0.  1.
    9000010    2    1    2  501    0  0.66404873162E+02 -0.13550533301E+02 -0.30122807826E+01  0.10029800602E+04  0.10006831183E+04 0.  0.
        -13    1    3    3    0    0  0.69876667994E+02  0.46783523755E+03 -0.15562926830E+03  0.49796891322E+03  0.10566000000E+00 0.  1.
          4    1    3    3  501    0 -0.34717948319E+01 -0.48138577085E+03  0.15261698751E+03  0.50501114702E+03  0.00000000000E+00 0.  1.
         13    1    1    2    0    0 -0.66404873162E+02  0.13550533301E+02 -0.43203148516E+02  0.80372553388E+02  0.10566000000E+00 0. -1.
<mgrwt>
<rscale>  1 0.51136694E+03</rscale>
<asrwt>0</asrwt>
<pdfrwt beam="2">  1       21 0.86889850E-01 0.10029755E+04</pdfrwt>
<pdfrwt beam="1">  1        4 0.79779783E-01 0.10029755E+04</pdfrwt>
<totfact> 0.60861097E+01</totfact>
</mgrwt>
</event>
<event>
 6    1  0.1431486E-005  0.9949388E+03  0.7818608E-02  0.1006238E+00
         21   -1    0    0  501  502  0.00000000000E+00  0.00000000000E+00  0.40325484443E+03  0.40325484443E+03  0.00000000000E+00 0.  1.
          4   -1    0    0  502    0 -0.00000000000E+00 -0.00000000000E+00 -0.86871904534E+03  0.86871904534E+03  0.00000000000E+00 0.  1.
    9000010    2    1    2  501    0  0.15249314978E+02  0.78636482689E+02 -0.22712405753E+03  0.10205334930E+04  0.99170914829E+03 0.  0.
        -13    1    3    3    0    0 -0.46113300893E+03  0.18158576823E+03 -0.19337253071E+03  0.53198683249E+03  0.10566000000E+00 0.  1.
          4    1    3    3  501    0  0.47638232391E+03 -0.10294928554E+03 -0.33751526817E+02  0.48854666050E+03  0.00000000000E+00 0.  1.
         13    1    1    2    0    0 -0.15249314978E+02 -0.78636482689E+02 -0.23834014338E+03  0.25144039677E+03  0.10566000000E+00 0. -1.
<mgrwt>
<rscale>  1 0.52997751E+03</rscale>
<asrwt>0</asrwt>
<pdfrwt beam="1">  1       21 0.62039207E-01 0.99493883E+03</pdfrwt>
<pdfrwt beam="2">  1        4 0.13364908E+00 0.99493883E+03</pdfrwt>
<totfact> 0.37879688E+01</totfact>
</mgrwt>
</event>
<event>
 6    1  0.1431486E-005  0.1030927E+04  0.7818608E-02  0.9660574E-01
         21   -1    0    0  501  502  0.00000000000E+00  0.00000000000E+00  0.18089208285E+03  0.18089208285E+03  0.00000000000E+00 0.  1.
          4   -1    0    0  502    0 -0.00000000000E+00 -0.00000000000E+00 -0.27718597567E+04  0.27718597567E+04  0.00000000000E+00 0.  1.
    9000010    2    1    2  501    0 -0.17984954711E+03  0.19477039441E+03 -0.14359467517E+04  0.17676971118E+04  0.99625731566E+03 0.  0.
        -13    1    3    3    0    0  0.18217708659E+03  0.46121549224E+03 -0.10997208526E+04  0.12063557460E+04  0.10566000000E+00 0.  1.
          4    1    3    3  501    0 -0.36202663370E+03 -0.26644509783E+03 -0.33622589917E+03  0.56134136578E+03  0.00000000000E+00 0.  1.
         13    1    1    2    0    0  0.17984954711E+03 -0.19477039441E+03 -0.11550209221E+04  0.11850547278E+04  0.10566000000E+00 0. -1.
<mgrwt>
<rscale>  1 0.73413494E+03</rscale>
<asrwt>0</asrwt>
<pdfrwt beam="1">  1       21 0.27829550E-01 0.10309268E+04</pdfrwt>
<pdfrwt beam="2">  1        4 0.42643997E+00 0.10309268E+04</pdfrwt>
<totfact> 0.22890463E+00</totfact>
</mgrwt>
</event>
<event>
 6    1  0.1431486E-005  0.9927946E+03  0.7818608E-02  0.9940765E-01
         21   -1    0    0  501  502  0.00000000000E+00  0.00000000000E+00  0.15309470793E+04  0.15309470793E+04  0.00000000000E+00 0.  1.
          4   -1    0    0  502    0 -0.00000000000E+00 -0.00000000000E+00 -0.24479986427E+03  0.24479986427E+03  0.00000000000E+00 0.  1.
    9000010    2    1    2  501    0 -0.11565370947E+03 -0.24721550236E+02  0.13209762990E+04  0.16524586156E+04  0.98572519403E+03 0.  0.
        -13    1    3    3    0    0 -0.54098563904E+03 -0.82048360973E+02  0.88638430964E+03  0.10416691177E+04  0.10566000000E+00 0.  1.
          4    1    3    3  501    0  0.42533192957E+03  0.57326810737E+02  0.43459198940E+03  0.61078949794E+03  0.00000000000E+00 0.  1.
         13    1    1    2    0    0  0.11565370947E+03  0.24721550236E+02 -0.34829083993E+02  0.12328832798E+03  0.10566000000E+00 0. -1.
<mgrwt>
<rscale>  1 0.58325694E+03</rscale>
<asrwt>0</asrwt>
<pdfrwt beam="1">  1       21 0.23553031E+00 0.99279459E+03</pdfrwt>
<pdfrwt beam="2">  1        4 0.37661519E-01 0.99279459E+03</pdfrwt>
<totfact> 0.18603051E+01</totfact>
</mgrwt>
</event>
<event>
 6    1  0.1431486E-005  0.9899448E+03  0.7818608E-02  0.1013848E+00
          4   -1    0    0  502    0 -0.00000000000E+00  0.00000000000E+00  0.11952363620E+04  0.11952363620E+04  0.00000000000E+00 0.  1.
         21   -1    0    0  501  502  0.00000000000E+00 -0.00000000000E+00 -0.25584205600E+03  0.25584205600E+03  0.00000000000E+00 0.  1.
    9000010    2    1    2  501    0  0.41436752057E+02  0.49151106520E+02  0.72440710881E+03  0.12266851431E+04  0.98785522490E+03 0.  0.
        -13    1    3    3    0    0  0.42768698107E+03  0.13578119796E+03  0.69821446548E+03  0.82997357697E+03  0.10566000000E+00 0.  1.
          4    1    3    3  501    0 -0.38625022901E+03 -0.86630091443E+02  0.26192643333E+02  0.39671156615E+03  0.00000000000E+00 0.  1.
         13    1    1    2    0    0 -0.41436752057E+02 -0.49151106520E+02  0.21498719718E+03  0.22439327488E+03  0.10566000000E+00 0. -1.
<mgrwt>
<rscale>  1 0.49973459E+03</rscale>
<asrwt>0</asrwt>
<pdfrwt beam="2">  1       21 0.39360317E-01 0.98994484E+03</pdfrwt>
<pdfrwt beam="1">  1        4 0.18388251E+00 0.98994484E+03</pdfrwt>
<totfact> 0.42279256E+01</totfact>
</mgrwt>
</event>
<event>
 6    1  0.1431486E-005  0.1003061E+04  0.7818608E-02  0.9897175E-01
         21   -1    0    0  501  502  0.00000000000E+00  0.00000000000E+00  0.98819861769E+03  0.98819861769E+03  0.00000000000E+00 0.  1.
          4   -1    0    0  502    0 -0.00000000000E+00 -0.00000000000E+00 -0.43155375697E+03  0.43155375697E+03  0.00000000000E+00 0.  1.
    9000010    2    1    2  501    0  0.27878981253E+02 -0.12888087692E+03  0.70138168906E+03  0.12239558510E+04  0.99435614014E+03 0.  0.
        -13    1    3    3    0    0 -0.27131881221E+03  0.34638092560E+03  0.34110871527E+03  0.55673046465E+03  0.10566000000E+00 0.  1.
          4    1    3    3  501    0  0.29919779346E+03 -0.47526180252E+03  0.36027297379E+03  0.66722538635E+03  0.00000000000E+00 0.  1.
         13    1    1    2    0    0 -0.27878981253E+02  0.12888087692E+03 -0.14473682835E+03  0.19579652366E+03  0.10566000000E+00 0. -1.
<mgrwt>
<rscale>  1 0.60398380E+03</rscale>
<asrwt>0</asrwt>
<pdfrwt beam="1">  1       21 0.15203056E+00 0.10030611E+04</pdfrwt>
<pdfrwt beam="2">  1        4 0.66392886E-01 0.10030611E+04</pdfrwt>
<totfact> 0.21795521E+01</totfact>
</mgrwt>
</event>
<event>
 6    1  0.1431486E-005  0.1041554E+04  0.7818608E-02  0.9719761E-01
          4   -1    0    0  502    0 -0.00000000000E+00  0.00000000000E+00  0.80387165901E+03  0.80387165901E+03  0.00000000000E+00 0.  1.
         21   -1    0    0  501  502  0.00000000000E+00 -0.00000000000E+00 -0.96112497198E+03  0.96112497198E+03  0.00000000000E+00 0.  1.
    9000010    2    1    2  501    0  0.81734149033E+01 -0.21054791113E+03 -0.65093421863E+03  0.12282303174E+04  0.10200181999E+04 0.  0.
        -13    1    3    3    0    0 -0.39082178284E+03 -0.29712182861E+03 -0.65668092997E+03  0.81991030115E+03  0.10566000000E+00 0.  1.
          4    1    3    3  501    0  0.39899519774E+03  0.86573917479E+02  0.57467113421E+01  0.40832001629E+03  0.00000000000E+00 0.  1.
         13    1    1    2    0    0 -0.81734149033E+01  0.21054791113E+03  0.49368090566E+03  0.53676631356E+03  0.10566000000E+00 0. -1.
<mgrwt>
<rscale>  1 0.69852311E+03</rscale>
<asrwt>0</asrwt>
<pdfrwt beam="2">  1       21 0.14786538E+00 0.10415538E+04</pdfrwt>
<pdfrwt beam="1">  1        4 0.12367256E+00 0.10415538E+04</pdfrwt>
<totfact> 0.53855593E+00</totfact>
</mgrwt>
</event>
<event>
 6    1  0.1431486E-005  0.1064443E+04  0.7818608E-02  0.9517086E-01
         21   -1    0    0  501  502  0.00000000000E+00  0.00000000000E+00  0.51865439474E+03  0.51865439474E+03  0.00000000000E+00 0.  1.
          4   -1    0    0  502    0 -0.00000000000E+00 -0.00000000000E+00 -0.10281951501E+04  0.10281951501E+04  0.00000000000E+00 0.  1.
    9000010    2    1    2  501    0 -0.39412594250E+03  0.63978244390E+01 -0.40654413687E+03  0.11394375846E+04  0.98876877144E+03 0.  0.
        -13    1    3    3    0    0  0.30184372508E+03  0.12804866072E+03 -0.74007281586E+01  0.32796474784E+03  0.10566000000E+00 0.  1.
          4    1    3    3  501    0 -0.69596966758E+03 -0.12165083628E+03 -0.39914340871E+03  0.81147283681E+03  0.00000000000E+00 0.  1.
         13    1    1    2    0    0  0.39412594250E+03 -0.63978244390E+01 -0.10299661848E+03  0.40741196018E+03  0.10566000000E+00 0. -1.
<mgrwt>
<rscale>  1 0.83035741E+03</rscale>
<asrwt>0</asrwt>
<pdfrwt beam="1">  1       21 0.79792984E-01 0.10644435E+04</pdfrwt>
<pdfrwt beam="2">  1        4 0.15818387E+00 0.10644435E+04</pdfrwt>
<totfact> 0.13481739E+01</totfact>
</mgrwt>
</event>
<event>
 6    1  0.1431486E-005  0.1014933E+04  0.7818608E-02  0.9820910E-01
         21   -1    0    0  501  502  0.00000000000E+00  0.00000000000E+00  0.82597053392E+03  0.82597053392E+03  0.00000000000E+00 0.  1.
          4   -1    0    0  502    0 -0.00000000000E+00 -0.00000000000E+00 -0.42185908318E+03  0.42185908318E+03  0.00000000000E+00 0.  1.
    9000010    2    1    2  501    0  0.14634036885E+03 -0.71836314279E+02  0.31873268992E+03  0.10638037940E+04  0.10017544734E+04 0.  0.
        -13    1    3    3    0    0  0.20860592275E+03 -0.51547360457E+03  0.98986727209E+02  0.56482550522E+03  0.10566000000E+00 0.  1.
          4    1    3    3  501    0 -0.62265553901E+02  0.44363729029E+03  0.21974596272E+03  0.49897828878E+03  0.00000000000E+00 0.  1.
         13    1    1    2    0    0 -0.14634036885E+03  0.71836314279E+02  0.85378760817E+02  0.18402582310E+03  0.10566000000E+00 0. -1.
<mgrwt>
<rscale>  1 0.64252357E+03</rscale>
<asrwt>0</asrwt>
<pdfrwt beam="1">  1       21 0.12707239E+00 0.10149325E+04</pdfrwt>
<pdfrwt beam="2">  1        4 0.64901397E-01 0.10149325E+04</pdfrwt>
<totfact> 0.37262331E+01</totfact>
</mgrwt>
</event>
<event>
 6    1  0.1431486E-005  0.1048078E+04  0.7818608E-02  0.9630280E-01
          4   -1    0    0  502    0 -0.00000000000E+00  0.00000000000E+00  0.41325851393E+03  0.41325851393E+03  0.00000000000E+00 0.  1.
         21   -1    0    0  501  502  0.00000000000E+00 -0.00000000000E+00 -0.11173653639E+04  0.11173653639E+04  0.00000000000E+00 0.  1.
    9000010    2    1    2  501    0  0.94205185048E+02 -0.26326350108E+03 -0.68136359870E+03  0.12500894690E+04  0.10100915993E+04 0.  0.
        -13    1    3    3    0    0 -0.23538163798E+03  0.18009350815E+02 -0.77211366611E+03  0.80739604704E+03  0.10566000000E+00 0.  1.
          4    1    3    3  501    0  0.32958682303E+03 -0.28127285190E+03  0.90750067418E+02  0.44269342198E+03  0.00000000000E+00 0.  1.
         13    1    1    2    0    0 -0.94205185048E+02  0.26326350108E+03 -0.22743251278E+02  0.28053440882E+03  0.10566000000E+00 0. -1.
<mgrwt>
<rscale>  1 0.75324062E+03</rscale>
<asrwt>0</asrwt>
<pdfrwt beam="2">  1       21 0.17190236E+00 0.10480779E+04</pdfrwt>
<pdfrwt beam="1">  1        4 0.63578235E-01 0.10480779E+04</pdfrwt>
<totfact> 0.16768053E+01</totfact>
</mgrwt>
</event>
<event>
 6    1  0.1431486E-005  0.1037217E+04  0.7818608E-02  0.9644598E-01
         21   -1    0    0  501  502  0.00000000000E+00  0.00000000000E+00  0.32763385014E+03  0.32763385014E+03  0.00000000000E+00 0.  1.
          4   -1    0    0  502    0 -0.00000000000E+00 -0.00000000000E+00 -0.13159366077E+04  0.13159366077E+04  0.00000000000E+00 0.  1.
    9000010    2    1    2  501    0 -0.22416067476E+03 -0.15893428654E+03 -0.75183250183E+03  0.12810427919E+04  0.10001551921E+04 0.  0.
        -13    1    3    3    0    0 -0.29906266798E+03  0.19012224341E+03 -0.84139360624E+03  0.91297763313E+03  0.10566000000E+00 0.  1.
          4    1    3    3  501    0  0.74901993214E+02 -0.34905652994E+03  0.89561104405E+02  0.36806515878E+03  0.00000000000E+00 0.  1.
         13    1    1    2    0    0  0.22416067476E+03  0.15893428654E+03 -0.23647025570E+03  0.36252766590E+03  0.10566000000E+00 0. -1.
<mgrwt>
<rscale>  1 0.74413433E+03</rscale>
<asrwt>0</asrwt>
<pdfrwt beam="1">  1       21 0.50405208E-01 0.10372167E+04</pdfrwt>
<pdfrwt beam="2">  1        4 0.20245178E+00 0.10372167E+04</pdfrwt>
<totfact> 0.18650743E+01</totfact>
</mgrwt>
</event>
<event>
 6    1  0.1431486E-005  0.1032474E+04  0.7818608E-02  0.9705357E-01
          4   -1    0    0  502    0 -0.00000000000E+00  0.00000000000E+00  0.14775933474E+04  0.14775933474E+04  0.00000000000E+00 0.  1.
         21   -1    0    0  501  502  0.00000000000E+00 -0.00000000000E+00 -0.32380049898E+03  0.32380049898E+03  0.00000000000E+00 0.  1.
    9000010    2    1    2  501    0 -0.12664254927E+03  0.18837897440E+03  0.57976575324E+03  0.11841158778E+04  0.10072125447E+04 0.  0.
        -13    1    3    3    0    0  0.44215462264E+03  0.37184562729E+02  0.23742502740E+03  0.50324353630E+03  0.10566000000E+00 0.  1.
          4    1    3    3  501    0 -0.56879717191E+03  0.15119441167E+03  0.34234072584E+03  0.68087234153E+03  0.00000000000E+00 0.  1.
         13    1    1    2    0    0  0.12664254927E+03 -0.18837897440E+03  0.57402709515E+03  0.61727796852E+03  0.10566000000E+00 0. -1.
<mgrwt>
<rscale>  1 0.70698712E+03</rscale>
<asrwt>0</asrwt>
<pdfrwt beam="2">  1       21 0.49815462E-01 0.10324738E+04</pdfrwt>
<pdfrwt beam="1">  1        4 0.22732205E+00 0.10324738E+04</pdfrwt>
<totfact> 0.13236101E+01</totfact>
</mgrwt>
</event>
<event>
 6    1  0.1431486E-005  0.1037648E+04  0.7818608E-02  0.9603414E-01
         21   -1    0    0  501  502  0.00000000000E+00  0.00000000000E+00  0.19509161391E+03  0.19509161391E+03  0.00000000000E+00 0.  1.
          4   -1    0    0  502    0 -0.00000000000E+00 -0.00000000000E+00 -0.23938268383E+04  0.23938268383E+04  0.00000000000E+00 0.  1.
    9000010    2    1    2  501    0  0.65090037689E+02 -0.30901379240E+03 -0.15212008590E+04  0.18414031919E+04  0.98842674232E+03 0.  0.
        -13    1    3    3    0    0  0.48408352993E+03  0.23236826746E+01 -0.50847157849E+03  0.70205813203E+03  0.10566000000E+00 0.  1.
          4    1    3    3  501    0 -0.41899349224E+03 -0.31133747507E+03 -0.10127292805E+04  0.11393450599E+04  0.00000000000E+00 0.  1.
         13    1    1    2    0    0 -0.65090037689E+02  0.30901379240E+03 -0.67753436535E+03  0.74751526024E+03  0.10566000000E+00 0. -1.
<mgrwt>
<rscale>  1 0.77070605E+03</rscale>
<asrwt>0</asrwt>
<pdfrwt beam="1">  1       21 0.30014095E-01 0.10376481E+04</pdfrwt>
<pdfrwt beam="2">  1        4 0.36828104E+00 0.10376481E+04</pdfrwt>
<totfact> 0.49509434E+00</totfact>
</mgrwt>
</event>
<event>
 6    1  0.1431486E-005  0.1009022E+04  0.7818608E-02  0.9753846E-01
         21   -1    0    0  501  502  0.00000000000E+00  0.00000000000E+00  0.15497625941E+04  0.15497625941E+04  0.00000000000E+00 0.  1.
          4   -1    0    0  502    0 -0.00000000000E+00 -0.00000000000E+00 -0.23910931725E+03  0.23910931725E+03  0.00000000000E+00 0.  1.
    9000010    2    1    2  501    0 -0.19454392678E+03 -0.70428582260E+02  0.10525273575E+04  0.14580599919E+04  0.98758168119E+03 0.  0.
        -13    1    3    3    0    0 -0.16515758161E+03  0.26548444140E+03 -0.39507801874E+02  0.31515058776E+03  0.10566000000E+00 0.  1.
          4    1    3    3  501    0 -0.29386345168E+02 -0.33591302366E+03  0.10920351594E+04  0.11429094041E+04  0.00000000000E+00 0.  1.
         13    1    1    2    0    0  0.19454392678E+03  0.70428582260E+02  0.25812591935E+03  0.33081191945E+03  0.10566000000E+00 0. -1.
<mgrwt>
<rscale>  1 0.67899334E+03</rscale>
<asrwt>0</asrwt>
<pdfrwt beam="1">  1       21 0.23842501E+00 0.10090219E+04</pdfrwt>
<pdfrwt beam="2">  1        4 0.36786050E-01 0.10090219E+04</pdfrwt>
<totfact> 0.18644252E+01</totfact>
</mgrwt>
</event>
<event>
 6    1  0.1431486E-005  0.9711496E+03  0.7818608E-02  0.9897318E-01
         21   -1    0    0  501  502  0.00000000000E+00  0.00000000000E+00  0.15450333602E+03  0.15450333602E+03  0.00000000000E+00 0.  1.
          4   -1    0    0  502    0 -0.00000000000E+00 -0.00000000000E+00 -0.20311473813E+04  0.20311473813E+04  0.00000000000E+00 0.  1.
    9000010    2    1    2  501    0 -0.45326707572E+02  0.13797070296E+03 -0.15650835217E+04  0.18419060500E+04  0.96022968181E+03 0.  0.
        -13    1    3    3    0    0  0.35679555697E+03 -0.23091097988E+03 -0.65711053817E+03  0.78257090455E+03  0.10566000000E+00 0.  1.
          4    1    3    3  501    0 -0.40212226454E+03  0.36888168283E+03 -0.90797298353E+03  0.10593351455E+04  0.00000000000E+00 0.  1.
         13    1    1    2    0    0  0.45326707572E+02 -0.13797070296E+03 -0.31156052359E+03  0.34374466733E+03  0.10566000000E+00 0. -1.
<mgrwt>
<rscale>  1 0.60391426E+03</rscale>
<asrwt>0</asrwt>
<pdfrwt beam="1">  1       21 0.23769745E-01 0.97114956E+03</pdfrwt>
<pdfrwt beam="2">  1        4 0.31248420E+00 0.97114956E+03</pdfrwt>
<totfact> 0.18116619E+01</totfact>
</mgrwt>
</event>
<event>
 6    1  0.1431486E-005  0.1015545E+04  0.7818608E-02  0.9819524E-01
         21   -1    0    0  501  502  0.00000000000E+00  0.00000000000E+00  0.26838533335E+03  0.26838533335E+03  0.00000000000E+00 0.  1.
          4   -1    0    0  502    0 -0.00000000000E+00 -0.00000000000E+00 -0.12948431964E+04  0.12948431964E+04  0.00000000000E+00 0.  1.
    9000010    2    1    2  501    0 -0.71272176515E+02  0.14710967308E+03 -0.88376227719E+03  0.13462423080E+04  0.10023031528E+04 0.  0.
        -13    1    3    3    0    0  0.36022701722E+03 -0.15903595681E+03 -0.10991851860E+03  0.40882518438E+03  0.10566000000E+00 0.  1.
          4    1    3    3  501    0 -0.43149919373E+03  0.30614562989E+03 -0.77384375859E+03  0.93741712359E+03  0.00000000000E+00 0.  1.
         13    1    1    2    0    0  0.71272176515E+02 -0.14710967308E+03 -0.14269558590E+03  0.21698622182E+03  0.10566000000E+00 0. -1.
<mgrwt>
<rscale>  1 0.64325193E+03</rscale>
<asrwt>0</asrwt>
<pdfrwt beam="1">  1       21 0.41290051E-01 0.10155455E+04</pdfrwt>
<pdfrwt beam="2">  1        4 0.19920665E+00 0.10155455E+04</pdfrwt>
<totfact> 0.30060363E+01</totfact>
</mgrwt>
</event>
<event>
 6    1  0.1431486E-005  0.1006946E+04  0.7818608E-02  0.9913599E-01
         21   -1    0    0  501  502  0.00000000000E+00  0.00000000000E+00  0.10318841839E+04  0.10318841839E+04  0.00000000000E+00 0.  1.
          4   -1    0    0  502    0 -0.00000000000E+00 -0.00000000000E+00 -0.31152605839E+03  0.31152605839E+03  0.00000000000E+00 0.  1.
    9000010    2    1    2  501    0  0.12342870801E+03  0.72383422201E+01  0.67231385845E+03  0.12107629569E+04  0.99932676039E+03 0.  0.
        -13    1    3    3    0    0 -0.16424623163E+03  0.38586961070E+03  0.59660758330E+03  0.72925496274E+03  0.10566000000E+00 0.  1.
          4    1    3    3  501    0  0.28767493964E+03 -0.37863126848E+03  0.75706275151E+02  0.48150799418E+03  0.00000000000E+00 0.  1.
         13    1    1    2    0    0 -0.12342870801E+03 -0.72383422201E+01  0.48044267086E+02  0.13264728539E+03  0.10566000000E+00 0. -1.
<mgrwt>
<rscale>  1 0.59606720E+03</rscale>
<asrwt>0</asrwt>
<pdfrwt beam="1">  1       21 0.15875141E+00 0.10069464E+04</pdfrwt>
<pdfrwt beam="2">  1        4 0.47927086E-01 0.10069464E+04</pdfrwt>
<totfact> 0.38921572E+01</totfact>
</mgrwt>
</event>
<event>
 6    1  0.1431486E-005  0.1121883E+04  0.7818608E-02  0.9494117E-01
         21   -1    0    0  501  502  0.00000000000E+00  0.00000000000E+00  0.19367969224E+04  0.19367969224E+04  0.00000000000E+00 0.  1.
          4   -1    0    0  502    0 -0.00000000000E+00 -0.00000000000E+00 -0.41616198151E+03  0.41616198151E+03  0.00000000000E+00 0.  1.
    9000010    2    1    2  501    0 -0.17433714309E+03 -0.32046975838E+03  0.16239536859E+04  0.19737899710E+04  0.10609085588E+04 0.  0.
        -13    1    3    3    0    0 -0.45818694468E+03 -0.57673332974E+03  0.10005640552E+04  0.12424512263E+04  0.10566000000E+00 0.  1.
          4    1    3    3  501    0  0.28384980159E+03  0.25626357136E+03  0.62338963071E+03  0.73133874473E+03  0.00000000000E+00 0.  1.
         13    1    1    2    0    0  0.17433714309E+03  0.32046975838E+03 -0.10331874498E+03  0.37916893297E+03  0.10566000000E+00 0. -1.
<mgrwt>
<rscale>  1 0.84718955E+03</rscale>
<asrwt>0</asrwt>
<pdfrwt beam="1">  1       21 0.29796875E+00 0.11218829E+04</pdfrwt>
<pdfrwt beam="2">  1        4 0.64024921E-01 0.11218829E+04</pdfrwt>
<totfact> 0.24049900E+00</totfact>
</mgrwt>
</event>
<event>
 6    1  0.1431486E-005  0.1025684E+04  0.7818608E-02  0.9707364E-01
          4   -1    0    0  502    0 -0.00000000000E+00  0.00000000000E+00  0.56756954156E+03  0.56756954156E+03  0.00000000000E+00 0.  1.
         21   -1    0    0  501  502  0.00000000000E+00 -0.00000000000E+00 -0.12923212484E+04  0.12923212484E+04  0.00000000000E+00 0.  1.
    9000010    2    1    2  501    0 -0.12750575663E+03 -0.19139542267E+03 -0.10458924103E+04  0.14648954882E+04  0.99956887287E+03 0.  0.
        -13    1    3    3    0    0  0.38443815438E+03  0.12025737768E+03 -0.27193987893E+03  0.48601012371E+03  0.10566000000E+00 0.  1.
          4    1    3    3  501    0 -0.51194391101E+03 -0.31165280035E+03 -0.77395253136E+03  0.97888536448E+03  0.00000000000E+00 0.  1.
         13    1    1    2    0    0  0.12750575663E+03  0.19139542267E+03  0.32114070349E+03  0.39499530173E+03  0.10566000000E+00 0. -1.
<mgrwt>
<rscale>  1 0.70580031E+03</rscale>
<asrwt>0</asrwt>
<pdfrwt beam="2">  1       21 0.19881865E+00 0.10256841E+04</pdfrwt>
<pdfrwt beam="1">  1        4 0.87318392E-01 0.10256841E+04</pdfrwt>
<totfact> 0.52533756E+00</totfact>
</mgrwt>
</event>
<event>
 6    1  0.1431486E-005  0.1014453E+04  0.7818608E-02  0.9879850E-01
         21   -1    0    0  501  502  0.00000000000E+00  0.00000000000E+00  0.43964669668E+03  0.43964669668E+03  0.00000000000E+00 0.  1.
          4   -1    0    0  502    0 -0.00000000000E+00 -0.00000000000E+00 -0.99882223638E+03  0.99882223638E+03  0.00000000000E+00 0.  1.
    9000010    2    1    2  501    0 -0.13005194549E+03 -0.35434980667E+02 -0.17255421956E+03  0.10290239395E+04  0.10054581856E+04 0.  0.
        -13    1    3    3    0    0  0.17515004327E+03  0.34094337245E+03 -0.34398753224E+03  0.51502170282E+03  0.10566000000E+00 0.  1.
          4    1    3    3  501    0 -0.30520198877E+03 -0.37637835312E+03  0.17143331268E+03  0.51400223670E+03  0.00000000000E+00 0.  1.
         13    1    1    2    0    0  0.13005194549E+03  0.35434980667E+02 -0.38662132014E+03  0.40944499354E+03  0.10566000000E+00 0. -1.
<mgrwt>
<rscale>  1 0.61247852E+03</rscale>
<asrwt>0</asrwt>
<pdfrwt beam="1">  1       21 0.67637954E-01 0.10144532E+04</pdfrwt>
<pdfrwt beam="2">  1        4 0.15366496E+00 0.10144532E+04</pdfrwt>
<totfact> 0.21496925E+01</totfact>
</mgrwt>
</event>
<event>
 6    1  0.1431486E-005  0.1799036E+04  0.7818608E-02  0.8768325E-01
         21   -1    0    0  501  502  0.00000000000E+00  0.00000000000E+00  0.14816584431E+04  0.14816584431E+04  0.00000000000E+00 0. -1.
          4   -1    0    0  502    0 -0.00000000000E+00 -0.00000000000E+00 -0.17395647771E+04  0.17395647771E+04  0.00000000000E+00 0.  1.
    9000010    2    1    2  501    0  0.79740846558E+03 -0.11432195733E+04  0.23799292035E+02  0.17991932188E+04  0.11374175041E+04 0.  0.
        -13    1    3    3    0    0 -0.76243234264E+02  0.71365892143E+02 -0.25655550492E+03  0.27699613643E+03  0.10566000000E+00 0.  1.
          4    1    3    3  501    0  0.87365169985E+03 -0.12145854654E+04  0.28035479695E+03  0.15221970824E+04  0.00000000000E+00 0.  1.
         13    1    1    2    0    0 -0.79740846558E+03  0.11432195733E+04 -0.28170562605E+03  0.14220300013E+04  0.10566000000E+00 0. -1.
<mgrwt>
<rscale>  1 0.16878494E+04</rscale>
<asrwt>0</asrwt>
<pdfrwt beam="1">  1       21 0.22794745E+00 0.17990358E+04</pdfrwt>
<pdfrwt beam="2">  1        4 0.26762535E+00 0.17990358E+04</pdfrwt>
<totfact> 0.12569010E-01</totfact>
</mgrwt>
</event>
<event>
 6    1  0.1431486E-005  0.1034650E+04  0.7818608E-02  0.9659503E-01
          4   -1    0    0  502    0 -0.00000000000E+00  0.00000000000E+00  0.41095930645E+03  0.41095930645E+03  0.00000000000E+00 0.  1.
         21   -1    0    0  501  502  0.00000000000E+00 -0.00000000000E+00 -0.12944874556E+04  0.12944874556E+04  0.00000000000E+00 0.  1.
    9000010    2    1    2  501    0  0.22797569579E+03 -0.13154604470E+03 -0.98002054238E+03  0.14251111188E+04  0.10006118917E+04 0.  0.
        -13    1    3    3    0    0  0.23447831205E+03 -0.55867373521E+03 -0.53564131371E+03  0.80870764146E+03  0.10566000000E+00 0.  1.
          4    1    3    3  501    0 -0.65026162572E+01  0.42712769051E+03 -0.44437922867E+03  0.61640347735E+03  0.00000000000E+00 0.  1.
         13    1    1    2    0    0 -0.22797569579E+03  0.13154604470E+03  0.96492393236E+02  0.28033564323E+03  0.10566000000E+00 0. -1.
<mgrwt>
<rscale>  1 0.73479989E+03</rscale>
<asrwt>0</asrwt>
<pdfrwt beam="2">  1       21 0.19915192E+00 0.10346504E+04</pdfrwt>
<pdfrwt beam="1">  1        4 0.63224509E-01 0.10346504E+04</pdfrwt>
<totfact> 0.10851197E+01</totfact>
</mgrwt>
</event>
<event>
 6    1  0.1431486E-005  0.1005444E+04  0.7818608E-02  0.9811998E-01
          4   -1    0    0  502    0 -0.00000000000E+00  0.00000000000E+00  0.25451147427E+04  0.25451147427E+04  0.00000000000E+00 0.  1.
         21   -1    0    0  501  502  0.00000000000E+00 -0.00000000000E+00 -0.13669341177E+03  0.13669341177E+03  0.00000000000E+00 0.  1.
    9000010    2    1    2  501    0  0.11710562077E+03  0.12685425556E+03  0.20041631381E+04  0.22422283253E+04  0.99051110549E+03 0.  0.
        -13    1    3    3    0    0  0.52326367454E+03  0.21660080358E+03  0.91190596963E+03  0.10734492488E+04  0.10566000000E+00 0.  1.
          4    1    3    3  501    0 -0.40615805377E+03 -0.89746548021E+02  0.10922571685E+04  0.11687790765E+04  0.00000000000E+00 0.  1.
         13    1    1    2    0    0 -0.11710562077E+03 -0.12685425556E+03  0.40425819284E+03  0.43957982917E+03  0.10566000000E+00 0. -1.
<mgrwt>
<rscale>  1 0.64722600E+03</rscale>
<asrwt>0</asrwt>
<pdfrwt beam="2">  1       21 0.21029757E-01 0.10054442E+04</pdfrwt>
<pdfrwt beam="1">  1        4 0.39155608E+00 0.10054442E+04</pdfrwt>
<totfact> 0.70124332E+00</totfact>
</mgrwt>
</event>
<event>
 6    1  0.1431486E-005  0.1056061E+04  0.7818608E-02  0.9485630E-01
         21   -1    0    0  501  502  0.00000000000E+00  0.00000000000E+00  0.80522447141E+03  0.80522447141E+03  0.00000000000E+00 0.  1.
          4   -1    0    0  502    0 -0.00000000000E+00 -0.00000000000E+00 -0.91984270521E+03  0.91984270521E+03  0.00000000000E+00 0.  1.
    9000010    2    1    2  501    0  0.18024361253E+03  0.41296693269E+03  0.31546251476E+03  0.11021715924E+04  0.95511055570E+03 0.  0.
        -13    1    3    3    0    0  0.24342039200E+03  0.46464677443E+03  0.60535802901E+03  0.80100466083E+03  0.10566000000E+00 0.  1.
          4    1    3    3  501    0 -0.63176779473E+02 -0.51679841740E+02 -0.28989551425E+03  0.30116693160E+03  0.00000000000E+00 0.  1.
         13    1    1    2    0    0 -0.18024361253E+03 -0.41296693269E+03 -0.43008074856E+03  0.62289558418E+03  0.10566000000E+00 0. -1.
<mgrwt>
<rscale>  1 0.85351616E+03</rscale>
<asrwt>0</asrwt>
<pdfrwt beam="1">  1       21 0.12388069E+00 0.10560614E+04</pdfrwt>
<pdfrwt beam="2">  1        4 0.14151426E+00 0.10560614E+04</pdfrwt>
<totfact> 0.61152013E+00</totfact>
</mgrwt>
</event>
<event>
 6    1  0.1431486E-005  0.1025908E+04  0.7818608E-02  0.9735396E-01
         21   -1    0    0  501  502  0.00000000000E+00  0.00000000000E+00  0.38127139607E+03  0.38127139607E+03  0.00000000000E+00 0.  1.
          4   -1    0    0  502    0 -0.00000000000E+00 -0.00000000000E+00 -0.17213640655E+04  0.17213640655E+04  0.00000000000E+00 0.  1.
    9000010    2    1    2  501    0 -0.11121783917E+03  0.17729851640E+03 -0.33985471669E+03  0.10807351998E+04  0.10043322020E+04 0.  0.
        -13    1    3    3    0    0 -0.29898733712E+03  0.45458323896E+03 -0.47242239917E+03  0.72057080381E+03  0.10566000000E+00 0.  1.
          4    1    3    3  501    0  0.18776949795E+03 -0.27728472257E+03  0.13256768248E+03  0.36016439603E+03  0.00000000000E+00 0.  1.
         13    1    1    2    0    0  0.11121783917E+03 -0.17729851640E+03 -0.10002379527E+04  0.10219002617E+04  0.10566000000E+00 0. -1.
<mgrwt>
<rscale>  1 0.68947858E+03</rscale>
<asrwt>0</asrwt>
<pdfrwt beam="1">  1       21 0.58657138E-01 0.10259081E+04</pdfrwt>
<pdfrwt beam="2">  1        4 0.26482524E+00 0.10259081E+04</pdfrwt>
<totfact> 0.54122372E+00</totfact>
</mgrwt>
</event>
<event>
 6    1  0.1431486E-005  0.1040724E+04  0.7818608E-02  0.9714439E-01
          4   -1    0    0  502    0 -0.00000000000E+00  0.00000000000E+00  0.16785848329E+03  0.16785848329E+03  0.00000000000E+00 0.  1.
         21   -1    0    0  501  502  0.00000000000E+00 -0.00000000000E+00 -0.23557455574E+04  0.23557455574E+04  0.00000000000E+00 0.  1.
    9000010    2    1    2  501    0  0.12690152110E+02 -0.21462564832E+03 -0.17581824733E+04  0.20431133914E+04  0.10182737903E+04 0.  0.
        -13    1    3    3    0    0 -0.42188478603E+03 -0.35048635623E+03 -0.68635503797E+03  0.87858449104E+03  0.10566000000E+00 0.  1.
          4    1    3    3  501    0  0.43457493814E+03  0.13586070791E+03 -0.10718274353E+04  0.11645289004E+04  0.00000000000E+00 0.  1.
         13    1    1    2    0    0 -0.12690152110E+02  0.21462564832E+03 -0.42970460085E+03  0.48049064926E+03  0.10566000000E+00 0. -1.
<mgrwt>
<rscale>  1 0.70163565E+03</rscale>
<asrwt>0</asrwt>
<pdfrwt beam="2">  1       21 0.36242235E+00 0.10407241E+04</pdfrwt>
<pdfrwt beam="1">  1        4 0.25824385E-01 0.10407241E+04</pdfrwt>
<totfact> 0.61849255E+00</totfact>
</mgrwt>
</event>
<event>
 6    1  0.1431486E-005  0.1061141E+04  0.7818608E-02  0.9494658E-01
          4   -1    0    0  502    0 -0.00000000000E+00  0.00000000000E+00  0.23674358261E+03  0.23674358261E+03  0.00000000000E+00 0.  1.
         21   -1    0    0  501  502  0.00000000000E+00 -0.00000000000E+00 -0.25503615638E+04  0.25503615638E+04  0.00000000000E+00 0.  1.
    9000010    2    1    2  501    0  0.41971285850E+03 -0.94903426341E+02 -0.19653435044E+04  0.22335162500E+04  0.96997639382E+03 0.  0.
        -13    1    3    3    0    0 -0.13691400476E+03 -0.34947488822E+03 -0.37998319141E+03  0.53410240508E+03  0.10566000000E+00 0.  1.
          4    1    3    3  501    0  0.55662686326E+03  0.25457146188E+03 -0.15853603130E+04  0.16994138449E+04  0.00000000000E+00 0.  1.
         13    1    1    2    0    0 -0.41971285850E+03  0.94903426341E+02 -0.34827447675E+03  0.55358889642E+03  0.10566000000E+00 0. -1.
<mgrwt>
<rscale>  1 0.84678816E+03</rscale>
<asrwt>0</asrwt>
<pdfrwt beam="2">  1       21 0.39236333E+00 0.10611408E+04</pdfrwt>
<pdfrwt beam="1">  1        4 0.36422088E-01 0.10611408E+04</pdfrwt>
<totfact> 0.20093681E+00</totfact>
</mgrwt>
</event>
<event>
 6    1  0.1431486E-005  0.8990248E+03  0.7818608E-02  0.9915290E-01
         21   -1    0    0  501  502  0.00000000000E+00  0.00000000000E+00  0.12225363859E+04  0.12225363859E+04  0.00000000000E+00 0.  1.
          4   -1    0    0  502    0 -0.00000000000E+00 -0.00000000000E+00 -0.35560981145E+03  0.35560981145E+03  0.00000000000E+00 0.  1.
    9000010    2    1    2  501    0  0.49678910678E+02  0.16549095882E+03  0.10111900241E+04  0.13530524264E+04  0.88226433235E+03 0.  0.
        -13    1    3    3    0    0  0.25789810288E+03  0.37837118151E+03  0.94191453800E+03  0.10473200039E+04  0.10566000000E+00 0.  1.
          4    1    3    3  501    0 -0.20821919220E+03 -0.21288022269E+03  0.69275486122E+02  0.30573242254E+03  0.00000000000E+00 0.  1.
         13    1    1    2    0    0 -0.49678910678E+02 -0.16549095882E+03 -0.14426344970E+03  0.22509377091E+03  0.10566000000E+00 0. -1.
<mgrwt>
<rscale>  1 0.59525955E+03</rscale>
<asrwt>0</asrwt>
<pdfrwt beam="1">  1       21 0.18808252E+00 0.89902481E+03</pdfrwt>
<pdfrwt beam="2">  1        4 0.54709202E-01 0.89902481E+03</pdfrwt>
<totfact> 0.18062947E+01</totfact>
</mgrwt>
</event>
<event>
 6    1  0.1431486E-005  0.9929108E+03  0.7818608E-02  0.9647472E-01
          4   -1    0    0  502    0 -0.00000000000E+00  0.00000000000E+00  0.12024183525E+04  0.12024183525E+04  0.00000000000E+00 0.  1.
         21   -1    0    0  501  502  0.00000000000E+00 -0.00000000000E+00 -0.36400401710E+03  0.36400401710E+03  0.00000000000E+00 0.  1.
    9000010    2    1    2  501    0 -0.28174837510E+02  0.30891697867E+03  0.51589014793E+03  0.11189345107E+04  0.94321168005E+03 0.  0.
        -13    1    3    3    0    0 -0.36513929991E+03 -0.13566922570E+03  0.38126563406E+03  0.54506544746E+03  0.10566000000E+00 0.  1.
          4    1    3    3  501    0  0.33696446240E+03  0.44458620438E+03  0.13462451387E+03  0.57386906327E+03  0.00000000000E+00 0.  1.
         13    1    1    2    0    0  0.28174837510E+02 -0.30891697867E+03  0.32252418751E+03  0.44748785891E+03  0.10566000000E+00 0. -1.
<mgrwt>
<rscale>  1 0.74232285E+03</rscale>
<asrwt>0</asrwt>
<pdfrwt beam="2">  1       21 0.56000618E-01 0.99291077E+03</pdfrwt>
<pdfrwt beam="1">  1        4 0.18498744E+00 0.99291077E+03</pdfrwt>
<totfact> 0.19509890E+01</totfact>
</mgrwt>
</event>
<event>
 6    1  0.1431486E-005  0.1212951E+04  0.7818608E-02  0.9322968E-01
         21   -1    0    0  501  502  0.00000000000E+00  0.00000000000E+00  0.68646576987E+03  0.68646576987E+03  0.00000000000E+00 0.  1.
          4   -1    0    0  502    0 -0.00000000000E+00 -0.00000000000E+00 -0.11105219522E+04  0.11105219522E+04  0.00000000000E+00 0.  1.
    9000010    2    1    2  501    0 -0.40992052742E+03  0.33861980289E+03 -0.25936119367E+03  0.12403705644E+04  0.10902076402E+04 0.  0.
        -13    1    3    3    0    0 -0.66689556326E+03  0.26599365762E+03  0.16712537279E+03  0.73717923165E+03  0.10566000000E+00 0.  1.
          4    1    3    3  501    0  0.25697503584E+03  0.72626145267E+02 -0.42648656647E+03  0.50319133279E+03  0.00000000000E+00 0.  1.
         13    1    1    2    0    0  0.40992052742E+03 -0.33861980289E+03 -0.16469498864E+03  0.55661715762E+03  0.10566000000E+00 0. -1.
<mgrwt>
<rscale>  1 0.98695628E+03</rscale>
<asrwt>0</asrwt>
<pdfrwt beam="1">  1       21 0.10561012E+00 0.12129513E+04</pdfrwt>
<pdfrwt beam="2">  1        4 0.17084953E+00 0.12129513E+04</pdfrwt>
<totfact> 0.54110419E+00</totfact>
</mgrwt>
</event>
<event>
 6    1  0.1431486E-005  0.1239013E+04  0.7818608E-02  0.9267351E-01
         21   -1    0    0  501  502  0.00000000000E+00  0.00000000000E+00  0.93492533627E+03  0.93492533627E+03  0.00000000000E+00 0.  1.
          4   -1    0    0  502    0 -0.00000000000E+00 -0.00000000000E+00 -0.96010266174E+03  0.96010266174E+03  0.00000000000E+00 0.  1.
    9000010    2    1    2  501    0 -0.24932568761E+03 -0.55823488509E+03  0.17587918098E+03  0.12514340147E+04  0.10776660528E+04 0.  0.
        -13    1    3    3    0    0  0.15464384364E+03  0.27354835285E+03  0.38170616403E+02  0.31654451005E+03  0.10566000000E+00 0.  1.
          4    1    3    3  501    0 -0.40396953125E+03 -0.83178323794E+03  0.13770856457E+03  0.93488950462E+03  0.00000000000E+00 0.  1.
         13    1    1    2    0    0  0.24932568761E+03  0.55823488509E+03 -0.20105650645E+03  0.64359398334E+03  0.10566000000E+00 0. -1.
<mgrwt>
<rscale>  1 0.10384494E+04</rscale>
<asrwt>0</asrwt>
<pdfrwt beam="1">  1       21 0.14383467E+00 0.12390132E+04</pdfrwt>
<pdfrwt beam="2">  1        4 0.14770810E+00 0.12390132E+04</pdfrwt>
<totfact> 0.35739955E+00</totfact>
</mgrwt>
</event>
<event>
 6    1  0.1431486E-005  0.1042593E+04  0.7818608E-02  0.9608107E-01
          4   -1    0    0  502    0 -0.00000000000E+00  0.00000000000E+00  0.56300693730E+03  0.56300693730E+03  0.00000000000E+00 0.  1.
         21   -1    0    0  501  502  0.00000000000E+00 -0.00000000000E+00 -0.92470780637E+03  0.92470780637E+03  0.00000000000E+00 0.  1.
    9000010    2    1    2  501    0  0.30477754034E+03 -0.31143454071E+02 -0.49436239552E+03  0.11538609499E+04  0.99656492505E+03 0.  0.
        -13    1    3    3    0    0 -0.32582002959E+03  0.17715751120E+03 -0.11137657394E+03  0.38723149128E+03  0.10566000000E+00 0.  1.
          4    1    3    3  501    0  0.63059756993E+03 -0.20830096527E+03 -0.38298582158E+03  0.76662945865E+03  0.00000000000E+00 0.  1.
         13    1    1    2    0    0 -0.30477754034E+03  0.31143454071E+02  0.13266152645E+03  0.33385379374E+03  0.10566000000E+00 0. -1.
<mgrwt>
<rscale>  1 0.76761926E+03</rscale>
<asrwt>0</asrwt>
<pdfrwt beam="2">  1       21 0.14226274E+00 0.10425934E+04</pdfrwt>
<pdfrwt beam="1">  1        4 0.86616452E-01 0.10425934E+04</pdfrwt>
<totfact> 0.14244436E+01</totfact>
</mgrwt>
</event>
<event>
 6    1  0.1431486E-005  0.1002665E+04  0.7818608E-02  0.9958161E-01
         21   -1    0    0  501  502  0.00000000000E+00  0.00000000000E+00  0.20400378632E+03  0.20400378632E+03  0.00000000000E+00 0.  1.
          4   -1    0    0  502    0 -0.00000000000E+00 -0.00000000000E+00 -0.15152596140E+04  0.15152596140E+04  0.00000000000E+00 0.  1.
    9000010    2    1    2  501    0  0.29638038024E+02  0.10449899078E+03 -0.12003573235E+04  0.15640315036E+04  0.99676395788E+03 0.  0.
        -13    1    3    3    0    0  0.39172256176E+03 -0.17517057714E+03 -0.95018570061E+03  0.10425853314E+04  0.10566000000E+00 0.  1.
          4    1    3    3  501    0 -0.36208452374E+03  0.27966956792E+03 -0.25017162288E+03  0.52144617215E+03  0.00000000000E+00 0.  1.
         13    1    1    2    0    0 -0.29638038024E+02 -0.10449899078E+03 -0.11089850417E+03  0.15523189673E+03  0.10566000000E+00 0. -1.
<mgrwt>
<rscale>  1 0.57523471E+03</rscale>
<asrwt>0</asrwt>
<pdfrwt beam="1">  1       21 0.31385199E-01 0.10026649E+04</pdfrwt>
<pdfrwt beam="2">  1        4 0.23311685E+00 0.10026649E+04</pdfrwt>
<totfact> 0.32093015E+01</totfact>
</mgrwt>
</event>
<event>
 6    1  0.1431486E-005  0.1027026E+04  0.7818608E-02  0.9673584E-01
         21   -1    0    0  501  502  0.00000000000E+00  0.00000000000E+00  0.92163960903E+03  0.92163960903E+03  0.00000000000E+00 0.  1.
          4   -1    0    0  502    0 -0.00000000000E+00 -0.00000000000E+00 -0.46946799695E+03  0.46946799695E+03  0.00000000000E+00 0.  1.
    9000010    2    1    2  501    0  0.19543035153E+03  0.16630500659E+03  0.47873281721E+03  0.11331233307E+04  0.99445110225E+03 0.  0.
        -13    1    3    3    0    0  0.84072182212E+02  0.30924655304E+03 -0.23458277264E+03  0.39715318300E+03  0.10566000000E+00 0.  1.
          4    1    3    3  501    0  0.11135816932E+03 -0.14294154645E+03  0.71331558984E+03  0.73597014769E+03  0.00000000000E+00 0.  1.
         13    1    1    2    0    0 -0.19543035153E+03 -0.16630500659E+03 -0.26561205128E+02  0.25798427529E+03  0.10566000000E+00 0. -1.
<mgrwt>
<rscale>  1 0.72611602E+03</rscale>
<asrwt>0</asrwt>
<pdfrwt beam="1">  1       21 0.14179071E+00 0.10270265E+04</pdfrwt>
<pdfrwt beam="2">  1        4 0.72225846E-01 0.10270265E+04</pdfrwt>
<totfact> 0.21844057E+01</totfact>
</mgrwt>
</event>
<event>
 6    1  0.1431486E-005  0.1005639E+04  0.7818608E-02  0.9812117E-01
          4   -1    0    0  502    0 -0.00000000000E+00  0.00000000000E+00  0.78764168588E+03  0.78764168588E+03  0.00000000000E+00 0.  1.
         21   -1    0    0  501  502  0.00000000000E+00 -0.00000000000E+00 -0.45139430343E+03  0.45139430343E+03  0.00000000000E+00 0.  1.
    9000010    2    1    2  501    0  0.13030844798E+03 -0.11299399893E+03  0.21543348083E+03  0.10284559679E+04  0.99073818838E+03 0.  0.
        -13    1    3    3    0    0 -0.84351680894E+02 -0.33874788652E+03  0.49780343279E+03  0.60800789925E+03  0.10566000000E+00 0.  1.
          4    1    3    3  501    0  0.21466012887E+03  0.22575388759E+03 -0.28236995196E+03  0.42044806868E+03  0.00000000000E+00 0.  1.
         13    1    1    2    0    0 -0.13030844798E+03  0.11299399893E+03  0.12081390162E+03  0.21058002136E+03  0.10566000000E+00 0. -1.
<mgrwt>
<rscale>  1 0.64716311E+03</rscale>
<asrwt>0</asrwt>
<pdfrwt beam="2">  1       21 0.69445277E-01 0.10056391E+04</pdfrwt>
<pdfrwt beam="1">  1        4 0.12117564E+00 0.10056391E+04</pdfrwt>
<totfact> 0.37657083E+01</totfact>
</mgrwt>
</event>
<event>
 6    1  0.1431486E-005  0.9509854E+03  0.7818608E-02  0.9569488E-01
          4   -1    0    0  502    0 -0.00000000000E+00  0.00000000000E+00  0.10563642575E+04  0.10563642575E+04  0.00000000000E+00 0.  1.
         21   -1    0    0  501  502  0.00000000000E+00 -0.00000000000E+00 -0.60609568118E+03  0.60609568118E+03  0.00000000000E+00 0.  1.
    9000010    2    1    2  501    0  0.45260096868E+03 -0.87278492187E+02 -0.86532859610E+02  0.95491420528E+03  0.83181009348E+03 0.  0.
        -13    1    3    3    0    0  0.19103618236E+03 -0.27594264617E+03 -0.38830136266E+03  0.51324178157E+03  0.10566000000E+00 0.  1.
          4    1    3    3  501    0  0.26156478632E+03  0.18866415398E+03  0.30176850305E+03  0.44167242372E+03  0.00000000000E+00 0.  1.
         13    1    1    2    0    0 -0.45260096868E+03  0.87278492187E+02  0.53680143589E+03  0.70754573335E+03  0.10566000000E+00 0. -1.
<mgrwt>
<rscale>  1 0.79348981E+03</rscale>
<asrwt>0</asrwt>
<pdfrwt beam="2">  1       21 0.93245489E-01 0.95098539E+03</pdfrwt>
<pdfrwt beam="1">  1        4 0.16251758E+00 0.95098539E+03</pdfrwt>
<totfact> 0.87297511E+00</totfact>
</mgrwt>
</event>
<event>
 6    1  0.1431486E-005  0.9918690E+03  0.7818608E-02  0.9843470E-01
          4   -1    0    0  502    0 -0.00000000000E+00  0.00000000000E+00  0.12591604601E+04  0.12591604601E+04  0.00000000000E+00 0.  1.
         21   -1    0    0  501  502  0.00000000000E+00 -0.00000000000E+00 -0.88749135428E+03  0.88749135428E+03  0.00000000000E+00 0.  1.
    9000010    2    1    2  501    0  0.15842695261E+03  0.35093340911E+02 -0.60152950269E+03  0.11600180502E+04  0.97850574462E+03 0.  0.
        -13    1    3    3    0    0  0.40125871913E+03  0.37432881266E+02 -0.76681361693E+03  0.86626376731E+03  0.10566000000E+00 0.  1.
          4    1    3    3  501    0 -0.24283176652E+03 -0.23395403552E+01  0.16528411424E+03  0.29375428287E+03  0.00000000000E+00 0.  1.
         13    1    1    2    0    0 -0.15842695261E+03 -0.35093340911E+02  0.97319860848E+03  0.98663376417E+03  0.10566000000E+00 0. -1.
<mgrwt>
<rscale>  1 0.63080982E+03</rscale>
<asrwt>0</asrwt>
<pdfrwt beam="2">  1       21 0.13653713E+00 0.99186901E+03</pdfrwt>
<pdfrwt beam="1">  1        4 0.19371699E+00 0.99186901E+03</pdfrwt>
<totfact> 0.19782651E+00</totfact>
</mgrwt>
</event>
<event>
 6    1  0.1431486E-005  0.1027446E+04  0.7818608E-02  0.9974544E-01
         21   -1    0    0  501  502  0.00000000000E+00  0.00000000000E+00  0.29526241719E+03  0.29526241719E+03  0.00000000000E+00 0.  1.
          4   -1    0    0  502    0 -0.00000000000E+00 -0.00000000000E+00 -0.11481744601E+04  0.11481744601E+04  0.00000000000E+00 0.  1.
    9000010    2    1    2  501    0 -0.18894682127E+02 -0.93953879638E+02 -0.64136716808E+03  0.12111965153E+04  0.10229666729E+04 0.  0.
        -13    1    3    3    0    0 -0.63646338023E+02  0.46362371896E+03 -0.28360651228E+03  0.54720240689E+03  0.10566000000E+00 0.  1.
          4    1    3    3  501    0  0.44751655896E+02 -0.55757759860E+03 -0.35776065579E+03  0.66399410841E+03  0.00000000000E+00 0.  1.
         13    1    1    2    0    0  0.18894682127E+02  0.93953879638E+02 -0.21154487484E+03  0.23224036201E+03  0.10566000000E+00 0. -1.
<mgrwt>
<rscale>  1 0.56780642E+03</rscale>
<asrwt>0</asrwt>
<pdfrwt beam="1">  1       21 0.45424988E-01 0.10274459E+04</pdfrwt>
<pdfrwt beam="2">  1        4 0.17664222E+00 0.10274459E+04</pdfrwt>
<totfact> 0.34981480E+01</totfact>
</mgrwt>
</event>
<event>
 6    1  0.1431486E-005  0.1289837E+04  0.7818608E-02  0.9156784E-01
          4   -1    0    0  502    0 -0.00000000000E+00  0.00000000000E+00  0.69371266033E+03  0.69371266033E+03  0.00000000000E+00 0.  1.
         21   -1    0    0  501  502  0.00000000000E+00 -0.00000000000E+00 -0.19366540564E+04  0.19366540564E+04  0.00000000000E+00 0. -1.
    9000010    2    1    2  501    0 -0.20042084410E+02 -0.81788572858E+03 -0.12722481917E+04  0.18117107148E+04  0.99716673763E+03 0.  0.
        -13    1    3    3    0    0  0.46954540146E+03 -0.55054667474E+03 -0.61479951885E+03  0.94950144004E+03  0.10566000000E+00 0.  1.
          4    1    3    3  501    0 -0.48958748587E+03 -0.26733905384E+03 -0.65744867283E+03  0.86220927473E+03  0.00000000000E+00 0.  1.
         13    1    1    2    0    0  0.20042084410E+02  0.81788572858E+03  0.29306795566E+02  0.81865600199E+03  0.10566000000E+00 0. -1.
<mgrwt>
<rscale>  1 0.11510838E+04</rscale>
<asrwt>0</asrwt>
<pdfrwt beam="2">  1       21 0.29794678E+00 0.12898373E+04</pdfrwt>
<pdfrwt beam="1">  1        4 0.10672502E+00 0.12898373E+04</pdfrwt>
<totfact> 0.71368840E-01</totfact>
</mgrwt>
</event>
<event>
 6    1  0.1431486E-005  0.1012511E+04  0.7818608E-02  0.9788383E-01
         21   -1    0    0  501  502  0.00000000000E+00  0.00000000000E+00  0.71429856434E+03  0.71429856434E+03  0.00000000000E+00 0.  1.
          4   -1    0    0  502    0 -0.00000000000E+00 -0.00000000000E+00 -0.68251780193E+03  0.68251780193E+03  0.00000000000E+00 0.  1.
    9000010    2    1    2  501    0  0.14227913652E+03 -0.11458959225E+03  0.31448120844E+03  0.10602250998E+04  0.99589392224E+03 0.  0.
        -13    1    3    3    0    0 -0.36107194182E+03 -0.23859336316E+03  0.32579179637E+03  0.54170106689E+03  0.10566000000E+00 0.  1.
          4    1    3    3  501    0  0.50335107834E+03  0.12400377091E+03 -0.11310587933E+02  0.51852403287E+03  0.00000000000E+00 0.  1.
         13    1    1    2    0    0 -0.14227913652E+03  0.11458959225E+03 -0.28270044603E+03  0.33659126651E+03  0.10566000000E+00 0. -1.
<mgrwt>
<rscale>  1 0.65989695E+03</rscale>
<asrwt>0</asrwt>
<pdfrwt beam="1">  1       21 0.10989209E+00 0.10125112E+04</pdfrwt>
<pdfrwt beam="2">  1        4 0.10500274E+00 0.10125112E+04</pdfrwt>
<totfact> 0.17799973E+01</totfact>
</mgrwt>
</event>
<event>
 6    1  0.1431486E-005  0.1009160E+04  0.7818608E-02  0.9832457E-01
         21   -1    0    0  501  502  0.00000000000E+00  0.00000000000E+00  0.95416044286E+03  0.95416044286E+03  0.00000000000E+00 0.  1.
          4   -1    0    0  502    0 -0.00000000000E+00 -0.00000000000E+00 -0.35934099126E+03  0.35934099126E+03  0.00000000000E+00 0.  1.
    9000010    2    1    2  501    0 -0.95306369568E+02  0.12814035765E+03  0.54068759250E+03  0.11448790018E+04  0.99644447954E+03 0.  0.
        -13    1    3    3    0    0  0.35681737247E+01 -0.12239934519E+03  0.77698420791E+03  0.78657409192E+03  0.10566000000E+00 0.  1.
          4    1    3    3  501    0 -0.98874543293E+02  0.25053970284E+03 -0.23629661541E+03  0.35830490991E+03  0.00000000000E+00 0.  1.
         13    1    1    2    0    0  0.95306369568E+02 -0.12814035765E+03  0.54131859104E+02  0.16862243230E+03  0.10566000000E+00 0. -1.
<mgrwt>
<rscale>  1 0.63649449E+03</rscale>
<asrwt>0</asrwt>
<pdfrwt beam="1">  1       21 0.14679391E+00 0.10091605E+04</pdfrwt>
<pdfrwt beam="2">  1        4 0.55283230E-01 0.10091605E+04</pdfrwt>
<totfact> 0.35806734E+01</totfact>
</mgrwt>
</event>
<event>
 6    1  0.1431486E-005  0.1202582E+04  0.7818608E-02  0.9264166E-01
          4   -1    0    0  502    0 -0.00000000000E+00  0.00000000000E+00  0.87211818399E+03  0.87211818399E+03  0.00000000000E+00 0.  1.
         21   -1    0    0  501  502  0.00000000000E+00 -0.00000000000E+00 -0.13644286805E+04  0.13644286805E+04  0.00000000000E+00 0. -1.
    9000010    2    1    2  501    0 -0.66990067552E+03 -0.94499799820E+02 -0.84868182894E+03  0.14718916055E+04  0.99423685527E+03 0.  0.
        -13    1    3    3    0    0 -0.86104194642E+03  0.11119388941E+03 -0.43279212922E+03  0.97008574508E+03  0.10566000000E+00 0.  1.
          4    1    3    3  501    0  0.19114127090E+03 -0.20569368923E+03 -0.41588969972E+03  0.50180586044E+03  0.00000000000E+00 0.  1.
         13    1    1    2    0    0  0.66990067552E+03  0.94499799820E+02  0.35637133248E+03  0.76465525893E+03  0.10566000000E+00 0. -1.
<mgrwt>
<rscale>  1 0.10414978E+04</rscale>
<asrwt>0</asrwt>
<pdfrwt beam="2">  1       21 0.20991211E+00 0.12025822E+04</pdfrwt>
<pdfrwt beam="1">  1        4 0.13417203E+00 0.12025822E+04</pdfrwt>
<totfact> 0.14945441E+00</totfact>
</mgrwt>
</event>
<event>
 6    1  0.1431486E-005  0.1013795E+04  0.7818608E-02  0.9795083E-01
          4   -1    0    0  502    0 -0.00000000000E+00  0.00000000000E+00  0.78359848760E+03  0.78359848760E+03  0.00000000000E+00 0.  1.
         21   -1    0    0  501  502  0.00000000000E+00 -0.00000000000E+00 -0.46267370617E+03  0.46267370617E+03  0.00000000000E+00 0.  1.
    9000010    2    1    2  501    0 -0.17798294606E+03  0.39119253595E+01  0.20640409642E+03  0.10345926466E+04  0.99804111190E+03 0.  0.
        -13    1    3    3    0    0 -0.67501883115E+02 -0.42882402970E+03  0.35827905272E+03  0.56285916840E+03  0.10566000000E+00 0.  1.
          4    1    3    3  501    0 -0.11048106295E+03  0.43273595505E+03 -0.15187495630E+03  0.47173347816E+03  0.00000000000E+00 0.  1.
         13    1    1    2    0    0  0.17798294606E+03 -0.39119253595E+01  0.11452068501E+03  0.21167954721E+03  0.10566000000E+00 0. -1.
<mgrwt>
<rscale>  1 0.65627111E+03</rscale>
<asrwt>0</asrwt>
<pdfrwt beam="2">  1       21 0.71180570E-01 0.10137945E+04</pdfrwt>
<pdfrwt beam="1">  1        4 0.12055361E+00 0.10137945E+04</pdfrwt>
<totfact> 0.36025442E+01</totfact>
</mgrwt>
</event>
<event>
 6    1  0.1431486E-005  0.1102689E+04  0.7818608E-02  0.9434036E-01
         21   -1    0    0  501  502  0.00000000000E+00  0.00000000000E+00  0.39873856191E+03  0.39873856191E+03  0.00000000000E+00 0.  1.
          4   -1    0    0  502    0 -0.00000000000E+00 -0.00000000000E+00 -0.16022903731E+04  0.16022903731E+04  0.00000000000E+00 0.  1.
    9000010    2    1    2  501    0  0.40912260882E+03  0.24106586861E+03 -0.98388301894E+03  0.14778191764E+04  0.99520332651E+03 0.  0.
        -13    1    3    3    0    0  0.23844469194E+03  0.68355602517E+01 -0.11288414686E+04  0.11537701974E+04  0.10566000000E+00 0.  1.
          4    1    3    3  501    0  0.17067791688E+03  0.23423030836E+03  0.14495844966E+03  0.32404897900E+03  0.00000000000E+00 0.  1.
         13    1    1    2    0    0 -0.40912260882E+03 -0.24106586861E+03 -0.21966879225E+03  0.52320975861E+03  0.10566000000E+00 0. -1.
<mgrwt>
<rscale>  1 0.89326809E+03</rscale>
<asrwt>0</asrwt>
<pdfrwt beam="1">  1       21 0.61344394E-01 0.11026893E+04</pdfrwt>
<pdfrwt beam="2">  1        4 0.24650621E+00 0.11026893E+04</pdfrwt>
<totfact> 0.62968750E+00</totfact>
</mgrwt>
</event>
<event>
 6    1  0.1431486E-005  0.9709122E+03  0.7818608E-02  0.1021024E+00
          4   -1    0    0  502    0 -0.00000000000E+00  0.00000000000E+00  0.84360227953E+03  0.84360227953E+03  0.00000000000E+00 0.  1.
         21   -1    0    0  501  502  0.00000000000E+00 -0.00000000000E+00 -0.40749356345E+03  0.40749356345E+03  0.00000000000E+00 0.  1.
    9000010    2    1    2  501    0  0.33284441634E+01 -0.54675161486E+02  0.17781858292E+03  0.98706126972E+03  0.96936579779E+03 0.  0.
        -13    1    3    3    0    0 -0.38020586896E+03  0.23843108119E+03 -0.53185521985E+02  0.45192321714E+03  0.10566000000E+00 0.  1.
          4    1    3    3  501    0  0.38353431313E+03 -0.29310624268E+03  0.23100410491E+03  0.53513805259E+03  0.00000000000E+00 0.  1.
         13    1    1    2    0    0 -0.33284441634E+01  0.54675161486E+02  0.25829013315E+03  0.26403457325E+03  0.10566000000E+00 0. -1.
<mgrwt>
<rscale>  1 0.47318776E+03</rscale>
<asrwt>0</asrwt>
<pdfrwt beam="2">  1       21 0.62691318E-01 0.97091220E+03</pdfrwt>
<pdfrwt beam="1">  1        4 0.12978497E+00 0.97091220E+03</pdfrwt>
<totfact> 0.39986181E+01</totfact>
</mgrwt>
</event>
<event>
 6    1  0.1431486E-005  0.1031215E+04  0.7818608E-02  0.9658434E-01
         21   -1    0    0  501  502  0.00000000000E+00  0.00000000000E+00  0.33804596790E+03  0.33804596790E+03  0.00000000000E+00 0.  1.
          4   -1    0    0  502    0 -0.00000000000E+00 -0.00000000000E+00 -0.12786211420E+04  0.12786211420E+04  0.00000000000E+00 0.  1.
    9000010    2    1    2  501    0  0.66822654672E+02 -0.25830507500E+03 -0.63518164873E+03  0.12111402977E+04  0.99610155847E+03 0.  0.
        -13    1    3    3    0    0 -0.26130522918E+03  0.22898197701E+03 -0.49909256423E+03  0.60811723165E+03  0.10566000000E+00 0.  1.
          4    1    3    3  501    0  0.32812788386E+03 -0.48728705201E+03 -0.13608908450E+03  0.60302306601E+03  0.00000000000E+00 0.  1.
         13    1    1    2    0    0 -0.66822654672E+02  0.25830507500E+03 -0.30539352538E+03  0.40552681225E+03  0.10566000000E+00 0. -1.
<mgrwt>
<rscale>  1 0.73546490E+03</rscale>
<asrwt>0</asrwt>
<pdfrwt beam="1">  1       21 0.52007072E-01 0.10312153E+04</pdfrwt>
<pdfrwt beam="2">  1        4 0.19671095E+00 0.10312153E+04</pdfrwt>
<totfact> 0.19034321E+01</totfact>
</mgrwt>
</event>
<event>
 6    1  0.1431486E-005  0.9727942E+03  0.7818608E-02  0.9914091E-01
          4   -1    0    0  502    0 -0.00000000000E+00  0.00000000000E+00  0.67773128974E+03  0.67773128974E+03  0.00000000000E+00 0.  1.
         21   -1    0    0  501  502  0.00000000000E+00 -0.00000000000E+00 -0.46788654123E+03  0.46788654123E+03  0.00000000000E+00 0.  1.
    9000010    2    1    2  501    0 -0.19504229417E+02 -0.13551286397E+03  0.24718536985E+03  0.10037077030E+04  0.96311182873E+03 0.  0.
        -13    1    3    3    0    0 -0.40808422675E+03 -0.29845624779E+03 -0.17904824441E+02  0.50589471421E+03  0.10566000000E+00 0.  1.
          4    1    3    3  501    0  0.38857999733E+03  0.16294338382E+03  0.26509019429E+03  0.49781298875E+03  0.00000000000E+00 0.  1.
         13    1    1    2    0    0  0.19504229417E+02  0.13551286397E+03 -0.37340621340E+02  0.14191012802E+03  0.10566000000E+00 0. -1.
<mgrwt>
<rscale>  1 0.59583229E+03</rscale>
<asrwt>0</asrwt>
<pdfrwt beam="2">  1       21 0.71982545E-01 0.97279420E+03</pdfrwt>
<pdfrwt beam="1">  1        4 0.10426635E+00 0.97279420E+03</pdfrwt>
<totfact> 0.50432722E+01</totfact>
</mgrwt>
</event>
<event>
 6    1  0.1431486E-005  0.1059353E+04  0.7818608E-02  0.9643777E-01
         21   -1    0    0  501  502  0.00000000000E+00  0.00000000000E+00  0.20449426649E+04  0.20449426649E+04  0.00000000000E+00 0.  1.
          4   -1    0    0  502    0 -0.00000000000E+00 -0.00000000000E+00 -0.26044486065E+03  0.26044486065E+03  0.00000000000E+00 0.  1.
    9000010    2    1    2  501    0 -0.67462776336E+02 -0.24968465072E+03  0.17483304920E+04  0.20442329035E+04  0.10272949934E+04 0.  0.
        -13    1    3    3    0    0 -0.17834572770E+02 -0.60688403166E+02  0.18309776903E+04  0.18320699954E+04  0.10566000000E+00 0.  1.
          4    1    3    3  501    0 -0.49628203565E+02 -0.18899624755E+03 -0.82647198354E+02  0.21216290810E+03  0.00000000000E+00 0.  1.
         13    1    1    2    0    0  0.67462776336E+02  0.24968465072E+03  0.36167312281E+02  0.26115462209E+03  0.10566000000E+00 0. -1.
<mgrwt>
<rscale>  1 0.74465246E+03</rscale>
<asrwt>0</asrwt>
<pdfrwt beam="1">  1       21 0.31460655E+00 0.10593529E+04</pdfrwt>
<pdfrwt beam="2">  1        4 0.40068441E-01 0.10593529E+04</pdfrwt>
<totfact> 0.51692502E+00</totfact>
</mgrwt>
</event>
<event>
 6    1  0.1431486E-005  0.8470221E+03  0.7818608E-02  0.9749884E-01
         21   -1    0    0  501  502  0.00000000000E+00  0.00000000000E+00  0.48675705907E+03  0.48675705907E+03  0.00000000000E+00 0.  1.
          4   -1    0    0  502    0 -0.00000000000E+00 -0.00000000000E+00 -0.74964948663E+03  0.74964948663E+03  0.00000000000E+00 0.  1.
    9000010    2    1    2  501    0  0.26757901978E+03  0.23237108158E+03 -0.12529850525E+03  0.85623954293E+03  0.76931891182E+03 0.  0.
        -13    1    3    3    0    0 -0.17462231363E+03  0.24585629952E+03 -0.25531283934E+03  0.39512394198E+03  0.10566000000E+00 0.  1.
          4    1    3    3  501    0  0.44220133341E+03 -0.13485217942E+02  0.13001433409E+03  0.46111560095E+03  0.00000000000E+00 0.  1.
         13    1    1    2    0    0 -0.26757901978E+03 -0.23237108158E+03 -0.13759392232E+03  0.38016700278E+03  0.10566000000E+00 0. -1.
<mgrwt>
<rscale>  1 0.68122808E+03</rscale>
<asrwt>0</asrwt>
<pdfrwt beam="1">  1       21 0.74885702E-01 0.84702210E+03</pdfrwt>
<pdfrwt beam="2">  1        4 0.11533069E+00 0.84702210E+03</pdfrwt>
<totfact> 0.36350447E+01</totfact>
</mgrwt>
</event>
<event>
 6    1  0.1431486E-005  0.1010756E+04  0.7818608E-02  0.1000373E+00
         21   -1    0    0  501  502  0.00000000000E+00  0.00000000000E+00  0.55238909892E+03  0.55238909892E+03  0.00000000000E+00 0.  1.
          4   -1    0    0  502    0 -0.00000000000E+00 -0.00000000000E+00 -0.58701544285E+03  0.58701544285E+03  0.00000000000E+00 0.  1.
    9000010    2    1    2  501    0  0.58865214826E+02 -0.70437923263E+02  0.53476226217E+02  0.10121697644E+04  0.10065790136E+04 0.  0.
        -13    1    3    3    0    0  0.28499431278E+02 -0.99056104584E+02  0.52691185807E+03  0.53689891672E+03  0.10566000000E+00 0.  1.
          4    1    3    3  501    0  0.30365783549E+02  0.28618181321E+02 -0.47343563185E+03  0.47527084764E+03  0.00000000000E+00 0.  1.
         13    1    1    2    0    0 -0.58865214826E+02  0.70437923263E+02 -0.88102570145E+02  0.12723477740E+03  0.10566000000E+00 0. -1.
<mgrwt>
<rscale>  1 0.55487032E+03</rscale>
<asrwt>0</asrwt>
<pdfrwt beam="1">  1       21 0.84982938E-01 0.10107561E+04</pdfrwt>
<pdfrwt beam="2">  1        4 0.90310068E-01 0.10107561E+04</pdfrwt>
<totfact> 0.48075410E+01</totfact>
</mgrwt>
</event>
<event>
 6    1  0.1431486E-005  0.1036493E+04  0.7818608E-02  0.9684463E-01
          4   -1    0    0  502    0 -0.00000000000E+00  0.00000000000E+00  0.25280902412E+03  0.25280902412E+03  0.00000000000E+00 0.  1.
         21   -1    0    0  501  502  0.00000000000E+00 -0.00000000000E+00 -0.16181579261E+04  0.16181579261E+04  0.00000000000E+00 0.  1.
    9000010    2    1    2  501    0 -0.24032471817E+03  0.12767465488E+02 -0.11480420543E+04  0.15467120265E+04  0.10081659368E+04 0.  0.
        -13    1    3    3    0    0 -0.33150940972E+03  0.44789847162E+03 -0.83150768168E+03  0.10009578240E+04  0.10566000000E+00 0.  1.
          4    1    3    3  501    0  0.91184691547E+02 -0.43513100613E+03 -0.31653437262E+03  0.54575420248E+03  0.00000000000E+00 0.  1.
         13    1    1    2    0    0  0.24032471817E+03 -0.12767465488E+02 -0.21730684763E+03  0.32425492368E+03  0.10566000000E+00 0. -1.
<mgrwt>
<rscale>  1 0.71949432E+03</rscale>
<asrwt>0</asrwt>
<pdfrwt beam="2">  1       21 0.24894738E+00 0.10364929E+04</pdfrwt>
<pdfrwt beam="1">  1        4 0.38893695E-01 0.10364929E+04</pdfrwt>
<totfact> 0.14210184E+01</totfact>
</mgrwt>
</event>
<event>
 6    1  0.1431486E-005  0.1014534E+04  0.7818608E-02  0.1005731E+00
         21   -1    0    0  501  502  0.00000000000E+00  0.00000000000E+00  0.31436043307E+03  0.31436043307E+03  0.00000000000E+00 0.  1.
          4   -1    0    0  502    0 -0.00000000000E+00 -0.00000000000E+00 -0.95570267456E+03  0.95570267456E+03  0.00000000000E+00 0.  1.
    9000010    2    1    2  501    0  0.75226209159E+02  0.15223736824E+02 -0.56251994880E+03  0.11600462467E+04  0.10116263425E+04 0.  0.
        -13    1    3    3    0    0 -0.13264249228E+03  0.86608667720E+02 -0.81214669151E+03  0.82745232598E+03  0.10566000000E+00 0.  1.
          4    1    3    3  501    0  0.20786870144E+03 -0.71384930896E+02  0.24962674271E+03  0.33259392068E+03  0.00000000000E+00 0.  1.
         13    1    1    2    0    0 -0.75226209159E+02 -0.15223736824E+02 -0.78822292687E+02  0.11001686096E+03  0.10566000000E+00 0. -1.
<mgrwt>
<rscale>  1 0.53207301E+03</rscale>
<asrwt>0</asrwt>
<pdfrwt beam="1">  1       21 0.48363144E-01 0.10145337E+04</pdfrwt>
<pdfrwt beam="2">  1        4 0.14703118E+00 0.10145337E+04</pdfrwt>
<totfact> 0.50829370E+01</totfact>
</mgrwt>
</event>
<event>
 6    1  0.1431486E-005  0.1281225E+04  0.7818608E-02  0.9180529E-01
         21   -1    0    0  501  502  0.00000000000E+00  0.00000000000E+00  0.85641871092E+03  0.85641871092E+03  0.00000000000E+00 0. -1.
          4   -1    0    0  502    0 -0.00000000000E+00 -0.00000000000E+00 -0.12738555921E+04  0.12738555921E+04  0.00000000000E+00 0.  1.
    9000010    2    1    2  501    0  0.18325226326E+03 -0.74109997699E+03 -0.47080878727E+03  0.13649906043E+04  0.10289450267E+04 0.  0.
        -13    1    3    3    0    0 -0.26902281735E+03 -0.84626444737E+01  0.14567251909E+03  0.30604801353E+03  0.10566000000E+00 0.  1.
          4    1    3    3  501    0  0.45227508061E+03 -0.73263733251E+03 -0.61648130636E+03  0.10589425908E+04  0.00000000000E+00 0.  1.
         13    1    1    2    0    0 -0.18325226326E+03  0.74109997699E+03  0.53371906125E+02  0.76528369864E+03  0.10566000000E+00 0. -1.
<mgrwt>
<rscale>  1 0.11256675E+04</rscale>
<asrwt>0</asrwt>
<pdfrwt beam="1">  1       21 0.13175673E+00 0.12812254E+04</pdfrwt>
<pdfrwt beam="2">  1        4 0.19597778E+00 0.12812254E+04</pdfrwt>
<totfact> 0.20213625E+00</totfact>
</mgrwt>
</event>
<event>
 6    1  0.1431486E-005  0.1054656E+04  0.7818608E-02  0.9646328E-01
          4   -1    0    0  502    0 -0.00000000000E+00  0.00000000000E+00  0.18344926439E+04  0.18344926439E+04  0.00000000000E+00 0.  1.
         21   -1    0    0  501  502  0.00000000000E+00 -0.00000000000E+00 -0.27065638588E+03  0.27065638588E+03  0.00000000000E+00 0.  1.
    9000010    2    1    2  501    0  0.15264182469E+03 -0.21029196997E+03  0.87988211470E+03  0.13734964342E+04  0.10221436688E+04 0.  0.
        -13    1    3    3    0    0  0.35308814072E+03 -0.34352301616E+02  0.10145014254E+04  0.10747392563E+04  0.10566000000E+00 0.  1.
          4    1    3    3  501    0 -0.20044631603E+03 -0.17593966836E+03 -0.13461931072E+03  0.29875717787E+03  0.00000000000E+00 0.  1.
         13    1    1    2    0    0 -0.15264182469E+03  0.21029196997E+03  0.68395414330E+03  0.73165259556E+03  0.10566000000E+00 0. -1.
<mgrwt>
<rscale>  1 0.74304322E+03</rscale>
<asrwt>0</asrwt>
<pdfrwt beam="2">  1       21 0.41639445E-01 0.10546563E+04</pdfrwt>
<pdfrwt beam="1">  1        4 0.28222963E+00 0.10546563E+04</pdfrwt>
<totfact> 0.88359199E+00</totfact>
</mgrwt>
</event>
<event>
 6    1  0.1431486E-005  0.9892251E+03  0.7818608E-02  0.9905075E-01
         21   -1    0    0  501  502  0.00000000000E+00  0.00000000000E+00  0.29488870743E+03  0.29488870743E+03  0.00000000000E+00 0.  1.
          4   -1    0    0  502    0 -0.00000000000E+00 -0.00000000000E+00 -0.10717363561E+04  0.10717363561E+04  0.00000000000E+00 0.  1.
    9000010    2    1    2  501    0 -0.74868104056E+02 -0.11116251057E+03 -0.66391121524E+03  0.11913624437E+04  0.98010409331E+03 0.  0.
        -13    1    3    3    0    0  0.22457664153E+02  0.34533107121E+03 -0.63565965799E+03  0.72375486691E+03  0.10566000000E+00 0.  1.
          4    1    3    3  501    0 -0.97325768209E+02 -0.45649358177E+03 -0.28251557247E+02  0.46760757676E+03  0.00000000000E+00 0.  1.
         13    1    1    2    0    0  0.74868104056E+02  0.11116251057E+03 -0.11293643346E+03  0.17526261988E+03  0.10566000000E+00 0. -1.
<mgrwt>
<rscale>  1 0.60015958E+03</rscale>
<asrwt>0</asrwt>
<pdfrwt beam="1">  1       21 0.45367494E-01 0.98922514E+03</pdfrwt>
<pdfrwt beam="2">  1        4 0.16488251E+00 0.98922514E+03</pdfrwt>
<totfact> 0.42747739E+01</totfact>
</mgrwt>
</event>
<event>
 6    1  0.1431486E-005  0.1028312E+04  0.7818608E-02  0.9675935E-01
         21   -1    0    0  501  502  0.00000000000E+00  0.00000000000E+00  0.32428374552E+03  0.32428374552E+03  0.00000000000E+00 0.  1.
          4   -1    0    0  502    0 -0.00000000000E+00 -0.00000000000E+00 -0.13711725623E+04  0.13711725623E+04  0.00000000000E+00 0.  1.
    9000010    2    1    2  501    0 -0.17322552911E+03 -0.18526425254E+03 -0.62545571165E+03  0.12035866091E+04  0.99654199675E+03 0.  0.
        -13    1    3    3    0    0 -0.18218256999E+03 -0.42233018530E+02 -0.88638121667E+03  0.90589502101E+03  0.10566000000E+00 0.  1.
          4    1    3    3  501    0  0.89570408771E+01 -0.14303123401E+03  0.26092550502E+03  0.29769158814E+03  0.00000000000E+00 0.  1.
         13    1    1    2    0    0  0.17322552911E+03  0.18526425254E+03 -0.42143310508E+03  0.49186969862E+03  0.10566000000E+00 0. -1.
<mgrwt>
<rscale>  1 0.72467848E+03</rscale>
<asrwt>0</asrwt>
<pdfrwt beam="1">  1       21 0.49889807E-01 0.10283122E+04</pdfrwt>
<pdfrwt beam="2">  1        4 0.21094963E+00 0.10283122E+04</pdfrwt>
<totfact> 0.16798331E+01</totfact>
</mgrwt>
</event>
<event>
 6    1  0.1431486E-005  0.9254974E+03  0.7818608E-02  0.9790201E-01
         21   -1    0    0  501  502  0.00000000000E+00  0.00000000000E+00  0.11984627208E+04  0.11984627208E+04  0.00000000000E+00 0.  1.
          4   -1    0    0  502    0 -0.00000000000E+00 -0.00000000000E+00 -0.34872750951E+03  0.34872750951E+03  0.00000000000E+00 0.  1.
    9000010    2    1    2  501    0 -0.22895197568E+03 -0.64199797641E+02  0.91413456521E+03  0.13008410693E+04  0.89442990951E+03 0.  0.
        -13    1    3    3    0    0 -0.21397581812E+03 -0.46279527413E+03  0.38858337744E+03  0.64106331114E+03  0.10566000000E+00 0.  1.
          4    1    3    3  501    0 -0.14976157569E+02  0.39859547649E+03  0.52555118777E+03  0.65977775814E+03  0.00000000000E+00 0.  1.
         13    1    1    2    0    0  0.22895197568E+03  0.64199797641E+02 -0.64399353930E+02  0.24634916102E+03  0.10566000000E+00 0. -1.
<mgrwt>
<rscale>  1 0.65891060E+03</rscale>
<asrwt>0</asrwt>
<pdfrwt beam="1">  1       21 0.18437888E+00 0.92549743E+03</pdfrwt>
<pdfrwt beam="2">  1        4 0.53650387E-01 0.92549743E+03</pdfrwt>
<totfact> 0.19938609E+01</totfact>
</mgrwt>
</event>
<event>
 6    1  0.1431486E-005  0.1029300E+04  0.7818608E-02  0.9675483E-01
          4   -1    0    0  502    0 -0.00000000000E+00  0.00000000000E+00  0.46599297709E+03  0.46599297709E+03  0.00000000000E+00 0.  1.
         21   -1    0    0  501  502  0.00000000000E+00 -0.00000000000E+00 -0.11271246550E+04  0.11271246550E+04  0.00000000000E+00 0.  1.
    9000010    2    1    2  501    0  0.25062835562E+03  0.36617786677E+02 -0.80057071059E+03  0.13039832517E+04  0.99764894780E+03 0.  0.
        -13    1    3    3    0    0 -0.17488943953E+03  0.40511516908E+03 -0.21189846772E+03  0.48949523804E+03  0.10566000000E+00 0.  1.
          4    1    3    3  501    0  0.42551779515E+03 -0.36849738240E+03 -0.58867224287E+03  0.81448801363E+03  0.00000000000E+00 0.  1.
         13    1    1    2    0    0 -0.25062835562E+03 -0.36617786677E+02  0.13943903268E+03  0.28913438041E+03  0.10566000000E+00 0. -1.
<mgrwt>
<rscale>  1 0.72495446E+03</rscale>
<asrwt>0</asrwt>
<pdfrwt beam="2">  1       21 0.17340379E+00 0.10293002E+04</pdfrwt>
<pdfrwt beam="1">  1        4 0.71691229E-01 0.10293002E+04</pdfrwt>
<totfact> 0.12537345E+01</totfact>
</mgrwt>
</event>
<event>
 6    1  0.1431486E-005  0.1021647E+04  0.7818608E-02  0.9836532E-01
         21   -1    0    0  501  502  0.00000000000E+00  0.00000000000E+00  0.59324774185E+03  0.59324774185E+03  0.00000000000E+00 0.  1.
          4   -1    0    0  502    0 -0.00000000000E+00 -0.00000000000E+00 -0.59512299794E+03  0.59512299794E+03  0.00000000000E+00 0.  1.
    9000010    2    1    2  501    0  0.14088648485E+02  0.15122624070E+03  0.62172949309E+02  0.10235373400E+04  0.10102946822E+04 0.  0.
        -13    1    3    3    0    0  0.93268163082E+02 -0.17826457081E+03 -0.40158522214E+03  0.44916356626E+03  0.10566000000E+00 0.  1.
          4    1    3    3  501    0 -0.79179514597E+02  0.32949081152E+03  0.46375817145E+03  0.57437377377E+03  0.00000000000E+00 0.  1.
         13    1    1    2    0    0 -0.14088648485E+02 -0.15122624070E+03 -0.64048205399E+02  0.16483339975E+03  0.10566000000E+00 0. -1.
<mgrwt>
<rscale>  1 0.63438324E+03</rscale>
<asrwt>0</asrwt>
<pdfrwt beam="1">  1       21 0.91268884E-01 0.10216473E+04</pdfrwt>
<pdfrwt beam="2">  1        4 0.91557384E-01 0.10216473E+04</pdfrwt>
<totfact> 0.39173204E+01</totfact>
</mgrwt>
</event>
<event>
 6    1  0.1431486E-005  0.1006398E+04  0.7818608E-02  0.9747666E-01
          4   -1    0    0  502    0 -0.00000000000E+00  0.00000000000E+00  0.51721960736E+03  0.51721960736E+03  0.00000000000E+00 0.  1.
         21   -1    0    0  501  502  0.00000000000E+00 -0.00000000000E+00 -0.91530215486E+03  0.91530215486E+03  0.00000000000E+00 0.  1.
    9000010    2    1    2  501    0 -0.14505251223E+03 -0.15576143038E+03 -0.57205909844E+03  0.11576223153E+04  0.98363405704E+03 0.  0.
        -13    1    3    3    0    0 -0.19582480106E+03 -0.54323909340E+03 -0.18195105377E+03  0.60544385573E+03  0.10566000000E+00 0.  1.
          4    1    3    3  501    0  0.50772288831E+02  0.38747766302E+03 -0.39010804467E+03  0.55217845953E+03  0.00000000000E+00 0.  1.
         13    1    1    2    0    0  0.14505251223E+03  0.15576143038E+03  0.17397655095E+03  0.27489944697E+03  0.10566000000E+00 0. -1.
<mgrwt>
<rscale>  1 0.68248322E+03</rscale>
<asrwt>0</asrwt>
<pdfrwt beam="2">  1       21 0.14081571E+00 0.10063984E+04</pdfrwt>
<pdfrwt beam="1">  1        4 0.79572248E-01 0.10063984E+04</pdfrwt>
<totfact> 0.17898225E+01</totfact>
</mgrwt>
</event>
<event>
 6    1  0.1431486E-005  0.1117170E+04  0.7818608E-02  0.9416142E-01
         21   -1    0    0  501  502  0.00000000000E+00  0.00000000000E+00  0.16273052922E+04  0.16273052922E+04  0.00000000000E+00 0.  1.
          4   -1    0    0  502    0 -0.00000000000E+00 -0.00000000000E+00 -0.39592554879E+03  0.39592554879E+03  0.00000000000E+00 0.  1.
    9000010    2    1    2  501    0  0.87881209613E+02 -0.47863258386E+03  0.89817586009E+03  0.14334536828E+04  0.10056129114E+04 0.  0.
        -13    1    3    3    0    0  0.95520491951E+01 -0.38362996474E+03  0.11177070698E+04  0.11817496759E+04  0.10566000000E+00 0.  1.
          4    1    3    3  501    0  0.78329160418E+02 -0.95002619119E+02 -0.21953120973E+03  0.25170400683E+03  0.00000000000E+00 0.  1.
         13    1    1    2    0    0 -0.87881209613E+02  0.47863258386E+03  0.33320388334E+03  0.58977715823E+03  0.10566000000E+00 0. -1.
<mgrwt>
<rscale>  1 0.90759078E+03</rscale>
<asrwt>0</asrwt>
<pdfrwt beam="1">  1       21 0.25035466E+00 0.11171703E+04</pdfrwt>
<pdfrwt beam="2">  1        4 0.60911624E-01 0.11171703E+04</pdfrwt>
<totfact> 0.53508493E+00</totfact>
</mgrwt>
</event>
<event>
 6    1  0.1431486E-005  0.9945559E+03  0.7818608E-02  0.9907196E-01
          4   -1    0    0  502    0 -0.00000000000E+00  0.00000000000E+00  0.76749503544E+03  0.76749503544E+03  0.00000000000E+00 0.  1.
         21   -1    0    0  501  502  0.00000000000E+00 -0.00000000000E+00 -0.41463239997E+03  0.41463239997E+03  0.00000000000E+00 0.  1.
    9000010    2    1    2  501    0  0.59492218090E+02  0.11669426511E+03  0.28488094101E+03  0.10345523783E+04  0.98589279208E+03 0.  0.
        -13    1    3    3    0    0  0.34154805783E+03  0.44303077233E+03  0.20561031657E+03  0.59599241143E+03  0.10566000000E+00 0.  1.
          4    1    3    3  501    0 -0.28205583974E+03 -0.32633650723E+03  0.79270624435E+02  0.43855996691E+03  0.00000000000E+00 0.  1.
         13    1    1    2    0    0 -0.59492218090E+02 -0.11669426511E+03  0.67981694467E+02  0.14757505707E+03  0.10566000000E+00 0. -1.
<mgrwt>
<rscale>  1 0.59913779E+03</rscale>
<asrwt>0</asrwt>
<pdfrwt beam="2">  1       21 0.63789600E-01 0.99455592E+03</pdfrwt>
<pdfrwt beam="1">  1        4 0.11807616E+00 0.99455592E+03</pdfrwt>
<totfact> 0.48792976E+01</totfact>
</mgrwt>
</event>
<event>
 6    1  0.1431486E-005  0.1004110E+04  0.7818608E-02  0.1075680E+00
         21   -1    0    0  501  502  0.00000000000E+00  0.00000000000E+00  0.71853770464E+03  0.71853770464E+03  0.00000000000E+00 0.  1.
          4   -1    0    0  502    0 -0.00000000000E+00 -0.00000000000E+00 -0.35965343523E+03  0.35965343523E+03  0.00000000000E+00 0.  1.
    9000010    2    1    2  501    0 -0.69668769007E+01  0.76518878684E+01  0.34687103439E+03  0.10623349820E+04  0.10040562787E+04 0.  0.
        -13    1    3    3    0    0 -0.63004104863E+02 -0.45367012662E+03 -0.37087136675E+02  0.45952319624E+03  0.10566000000E+00 0.  1.
          4    1    3    3  501    0  0.56037227963E+02  0.46132201448E+03  0.38395817107E+03  0.60281178580E+03  0.00000000000E+00 0.  1.
         13    1    1    2    0    0  0.69668769007E+01 -0.76518878684E+01  0.12013235017E+02  0.15856157836E+02  0.10566000000E+00 0. -1.
<mgrwt>
<rscale>  1 0.31993337E+03</rscale>
<asrwt>0</asrwt>
<pdfrwt beam="1">  1       21 0.11054426E+00 0.10041096E+04</pdfrwt>
<pdfrwt beam="2">  1        4 0.55331298E-01 0.10041096E+04</pdfrwt>
<totfact> 0.75695100E+01</totfact>
</mgrwt>
</event>
<event>
 6    1  0.1431486E-005  0.1028994E+04  0.7818608E-02  0.9620253E-01
         21   -1    0    0  501  502  0.00000000000E+00  0.00000000000E+00  0.14273659280E+04  0.14273659280E+04  0.00000000000E+00 0.  1.
          4   -1    0    0  502    0 -0.00000000000E+00 -0.00000000000E+00 -0.39463938433E+03  0.39463938433E+03  0.00000000000E+00 0.  1.
    9000010    2    1    2  501    0 -0.27713131810E+03 -0.12909765486E+03  0.11028452543E+04  0.15083420906E+04  0.98252747301E+03 0.  0.
        -13    1    3    3    0    0  0.54747120733E+02  0.28016558368E+03  0.89923028699E+03  0.94345382595E+03  0.10566000000E+00 0.  1.
          4    1    3    3  501    0 -0.33187843883E+03 -0.40926323853E+03  0.20361496734E+03  0.56488826461E+03  0.00000000000E+00 0.  1.
         13    1    1    2    0    0  0.27713131810E+03  0.12909765486E+03 -0.70118710631E+02  0.31366322179E+03  0.10566000000E+00 0. -1.
<mgrwt>
<rscale>  1 0.75970052E+03</rscale>
<asrwt>0</asrwt>
<pdfrwt beam="1">  1       21 0.21959476E+00 0.10289938E+04</pdfrwt>
<pdfrwt beam="2">  1        4 0.60713752E-01 0.10289938E+04</pdfrwt>
<totfact> 0.86368755E+00</totfact>
</mgrwt>
</event>
<event>
 6    1  0.1431486E-005  0.1019744E+04  0.7818608E-02  0.9734799E-01
          4   -1    0    0  502    0 -0.00000000000E+00  0.00000000000E+00  0.10222815732E+04  0.10222815732E+04  0.00000000000E+00 0.  1.
         21   -1    0    0  501  502  0.00000000000E+00 -0.00000000000E+00 -0.40402093187E+03  0.40402093187E+03  0.00000000000E+00 0.  1.
    9000010    2    1    2  501    0  0.15545665721E+03 -0.14639443296E+03  0.33870532923E+03  0.10745223380E+04  0.99713532308E+03 0.  0.
        -13    1    3    3    0    0  0.22135852365E+03  0.20624010084E+03 -0.24505645483E+03  0.38934207634E+03  0.10566000000E+00 0.  1.
          4    1    3    3  501    0 -0.65901866445E+02 -0.35263453380E+03  0.58376178407E+03  0.68518026166E+03  0.00000000000E+00 0.  1.
         13    1    1    2    0    0 -0.15545665721E+03  0.14639443296E+03  0.27955531214E+03  0.35178016712E+03  0.10566000000E+00 0. -1.
<mgrwt>
<rscale>  1 0.68982129E+03</rscale>
<asrwt>0</asrwt>
<pdfrwt beam="2">  1       21 0.62157067E-01 0.10197436E+04</pdfrwt>
<pdfrwt beam="1">  1        4 0.15727409E+00 0.10197436E+04</pdfrwt>
<totfact> 0.24415513E+01</totfact>
</mgrwt>
</event>
<event>
 6    1  0.1431486E-005  0.9381913E+03  0.7818608E-02  0.9748589E-01
          4   -1    0    0  502    0 -0.00000000000E+00  0.00000000000E+00  0.64610912096E+03  0.64610912096E+03  0.00000000000E+00 0.  1.
         21   -1    0    0  501  502  0.00000000000E+00 -0.00000000000E+00 -0.68441077055E+03  0.68441077055E+03  0.00000000000E+00 0.  1.
    9000010    2    1    2  501    0  0.27913440996E+02  0.26042490511E+03 -0.27482211697E+03  0.97761447352E+03  0.90088987755E+03 0.  0.
        -13    1    3    3    0    0  0.19369543803E+03  0.28372843270E+03 -0.55412752366E+03  0.65197934774E+03  0.10566000000E+00 0.  1.
          4    1    3    3  501    0 -0.16578199704E+03 -0.23303527589E+02  0.27930540668E+03  0.32563512578E+03  0.00000000000E+00 0.  1.
         13    1    1    2    0    0 -0.27913440996E+02 -0.26042490511E+03  0.23652046739E+03  0.35290541799E+03  0.10566000000E+00 0. -1.
<mgrwt>
<rscale>  1 0.68196062E+03</rscale>
<asrwt>0</asrwt>
<pdfrwt beam="2">  1       21 0.10529396E+00 0.93819127E+03</pdfrwt>
<pdfrwt beam="1">  1        4 0.99401404E-01 0.93819127E+03</pdfrwt>
<totfact> 0.22820972E+01</totfact>
</mgrwt>
</event>
<event>
 6    1  0.1431486E-005  0.9776886E+03  0.7818608E-02  0.9966848E-01
          4   -1    0    0  502    0 -0.00000000000E+00  0.00000000000E+00  0.13114918693E+04  0.13114918693E+04  0.00000000000E+00 0.  1.
         21   -1    0    0  501  502  0.00000000000E+00 -0.00000000000E+00 -0.25337087025E+03  0.25337087025E+03  0.00000000000E+00 0.  1.
    9000010    2    1    2  501    0 -0.11394946472E+03 -0.22582899447E+01  0.10710258774E+04  0.14501625764E+04  0.97102290789E+03 0.  0.
        -13    1    3    3    0    0 -0.28622717875E+03 -0.36640633197E+03  0.23239700164E+03  0.51979609031E+03  0.10566000000E+00 0.  1.
          4    1    3    3  501    0  0.17227771403E+03  0.36414804203E+03  0.83862887572E+03  0.93036648610E+03  0.00000000000E+00 0.  1.
         13    1    1    2    0    0  0.11394946472E+03  0.22582899447E+01 -0.12904878276E+02  0.11470016317E+03  0.10566000000E+00 0. -1.
<mgrwt>
<rscale>  1 0.57128118E+03</rscale>
<asrwt>0</asrwt>
<pdfrwt beam="2">  1       21 0.38980135E-01 0.97768864E+03</pdfrwt>
<pdfrwt beam="1">  1        4 0.20176798E+00 0.97768864E+03</pdfrwt>
<totfact> 0.32732041E+01</totfact>
</mgrwt>
</event>
<event>
 6    1  0.1431486E-005  0.1034849E+04  0.7818608E-02  0.9673867E-01
          4   -1    0    0  502    0 -0.00000000000E+00  0.00000000000E+00  0.41664599347E+03  0.41664599347E+03  0.00000000000E+00 0.  1.
         21   -1    0    0  501  502  0.00000000000E+00 -0.00000000000E+00 -0.10162038721E+04  0.10162038721E+04  0.00000000000E+00 0.  1.
    9000010    2    1    2  501    0  0.24455495878E+03  0.54702804523E+02 -0.38903454158E+03  0.11055585407E+04  0.10040479509E+04 0.  0.
        -13    1    3    3    0    0 -0.16416707941E+03 -0.16658656636E+03 -0.56271545573E+03  0.60938543577E+03  0.10566000000E+00 0.  1.
          4    1    3    3  501    0  0.40872203818E+03  0.22128937088E+03  0.17368091415E+03  0.49617310498E+03  0.00000000000E+00 0.  1.
         13    1    1    2    0    0 -0.24455495878E+03 -0.54702804523E+02 -0.21052333701E+03  0.32729132478E+03  0.10566000000E+00 0. -1.
<mgrwt>
<rscale>  1 0.72594254E+03</rscale>
<asrwt>0</asrwt>
<pdfrwt beam="2">  1       21 0.15633905E+00 0.10348487E+04</pdfrwt>
<pdfrwt beam="1">  1        4 0.64099385E-01 0.10348487E+04</pdfrwt>
<totfact> 0.21700531E+01</totfact>
</mgrwt>
</event>
<event>
 6    1  0.1431486E-005  0.9994119E+03  0.7818608E-02  0.1023012E+00
         21   -1    0    0  501  502  0.00000000000E+00  0.00000000000E+00  0.11876880674E+04  0.11876880674E+04  0.00000000000E+00 0.  1.
          4   -1    0    0  502    0 -0.00000000000E+00 -0.00000000000E+00 -0.35381012959E+03  0.35381012959E+03  0.00000000000E+00 0.  1.
    9000010    2    1    2  501    0 -0.47059730663E+02 -0.47707584495E+01  0.97283215691E+03  0.13947137818E+04  0.99829191587E+03 0.  0.
        -13    1    3    3    0    0  0.36208746551E+03  0.30850707031E+03  0.55749658436E+03  0.73286178632E+03  0.10566000000E+00 0.  1.
          4    1    3    3  501    0 -0.40914719617E+03 -0.31327782876E+03  0.41533557255E+03  0.66185199550E+03  0.00000000000E+00 0.  1.
         13    1    1    2    0    0  0.47059730663E+02  0.47707584495E+01 -0.13895421907E+03  0.14678441521E+03  0.10566000000E+00 0. -1.
<mgrwt>
<rscale>  1 0.46615043E+03</rscale>
<asrwt>0</asrwt>
<pdfrwt beam="1">  1       21 0.18272124E+00 0.99941189E+03</pdfrwt>
<pdfrwt beam="2">  1        4 0.54432328E-01 0.99941189E+03</pdfrwt>
<totfact> 0.19686601E+01</totfact>
</mgrwt>
</event>
<event>
 6    1  0.1431486E-005  0.9978224E+03  0.7818608E-02  0.9807185E-01
         21   -1    0    0  501  502  0.00000000000E+00  0.00000000000E+00  0.53382160180E+03  0.53382160180E+03  0.00000000000E+00 0.  1.
          4   -1    0    0  502    0 -0.00000000000E+00 -0.00000000000E+00 -0.66071684910E+03  0.66071684910E+03  0.00000000000E+00 0.  1.
    9000010    2    1    2  501    0 -0.56888855595E+02 -0.17018167954E+03 -0.49295350604E+02  0.99903934330E+03  0.98155561836E+03 0.  0.
        -13    1    3    3    0    0 -0.26201755986E+03  0.38525690273E+02  0.38986555122E+03  0.47130944153E+03  0.10566000000E+00 0.  1.
          4    1    3    3  501    0  0.20512870426E+03 -0.20870736981E+03 -0.43916090183E+03  0.52772990177E+03  0.00000000000E+00 0.  1.
         13    1    1    2    0    0  0.56888855595E+02  0.17018167954E+03 -0.77599896694E+02  0.19549910760E+03  0.10566000000E+00 0. -1.
<mgrwt>
<rscale>  1 0.64978371E+03</rscale>
<asrwt>0</asrwt>
<pdfrwt beam="1">  1       21 0.82126401E-01 0.99782242E+03</pdfrwt>
<pdfrwt beam="2">  1        4 0.10164875E+00 0.99782242E+03</pdfrwt>
<totfact> 0.39362249E+01</totfact>
</mgrwt>
</event>
<event>
 6    1  0.1431486E-005  0.1001304E+04  0.7818608E-02  0.1006866E+00
          4   -1    0    0  502    0 -0.00000000000E+00  0.00000000000E+00  0.53260215315E+03  0.53260215315E+03  0.00000000000E+00 0.  1.
         21   -1    0    0  501  502  0.00000000000E+00 -0.00000000000E+00 -0.54733935268E+03  0.54733935268E+03  0.00000000000E+00 0.  1.
    9000010    2    1    2  501    0  0.66635279236E+02  0.38710834026E+02 -0.28248138844E+02  0.10017024762E+04  0.99833416470E+03 0.  0.
        -13    1    3    3    0    0  0.20180774971E+03  0.30709003360E+03  0.35753168147E+03  0.51269832358E+03  0.10566000000E+00 0.  1.
          4    1    3    3  501    0 -0.13517247047E+03 -0.26837919958E+03 -0.38577982031E+03  0.48900415264E+03  0.00000000000E+00 0.  1.
         13    1    1    2    0    0 -0.66635279236E+02 -0.38710834026E+02  0.13510939318E+02  0.78239029615E+02  0.10566000000E+00 0. -1.
<mgrwt>
<rscale>  1 0.52739600E+03</rscale>
<asrwt>0</asrwt>
<pdfrwt beam="2">  1       21 0.84206054E-01 0.10013041E+04</pdfrwt>
<pdfrwt beam="1">  1        4 0.81938793E-01 0.10013041E+04</pdfrwt>
<totfact> 0.61691990E+01</totfact>
</mgrwt>
</event>
<event>
 6    1  0.1431486E-005  0.9863023E+03  0.7818608E-02  0.9925432E-01
         21   -1    0    0  501  502  0.00000000000E+00  0.00000000000E+00  0.26394836243E+03  0.26394836243E+03  0.00000000000E+00 0.  1.
          4   -1    0    0  502    0 -0.00000000000E+00 -0.00000000000E+00 -0.11746182504E+04  0.11746182504E+04  0.00000000000E+00 0.  1.
    9000010    2    1    2  501    0  0.11676138739E+03  0.49121479802E+02 -0.82219143535E+03  0.12840525710E+04  0.97813399260E+03 0.  0.
        -13    1    3    3    0    0  0.40058912967E+02  0.20954198431E+03 -0.10059643458E+04  0.10283369273E+04  0.10566000000E+00 0.  1.
          4    1    3    3  501    0  0.76702474427E+02 -0.16042050450E+03  0.18377291049E+03  0.25571564379E+03  0.00000000000E+00 0.  1.
         13    1    1    2    0    0 -0.11676138739E+03 -0.49121479802E+02 -0.88478452608E+02  0.15451404177E+03  0.10566000000E+00 0. -1.
<mgrwt>
<rscale>  1 0.59044433E+03</rscale>
<asrwt>0</asrwt>
<pdfrwt beam="1">  1       21 0.40607439E-01 0.98630231E+03</pdfrwt>
<pdfrwt beam="2">  1        4 0.18071050E+00 0.98630231E+03</pdfrwt>
<totfact> 0.41674959E+01</totfact>
</mgrwt>
</event>
<event>
 6    1  0.1431486E-005  0.1007157E+04  0.7818608E-02  0.9840469E-01
          4   -1    0    0  502    0 -0.00000000000E+00  0.00000000000E+00  0.18625473626E+04  0.18625473626E+04  0.00000000000E+00 0.  1.
         21   -1    0    0  501  502  0.00000000000E+00 -0.00000000000E+00 -0.20135538172E+03  0.20135538172E+03  0.00000000000E+00 0.  1.
    9000010    2    1    2  501    0  0.49257465184E+02  0.14855811550E+03  0.11470320756E+04  0.15264492757E+04  0.99492160361E+03 0.  0.
        -13    1    3    3    0    0  0.29042323082E+03 -0.23017920890E+03  0.94931407006E+02  0.38254425157E+03  0.10566000000E+00 0.  1.
          4    1    3    3  501    0 -0.24116576564E+03  0.37873732440E+03  0.10521006686E+04  0.11439050242E+04  0.00000000000E+00 0.  1.
         13    1    1    2    0    0 -0.49257465184E+02 -0.14855811550E+03  0.51415990520E+03  0.53745346854E+03  0.10566000000E+00 0. -1.
<mgrwt>
<rscale>  1 0.63235262E+03</rscale>
<asrwt>0</asrwt>
<pdfrwt beam="2">  1       21 0.30977752E-01 0.10071568E+04</pdfrwt>
<pdfrwt beam="1">  1        4 0.28654574E+00 0.10071568E+04</pdfrwt>
<totfact> 0.15395309E+01</totfact>
</mgrwt>
</event>
<event>
 6    1  0.1431486E-005  0.9914032E+03  0.7818608E-02  0.1003012E+00
         21   -1    0    0  501  502  0.00000000000E+00  0.00000000000E+00  0.58671594190E+03  0.58671594190E+03  0.00000000000E+00 0.  1.
          4   -1    0    0  502    0 -0.00000000000E+00 -0.00000000000E+00 -0.54411872747E+03  0.54411872747E+03  0.00000000000E+00 0.  1.
    9000010    2    1    2  501    0  0.49050676773E+02  0.74907784613E+02  0.13688256042E+03  0.10008082001E+04  0.98735154472E+03 0.  0.
        -13    1    3    3    0    0 -0.14221191005E+03  0.66036761792E+02 -0.40062567281E+03  0.43021625045E+03  0.10566000000E+00 0.  1.
          4    1    3    3  501    0  0.19126258683E+03  0.88710228212E+01  0.53750823323E+03  0.57059194961E+03  0.00000000000E+00 0.  1.
         13    1    1    2    0    0 -0.49050676773E+02 -0.74907784613E+02 -0.94285345991E+02  0.13002646931E+03  0.10566000000E+00 0. -1.
<mgrwt>
<rscale>  1 0.54348838E+03</rscale>
<asrwt>0</asrwt>
<pdfrwt beam="1">  1       21 0.90263991E-01 0.99140316E+03</pdfrwt>
<pdfrwt beam="2">  1        4 0.83710573E-01 0.99140316E+03</pdfrwt>
<totfact> 0.49745734E+01</totfact>
</mgrwt>
</event>
<event>
 6    1  0.1431486E-005  0.1049064E+04  0.7818608E-02  0.9582841E-01
         21   -1    0    0  501  502  0.00000000000E+00  0.00000000000E+00  0.70198406683E+03  0.70198406683E+03  0.00000000000E+00 0. -1.
          4   -1    0    0  502    0 -0.00000000000E+00 -0.00000000000E+00 -0.71978786548E+03  0.71978786548E+03  0.00000000000E+00 0.  1.
    9000010    2    1    2  501    0 -0.84350094077E+02 -0.31690826439E+03  0.13906807622E+03  0.10582412146E+04  0.99648820972E+03 0.  0.
        -13    1    3    3    0    0  0.10798271969E+03  0.21754761648E+03 -0.26629754466E+03  0.36041868243E+03  0.10566000000E+00 0.  1.
          4    1    3    3  501    0 -0.19233281377E+03 -0.53445588087E+03  0.40536562088E+03  0.69782253220E+03  0.00000000000E+00 0.  1.
         13    1    1    2    0    0  0.84350094077E+02  0.31690826439E+03 -0.15687187487E+03  0.36353071768E+03  0.10566000000E+00 0. -1.
<mgrwt>
<rscale>  1 0.78442343E+03</rscale>
<asrwt>0</asrwt>
<pdfrwt beam="1">  1       21 0.10799755E+00 0.10490636E+04</pdfrwt>
<pdfrwt beam="2">  1        4 0.11073659E+00 0.10490636E+04</pdfrwt>
<totfact> 0.16265181E+01</totfact>
</mgrwt>
</event>
<event>
 6    1  0.1431486E-005  0.1002059E+04  0.7818608E-02  0.9929021E-01
         21   -1    0    0  501  502  0.00000000000E+00  0.00000000000E+00  0.14607264400E+03  0.14607264400E+03  0.00000000000E+00 0.  1.
          4   -1    0    0  502    0 -0.00000000000E+00 -0.00000000000E+00 -0.21775496737E+04  0.21775496737E+04  0.00000000000E+00 0.  1.
    9000010    2    1    2  501    0  0.38108460537E+02  0.11316844768E+03 -0.17284262918E+04  0.19978937295E+04  0.99491836629E+03 0.  0.
        -13    1    3    3    0    0  0.12020356191E+03  0.48312416499E+03 -0.14341230790E+04  0.15180799953E+04  0.10566000000E+00 0.  1.
          4    1    3    3  501    0 -0.82095101374E+02 -0.36995571731E+03 -0.29430321281E+03  0.47981373418E+03  0.00000000000E+00 0.  1.
         13    1    1    2    0    0 -0.38108460537E+02 -0.11316844768E+03 -0.30305073784E+03  0.32572858822E+03  0.10566000000E+00 0. -1.
<mgrwt>
<rscale>  1 0.58875205E+03</rscale>
<asrwt>0</asrwt>
<pdfrwt beam="1">  1       21 0.22472714E-01 0.10020588E+04</pdfrwt>
<pdfrwt beam="2">  1        4 0.33500765E+00 0.10020588E+04</pdfrwt>
<totfact> 0.14532507E+01</totfact>
</mgrwt>
</event>
<event>
 6    1  0.1431486E-005  0.9958133E+03  0.7818608E-02  0.9813607E-01
          4   -1    0    0  502    0 -0.00000000000E+00  0.00000000000E+00  0.21148576572E+03  0.21148576572E+03  0.00000000000E+00 0.  1.
         21   -1    0    0  501  502  0.00000000000E+00 -0.00000000000E+00 -0.16863535249E+04  0.16863535249E+04  0.00000000000E+00 0.  1.
    9000010    2    1    2  501    0  0.16905348017E+03 -0.51648745396E+02 -0.13652661473E+04  0.16898508377E+04  0.97999873916E+03 0.  0.
        -13    1    3    3    0    0 -0.11223752991E+03 -0.47077939396E+03 -0.76893938713E+03  0.90856936616E+03  0.10566000000E+00 0.  1.
          4    1    3    3  501    0  0.28129101007E+03  0.41913064856E+03 -0.59632676013E+03  0.78128147153E+03  0.00000000000E+00 0.  1.
         13    1    1    2    0    0 -0.16905348017E+03  0.51648745396E+02 -0.10960161194E+03  0.20798845295E+03  0.10566000000E+00 0. -1.
<mgrwt>
<rscale>  1 0.64637410E+03</rscale>
<asrwt>0</asrwt>
<pdfrwt beam="2">  1       21 0.25943901E+00 0.99581334E+03</pdfrwt>
<pdfrwt beam="1">  1        4 0.32536271E-01 0.99581334E+03</pdfrwt>
<totfact> 0.17541268E+01</totfact>
</mgrwt>
</event>
<event>
 6    1  0.1431486E-005  0.1068529E+04  0.7818608E-02  0.9525835E-01
         21   -1    0    0  501  502  0.00000000000E+00  0.00000000000E+00  0.84630799873E+03  0.84630799873E+03  0.00000000000E+00 0.  1.
          4   -1    0    0  502    0 -0.00000000000E+00 -0.00000000000E+00 -0.64220236994E+03  0.64220236994E+03  0.00000000000E+00 0.  1.
    9000010    2    1    2  501    0 -0.61858894145E+02  0.37288395851E+03  0.21530649394E+02  0.10687454302E+04  0.99944197252E+03 0.  0.
        -13    1    3    3    0    0  0.10582196318E+03 -0.89265457424E+02  0.41599496029E+03  0.43842722079E+03  0.10566000000E+00 0.  1.
          4    1    3    3  501    0 -0.16768085732E+03  0.46214941593E+03 -0.39446431089E+03  0.63031820942E+03  0.00000000000E+00 0.  1.
         13    1    1    2    0    0  0.61858894145E+02 -0.37288395851E+03  0.18257497940E+03  0.41976493846E+03  0.10566000000E+00 0. -1.
<mgrwt>
<rscale>  1 0.82405631E+03</rscale>
<asrwt>0</asrwt>
<pdfrwt beam="1">  1       21 0.13020123E+00 0.10685285E+04</pdfrwt>
<pdfrwt beam="2">  1        4 0.98800364E-01 0.10685285E+04</pdfrwt>
<totfact> 0.13210623E+01</totfact>
</mgrwt>
</event>
<event>
 6    1  0.1431486E-005  0.1088042E+04  0.7818608E-02  0.9451557E-01
          4   -1    0    0  502    0 -0.00000000000E+00  0.00000000000E+00  0.16676101619E+04  0.16676101619E+04  0.00000000000E+00 0.  1.
         21   -1    0    0  501  502  0.00000000000E+00 -0.00000000000E+00 -0.39322610027E+03  0.39322610027E+03  0.00000000000E+00 0.  1.
    9000010    2    1    2  501    0 -0.36102807474E+03  0.29235055834E+03  0.60170677403E+03  0.12433371098E+04  0.98388312670E+03 0.  0.
        -13    1    3    3    0    0  0.14060600951E+03 -0.12268984927E+03 -0.15678819860E+03  0.24373222891E+03  0.10566000000E+00 0.  1.
          4    1    3    3  501    0 -0.50163408425E+03  0.41504040761E+03  0.75849497263E+03  0.99960488091E+03  0.00000000000E+00 0.  1.
         13    1    1    2    0    0  0.36102807474E+03 -0.29235055834E+03  0.67267728762E+03  0.81749915239E+03  0.10566000000E+00 0. -1.
<mgrwt>
<rscale>  1 0.87951515E+03</rscale>
<asrwt>0</asrwt>
<pdfrwt beam="2">  1       21 0.60496324E-01 0.10880423E+04</pdfrwt>
<pdfrwt beam="1">  1        4 0.25655540E+00 0.10880423E+04</pdfrwt>
<totfact> 0.56374115E+00</totfact>
</mgrwt>
</event>
<event>
 6    1  0.1431486E-005  0.1010520E+04  0.7818608E-02  0.1012538E+00
          4   -1    0    0  502    0 -0.00000000000E+00  0.00000000000E+00  0.99414850822E+03  0.99414850822E+03  0.00000000000E+00 0.  1.
         21   -1    0    0  501  502  0.00000000000E+00 -0.00000000000E+00 -0.29802988429E+03  0.29802988429E+03  0.00000000000E+00 0.  1.
    9000010    2    1    2  501    0  0.27155811864E+01 -0.62859988028E+02  0.69976343496E+03  0.12291542044E+04  0.10085595871E+04 0.  0.
        -13    1    3    3    0    0  0.40369297909E+03 -0.91377924529E+02 -0.93636749074E+01  0.41401163755E+03  0.10566000000E+00 0.  1.
          4    1    3    3  501    0 -0.40097739790E+03  0.28517936501E+02  0.70912710987E+03  0.81514256684E+03  0.00000000000E+00 0.  1.
         13    1    1    2    0    0 -0.27155811864E+01  0.62859988028E+02 -0.36448110346E+01  0.63024188115E+02  0.10566000000E+00 0. -1.
<mgrwt>
<rscale>  1 0.50478189E+03</rscale>
<asrwt>0</asrwt>
<pdfrwt beam="2">  1       21 0.45850752E-01 0.10105203E+04</pdfrwt>
<pdfrwt beam="1">  1        4 0.15294592E+00 0.10105203E+04</pdfrwt>
<totfact> 0.51278488E+01</totfact>
</mgrwt>
</event>
<event>
 6    1  0.1431486E-005  0.1127596E+04  0.7818608E-02  0.9401300E-01
          4   -1    0    0  502    0 -0.00000000000E+00  0.00000000000E+00  0.51953387508E+03  0.51953387508E+03  0.00000000000E+00 0.  1.
         21   -1    0    0  501  502  0.00000000000E+00 -0.00000000000E+00 -0.12777768212E+04  0.12777768212E+04  0.00000000000E+00 0. -1.
    9000010    2    1    2  501    0  0.31857373298E+02  0.49798293865E+03 -0.47531413928E+03  0.12236813557E+04  0.10111728981E+04 0.  0.
        -13    1    3    3    0    0  0.22119342481E+03  0.36526548032E+03 -0.75097298128E+03  0.86388994210E+03  0.10566000000E+00 0.  1.
          4    1    3    3  501    0 -0.18933605151E+03  0.13271745833E+03  0.27565884199E+03  0.35979141362E+03  0.00000000000E+00 0.  1.
         13    1    1    2    0    0 -0.31857373298E+02 -0.49798293865E+03 -0.28292880681E+03  0.57362934053E+03  0.10566000000E+00 0. -1.
<mgrwt>
<rscale>  1 0.91968797E+03</rscale>
<asrwt>0</asrwt>
<pdfrwt beam="2">  1       21 0.19658105E+00 0.11275959E+04</pdfrwt>
<pdfrwt beam="1">  1        4 0.79928290E-01 0.11275959E+04</pdfrwt>
<totfact> 0.65954387E+00</totfact>
</mgrwt>
</event>
<event>
 6    1  0.1431486E-005  0.1018123E+04  0.7818608E-02  0.9749976E-01
          4   -1    0    0  502    0 -0.00000000000E+00  0.00000000000E+00  0.44910113630E+03  0.44910113630E+03  0.00000000000E+00 0.  1.
         21   -1    0    0  501  502  0.00000000000E+00 -0.00000000000E+00 -0.96108561012E+03  0.96108561012E+03  0.00000000000E+00 0.  1.
    9000010    2    1    2  501    0 -0.18950761339E+03  0.75526432332E+02 -0.60679082071E+03  0.11852297904E+04  0.99747540237E+03 0.  0.
        -13    1    3    3    0    0 -0.26745364008E+02  0.24916156833E+03  0.21468131563E+03  0.32997709023E+03  0.10566000000E+00 0.  1.
          4    1    3    3  501    0 -0.16276224938E+03 -0.17363513600E+03 -0.82147213634E+03  0.85525270012E+03  0.00000000000E+00 0.  1.
         13    1    1    2    0    0  0.18950761339E+03 -0.75526432332E+02  0.94806346888E+02  0.22495695607E+03  0.10566000000E+00 0. -1.
<mgrwt>
<rscale>  1 0.68117634E+03</rscale>
<asrwt>0</asrwt>
<pdfrwt beam="2">  1       21 0.14785932E+00 0.10181231E+04</pdfrwt>
<pdfrwt beam="1">  1        4 0.69092483E-01 0.10181231E+04</pdfrwt>
<totfact> 0.21516979E+01</totfact>
</mgrwt>
</event>
<event>
 6    1  0.1431486E-005  0.1031256E+04  0.7818608E-02  0.9767253E-01
         21   -1    0    0  501  502  0.00000000000E+00  0.00000000000E+00  0.20199047467E+04  0.20199047467E+04  0.00000000000E+00 0.  1.
          4   -1    0    0  502    0 -0.00000000000E+00 -0.00000000000E+00 -0.20100365126E+03  0.20100365126E+03  0.00000000000E+00 0.  1.
    9000010    2    1    2  501    0  0.72244062285E+02  0.17073306241E+03  0.17329082812E+04  0.20165465659E+04  0.10144554984E+04 0.  0.
        -13    1    3    3    0    0  0.11423759788E+03  0.57802077398E+03  0.12603981900E+04  0.13913165896E+04  0.10566000000E+00 0.  1.
          4    1    3    3  501    0 -0.41993535593E+02 -0.40728771156E+03  0.47251009117E+03  0.62522997631E+03  0.00000000000E+00 0.  1.
         13    1    1    2    0    0 -0.72244062285E+02 -0.17073306241E+03  0.85992814248E+02  0.20436183206E+03  0.10566000000E+00 0. -1.
<mgrwt>
<rscale>  1 0.67149954E+03</rscale>
<asrwt>0</asrwt>
<pdfrwt beam="1">  1       21 0.31075456E+00 0.10312560E+04</pdfrwt>
<pdfrwt beam="2">  1        4 0.30923640E-01 0.10312560E+04</pdfrwt>
<totfact> 0.92219821E+00</totfact>
</mgrwt>
</event>
<event>
 6    1  0.1431486E-005  0.1060521E+04  0.7818608E-02  0.9559124E-01
         21   -1    0    0  501  502  0.00000000000E+00  0.00000000000E+00  0.17686383193E+04  0.17686383193E+04  0.00000000000E+00 0.  1.
          4   -1    0    0  502    0 -0.00000000000E+00 -0.00000000000E+00 -0.30887719019E+03  0.30887719019E+03  0.00000000000E+00 0.  1.
    9000010    2    1    2  501    0 -0.27716341123E+03  0.20453678329E+03  0.13484301148E+04  0.17155079706E+04  0.10030199254E+04 0.  0.
        -13    1    3    3    0    0  0.13998752418E+03  0.31211899101E+03  0.47811512356E+02  0.34539936792E+03  0.10566000000E+00 0.  1.
          4    1    3    3  501    0 -0.41715093542E+03 -0.10758220772E+03  0.13006186024E+04  0.13701086027E+04  0.00000000000E+00 0.  1.
         13    1    1    2    0    0  0.27716341123E+03 -0.20453678329E+03  0.11133101431E+03  0.36200753881E+03  0.10566000000E+00 0. -1.
<mgrwt>
<rscale>  1 0.80061737E+03</rscale>
<asrwt>0</asrwt>
<pdfrwt beam="1">  1       21 0.27209820E+00 0.10605205E+04</pdfrwt>
<pdfrwt beam="2">  1        4 0.47519569E-01 0.10605205E+04</pdfrwt>
<totfact> 0.66895530E+00</totfact>
</mgrwt>
</event>
<event>
 6    1  0.1431486E-005  0.1055868E+04  0.7818608E-02  0.9587909E-01
          4   -1    0    0  502    0 -0.00000000000E+00  0.00000000000E+00  0.71582674272E+03  0.71582674272E+03  0.00000000000E+00 0.  1.
         21   -1    0    0  501  502  0.00000000000E+00 -0.00000000000E+00 -0.65869890204E+03  0.65869890204E+03  0.00000000000E+00 0. -1.
    9000010    2    1    2  501    0 -0.90841050432E+02  0.30275625314E+03  0.17994787929E+02  0.10560215596E+04  0.10074444286E+04 0.  0.
        -13    1    3    3    0    0  0.13142233797E+03  0.32600420784E+03 -0.42999873008E+03  0.55538229489E+03  0.10566000000E+00 0.  1.
          4    1    3    3  501    0 -0.22226338840E+03 -0.23247954698E+02  0.44799351801E+03  0.50063926474E+03  0.00000000000E+00 0.  1.
         13    1    1    2    0    0  0.90841050432E+02 -0.30275625314E+03  0.39133052747E+02  0.31850408512E+03  0.10566000000E+00 0. -1.
<mgrwt>
<rscale>  1 0.78101665E+03</rscale>
<asrwt>0</asrwt>
<pdfrwt beam="2">  1       21 0.10133829E+00 0.10558682E+04</pdfrwt>
<pdfrwt beam="1">  1        4 0.11012719E+00 0.10558682E+04</pdfrwt>
<totfact> 0.19335071E+01</totfact>
</mgrwt>
</event>
<event>
 6    1  0.1431486E-005  0.1315363E+04  0.7818608E-02  0.9129392E-01
          4   -1    0    0  502    0 -0.00000000000E+00  0.00000000000E+00  0.10713610569E+04  0.10713610569E+04  0.00000000000E+00 0.  1.
         21   -1    0    0  501  502  0.00000000000E+00 -0.00000000000E+00 -0.11034121608E+04  0.11034121608E+04  0.00000000000E+00 0.  1.
    9000010    2    1    2  501    0  0.36986545892E+03  0.77156757898E+03  0.41172951520E+02  0.13160073823E+04  0.99903114648E+03 0.  0.
        -13    1    3    3    0    0  0.31738327407E+03  0.62898000712E+03 -0.42698502560E+03  0.82381078851E+03  0.10566000000E+00 0.  1.
          4    1    3    3  501    0  0.52482184853E+02  0.14258757186E+03  0.46815797712E+03  0.49219659376E+03  0.00000000000E+00 0.  1.
         13    1    1    2    0    0 -0.36986545892E+03 -0.77156757898E+03 -0.73224055398E+02  0.85876583542E+03  0.10566000000E+00 0. -1.
<mgrwt>
<rscale>  1 0.11812909E+04</rscale>
<asrwt>0</asrwt>
<pdfrwt beam="2">  1       21 0.16975572E+00 0.13153632E+04</pdfrwt>
<pdfrwt beam="1">  1        4 0.16482478E+00 0.13153632E+04</pdfrwt>
<totfact> 0.16344187E+00</totfact>
</mgrwt>
</event>
<event>
 6    1  0.1431486E-005  0.1039166E+04  0.7818608E-02  0.9694912E-01
          4   -1    0    0  502    0 -0.00000000000E+00  0.00000000000E+00  0.76970944696E+03  0.76970944696E+03  0.00000000000E+00 0.  1.
         21   -1    0    0  501  502  0.00000000000E+00 -0.00000000000E+00 -0.52390968961E+03  0.52390968961E+03  0.00000000000E+00 0.  1.
    9000010    2    1    2  501    0  0.12415630132E+01  0.23056721484E+03  0.19001077440E+03  0.10563951837E+04  0.10132639872E+04 0.  0.
        -13    1    3    3    0    0 -0.86670110925E+02  0.40255879991E+03  0.52650036873E+03  0.66840702042E+03  0.10566000000E+00 0.  1.
          4    1    3    3  501    0  0.87911673938E+02 -0.17199158506E+03 -0.33648959433E+03  0.38798816327E+03  0.00000000000E+00 0.  1.
         13    1    1    2    0    0 -0.12415630132E+01 -0.23056721484E+03  0.55788982956E+02  0.23722395289E+03  0.10566000000E+00 0. -1.
<mgrwt>
<rscale>  1 0.71320566E+03</rscale>
<asrwt>0</asrwt>
<pdfrwt beam="2">  1       21 0.80601491E-01 0.10391663E+04</pdfrwt>
<pdfrwt beam="1">  1        4 0.11841684E+00 0.10391663E+04</pdfrwt>
<totfact> 0.28156027E+01</totfact>
</mgrwt>
</event>
<event>
 6    1  0.1431486E-005  0.9015981E+03  0.7818608E-02  0.9839048E-01
          4   -1    0    0  502    0 -0.00000000000E+00  0.00000000000E+00  0.75028476039E+03  0.75028476039E+03  0.00000000000E+00 0.  1.
         21   -1    0    0  501  502  0.00000000000E+00 -0.00000000000E+00 -0.45515341559E+03  0.45515341559E+03  0.00000000000E+00 0.  1.
    9000010    2    1    2  501    0  0.18364323463E+03  0.11965157920E+03  0.91445395891E+02  0.90622367938E+03  0.87455003208E+03 0.  0.
        -13    1    3    3    0    0 -0.24132093207E+03  0.33929208868E+03  0.98300734379E+02  0.42780598318E+03  0.10566000000E+00 0.  1.
          4    1    3    3  501    0  0.42496416670E+03 -0.21964050948E+03 -0.68553384876E+01  0.47841769621E+03  0.00000000000E+00 0.  1.
         13    1    1    2    0    0 -0.18364323463E+03 -0.11965157920E+03  0.20368594891E+03  0.29921449660E+03  0.10566000000E+00 0. -1.
<mgrwt>
<rscale>  1 0.63308443E+03</rscale>
<asrwt>0</asrwt>
<pdfrwt beam="2">  1       21 0.70023602E-01 0.90159808E+03</pdfrwt>
<pdfrwt beam="1">  1        4 0.11542842E+00 0.90159808E+03</pdfrwt>
<totfact> 0.42108573E+01</totfact>
</mgrwt>
</event>
<event>
 6    1  0.1431486E-005  0.1037671E+04  0.7818608E-02  0.9599933E-01
          4   -1    0    0  502    0 -0.00000000000E+00  0.00000000000E+00  0.40069669061E+03  0.40069669061E+03  0.00000000000E+00 0.  1.
         21   -1    0    0  501  502  0.00000000000E+00 -0.00000000000E+00 -0.13380950044E+04  0.13380950044E+04  0.00000000000E+00 0.  1.
    9000010    2    1    2  501    0 -0.31157601319E+03 -0.70986954824E+02 -0.96630934253E+03  0.14179262739E+04  0.98723979503E+03 0.  0.
        -13    1    3    3    0    0  0.99734149072E+02 -0.38027343742E+03 -0.77478996027E+03  0.86882350417E+03  0.10566000000E+00 0.  1.
          4    1    3    3  501    0 -0.41131016227E+03  0.30928648260E+03 -0.19151938227E+03  0.54910276969E+03  0.00000000000E+00 0.  1.
         13    1    1    2    0    0  0.31157601319E+03  0.70986954824E+02  0.28911028735E+02  0.32086542117E+03  0.10566000000E+00 0. -1.
<mgrwt>
<rscale>  1 0.77300618E+03</rscale>
<asrwt>0</asrwt>
<pdfrwt beam="2">  1       21 0.20586077E+00 0.10376710E+04</pdfrwt>
<pdfrwt beam="1">  1        4 0.61645645E-01 0.10376710E+04</pdfrwt>
<totfact> 0.10315030E+01</totfact>
</mgrwt>
</event>
<event>
 6    1  0.1431486E-005  0.1037435E+04  0.7818608E-02  0.9599631E-01
          4   -1    0    0  502    0 -0.00000000000E+00  0.00000000000E+00  0.30394344658E+03  0.30394344658E+03  0.00000000000E+00 0.  1.
         21   -1    0    0  501  502  0.00000000000E+00 -0.00000000000E+00 -0.15223995976E+04  0.15223995976E+04  0.00000000000E+00 0.  1.
    9000010    2    1    2  501    0  0.27659767153E+03  0.16113230658E+03 -0.98066655274E+03  0.14275777042E+04  0.98681372197E+03 0.  0.
        -13    1    3    3    0    0  0.43182741899E+03 -0.23571227134E+03 -0.84958405977E+03  0.98174756452E+03  0.10566000000E+00 0.  1.
          4    1    3    3  501    0 -0.15522974746E+03  0.39684457793E+03 -0.13108249297E+03  0.44583013973E+03  0.00000000000E+00 0.  1.
         13    1    1    2    0    0 -0.27659767153E+03 -0.16113230658E+03 -0.23778959829E+03  0.39876533995E+03  0.10566000000E+00 0. -1.
<mgrwt>
<rscale>  1 0.77320595E+03</rscale>
<asrwt>0</asrwt>
<pdfrwt beam="2">  1       21 0.23421532E+00 0.10374349E+04</pdfrwt>
<pdfrwt beam="1">  1        4 0.46760531E-01 0.10374349E+04</pdfrwt>
<totfact> 0.12086767E+01</totfact>
</mgrwt>
</event>
<event>
 6    1  0.1431486E-005  0.9993550E+03  0.7818608E-02  0.9839768E-01
          4   -1    0    0  502    0 -0.00000000000E+00  0.00000000000E+00  0.60360811062E+03  0.60360811062E+03  0.00000000000E+00 0.  1.
         21   -1    0    0  501  502  0.00000000000E+00 -0.00000000000E+00 -0.55756225817E+03  0.55756225817E+03  0.00000000000E+00 0.  1.
    9000010    2    1    2  501    0 -0.81763477498E+02 -0.13819542725E+03  0.30089662921E+02  0.99980787774E+03  0.98637070223E+03 0.  0.
        -13    1    3    3    0    0  0.27376685590E+03 -0.37369718559E+03 -0.21197540766E+03  0.50944230540E+03  0.10566000000E+00 0.  1.
          4    1    3    3  501    0 -0.35553033340E+03  0.23550175834E+03  0.24206507058E+03  0.49036557235E+03  0.00000000000E+00 0.  1.
         13    1    1    2    0    0  0.81763477498E+02  0.13819542725E+03  0.15956189526E+02  0.16136249104E+03  0.10566000000E+00 0. -1.
<mgrwt>
<rscale>  1 0.63271343E+03</rscale>
<asrwt>0</asrwt>
<pdfrwt beam="2">  1       21 0.85778809E-01 0.99935499E+03</pdfrwt>
<pdfrwt beam="1">  1        4 0.92862786E-01 0.99935499E+03</pdfrwt>
<totfact> 0.44063785E+01</totfact>
</mgrwt>
</event>
<event>
 6    1  0.1431486E-005  0.1011954E+04  0.7818608E-02  0.9818388E-01
          4   -1    0    0  502    0 -0.00000000000E+00  0.00000000000E+00  0.96818980055E+03  0.96818980055E+03  0.00000000000E+00 0.  1.
         21   -1    0    0  501  502  0.00000000000E+00 -0.00000000000E+00 -0.35889371337E+03  0.35889371337E+03  0.00000000000E+00 0.  1.
    9000010    2    1    2  501    0  0.15090511562E+03 -0.68748166123E+02  0.54359192789E+03  0.11487139202E+04  0.99827492307E+03 0.  0.
        -13    1    3    3    0    0 -0.29584453806E+03 -0.29524081013E+03  0.49141532245E+03  0.64512026550E+03  0.10566000000E+00 0.  1.
          4    1    3    3  501    0  0.44674965368E+03  0.22649264400E+03  0.52176605442E+02  0.50359365465E+03  0.00000000000E+00 0.  1.
         13    1    1    2    0    0 -0.15090511562E+03  0.68748166123E+02  0.65704159296E+02  0.17836959376E+03  0.10566000000E+00 0. -1.
<mgrwt>
<rscale>  1 0.64385000E+03</rscale>
<asrwt>0</asrwt>
<pdfrwt beam="2">  1       21 0.55214418E-01 0.10119543E+04</pdfrwt>
<pdfrwt beam="1">  1        4 0.14895228E+00 0.10119543E+04</pdfrwt>
<totfact> 0.36816475E+01</totfact>
</mgrwt>
</event>
<event>
 6    1  0.1431486E-005  0.9869183E+03  0.7818608E-02  0.9865691E-01
          4   -1    0    0  502    0 -0.00000000000E+00  0.00000000000E+00  0.38267337214E+03  0.38267337214E+03  0.00000000000E+00 0.  1.
         21   -1    0    0  501  502  0.00000000000E+00 -0.00000000000E+00 -0.99703607748E+03  0.99703607748E+03  0.00000000000E+00 0.  1.
    9000010    2    1    2  501    0 -0.71478028162E+02  0.13556478191E+03 -0.69448000538E+03  0.12067767704E+04  0.97494655092E+03 0.  0.
        -13    1    3    3    0    0  0.29331021816E+03 -0.27476117930E+03 -0.45700200171E+03  0.60858477672E+03  0.10566000000E+00 0.  1.
          4    1    3    3  501    0 -0.36478824632E+03  0.41032596121E+03 -0.23747800367E+03  0.59819199370E+03  0.00000000000E+00 0.  1.
         13    1    1    2    0    0  0.71478028162E+02 -0.13556478191E+03  0.80117300041E+02  0.17293267920E+03  0.10566000000E+00 0. -1.
<mgrwt>
<rscale>  1 0.61953262E+03</rscale>
<asrwt>0</asrwt>
<pdfrwt beam="2">  1       21 0.15339016E+00 0.98691828E+03</pdfrwt>
<pdfrwt beam="1">  1        4 0.58872827E-01 0.98691828E+03</pdfrwt>
<totfact> 0.27721841E+01</totfact>
</mgrwt>
</event>
<event>
 6    1  0.1431486E-005  0.1002192E+04  0.7818608E-02  0.9979765E-01
         21   -1    0    0  501  502  0.00000000000E+00  0.00000000000E+00  0.60838293148E+03  0.60838293148E+03  0.00000000000E+00 0.  1.
          4   -1    0    0  502    0 -0.00000000000E+00 -0.00000000000E+00 -0.53431326422E+03  0.53431326422E+03  0.00000000000E+00 0.  1.
    9000010    2    1    2  501    0  0.33251272758E+02 -0.95973760784E+02 -0.22641249591E+02  0.10024477643E+04  0.99703173676E+03 0.  0.
        -13    1    3    3    0    0  0.29054124098E+02 -0.50432230257E+03  0.19283880528E+03  0.54071428960E+03  0.10566000000E+00 0.  1.
          4    1    3    3  501    0  0.41971486598E+01  0.40834854178E+03 -0.21548005487E+03  0.46173347472E+03  0.00000000000E+00 0.  1.
         13    1    1    2    0    0 -0.33251272758E+02  0.95973760784E+02  0.96710916852E+02  0.14024843137E+03  0.10566000000E+00 0. -1.
<mgrwt>
<rscale>  1 0.56546464E+03</rscale>
<asrwt>0</asrwt>
<pdfrwt beam="1">  1       21 0.93597375E-01 0.10021920E+04</pdfrwt>
<pdfrwt beam="2">  1        4 0.82202040E-01 0.10021920E+04</pdfrwt>
<totfact> 0.47472134E+01</totfact>
</mgrwt>
</event>
<event>
 6    1  0.1431486E-005  0.1018685E+04  0.7818608E-02  0.9751699E-01
          4   -1    0    0  502    0 -0.00000000000E+00  0.00000000000E+00  0.99207895244E+03  0.99207895244E+03  0.00000000000E+00 0.  1.
         21   -1    0    0  501  502  0.00000000000E+00 -0.00000000000E+00 -0.37810307985E+03  0.37810307985E+03  0.00000000000E+00 0.  1.
    9000010    2    1    2  501    0  0.13970969716E+03  0.14659231734E+03  0.55076140985E+03  0.11580401306E+04  0.99835399862E+03 0.  0.
        -13    1    3    3    0    0  0.42824068830E+03  0.11617850534E+03  0.70229141531E+03  0.83072304374E+03  0.10566000000E+00 0.  1.
          4    1    3    3  501    0 -0.28853099115E+03  0.30413812007E+02 -0.15153000546E+03  0.32731708688E+03  0.00000000000E+00 0.  1.
         13    1    1    2    0    0 -0.13970969716E+03 -0.14659231734E+03  0.63214462738E+02  0.21214190168E+03  0.10566000000E+00 0. -1.
<mgrwt>
<rscale>  1 0.68020320E+03</rscale>
<asrwt>0</asrwt>
<pdfrwt beam="2">  1       21 0.58169705E-01 0.10186848E+04</pdfrwt>
<pdfrwt beam="1">  1        4 0.15262753E+00 0.10186848E+04</pdfrwt>
<totfact> 0.30715080E+01</totfact>
</mgrwt>
</event>
<event>
 6    1  0.1431486E-005  0.1037719E+04  0.7818608E-02  0.1026623E+00
         21   -1    0    0  501  502  0.00000000000E+00  0.00000000000E+00  0.22708125109E+03  0.22708125109E+03  0.00000000000E+00 0.  1.
          4   -1    0    0  502    0 -0.00000000000E+00 -0.00000000000E+00 -0.13689203821E+04  0.13689203821E+04  0.00000000000E+00 0.  1.
    9000010    2    1    2  501    0 -0.15270580628E+02  0.34707156794E+02 -0.97153687268E+03  0.14215291491E+04  0.10370262529E+04 0.  0.
        -13    1    3    3    0    0 -0.65145305353E+02 -0.27402212231E+03  0.10491880443E+03  0.30056613417E+03  0.10566000000E+00 0.  1.
          4    1    3    3  501    0  0.49874724725E+02  0.30872927910E+03 -0.10764556771E+04  0.11209630149E+04  0.00000000000E+00 0.  1.
         13    1    1    2    0    0  0.15270580628E+02 -0.34707156794E+02 -0.17030225831E+03  0.17447248412E+03  0.10566000000E+00 0. -1.
<mgrwt>
<rscale>  1 0.45370313E+03</rscale>
<asrwt>0</asrwt>
<pdfrwt beam="1">  1       21 0.34935578E-01 0.10377192E+04</pdfrwt>
<pdfrwt beam="2">  1        4 0.21060313E+00 0.10377192E+04</pdfrwt>
<totfact> 0.35755331E+01</totfact>
</mgrwt>
</event>
<event>
 6    1  0.1431486E-005  0.1050885E+04  0.7818608E-02  0.9589352E-01
         21   -1    0    0  501  502  0.00000000000E+00  0.00000000000E+00  0.78824809852E+03  0.78824809852E+03  0.00000000000E+00 0.  1.
          4   -1    0    0  502    0 -0.00000000000E+00 -0.00000000000E+00 -0.66153536772E+03  0.66153536772E+03  0.00000000000E+00 0.  1.
    9000010    2    1    2  501    0 -0.27575808497E+02 -0.31783027023E+03  0.29170440242E+03  0.10906194804E+04  0.10012906105E+04 0.  0.
        -13    1    3    3    0    0 -0.48478087084E+03 -0.91761905060E+02 -0.18349624130E+02  0.49373014879E+03  0.10566000000E+00 0.  1.
          4    1    3    3  501    0  0.45720506235E+03 -0.22606836517E+03  0.31005402655E+03  0.59688933157E+03  0.00000000000E+00 0.  1.
         13    1    1    2    0    0  0.27575808497E+02  0.31783027023E+03 -0.16499167162E+03  0.35916398589E+03  0.10566000000E+00 0. -1.
<mgrwt>
<rscale>  1 0.78004985E+03</rscale>
<asrwt>0</asrwt>
<pdfrwt beam="1">  1       21 0.12126894E+00 0.10508851E+04</pdfrwt>
<pdfrwt beam="2">  1        4 0.10177467E+00 0.10508851E+04</pdfrwt>
<totfact> 0.14858760E+01</totfact>
</mgrwt>
</event>
<event>
 6    1  0.1431486E-005  0.9983619E+03  0.7818608E-02  0.1008212E+00
         21   -1    0    0  501  502  0.00000000000E+00  0.00000000000E+00  0.22324059446E+03  0.22324059446E+03  0.00000000000E+00 0.  1.
          4   -1    0    0  502    0 -0.00000000000E+00 -0.00000000000E+00 -0.13937868099E+04  0.13937868099E+04  0.00000000000E+00 0.  1.
    9000010    2    1    2  501    0 -0.54638483525E+02  0.50739288908E+02 -0.92717711401E+03  0.13624918076E+04  0.99557354612E+03 0.  0.
        -13    1    3    3    0    0  0.33303201110E+03  0.25368794664E+03 -0.80632312850E+03  0.90852897224E+03  0.10566000000E+00 0.  1.
          4    1    3    3  501    0 -0.38767049463E+03 -0.20294865773E+03 -0.12085398552E+03  0.45396283537E+03  0.00000000000E+00 0.  1.
         13    1    1    2    0    0  0.54638483525E+02 -0.50739288908E+02 -0.24336910143E+03  0.25453559675E+03  0.10566000000E+00 0. -1.
<mgrwt>
<rscale>  1 0.52191394E+03</rscale>
<asrwt>0</asrwt>
<pdfrwt beam="1">  1       21 0.34344707E-01 0.99836192E+03</pdfrwt>
<pdfrwt beam="2">  1        4 0.21442874E+00 0.99836192E+03</pdfrwt>
<totfact> 0.35106593E+01</totfact>
</mgrwt>
</event>
<event>
 6    1  0.1431486E-005  0.1027458E+04  0.7818608E-02  0.9726394E-01
          4   -1    0    0  502    0 -0.00000000000E+00  0.00000000000E+00  0.13247865553E+03  0.13247865553E+03  0.00000000000E+00 0.  1.
         21   -1    0    0  501  502  0.00000000000E+00 -0.00000000000E+00 -0.29145871663E+04  0.29145871663E+04  0.00000000000E+00 0.  1.
    9000010    2    1    2  501    0  0.41033471294E+01 -0.21465289670E+03 -0.22638934970E+04  0.24861384511E+04  0.10047775520E+04 0.  0.
        -13    1    3    3    0    0 -0.70634534557E+02  0.37162917683E+03 -0.50750961004E+03  0.63297985591E+03  0.10566000000E+00 0.  1.
          4    1    3    3  501    0  0.74737881687E+02 -0.58628207353E+03 -0.17563838869E+04  0.18531585952E+04  0.00000000000E+00 0.  1.
         13    1    1    2    0    0 -0.41033471294E+01  0.21465289670E+03 -0.51821501384E+03  0.56092737075E+03  0.10566000000E+00 0. -1.
<mgrwt>
<rscale>  1 0.69466794E+03</rscale>
<asrwt>0</asrwt>
<pdfrwt beam="2">  1       21 0.44839801E+00 0.10274583E+04</pdfrwt>
<pdfrwt beam="1">  1        4 0.20381332E-01 0.10274583E+04</pdfrwt>
<totfact> 0.26268775E+00</totfact>
</mgrwt>
</event>
<event>
 6    1  0.1431486E-005  0.9683715E+03  0.7818608E-02  0.9593992E-01
          4   -1    0    0  502    0 -0.00000000000E+00  0.00000000000E+00  0.16780747086E+03  0.16780747086E+03  0.00000000000E+00 0.  1.
         21   -1    0    0  501  502  0.00000000000E+00 -0.00000000000E+00 -0.32074135266E+04  0.32074135266E+04  0.00000000000E+00 0.  1.
    9000010    2    1    2  501    0 -0.20317738568E+03 -0.34604242128E+03 -0.26263741363E+04  0.27992114161E+04  0.88131551729E+03 0.  0.
        -13    1    3    3    0    0 -0.27070790167E+01  0.22761260434E+03 -0.21736789742E+03  0.31474376869E+03  0.10566000000E+00 0.  1.
          4    1    3    3  501    0 -0.20047030666E+03 -0.57365502562E+03 -0.24090062389E+04  0.24844676474E+04  0.00000000000E+00 0.  1.
         13    1    1    2    0    0  0.20317738568E+03  0.34604242128E+03 -0.41323191943E+03  0.57600958132E+03  0.10566000000E+00 0. -1.
<mgrwt>
<rscale>  1 0.77695105E+03</rscale>
<asrwt>0</asrwt>
<pdfrwt beam="2">  1       21 0.49344825E+00 0.96837154E+03</pdfrwt>
<pdfrwt beam="1">  1        4 0.25816533E-01 0.96837154E+03</pdfrwt>
<totfact> 0.82314471E-01</totfact>
</mgrwt>
</event>
<event>
 6    1  0.1431486E-005  0.1209006E+04  0.7818608E-02  0.9267619E-01
          4   -1    0    0  502    0 -0.00000000000E+00  0.00000000000E+00  0.13317255984E+04  0.13317255984E+04  0.00000000000E+00 0.  1.
         21   -1    0    0  501  502  0.00000000000E+00 -0.00000000000E+00 -0.65927054627E+03  0.65927054627E+03  0.00000000000E+00 0. -1.
    9000010    2    1    2  501    0 -0.65739572137E+03  0.91886077818E+00  0.34922323427E+03  0.12584329747E+04  0.10146559543E+04 0.  0.
        -13    1    3    3    0    0 -0.56254972119E+03  0.46384148543E+03  0.27914447594E+03  0.78072579184E+03  0.10566000000E+00 0.  1.
          4    1    3    3  501    0 -0.94846000174E+02 -0.46292262466E+03  0.70078758327E+02  0.47770718284E+03  0.00000000000E+00 0.  1.
         13    1    1    2    0    0  0.65739572137E+03 -0.91886077818E+00  0.32323181784E+03  0.73256316998E+03  0.10566000000E+00 0. -1.
<mgrwt>
<rscale>  1 0.10381935E+04</rscale>
<asrwt>0</asrwt>
<pdfrwt beam="2">  1       21 0.10142624E+00 0.12090065E+04</pdfrwt>
<pdfrwt beam="1">  1        4 0.20488086E+00 0.12090065E+04</pdfrwt>
<totfact> 0.34985329E+00</totfact>
</mgrwt>
</event>
<event>
 6    1  0.1431486E-005  0.1022497E+04  0.7818608E-02  0.9776709E-01
          4   -1    0    0  502    0 -0.00000000000E+00  0.00000000000E+00  0.18183855687E+04  0.18183855687E+04  0.00000000000E+00 0.  1.
         21   -1    0    0  501  502  0.00000000000E+00 -0.00000000000E+00 -0.21689801568E+03  0.21689801568E+03  0.00000000000E+00 0.  1.
    9000010    2    1    2  501    0  0.17575189781E+03  0.55626000454E+02  0.11041204017E+04  0.15048525560E+04  0.10057417026E+04 0.  0.
        -13    1    3    3    0    0  0.46305252677E+03 -0.16259958114E+03  0.19738580399E+03  0.52897772459E+03  0.10566000000E+00 0.  1.
          4    1    3    3  501    0 -0.28730062896E+03  0.21822558160E+03  0.90673459769E+03  0.97587483138E+03  0.00000000000E+00 0.  1.
         13    1    1    2    0    0 -0.17575189781E+03 -0.55626000454E+02  0.49736715134E+03  0.53043102841E+03  0.10566000000E+00 0. -1.
<mgrwt>
<rscale>  1 0.66627592E+03</rscale>
<asrwt>0</asrwt>
<pdfrwt beam="2">  1       21 0.33368927E-01 0.10224966E+04</pdfrwt>
<pdfrwt beam="1">  1        4 0.27975162E+00 0.10224966E+04</pdfrwt>
<totfact> 0.14544982E+01</totfact>
</mgrwt>
</event>
<event>
 6    1  0.1431486E-005  0.1239721E+04  0.7818608E-02  0.9223355E-01
          4   -1    0    0  502    0 -0.00000000000E+00  0.00000000000E+00  0.15980714237E+04  0.15980714237E+04  0.00000000000E+00 0.  1.
         21   -1    0    0  501  502  0.00000000000E+00 -0.00000000000E+00 -0.68110323810E+03  0.68110323810E+03  0.00000000000E+00 0. -1.
    9000010    2    1    2  501    0 -0.55299598765E+03 -0.45821892005E+03  0.18451141079E+03  0.12533763974E+04  0.10105141226E+04 0.  0.
        -13    1    3    3    0    0 -0.76844228168E+03 -0.39395674221E+03  0.39116288537E+03  0.94800520519E+03  0.10566000000E+00 0.  1.
          4    1    3    3  501    0  0.21544629403E+03 -0.64262177840E+02 -0.20665147458E+03  0.30537119225E+03  0.00000000000E+00 0.  1.
         13    1    1    2    0    0  0.55299598765E+03  0.45821892005E+03  0.73245677485E+03  0.10257982644E+04  0.10566000000E+00 0. -1.
<mgrwt>
<rscale>  1 0.10815581E+04</rscale>
<asrwt>0</asrwt>
<pdfrwt beam="2">  1       21 0.10478511E+00 0.12397209E+04</pdfrwt>
<pdfrwt beam="1">  1        4 0.24585714E+00 0.12397209E+04</pdfrwt>
<totfact> 0.17585759E+00</totfact>
</mgrwt>
</event>
<event>
 6    1  0.1431486E-005  0.7513151E+03  0.7818608E-02  0.1078784E+00
          4   -1    0    0  502    0 -0.00000000000E+00  0.00000000000E+00  0.16593974521E+03  0.16593974521E+03  0.00000000000E+00 0.  1.
         21   -1    0    0  501  502  0.00000000000E+00 -0.00000000000E+00 -0.10815217873E+04  0.10815217873E+04  0.00000000000E+00 0.  1.
    9000010    2    1    2  501    0  0.11367965733E+02 -0.19662953184E+02 -0.94691084146E+03  0.12087657032E+04  0.75097171795E+03 0.  0.
        -13    1    3    3    0    0  0.14222810825E+03 -0.15395859553E+03  0.32026063064E+02  0.21203245929E+03  0.10566000000E+00 0.  1.
          4    1    3    3  501    0 -0.13086014252E+03  0.13429564235E+03 -0.97893690453E+03  0.99673324390E+03  0.00000000000E+00 0.  1.
         13    1    1    2    0    0 -0.11367965733E+02  0.19662953184E+02  0.31328799369E+02  0.38695829320E+02  0.10566000000E+00 0. -1.
<mgrwt>
<rscale>  1 0.31328132E+03</rscale>
<asrwt>0</asrwt>
<pdfrwt beam="2">  1       21 0.16638796E+00 0.75131510E+03</pdfrwt>
<pdfrwt beam="1">  1        4 0.25529192E-01 0.75131510E+03</pdfrwt>
<totfact> 0.12303054E+02</totfact>
</mgrwt>
</event>
<event>
 6    1  0.1431486E-005  0.1037450E+04  0.7818608E-02  0.9887142E-01
         21   -1    0    0  501  502  0.00000000000E+00  0.00000000000E+00  0.50185961397E+03  0.50185961397E+03  0.00000000000E+00 0.  1.
          4   -1    0    0  502    0 -0.00000000000E+00 -0.00000000000E+00 -0.86063991522E+03  0.86063991522E+03  0.00000000000E+00 0.  1.
    9000010    2    1    2  501    0  0.11649285203E+03 -0.39771514748E+02 -0.59801500979E+02  0.10391719985E+04  0.10301212865E+04 0.  0.
        -13    1    3    3    0    0 -0.28336223177E+03  0.12233158704E+03 -0.38892409626E+03  0.49650894796E+03  0.10566000000E+00 0.  1.
          4    1    3    3  501    0  0.39985508380E+03 -0.16210310179E+03  0.32912259528E+03  0.54266305050E+03  0.00000000000E+00 0.  1.
         13    1    1    2    0    0 -0.11649285203E+03  0.39771514748E+02 -0.29897880027E+03  0.32332753074E+03  0.10566000000E+00 0. -1.
<mgrwt>
<rscale>  1 0.60888518E+03</rscale>
<asrwt>0</asrwt>
<pdfrwt beam="1">  1       21 0.77209172E-01 0.10374499E+04</pdfrwt>
<pdfrwt beam="2">  1        4 0.13240614E+00 0.10374499E+04</pdfrwt>
<totfact> 0.23435101E+01</totfact>
</mgrwt>
</event>
<event>
 6    1  0.1431486E-005  0.1284869E+04  0.7818608E-02  0.9476245E-01
         21   -1    0    0  501  502  0.00000000000E+00  0.00000000000E+00  0.56594983531E+03  0.56594983531E+03  0.00000000000E+00 0.  1.
          4   -1    0    0  502    0 -0.00000000000E+00 -0.00000000000E+00 -0.11415797920E+04  0.11415797920E+04  0.00000000000E+00 0.  1.
    9000010    2    1    2  501    0  0.49787282545E+02  0.25373791671E+03 -0.28046840299E+03  0.13151241510E+04  0.12585814648E+04 0.  0.
        -13    1    3    3    0    0  0.71470058287E+02  0.57944761312E+03  0.29453383830E+03  0.65392484174E+03  0.10566000000E+00 0.  1.
          4    1    3    3  501    0 -0.21682775742E+02 -0.32570969641E+03 -0.57500224129E+03  0.66119930928E+03  0.00000000000E+00 0.  1.
         13    1    1    2    0    0 -0.49787282545E+02 -0.25373791671E+03 -0.29516155373E+03  0.39240547632E+03  0.10566000000E+00 0. -1.
<mgrwt>
<rscale>  1 0.86058028E+03</rscale>
<asrwt>0</asrwt>
<pdfrwt beam="1">  1       21 0.87069206E-01 0.12848693E+04</pdfrwt>
<pdfrwt beam="2">  1        4 0.17562766E+00 0.12848693E+04</pdfrwt>
<totfact> 0.79933587E+00</totfact>
</mgrwt>
</event>
<event>
 6    1  0.1431486E-005  0.1012384E+04  0.7818608E-02  0.1012833E+00
          4   -1    0    0  502    0 -0.00000000000E+00  0.00000000000E+00  0.46590647924E+03  0.46590647924E+03  0.00000000000E+00 0.  1.
         21   -1    0    0  501  502  0.00000000000E+00 -0.00000000000E+00 -0.11453828680E+04  0.11453828680E+04  0.00000000000E+00 0.  1.
    9000010    2    1    2  501    0 -0.40126193463E+02 -0.47274513329E+02 -0.91691363053E+03  0.13658887647E+04  0.10104833104E+04 0.  0.
        -13    1    3    3    0    0 -0.45234321256E+03  0.14031331273E+03 -0.19181765342E+03  0.51097576362E+03  0.10566000000E+00 0.  1.
          4    1    3    3  501    0  0.41221701909E+03 -0.18758782606E+03 -0.72509597711E+03  0.85491300103E+03  0.00000000000E+00 0.  1.
         13    1    1    2    0    0  0.40126193463E+02  0.47274513329E+02  0.23743724175E+03  0.24540058261E+03  0.10566000000E+00 0. -1.
<mgrwt>
<rscale>  1 0.50364097E+03</rscale>
<asrwt>0</asrwt>
<pdfrwt beam="2">  1       21 0.17621275E+00 0.10123841E+04</pdfrwt>
<pdfrwt beam="1">  1        4 0.71677920E-01 0.10123841E+04</pdfrwt>
<totfact> 0.11982370E+01</totfact>
</mgrwt>
</event>
<event>
 6    1  0.1431486E-005  0.1266778E+04  0.7818608E-02  0.9183222E-01
         21   -1    0    0  501  502  0.00000000000E+00  0.00000000000E+00  0.18534900928E+04  0.18534900928E+04  0.00000000000E+00 0. -1.
          4   -1    0    0  502    0 -0.00000000000E+00 -0.00000000000E+00 -0.61081536606E+03  0.61081536606E+03  0.00000000000E+00 0.  1.
    9000010    2    1    2  501    0 -0.66395359030E+02  0.77907947252E+03  0.43304622939E+03  0.13387516027E+04  0.99667128422E+03 0.  0.
        -13    1    3    3    0    0 -0.43122202897E+03  0.59245260264E+02  0.28973916853E+02  0.43623610368E+03  0.10566000000E+00 0.  1.
          4    1    3    3  501    0  0.36482666994E+03  0.71983421226E+03  0.40407231253E+03  0.90251549903E+03  0.00000000000E+00 0.  1.
         13    1    1    2    0    0  0.66395359030E+02 -0.77907947252E+03  0.80962849737E+03  0.11255538562E+04  0.10566000000E+00 0. -1.
<mgrwt>
<rscale>  1 0.11228294E+04</rscale>
<asrwt>0</asrwt>
<pdfrwt beam="1">  1       21 0.28515232E+00 0.12667781E+04</pdfrwt>
<pdfrwt beam="2">  1        4 0.93971595E-01 0.12667781E+04</pdfrwt>
<totfact> 0.11730202E+00</totfact>
</mgrwt>
</event>
<event>
 6    1  0.1431486E-005  0.9410200E+03  0.7818608E-02  0.9832579E-01
          4   -1    0    0  502    0 -0.00000000000E+00  0.00000000000E+00  0.21393193147E+03  0.21393193147E+03  0.00000000000E+00 0.  1.
         21   -1    0    0  501  502  0.00000000000E+00 -0.00000000000E+00 -0.20843157941E+04  0.20843157941E+04  0.00000000000E+00 0.  1.
    9000010    2    1    2  501    0 -0.14573614742E+03  0.13237819588E+03 -0.18786904598E+04  0.21011893024E+04  0.92019325650E+03 0.  0.
        -13    1    3    3    0    0 -0.18033288879E+03  0.21956872384E+03 -0.19579042097E+04  0.19784133241E+04  0.10566000000E+00 0.  1.
          4    1    3    3  501    0  0.34596741373E+02 -0.87190527960E+02  0.79213749905E+02  0.12277597832E+03  0.00000000000E+00 0.  1.
         13    1    1    2    0    0  0.14573614742E+03 -0.13237819588E+03  0.83065972178E+01  0.19705842314E+03  0.10566000000E+00 0. -1.
<mgrwt>
<rscale>  1 0.63643103E+03</rscale>
<asrwt>0</asrwt>
<pdfrwt beam="2">  1       21 0.32066398E+00 0.94102000E+03</pdfrwt>
<pdfrwt beam="1">  1        4 0.32912603E-01 0.94102000E+03</pdfrwt>
<totfact> 0.71920867E+00</totfact>
</mgrwt>
</event>
<event>
 6    1  0.1431486E-005  0.9265949E+03  0.7818608E-02  0.1000273E+00
          4   -1    0    0  502    0 -0.00000000000E+00  0.00000000000E+00  0.44510398996E+03  0.44510398996E+03  0.00000000000E+00 0.  1.
         21   -1    0    0  501  502  0.00000000000E+00 -0.00000000000E+00 -0.81879252864E+03  0.81879252864E+03  0.00000000000E+00 0.  1.
    9000010    2    1    2  501    0 -0.11712424208E+03  0.23835934286E+02 -0.52973678855E+03  0.10673327699E+04  0.91885359918E+03 0.  0.
        -13    1    3    3    0    0  0.31770732885E+03  0.14750606210E+03  0.25644585112E+02  0.35121737012E+03  0.10566000000E+00 0.  1.
          4    1    3    3  501    0 -0.43483157094E+03 -0.12367012782E+03 -0.55538137366E+03  0.71611539978E+03  0.00000000000E+00 0.  1.
         13    1    1    2    0    0  0.11712424208E+03 -0.23835934286E+02  0.15604824987E+03  0.19656374869E+03  0.10566000000E+00 0. -1.
<mgrwt>
<rscale>  1 0.55530582E+03</rscale>
<asrwt>0</asrwt>
<pdfrwt beam="2">  1       21 0.12596808E+00 0.92659494E+03</pdfrwt>
<pdfrwt beam="1">  1        4 0.68477538E-01 0.92659494E+03</pdfrwt>
<totfact> 0.34144786E+01</totfact>
</mgrwt>
</event>
<event>
 6    1  0.1431486E-005  0.1153863E+04  0.7818608E-02  0.9401879E-01
          4   -1    0    0  502    0 -0.00000000000E+00  0.00000000000E+00  0.27126395319E+03  0.27126395319E+03  0.00000000000E+00 0.  1.
         21   -1    0    0  501  502  0.00000000000E+00 -0.00000000000E+00 -0.25383989739E+04  0.25383989739E+04  0.00000000000E+00 0. -1.
    9000010    2    1    2  501    0 -0.27313892247E+03 -0.37598925773E+03 -0.13102595582E+04  0.17459038120E+04  0.10561378784E+04 0.  0.
        -13    1    3    3    0    0  0.14120900992E+03 -0.45389232597E+03 -0.12273973330E+04  0.13162303948E+04  0.10566000000E+00 0.  1.
          4    1    3    3  501    0 -0.41434793239E+03  0.77903068236E+02 -0.82862225236E+02  0.42967341725E+03  0.00000000000E+00 0.  1.
         13    1    1    2    0    0  0.27313892247E+03  0.37598925773E+03 -0.95687546248E+03  0.10637591150E+04  0.10566000000E+00 0. -1.
<mgrwt>
<rscale>  1 0.91921192E+03</rscale>
<asrwt>0</asrwt>
<pdfrwt beam="2">  1       21 0.39052293E+00 0.11538631E+04</pdfrwt>
<pdfrwt beam="1">  1        4 0.41732915E-01 0.11538631E+04</pdfrwt>
<totfact> 0.15385883E+00</totfact>
</mgrwt>
</event>
<event>
 6    1  0.1431486E-005  0.8666048E+03  0.7818608E-02  0.9756257E-01
         21   -1    0    0  501  502  0.00000000000E+00  0.00000000000E+00  0.19577081939E+04  0.19577081939E+04  0.00000000000E+00 0.  1.
          4   -1    0    0  502    0 -0.00000000000E+00 -0.00000000000E+00 -0.19789430233E+03  0.19789430233E+03  0.00000000000E+00 0.  1.
    9000010    2    1    2  501    0 -0.13220530426E+03 -0.29578601148E+03  0.15300122970E+04  0.17583917322E+04  0.80376380096E+03 0.  0.
        -13    1    3    3    0    0  0.18373740132E+02 -0.64569122382E+02  0.14756314283E+04  0.14771577063E+04  0.10566000000E+00 0.  1.
          4    1    3    3  501    0 -0.15057904439E+03 -0.23121688910E+03  0.54380868654E+02  0.28123402584E+03  0.00000000000E+00 0.  1.
         13    1    1    2    0    0  0.13220530426E+03  0.29578601148E+03  0.22980159458E+03  0.39721076408E+03  0.10566000000E+00 0. -1.
<mgrwt>
<rscale>  1 0.67763797E+03</rscale>
<asrwt>0</asrwt>
<pdfrwt beam="1">  1       21 0.30118586E+00 0.86660479E+03</pdfrwt>
<pdfrwt beam="2">  1        4 0.30445279E-01 0.86660479E+03</pdfrwt>
<totfact> 0.11229617E+01</totfact>
</mgrwt>
</event>
<event>
 6    1  0.1431486E-005  0.1113985E+04  0.7818608E-02  0.9417993E-01
          4   -1    0    0  502    0 -0.00000000000E+00  0.00000000000E+00  0.39230840467E+03  0.39230840467E+03  0.00000000000E+00 0.  1.
         21   -1    0    0  501  502  0.00000000000E+00 -0.00000000000E+00 -0.19409585101E+04  0.19409585101E+04  0.00000000000E+00 0. -1.
    9000010    2    1    2  501    0  0.11376094737E+03  0.47413892224E+03 -0.59675439960E+03  0.12637554765E+04  0.10016051218E+04 0.  0.
        -13    1    3    3    0    0  0.48335909893E+03  0.17194014286E+03 -0.17790287906E+02  0.51333803361E+03  0.10566000000E+00 0.  1.
          4    1    3    3  501    0 -0.36959815157E+03  0.30219877938E+03 -0.57896411169E+03  0.75041744284E+03  0.00000000000E+00 0.  1.
         13    1    1    2    0    0 -0.11376094737E+03 -0.47413892224E+03 -0.95189570579E+03  0.10695114383E+04  0.10566000000E+00 0. -1.
<mgrwt>
<rscale>  1 0.90609639E+03</rscale>
<asrwt>0</asrwt>
<pdfrwt beam="2">  1       21 0.29860901E+00 0.11139848E+04</pdfrwt>
<pdfrwt beam="1">  1        4 0.60355138E-01 0.11139848E+04</pdfrwt>
<totfact> 0.27162129E+00</totfact>
</mgrwt>
</event>
<event>
 6    1  0.1431486E-005  0.1011173E+04  0.7818608E-02  0.9873806E-01
          4   -1    0    0  502    0 -0.00000000000E+00  0.00000000000E+00  0.68229949120E+03  0.68229949120E+03  0.00000000000E+00 0.  1.
         21   -1    0    0  501  502  0.00000000000E+00 -0.00000000000E+00 -0.55250520496E+03  0.55250520496E+03  0.00000000000E+00 0.  1.
    9000010    2    1    2  501    0  0.13182550695E+03  0.43425720150E+02 -0.44315091978E+02  0.10121438684E+04  0.10016025287E+04 0.  0.
        -13    1    3    3    0    0  0.11994673186E+03  0.16780299444E+03  0.45386419552E+03  0.49853563821E+03  0.10566000000E+00 0.  1.
          4    1    3    3  501    0  0.11878775084E+02 -0.12437727429E+03 -0.49817928750E+03  0.51360823022E+03  0.00000000000E+00 0.  1.
         13    1    1    2    0    0 -0.13182550695E+03 -0.43425720150E+02  0.17410937822E+03  0.22266082772E+03  0.10566000000E+00 0. -1.
<mgrwt>
<rscale>  1 0.61547702E+03</rscale>
<asrwt>0</asrwt>
<pdfrwt beam="2">  1       21 0.85000801E-01 0.10111733E+04</pdfrwt>
<pdfrwt beam="1">  1        4 0.10496915E+00 0.10111733E+04</pdfrwt>
<totfact> 0.33504808E+01</totfact>
</mgrwt>
</event>
<event>
 6    1  0.1431486E-005  0.1022076E+04  0.7818608E-02  0.9639178E-01
          4   -1    0    0  502    0 -0.00000000000E+00  0.00000000000E+00  0.40418839515E+03  0.40418839515E+03  0.00000000000E+00 0.  1.
         21   -1    0    0  501  502  0.00000000000E+00 -0.00000000000E+00 -0.10936750298E+04  0.10936750298E+04  0.00000000000E+00 0.  1.
    9000010    2    1    2  501    0  0.29243847750E+03  0.66325255956E+01 -0.43748902436E+03  0.11117713889E+04  0.97932360397E+03 0.  0.
        -13    1    3    3    0    0 -0.27485260123E+03  0.26972321550E+03 -0.86544728156E+02  0.39469553648E+03  0.10566000000E+00 0.  1.
          4    1    3    3  501    0  0.56729107873E+03 -0.26309068990E+03 -0.35094429620E+03  0.71707585245E+03  0.00000000000E+00 0.  1.
         13    1    1    2    0    0 -0.29243847750E+03 -0.66325255956E+01 -0.25199761026E+03  0.38609203600E+03  0.10566000000E+00 0. -1.
<mgrwt>
<rscale>  1 0.74756497E+03</rscale>
<asrwt>0</asrwt>
<pdfrwt beam="2">  1       21 0.16825770E+00 0.10220758E+04</pdfrwt>
<pdfrwt beam="1">  1        4 0.62182830E-01 0.10220758E+04</pdfrwt>
<totfact> 0.18802506E+01</totfact>
</mgrwt>
</event>
<event>
 6    1  0.1431486E-005  0.1042062E+04  0.7818608E-02  0.9628265E-01
          4   -1    0    0  502    0 -0.00000000000E+00  0.00000000000E+00  0.53553998310E+03  0.53553998310E+03  0.00000000000E+00 0.  1.
         21   -1    0    0  501  502  0.00000000000E+00 -0.00000000000E+00 -0.98773206566E+03  0.98773206566E+03  0.00000000000E+00 0.  1.
    9000010    2    1    2  501    0  0.28331666975E+03 -0.42179618675E+02 -0.59842085857E+03  0.12016662004E+04  0.10019214928E+04 0.  0.
        -13    1    3    3    0    0  0.36813190238E+03  0.13097526655E+03  0.15769119198E+03  0.42135749808E+03  0.10566000000E+00 0.  1.
          4    1    3    3  501    0 -0.84815232629E+02 -0.17315488523E+03 -0.75611205055E+03  0.78030870234E+03  0.00000000000E+00 0.  1.
         13    1    1    2    0    0 -0.28331666975E+03  0.42179618675E+02  0.14622877601E+03  0.32160584834E+03  0.10566000000E+00 0. -1.
<mgrwt>
<rscale>  1 0.75453338E+03</rscale>
<asrwt>0</asrwt>
<pdfrwt beam="2">  1       21 0.15195878E+00 0.10420624E+04</pdfrwt>
<pdfrwt beam="1">  1        4 0.82390768E-01 0.10420624E+04</pdfrwt>
<totfact> 0.13328581E+01</totfact>
</mgrwt>
</event>
<event>
 6    1  0.1431486E-005  0.1006689E+04  0.7818608E-02  0.9907249E-01
          4   -1    0    0  502    0 -0.00000000000E+00  0.00000000000E+00  0.12592392234E+04  0.12592392234E+04  0.00000000000E+00 0.  1.
         21   -1    0    0  501  502  0.00000000000E+00 -0.00000000000E+00 -0.28988900424E+03  0.28988900424E+03  0.00000000000E+00 0.  1.
    9000010    2    1    2  501    0  0.12628103506E+03 -0.81495021511E+00  0.63129885677E+03  0.11882594167E+04  0.99873651720E+03 0.  0.
        -13    1    3    3    0    0  0.54957234117E+03 -0.99193620218E+02  0.25715257525E+03  0.61481427324E+03  0.10566000000E+00 0.  1.
          4    1    3    3  501    0 -0.42329130611E+03  0.98378670002E+02  0.37414628152E+03  0.57344514343E+03  0.00000000000E+00 0.  1.
         13    1    1    2    0    0 -0.12628103506E+03  0.81495021511E+00  0.33805136240E+03  0.36086881099E+03  0.10566000000E+00 0. -1.
<mgrwt>
<rscale>  1 0.59911230E+03</rscale>
<asrwt>0</asrwt>
<pdfrwt beam="2">  1       21 0.44598309E-01 0.10066887E+04</pdfrwt>
<pdfrwt beam="1">  1        4 0.19372911E+00 0.10066887E+04</pdfrwt>
<totfact> 0.27806391E+01</totfact>
</mgrwt>
</event>
<event>
 6    1  0.1431486E-005  0.1023852E+04  0.7818608E-02  0.9711573E-01
          4   -1    0    0  502    0 -0.00000000000E+00  0.00000000000E+00  0.36981640407E+03  0.36981640407E+03  0.00000000000E+00 0.  1.
         21   -1    0    0  501  502  0.00000000000E+00 -0.00000000000E+00 -0.13095942805E+04  0.13095942805E+04  0.00000000000E+00 0.  1.
    9000010    2    1    2  501    0  0.19844551557E+03 -0.11222487890E+03 -0.10126707511E+04  0.14400606722E+04  0.99814710500E+03 0.  0.
        -13    1    3    3    0    0  0.84616492180E+02 -0.21787631147E+03 -0.11851425744E+04  0.12079706001E+04  0.10566000000E+00 0.  1.
          4    1    3    3  501    0  0.11382902339E+03  0.10565143257E+03  0.17247182323E+03  0.23209007212E+03  0.00000000000E+00 0.  1.
         13    1    1    2    0    0 -0.19844551557E+03  0.11222487890E+03  0.72892874699E+02  0.23935001241E+03  0.10566000000E+00 0. -1.
<mgrwt>
<rscale>  1 0.70331880E+03</rscale>
<asrwt>0</asrwt>
<pdfrwt beam="2">  1       21 0.20147604E+00 0.10238519E+04</pdfrwt>
<pdfrwt beam="1">  1        4 0.56894831E-01 0.10238519E+04</pdfrwt>
<totfact> 0.13179684E+01</totfact>
</mgrwt>
</event>
<event>
 6    1  0.1431486E-005  0.1014272E+04  0.7818608E-02  0.9894455E-01
         21   -1    0    0  501  502  0.00000000000E+00  0.00000000000E+00  0.12646869036E+04  0.12646869036E+04  0.00000000000E+00 0.  1.
          4   -1    0    0  502    0 -0.00000000000E+00 -0.00000000000E+00 -0.26486756543E+03  0.26486756543E+03  0.00000000000E+00 0.  1.
    9000010    2    1    2  501    0  0.31886359791E+02 -0.12464554036E+03  0.95554570814E+03  0.13934904541E+04  0.10060789207E+04 0.  0.
        -13    1    3    3    0    0 -0.42673308055E+03  0.15651144026E+03  0.58252284537E+03  0.73887064464E+03  0.10566000000E+00 0.  1.
          4    1    3    3  501    0  0.45861944034E+03 -0.28115698062E+03  0.37302286277E+03  0.65461980948E+03  0.00000000000E+00 0.  1.
         13    1    1    2    0    0 -0.31886359791E+02  0.12464554036E+03  0.44273630011E+02  0.13606401490E+03  0.10566000000E+00 0. -1.
<mgrwt>
<rscale>  1 0.60530789E+03</rscale>
<asrwt>0</asrwt>
<pdfrwt beam="1">  1       21 0.19456721E+00 0.10142722E+04</pdfrwt>
<pdfrwt beam="2">  1        4 0.40748857E-01 0.10142722E+04</pdfrwt>
<totfact> 0.29688838E+01</totfact>
</mgrwt>
</event>
<event>
 6    1  0.1431486E-005  0.1025493E+04  0.7818608E-02  0.9876564E-01
         21   -1    0    0  501  502  0.00000000000E+00  0.00000000000E+00  0.45087772767E+03  0.45087772767E+03  0.00000000000E+00 0.  1.
          4   -1    0    0  502    0 -0.00000000000E+00 -0.00000000000E+00 -0.77121874240E+03  0.77121874240E+03  0.00000000000E+00 0.  1.
    9000010    2    1    2  501    0 -0.84456817631E+02 -0.10128757282E+03 -0.20261991592E+03  0.10453186583E+04  0.10169779450E+04 0.  0.
        -13    1    3    3    0    0  0.28636601796E+03  0.30280947779E+03 -0.26413579372E+03  0.49342355514E+03  0.10566000000E+00 0.  1.
          4    1    3    3  501    0 -0.37082283559E+03 -0.40409705061E+03  0.61515877803E+02  0.55189510319E+03  0.00000000000E+00 0.  1.
         13    1    1    2    0    0  0.84456817631E+02  0.10128757282E+03 -0.11772109880E+03  0.17677781173E+03  0.10566000000E+00 0. -1.
<mgrwt>
<rscale>  1 0.61410651E+03</rscale>
<asrwt>0</asrwt>
<pdfrwt beam="1">  1       21 0.69365805E-01 0.10254932E+04</pdfrwt>
<pdfrwt beam="2">  1        4 0.11864904E+00 0.10254932E+04</pdfrwt>
<totfact> 0.39752134E+01</totfact>
</mgrwt>
</event>
<event>
 6    1  0.1431486E-005  0.9888960E+03  0.7818608E-02  0.1022646E+00
          4   -1    0    0  502    0 -0.00000000000E+00  0.00000000000E+00  0.13717672220E+04  0.13717672220E+04  0.00000000000E+00 0.  1.
         21   -1    0    0  501  502  0.00000000000E+00 -0.00000000000E+00 -0.20681046083E+03  0.20681046083E+03  0.00000000000E+00 0.  1.
    9000010    2    1    2  501    0 -0.34076117198E+02 -0.35720384815E+02  0.99996635068E+03  0.14063598720E+04  0.98766302926E+03 0.  0.
        -13    1    3    3    0    0 -0.67873787948E+02  0.26506397533E+03  0.10626066681E+04  0.10972687475E+04  0.10566000000E+00 0.  1.
          4    1    3    3  501    0  0.33797670750E+02 -0.30078436014E+03 -0.62640317384E+02  0.30909112446E+03  0.00000000000E+00 0.  1.
         13    1    1    2    0    0  0.34076117198E+02  0.35720384815E+02  0.16499041051E+03  0.17221781086E+03  0.10566000000E+00 0. -1.
<mgrwt>
<rscale>  1 0.46743692E+03</rscale>
<asrwt>0</asrwt>
<pdfrwt beam="2">  1       21 0.31816995E-01 0.98889604E+03</pdfrwt>
<pdfrwt beam="1">  1        4 0.21104111E+00 0.98889604E+03</pdfrwt>
<totfact> 0.43194059E+01</totfact>
</mgrwt>
</event>
<event>
 6    1  0.1431486E-005  0.9569854E+03  0.7818608E-02  0.9688156E-01
          4   -1    0    0  502    0 -0.00000000000E+00  0.00000000000E+00  0.19445206570E+04  0.19445206570E+04  0.00000000000E+00 0.  1.
         21   -1    0    0  501  502  0.00000000000E+00 -0.00000000000E+00 -0.21145038843E+03  0.21145038843E+03  0.00000000000E+00 0.  1.
    9000010    2    1    2  501    0 -0.30196413869E+03 -0.43430466236E+01  0.11245103728E+04  0.14765990111E+04  0.90808582082E+03 0.  0.
        -13    1    3    3    0    0 -0.30541722725E+03  0.33387518114E+03  0.10306102909E+04  0.11255709228E+04  0.10566000000E+00 0.  1.
          4    1    3    3  501    0  0.34530885641E+01 -0.33821822776E+03  0.93900081844E+02  0.35102808831E+03  0.00000000000E+00 0.  1.
         13    1    1    2    0    0  0.30196413869E+03  0.43430466236E+01  0.60855989582E+03  0.67937203436E+03  0.10566000000E+00 0. -1.
<mgrwt>
<rscale>  1 0.71726405E+03</rscale>
<asrwt>0</asrwt>
<pdfrwt beam="2">  1       21 0.32530830E-01 0.95698540E+03</pdfrwt>
<pdfrwt beam="1">  1        4 0.29915701E+00 0.95698540E+03</pdfrwt>
<totfact> 0.11725653E+01</totfact>
</mgrwt>
</event>
<event>
 6    1  0.1431486E-005  0.9961768E+03  0.7818608E-02  0.9861544E-01
         21   -1    0    0  501  502  0.00000000000E+00  0.00000000000E+00  0.78130815763E+03  0.78130815763E+03  0.00000000000E+00 0.  1.
          4   -1    0    0  502    0 -0.00000000000E+00 -0.00000000000E+00 -0.59126664126E+03  0.59126664126E+03  0.00000000000E+00 0.  1.
    9000010    2    1    2  501    0 -0.40354752334E+02  0.14554657161E+03  0.43322720434E+03  0.10863028992E+04  0.98466028036E+03 0.  0.
        -13    1    3    3    0    0  0.17079333832E+03  0.39747182334E+03  0.58226265928E+03  0.72538543570E+03  0.10566000000E+00 0.  1.
          4    1    3    3  501    0 -0.21114809066E+03 -0.25192525173E+03 -0.14903545494E+03  0.36091746352E+03  0.00000000000E+00 0.  1.
         13    1    1    2    0    0  0.40354752334E+02 -0.14554657161E+03 -0.24318568798E+03  0.28627189968E+03  0.10566000000E+00 0. -1.
<mgrwt>
<rscale>  1 0.62161788E+03</rscale>
<asrwt>0</asrwt>
<pdfrwt beam="1">  1       21 0.12020126E+00 0.99617678E+03</pdfrwt>
<pdfrwt beam="2">  1        4 0.90964099E-01 0.99617678E+03</pdfrwt>
<totfact> 0.19998818E+01</totfact>
</mgrwt>
</event>
<event>
 6    1  0.1431486E-005  0.1020294E+04  0.7818608E-02  0.9753791E-01
          4   -1    0    0  502    0 -0.00000000000E+00  0.00000000000E+00  0.99536907841E+03  0.99536907841E+03  0.00000000000E+00 0.  1.
         21   -1    0    0  501  502  0.00000000000E+00 -0.00000000000E+00 -0.38905241246E+03  0.38905241246E+03  0.00000000000E+00 0.  1.
    9000010    2    1    2  501    0 -0.83822406207E+02 -0.18175715239E+03  0.39700144399E+03  0.10948101452E+04  0.10004685149E+04 0.  0.
        -13    1    3    3    0    0  0.86564977322E+01 -0.24034853025E+03 -0.30269031823E+03  0.38660547185E+03  0.10566000000E+00 0.  1.
          4    1    3    3  501    0 -0.92478903939E+02  0.58591377866E+02  0.69969176223E+03  0.70820467335E+03  0.00000000000E+00 0.  1.
         13    1    1    2    0    0  0.83822406207E+02  0.18175715239E+03  0.20931522196E+03  0.28961134566E+03  0.10566000000E+00 0. -1.
<mgrwt>
<rscale>  1 0.67902425E+03</rscale>
<asrwt>0</asrwt>
<pdfrwt beam="2">  1       21 0.59854218E-01 0.10202936E+04</pdfrwt>
<pdfrwt beam="1">  1        4 0.15313370E+00 0.10202936E+04</pdfrwt>
<totfact> 0.28565144E+01</totfact>
</mgrwt>
</event>
<event>
 6    1  0.1431486E-005  0.1027622E+04  0.7818608E-02  0.9798250E-01
         21   -1    0    0  501  502  0.00000000000E+00  0.00000000000E+00  0.95390045467E+03  0.95390045467E+03  0.00000000000E+00 0.  1.
          4   -1    0    0  502    0 -0.00000000000E+00 -0.00000000000E+00 -0.50812014927E+03  0.50812014927E+03  0.00000000000E+00 0.  1.
    9000010    2    1    2  501    0 -0.10396251732E+03  0.13344929241E+03  0.63517346358E+03  0.12080782912E+04  0.10136029352E+04 0.  0.
        -13    1    3    3    0    0  0.37204114553E+03 -0.30406078311E+02 -0.29311525713E+02  0.37443066150E+03  0.10566000000E+00 0.  1.
          4    1    3    3  501    0 -0.47600366285E+03  0.16385537072E+03  0.66448498930E+03  0.83364762973E+03  0.00000000000E+00 0.  1.
         13    1    1    2    0    0  0.10396251732E+03 -0.13344929241E+03 -0.18939315819E+03  0.25394231271E+03  0.10566000000E+00 0. -1.
<mgrwt>
<rscale>  1 0.65456542E+03</rscale>
<asrwt>0</asrwt>
<pdfrwt beam="1">  1       21 0.14675392E+00 0.10276224E+04</pdfrwt>
<pdfrwt beam="2">  1        4 0.78172331E-01 0.10276224E+04</pdfrwt>
<totfact> 0.16600578E+01</totfact>
</mgrwt>
</event>
<event>
 6    1  0.1431486E-005  0.1108205E+04  0.7818608E-02  0.9439297E-01
         21   -1    0    0  501  502  0.00000000000E+00  0.00000000000E+00  0.93639817854E+03  0.93639817854E+03  0.00000000000E+00 0.  1.
          4   -1    0    0  502    0 -0.00000000000E+00 -0.00000000000E+00 -0.70057896856E+03  0.70057896856E+03  0.00000000000E+00 0.  1.
    9000010    2    1    2  501    0 -0.42868051686E+03  0.16450124988E+03  0.35305965184E+03  0.11630858314E+04  0.10086078954E+04 0.  0.
        -13    1    3    3    0    0 -0.35419168460E+02  0.43164220403E+03  0.50377986900E+03  0.66435207336E+03  0.10566000000E+00 0.  1.
          4    1    3    3  501    0 -0.39326134839E+03 -0.26714095415E+03 -0.15072021717E+03  0.49873375802E+03  0.00000000000E+00 0.  1.
         13    1    1    2    0    0  0.42868051686E+03 -0.16450124988E+03 -0.11724044185E+03  0.47389131572E+03  0.10566000000E+00 0. -1.
<mgrwt>
<rscale>  1 0.88911088E+03</rscale>
<asrwt>0</asrwt>
<pdfrwt beam="1">  1       21 0.14406126E+00 0.11082046E+04</pdfrwt>
<pdfrwt beam="2">  1        4 0.10778138E+00 0.11082046E+04</pdfrwt>
<totfact> 0.80922592E+00</totfact>
</mgrwt>
</event>
<event>
 6    1  0.1431486E-005  0.1054283E+04  0.7818608E-02  0.9600762E-01
         21   -1    0    0  501  502  0.00000000000E+00  0.00000000000E+00  0.19651892166E+04  0.19651892166E+04  0.00000000000E+00 0.  1.
          4   -1    0    0  502    0 -0.00000000000E+00 -0.00000000000E+00 -0.82669157733E+03  0.82669157733E+03  0.00000000000E+00 0.  1.
    9000010    2    1    2  501    0 -0.25824722566E+02 -0.30272772043E+03  0.17875167702E+04  0.20752659514E+04  0.10095551377E+04 0.  0.
        -13    1    3    3    0    0 -0.19486392206E+03 -0.12181645233E+03 -0.38093218613E+02  0.23294269820E+03  0.10566000000E+00 0.  1.
          4    1    3    3  501    0  0.16903919949E+03 -0.18091126810E+03  0.18256099888E+04  0.18423232532E+04  0.00000000000E+00 0.  1.
         13    1    1    2    0    0  0.25824722566E+02  0.30272772043E+03 -0.64901913096E+03  0.71661484253E+03  0.10566000000E+00 0. -1.
<mgrwt>
<rscale>  1 0.77245746E+03</rscale>
<asrwt>0</asrwt>
<pdfrwt beam="1">  1       21 0.30233680E+00 0.10542830E+04</pdfrwt>
<pdfrwt beam="2">  1        4 0.12718332E+00 0.10542830E+04</pdfrwt>
<totfact> 0.45070704E-01</totfact>
</mgrwt>
</event>
<event>
 6    1  0.1431486E-005  0.1037339E+04  0.7818608E-02  0.9608326E-01
          4   -1    0    0  502    0 -0.00000000000E+00  0.00000000000E+00  0.84981895264E+03  0.84981895264E+03  0.00000000000E+00 0.  1.
         21   -1    0    0  501  502  0.00000000000E+00 -0.00000000000E+00 -0.66933303286E+03  0.66933303286E+03  0.00000000000E+00 0.  1.
    9000010    2    1    2  501    0 -0.98658591075E+02 -0.29473653181E+03 -0.16947988451E+03  0.10510929976E+04  0.98968172544E+03 0.  0.
        -13    1    3    3    0    0 -0.26628527622E+03 -0.53797192444E+02  0.35682807448E+03  0.44847326804E+03  0.10566000000E+00 0.  1.
          4    1    3    3  501    0  0.16762668514E+03 -0.24093933936E+03 -0.52630795898E+03  0.60261972961E+03  0.00000000000E+00 0.  1.
         13    1    1    2    0    0  0.98658591075E+02  0.29473653181E+03  0.34996580429E+03  0.46805898786E+03  0.10566000000E+00 0. -1.
<mgrwt>
<rscale>  1 0.76747559E+03</rscale>
<asrwt>0</asrwt>
<pdfrwt beam="2">  1       21 0.10297431E+00 0.10373394E+04</pdfrwt>
<pdfrwt beam="1">  1        4 0.13074138E+00 0.10373394E+04</pdfrwt>
<totfact> 0.12082649E+01</totfact>
</mgrwt>
</event>
<event>
 6    1  0.1431486E-005  0.1103211E+04  0.7818608E-02  0.9606903E-01
          4   -1    0    0  502    0 -0.00000000000E+00  0.00000000000E+00  0.99743258243E+03  0.99743258243E+03  0.00000000000E+00 0.  1.
         21   -1    0    0  501  502  0.00000000000E+00 -0.00000000000E+00 -0.53325771918E+03  0.53325771918E+03  0.00000000000E+00 0.  1.
    9000010    2    1    2  501    0  0.20811579784E+03 -0.15526768322E+03  0.13501030630E+03  0.11114415026E+04  0.10722192836E+04 0.  0.
        -13    1    3    3    0    0  0.58399816117E+03 -0.34858226026E+03  0.68500289838E+02  0.68356107649E+03  0.10566000000E+00 0.  1.
          4    1    3    3  501    0 -0.37588236333E+03  0.19331457704E+03  0.66510016460E+02  0.42788042611E+03  0.00000000000E+00 0.  1.
         13    1    1    2    0    0 -0.20811579784E+03  0.15526768322E+03  0.32916455695E+03  0.41924879901E+03  0.10566000000E+00 0. -1.
<mgrwt>
<rscale>  1 0.76840949E+03</rscale>
<asrwt>0</asrwt>
<pdfrwt beam="2">  1       21 0.82039649E-01 0.11032110E+04</pdfrwt>
<pdfrwt beam="1">  1        4 0.15345117E+00 0.11032110E+04</pdfrwt>
<totfact> 0.13665499E+01</totfact>
</mgrwt>
</event>
<event>
 6    1  0.1431486E-005  0.1026941E+04  0.7818608E-02  0.9916753E-01
          4   -1    0    0  502    0 -0.00000000000E+00  0.00000000000E+00  0.60764888973E+03  0.60764888973E+03  0.00000000000E+00 0.  1.
         21   -1    0    0  501  502  0.00000000000E+00 -0.00000000000E+00 -0.58419249753E+03  0.58419249753E+03  0.00000000000E+00 0.  1.
    9000010    2    1    2  501    0  0.53492193377E+02  0.10223686253E+03 -0.88909443967E+02  0.10307827547E+04  0.10204383408E+04 0.  0.
        -13    1    3    3    0    0 -0.45626745448E+03  0.16842112791E+03 -0.15966665595E+03  0.51189756645E+03  0.10566000000E+00 0.  1.
          4    1    3    3  501    0  0.50975964786E+03 -0.66184265383E+02  0.70757211985E+02  0.51888518828E+03  0.00000000000E+00 0.  1.
         13    1    1    2    0    0 -0.53492193377E+02 -0.10223686253E+03  0.11236583617E+03  0.16105863253E+03  0.10566000000E+00 0. -1.
<mgrwt>
<rscale>  1 0.59456171E+03</rscale>
<asrwt>0</asrwt>
<pdfrwt beam="2">  1       21 0.89875769E-01 0.10269412E+04</pdfrwt>
<pdfrwt beam="1">  1        4 0.93484444E-01 0.10269412E+04</pdfrwt>
<totfact> 0.38684629E+01</totfact>
</mgrwt>
</event>
<event>
 6    1  0.1431486E-005  0.1028633E+04  0.7818608E-02  0.9661459E-01
          4   -1    0    0  502    0 -0.00000000000E+00  0.00000000000E+00  0.26461634331E+03  0.26461634331E+03  0.00000000000E+00 0.  1.
         21   -1    0    0  501  502  0.00000000000E+00 -0.00000000000E+00 -0.18101436386E+04  0.18101436386E+04  0.00000000000E+00 0.  1.
    9000010    2    1    2  501    0  0.79669524659E+02  0.25387943914E+03 -0.14771714021E+04  0.18000336780E+04  0.99362160190E+03 0.  0.
        -13    1    3    3    0    0  0.48591489116E+03  0.36105590154E+03 -0.80232107224E+03  0.10050839565E+04  0.10566000000E+00 0.  1.
          4    1    3    3  501    0 -0.40624536651E+03 -0.10717646240E+03 -0.67485032990E+03  0.79494972147E+03  0.00000000000E+00 0.  1.
         13    1    1    2    0    0 -0.79669524659E+02 -0.25387943914E+03 -0.68355893145E+02  0.27472630393E+03  0.10566000000E+00 0. -1.
<mgrwt>
<rscale>  1 0.73358602E+03</rscale>
<asrwt>0</asrwt>
<pdfrwt beam="2">  1       21 0.27848364E+00 0.10286330E+04</pdfrwt>
<pdfrwt beam="1">  1        4 0.40710207E-01 0.10286330E+04</pdfrwt>
<totfact> 0.84463173E+00</totfact>
</mgrwt>
</event>
<event>
 6    1  0.1431486E-005  0.1022383E+04  0.7818608E-02  0.9771749E-01
          4   -1    0    0  502    0 -0.00000000000E+00  0.00000000000E+00  0.47424842624E+03  0.47424842624E+03  0.00000000000E+00 0.  1.
         21   -1    0    0  501  502  0.00000000000E+00 -0.00000000000E+00 -0.89451329180E+03  0.89451329180E+03  0.00000000000E+00 0.  1.
    9000010    2    1    2  501    0 -0.18119478005E+03  0.48024054831E+02 -0.14048388323E+03  0.10319898852E+04  0.10050520104E+04 0.  0.
        -13    1    3    3    0    0  0.34891265052E+03 -0.10405141610E+03 -0.28442854723E+03  0.46202418176E+03  0.10566000000E+00 0.  1.
          4    1    3    3  501    0 -0.53010743057E+03  0.15207547093E+03  0.14394466401E+03  0.56996570344E+03  0.00000000000E+00 0.  1.
         13    1    1    2    0    0  0.18119478005E+03 -0.48024054831E+02 -0.27978098233E+03  0.33677183284E+03  0.10566000000E+00 0. -1.
<mgrwt>
<rscale>  1 0.66900946E+03</rscale>
<asrwt>0</asrwt>
<pdfrwt beam="2">  1       21 0.13761743E+00 0.10223832E+04</pdfrwt>
<pdfrwt beam="1">  1        4 0.72961297E-01 0.10223832E+04</pdfrwt>
<totfact> 0.23174502E+01</totfact>
</mgrwt>
</event>
<event>
 6    1  0.1431486E-005  0.1115819E+04  0.7818608E-02  0.9419575E-01
          4   -1    0    0  502    0 -0.00000000000E+00  0.00000000000E+00  0.13990914410E+04  0.13990914410E+04  0.00000000000E+00 0.  1.
         21   -1    0    0  501  502  0.00000000000E+00 -0.00000000000E+00 -0.46008778895E+03  0.46008778895E+03  0.00000000000E+00 0.  1.
    9000010    2    1    2  501    0 -0.21870343927E+03  0.43005231369E+03  0.57825450898E+03  0.12567540128E+04  0.10061193690E+04 0.  0.
        -13    1    3    3    0    0 -0.34611532217E+03  0.70966365018E+03  0.51603762627E+03  0.94324607369E+03  0.10566000000E+00 0.  1.
          4    1    3    3  501    0  0.12741188290E+03 -0.27961133649E+03  0.62216882702E+02  0.31350793912E+03  0.00000000000E+00 0.  1.
         13    1    1    2    0    0  0.21870343927E+03 -0.43005231369E+03  0.36074914306E+03  0.60242521713E+03  0.10566000000E+00 0. -1.
<mgrwt>
<rscale>  1 0.90482101E+03</rscale>
<asrwt>0</asrwt>
<pdfrwt beam="2">  1       21 0.70782737E-01 0.11158191E+04</pdfrwt>
<pdfrwt beam="1">  1        4 0.21524484E+00 0.11158191E+04</pdfrwt>
<totfact> 0.71573498E+00</totfact>
</mgrwt>
</event>
<event>
 6    1  0.1431486E-005  0.1018810E+04  0.7818608E-02  0.9747598E-01
         21   -1    0    0  501  502  0.00000000000E+00  0.00000000000E+00  0.46560058812E+03  0.46560058812E+03  0.00000000000E+00 0.  1.
          4   -1    0    0  502    0 -0.00000000000E+00 -0.00000000000E+00 -0.84477628077E+03  0.84477628077E+03  0.00000000000E+00 0.  1.
    9000010    2    1    2  501    0 -0.15026460545E+03 -0.13974733645E+03 -0.20064282173E+03  0.10383791357E+04  0.99793031714E+03 0.  0.
        -13    1    3    3    0    0 -0.22280928118E+03 -0.29802416217E+03 -0.54068425525E+03  0.65635497412E+03  0.10566000000E+00 0.  1.
          4    1    3    3  501    0  0.72544675736E+02  0.15827682572E+03  0.34004143351E+03  0.38202416159E+03  0.00000000000E+00 0.  1.
         13    1    1    2    0    0  0.15026460545E+03  0.13974733645E+03 -0.17853287092E+03  0.27199773318E+03  0.10566000000E+00 0. -1.
<mgrwt>
<rscale>  1 0.68252170E+03</rscale>
<asrwt>0</asrwt>
<pdfrwt beam="1">  1       21 0.71630861E-01 0.10188099E+04</pdfrwt>
<pdfrwt beam="2">  1        4 0.12996558E+00 0.10188099E+04</pdfrwt>
<totfact> 0.29304930E+01</totfact>
</mgrwt>
</event>
<event>
 6    1  0.1431486E-005  0.1051380E+04  0.7818608E-02  0.9619598E-01
         21   -1    0    0  501  502  0.00000000000E+00  0.00000000000E+00  0.24286029054E+03  0.24286029054E+03  0.00000000000E+00 0.  1.
          4   -1    0    0  502    0 -0.00000000000E+00 -0.00000000000E+00 -0.19676106222E+04  0.19676106222E+04  0.00000000000E+00 0.  1.
    9000010    2    1    2  501    0  0.12806373733E+03  0.25712377030E+03 -0.10935807124E+04  0.15170099884E+04  0.10113790469E+04 0.  0.
        -13    1    3    3    0    0  0.78873432985E+02  0.62204592138E+03 -0.43720081039E+03  0.76439957254E+03  0.10566000000E+00 0.  1.
          4    1    3    3  501    0  0.49190304341E+02 -0.36492215107E+03 -0.65637990198E+03  0.75261041589E+03  0.00000000000E+00 0.  1.
         13    1    1    2    0    0 -0.12806373733E+03 -0.25712377030E+03 -0.63116961929E+03  0.69346092431E+03  0.10566000000E+00 0. -1.
<mgrwt>
<rscale>  1 0.76012523E+03</rscale>
<asrwt>0</asrwt>
<pdfrwt beam="1">  1       21 0.37363122E-01 0.10513803E+04</pdfrwt>
<pdfrwt beam="2">  1        4 0.30270932E+00 0.10513803E+04</pdfrwt>
<totfact> 0.82832863E+00</totfact>
</mgrwt>
</event>
<event>
 6    1  0.1431486E-005  0.1124997E+04  0.7818608E-02  0.9475599E-01
         21   -1    0    0  501  502  0.00000000000E+00  0.00000000000E+00  0.73294273125E+03  0.73294273125E+03  0.00000000000E+00 0.  1.
          4   -1    0    0  502    0 -0.00000000000E+00 -0.00000000000E+00 -0.82109741116E+03  0.82109741116E+03  0.00000000000E+00 0.  1.
    9000010    2    1    2  501    0 -0.37516329626E+03  0.91240410375E+02 -0.21950192707E+03  0.11462112299E+04  0.10566677701E+04 0.  0.
        -13    1    3    3    0    0 -0.79155578886E+02  0.15196732683E+03 -0.62071806910E+03  0.64393369734E+03  0.10566000000E+00 0.  1.
          4    1    3    3  501    0 -0.29600771737E+03 -0.60726916458E+02  0.40121614203E+03  0.50227753260E+03  0.00000000000E+00 0.  1.
         13    1    1    2    0    0  0.37516329626E+03 -0.91240410375E+02  0.13134724716E+03  0.40782891247E+03  0.10566000000E+00 0. -1.
<mgrwt>
<rscale>  1 0.86106971E+03</rscale>
<asrwt>0</asrwt>
<pdfrwt beam="1">  1       21 0.11276042E+00 0.11249974E+04</pdfrwt>
<pdfrwt beam="2">  1        4 0.12632268E+00 0.11249974E+04</pdfrwt>
<totfact> 0.10395468E+01</totfact>
</mgrwt>
</event>
<event>
 6    1  0.1431486E-005  0.1037681E+04  0.7818608E-02  0.9796488E-01
          4   -1    0    0  502    0 -0.00000000000E+00  0.00000000000E+00  0.14834840527E+04  0.14834840527E+04  0.00000000000E+00 0.  1.
         21   -1    0    0  501  502  0.00000000000E+00 -0.00000000000E+00 -0.30291330194E+03  0.30291330194E+03  0.00000000000E+00 0.  1.
    9000010    2    1    2  501    0 -0.91300090514E+02 -0.13773516201E+03  0.63547255916E+03  0.12168021203E+04  0.10244390392E+04 0.  0.
        -13    1    3    3    0    0 -0.52967258513E+03  0.62035209126E+02  0.45942180095E+03  0.70389616916E+03  0.10566000000E+00 0.  1.
          4    1    3    3  501    0  0.43837249461E+03 -0.19977037113E+03  0.17605075821E+03  0.51290595111E+03  0.00000000000E+00 0.  1.
         13    1    1    2    0    0  0.91300090514E+02  0.13773516201E+03  0.54509819162E+03  0.56959523440E+03  0.10566000000E+00 0. -1.
<mgrwt>
<rscale>  1 0.65551338E+03</rscale>
<asrwt>0</asrwt>
<pdfrwt beam="2">  1       21 0.46602047E-01 0.10376811E+04</pdfrwt>
<pdfrwt beam="1">  1        4 0.22822831E+00 0.10376811E+04</pdfrwt>
<totfact> 0.15069869E+01</totfact>
</mgrwt>
</event>
<event>
 6    1  0.1431486E-005  0.9679875E+03  0.7818608E-02  0.9761358E-01
          4   -1    0    0  502    0 -0.00000000000E+00  0.00000000000E+00  0.76504382143E+03  0.76504382143E+03  0.00000000000E+00 0.  1.
         21   -1    0    0  501  502  0.00000000000E+00 -0.00000000000E+00 -0.74221831703E+03  0.74221831703E+03  0.00000000000E+00 0.  1.
    9000010    2    1    2  501    0 -0.21395059626E+03 -0.80468604800E+02 -0.38339166685E+03  0.10411479299E+04  0.94061139044E+03 0.  0.
        -13    1    3    3    0    0  0.28583887478E+03 -0.24744705445E+03 -0.34663418231E+03  0.51292219157E+03  0.10566000000E+00 0.  1.
          4    1    3    3  501    0 -0.49978947104E+03  0.16697844965E+03 -0.36757484538E+02  0.52822573837E+03  0.00000000000E+00 0.  1.
         13    1    1    2    0    0  0.21395059626E+03  0.80468604800E+02  0.40621717125E+03  0.46611420852E+03  0.10566000000E+00 0. -1.
<mgrwt>
<rscale>  1 0.67478151E+03</rscale>
<asrwt>0</asrwt>
<pdfrwt beam="2">  1       21 0.11418743E+00 0.96798752E+03</pdfrwt>
<pdfrwt beam="1">  1        4 0.11769905E+00 0.96798752E+03</pdfrwt>
<totfact> 0.12246365E+01</totfact>
</mgrwt>
</event>
<event>
 6    1  0.1431486E-005  0.1029747E+04  0.7818608E-02  0.9681563E-01
          4   -1    0    0  502    0 -0.00000000000E+00  0.00000000000E+00  0.12533232751E+04  0.12533232751E+04  0.00000000000E+00 0.  1.
         21   -1    0    0  501  502  0.00000000000E+00 -0.00000000000E+00 -0.36053907819E+03  0.36053907819E+03  0.00000000000E+00 0.  1.
    9000010    2    1    2  501    0  0.11349985596E+03  0.22031459694E+03  0.48868863434E+03  0.11398222982E+04  0.99947863974E+03 0.  0.
        -13    1    3    3    0    0 -0.43042630463E+03  0.28912657231E+02  0.95312516505E+02  0.44179999144E+03  0.10566000000E+00 0.  1.
          4    1    3    3  501    0  0.54392616060E+03  0.19140193971E+03  0.39337611784E+03  0.69802230680E+03  0.00000000000E+00 0.  1.
         13    1    1    2    0    0 -0.11349985596E+03 -0.22031459694E+03  0.40409556254E+03  0.47404005501E+03  0.10566000000E+00 0. -1.
<mgrwt>
<rscale>  1 0.72125228E+03</rscale>
<asrwt>0</asrwt>
<pdfrwt beam="2">  1       21 0.55467551E-01 0.10297467E+04</pdfrwt>
<pdfrwt beam="1">  1        4 0.19281896E+00 0.10297467E+04</pdfrwt>
<totfact> 0.17559874E+01</totfact>
</mgrwt>
</event>
<event>
 6    1  0.1431486E-005  0.1006380E+04  0.7818608E-02  0.9923838E-01
          4   -1    0    0  502    0 -0.00000000000E+00  0.00000000000E+00  0.38193259750E+03  0.38193259750E+03  0.00000000000E+00 0.  1.
         21   -1    0    0  501  502  0.00000000000E+00 -0.00000000000E+00 -0.11244748291E+04  0.11244748291E+04  0.00000000000E+00 0.  1.
    9000010    2    1    2  501    0  0.38943923021E+02  0.11334818173E+03 -0.87083061755E+03  0.13308444449E+04  0.99921796051E+03 0.  0.
        -13    1    3    3    0    0 -0.38644515180E+03  0.28653543624E+03 -0.20726767400E+03  0.52383424040E+03  0.10566000000E+00 0.  1.
          4    1    3    3  501    0  0.42538907482E+03 -0.17318725451E+03 -0.66356294355E+03  0.80701020449E+03  0.00000000000E+00 0.  1.
         13    1    1    2    0    0 -0.38943923021E+02 -0.11334818173E+03  0.12828838589E+03  0.17556298175E+03  0.10566000000E+00 0. -1.
<mgrwt>
<rscale>  1 0.59119761E+03</rscale>
<asrwt>0</asrwt>
<pdfrwt beam="2">  1       21 0.17299613E+00 0.10063801E+04</pdfrwt>
<pdfrwt beam="1">  1        4 0.58758862E-01 0.10063801E+04</pdfrwt>
<totfact> 0.19646666E+01</totfact>
</mgrwt>
</event>
<event>
 6    1  0.1431486E-005  0.9817233E+03  0.7818608E-02  0.9983061E-01
         21   -1    0    0  501  502  0.00000000000E+00  0.00000000000E+00  0.32764894983E+03  0.32764894983E+03  0.00000000000E+00 0.  1.
          4   -1    0    0  502    0 -0.00000000000E+00 -0.00000000000E+00 -0.12832974354E+04  0.12832974354E+04  0.00000000000E+00 0.  1.
    9000010    2    1    2  501    0  0.16188858357E+02  0.10570410151E+03 -0.42523813635E+03  0.10698635949E+04  0.97588175666E+03 0.  0.
        -13    1    3    3    0    0 -0.32584698306E+03  0.36806585806E+03 -0.42520672865E+02  0.49341336729E+03  0.10566000000E+00 0.  1.
          4    1    3    3  501    0  0.34203584142E+03 -0.26236175655E+03 -0.38271746348E+03  0.57645022766E+03  0.00000000000E+00 0.  1.
         13    1    1    2    0    0 -0.16188858357E+02 -0.10570410151E+03 -0.53041034922E+03  0.54108279028E+03  0.10566000000E+00 0. -1.
<mgrwt>
<rscale>  1 0.56399268E+03</rscale>
<asrwt>0</asrwt>
<pdfrwt beam="1">  1       21 0.50407531E-01 0.98172330E+03</pdfrwt>
<pdfrwt beam="2">  1        4 0.19743037E+00 0.98172330E+03</pdfrwt>
<totfact> 0.20247763E+01</totfact>
</mgrwt>
</event>
<event>
 6    1  0.1431486E-005  0.1017368E+04  0.7818608E-02  0.9828940E-01
         21   -1    0    0  501  502  0.00000000000E+00  0.00000000000E+00  0.12629227880E+03  0.12629227880E+03  0.00000000000E+00 0.  1.
          4   -1    0    0  502    0 -0.00000000000E+00 -0.00000000000E+00 -0.27962018575E+04  0.27962018575E+04  0.00000000000E+00 0.  1.
    9000010    2    1    2  501    0  0.12247058050E+03 -0.99289332314E+02 -0.21381109890E+04  0.23678166031E+04  0.10050768380E+04 0.  0.
        -13    1    3    3    0    0 -0.19551129625E+03 -0.84373483639E+02 -0.20154542684E+04  0.20266720185E+04  0.10566000000E+00 0.  1.
          4    1    3    3  501    0  0.31798187675E+03 -0.14915848675E+02 -0.12265672061E+03  0.34114458459E+03  0.00000000000E+00 0.  1.
         13    1    1    2    0    0 -0.12247058050E+03  0.99289332314E+02 -0.53179858970E+03  0.55467753314E+03  0.10566000000E+00 0. -1.
<mgrwt>
<rscale>  1 0.63832294E+03</rscale>
<asrwt>0</asrwt>
<pdfrwt beam="1">  1       21 0.19429580E-01 0.10173676E+04</pdfrwt>
<pdfrwt beam="2">  1        4 0.43018493E+00 0.10173676E+04</pdfrwt>
<totfact> 0.43641420E+00</totfact>
</mgrwt>
</event>
<event>
 6    1  0.1431486E-005  0.1024850E+04  0.7818608E-02  0.9796568E-01
          4   -1    0    0  502    0 -0.00000000000E+00  0.00000000000E+00  0.91561162621E+03  0.91561162621E+03  0.00000000000E+00 0.  1.
         21   -1    0    0  501  502  0.00000000000E+00 -0.00000000000E+00 -0.41204592560E+03  0.41204592560E+03  0.00000000000E+00 0.  1.
    9000010    2    1    2  501    0 -0.14718442491E+03  0.88003208275E+02  0.31364088403E+03  0.10717683830E+04  0.10104004370E+04 0.  0.
        -13    1    3    3    0    0  0.23737439847E+03  0.62979308514E+02  0.56198824429E+03  0.61330563036E+03  0.10566000000E+00 0.  1.
          4    1    3    3  501    0 -0.38455882338E+03  0.25023899761E+02 -0.24834736027E+03  0.45846275263E+03  0.00000000000E+00 0.  1.
         13    1    1    2    0    0  0.14718442491E+03 -0.88003208275E+02  0.18992481658E+03  0.25588916882E+03  0.10566000000E+00 0. -1.
<mgrwt>
<rscale>  1 0.65547027E+03</rscale>
<asrwt>0</asrwt>
<pdfrwt beam="2">  1       21 0.63391681E-01 0.10248497E+04</pdfrwt>
<pdfrwt beam="1">  1        4 0.14086333E+00 0.10248497E+04</pdfrwt>
<totfact> 0.31377764E+01</totfact>
</mgrwt>
</event>
<event>
 6    1  0.1431486E-005  0.1120120E+04  0.7818608E-02  0.9391306E-01
          4   -1    0    0  502    0 -0.00000000000E+00  0.00000000000E+00  0.77625720526E+03  0.77625720526E+03  0.00000000000E+00 0.  1.
         21   -1    0    0  501  502  0.00000000000E+00 -0.00000000000E+00 -0.95316644492E+03  0.95316644492E+03  0.00000000000E+00 0. -1.
    9000010    2    1    2  501    0 -0.25961530650E+03 -0.45929604904E+03  0.11577174191E+03  0.11260869812E+04  0.98808695210E+03 0.  0.
        -13    1    3    3    0    0 -0.73386113104E+02  0.10441235094E+03  0.43408793619E+03  0.45245973096E+03  0.10566000000E+00 0.  1.
          4    1    3    3  501    0 -0.18622919340E+03 -0.56370839998E+03 -0.31831619428E+03  0.67362725021E+03  0.00000000000E+00 0.  1.
         13    1    1    2    0    0  0.25961530650E+03  0.45929604904E+03 -0.29268098157E+03  0.60333666901E+03  0.10566000000E+00 0. -1.
<mgrwt>
<rscale>  1 0.92794652E+03</rscale>
<asrwt>0</asrwt>
<pdfrwt beam="2">  1       21 0.14664099E+00 0.11201200E+04</pdfrwt>
<pdfrwt beam="1">  1        4 0.11942419E+00 0.11201200E+04</pdfrwt>
<totfact> 0.59653155E+00</totfact>
</mgrwt>
</event>
<event>
 6    1  0.1431486E-005  0.1006166E+04  0.7818608E-02  0.9923117E-01
          4   -1    0    0  502    0 -0.00000000000E+00  0.00000000000E+00  0.32854143761E+03  0.32854143761E+03  0.00000000000E+00 0.  1.
         21   -1    0    0  501  502  0.00000000000E+00 -0.00000000000E+00 -0.99836837807E+03  0.99836837807E+03  0.00000000000E+00 0.  1.
    9000010    2    1    2  501    0  0.20757106034E+02 -0.11839966869E+03 -0.66604971223E+03  0.12066450344E+04  0.99895979945E+03 0.  0.
        -13    1    3    3    0    0 -0.36135096612E+03  0.27774817967E+03 -0.29983077239E+03  0.54554291789E+03  0.10566000000E+00 0.  1.
          4    1    3    3  501    0  0.38210807216E+03 -0.39614784836E+03 -0.36621893985E+03  0.66110211652E+03  0.00000000000E+00 0.  1.
         13    1    1    2    0    0 -0.20757106035E+02  0.11839966869E+03 -0.37772282256E+01  0.12026478127E+03  0.10566000000E+00 0. -1.
<mgrwt>
<rscale>  1 0.59153884E+03</rscale>
<asrwt>0</asrwt>
<pdfrwt beam="2">  1       21 0.15359513E+00 0.10061660E+04</pdfrwt>
<pdfrwt beam="1">  1        4 0.50544837E-01 0.10061660E+04</pdfrwt>
<totfact> 0.38213191E+01</totfact>
</mgrwt>
</event>
<event>
 6    1  0.1431486E-005  0.1069458E+04  0.7818608E-02  0.9517512E-01
         21   -1    0    0  501  502  0.00000000000E+00  0.00000000000E+00  0.34260329297E+03  0.34260329297E+03  0.00000000000E+00 0. -1.
          4   -1    0    0  502    0 -0.00000000000E+00 -0.00000000000E+00 -0.18258189354E+04  0.18258189354E+04  0.00000000000E+00 0.  1.
    9000010    2    1    2  501    0  0.36972639680E+03  0.11794127364E+03 -0.14161230838E+04  0.17745832065E+04  0.99656069353E+03 0.  0.
        -13    1    3    3    0    0 -0.85517933965E+02  0.34876893856E+03 -0.11379877166E+04  0.11933017824E+04  0.10566000000E+00 0.  1.
          4    1    3    3  501    0  0.45524433077E+03 -0.23082766491E+03 -0.27813536724E+03  0.58128142418E+03  0.00000000000E+00 0.  1.
         13    1    1    2    0    0 -0.36972639680E+03 -0.11794127364E+03 -0.67092558593E+02  0.39383902182E+03  0.10566000000E+00 0. -1.
<mgrwt>
<rscale>  1 0.83004923E+03</rscale>
<asrwt>0</asrwt>
<pdfrwt beam="1">  1       21 0.52708200E-01 0.10694583E+04</pdfrwt>
<pdfrwt beam="2">  1        4 0.28089521E+00 0.10694583E+04</pdfrwt>
<totfact> 0.54217327E+00</totfact>
</mgrwt>
</event>
<event>
 6    1  0.1431486E-005  0.1057828E+04  0.7818608E-02  0.9557352E-01
         21   -1    0    0  501  502  0.00000000000E+00  0.00000000000E+00  0.12023535633E+04  0.12023535633E+04  0.00000000000E+00 0.  1.
          4   -1    0    0  502    0 -0.00000000000E+00 -0.00000000000E+00 -0.45116886549E+03  0.45116886549E+03  0.00000000000E+00 0.  1.
    9000010    2    1    2  501    0  0.34741923556E+03 -0.35538700871E+02  0.76267966011E+03  0.13041010931E+04  0.99851703674E+03 0.  0.
        -13    1    3    3    0    0 -0.16828769946E+02 -0.28172167552E+03  0.81394288012E+03  0.86148321702E+03  0.10566000000E+00 0.  1.
          4    1    3    3  501    0  0.36424800550E+03  0.24618297465E+03 -0.51263220004E+02  0.44261787610E+03  0.00000000000E+00 0.  1.
         13    1    1    2    0    0 -0.34741923556E+03  0.35538700871E+02 -0.11494962305E+02  0.34942133566E+03  0.10566000000E+00 0. -1.
<mgrwt>
<rscale>  1 0.80184379E+03</rscale>
<asrwt>0</asrwt>
<pdfrwt beam="1">  1       21 0.18497747E+00 0.10578277E+04</pdfrwt>
<pdfrwt beam="2">  1        4 0.69410595E-01 0.10578277E+04</pdfrwt>
<totfact> 0.11062939E+01</totfact>
</mgrwt>
</event>
<event>
 6    1  0.1431486E-005  0.1112230E+04  0.7818608E-02  0.9422736E-01
         21   -1    0    0  501  502  0.00000000000E+00  0.00000000000E+00  0.45534130917E+03  0.45534130917E+03  0.00000000000E+00 0.  1.
          4   -1    0    0  502    0 -0.00000000000E+00 -0.00000000000E+00 -0.20154712992E+04  0.20154712992E+04  0.00000000000E+00 0.  1.
    9000010    2    1    2  501    0  0.24965984397E+03 -0.41195928472E+03 -0.34630081135E+03  0.11648946262E+04  0.10025042385E+04 0.  0.
        -13    1    3    3    0    0  0.47271689806E+03 -0.53916010973E+03  0.20274332984E+02  0.71733252357E+03  0.10566000000E+00 0.  1.
          4    1    3    3  501    0 -0.22305705409E+03  0.12720082501E+03 -0.36657514433E+03  0.44756210262E+03  0.00000000000E+00 0.  1.
         13    1    1    2    0    0 -0.24965984397E+03  0.41195928472E+03 -0.12138291787E+04  0.13059179822E+04  0.10566000000E+00 0. -1.
<mgrwt>
<rscale>  1 0.90228011E+03</rscale>
<asrwt>0</asrwt>
<pdfrwt beam="1">  1       21 0.70052509E-01 0.11122298E+04</pdfrwt>
<pdfrwt beam="2">  1        4 0.31007251E+00 0.11122298E+04</pdfrwt>
<totfact> 0.18802084E+00</totfact>
</mgrwt>
</event>
<event>
 6    1  0.1431486E-005  0.1019455E+04  0.7818608E-02  0.9737368E-01
          4   -1    0    0  502    0 -0.00000000000E+00  0.00000000000E+00  0.77163713094E+03  0.77163713094E+03  0.00000000000E+00 0.  1.
         21   -1    0    0  501  502  0.00000000000E+00 -0.00000000000E+00 -0.54265480616E+03  0.54265480616E+03  0.00000000000E+00 0.  1.
    9000010    2    1    2  501    0 -0.20647018656E+03 -0.47656207556E+02  0.24396230428E+02  0.10197473170E+04  0.99719023382E+03 0.  0.
        -13    1    3    3    0    0 -0.37435227721E+03  0.35877216562E+03  0.18657071191E+03  0.55105874096E+03  0.10566000000E+00 0.  1.
          4    1    3    3  501    0  0.16788209065E+03 -0.40642837317E+03 -0.16217448148E+03  0.46868857605E+03  0.00000000000E+00 0.  1.
         13    1    1    2    0    0  0.20647018656E+03  0.47656207556E+02  0.20458609435E+03  0.29454462009E+03  0.10566000000E+00 0. -1.
<mgrwt>
<rscale>  1 0.68834834E+03</rscale>
<asrwt>0</asrwt>
<pdfrwt beam="2">  1       21 0.83485354E-01 0.10194554E+04</pdfrwt>
<pdfrwt beam="1">  1        4 0.11871341E+00 0.10194554E+04</pdfrwt>
<totfact> 0.25791488E+01</totfact>
</mgrwt>
</event>
<event>
 6    1  0.1431486E-005  0.9541701E+03  0.7818608E-02  0.1003597E+00
         21   -1    0    0  501  502  0.00000000000E+00  0.00000000000E+00  0.26352054469E+03  0.26352054469E+03  0.00000000000E+00 0.  1.
          4   -1    0    0  502    0 -0.00000000000E+00 -0.00000000000E+00 -0.12419455839E+04  0.12419455839E+04  0.00000000000E+00 0.  1.
    9000010    2    1    2  501    0 -0.12317409558E+02  0.97842566520E+02 -0.10215294791E+04  0.13978422915E+04  0.94906043473E+03 0.  0.
        -13    1    3    3    0    0  0.23720979514E+03  0.40563058330E+03 -0.25419853186E+03  0.53424859549E+03  0.10566000000E+00 0.  1.
          4    1    3    3  501    0 -0.24952720470E+03 -0.30778801678E+03 -0.76733094723E+03  0.86359369598E+03  0.00000000000E+00 0.  1.
         13    1    1    2    0    0  0.12317409558E+02 -0.97842566520E+02  0.43104439918E+02  0.10762383707E+03  0.10566000000E+00 0. -1.
<mgrwt>
<rscale>  1 0.54100968E+03</rscale>
<asrwt>0</asrwt>
<pdfrwt beam="1">  1       21 0.40541622E-01 0.95417011E+03</pdfrwt>
<pdfrwt beam="2">  1        4 0.19106855E+00 0.95417011E+03</pdfrwt>
<totfact> 0.35618766E+01</totfact>
</mgrwt>
</event>
<event>
 6    1  0.1431486E-005  0.1009068E+04  0.7818608E-02  0.1004177E+00
         21   -1    0    0  501  502  0.00000000000E+00  0.00000000000E+00  0.70973303579E+03  0.70973303579E+03  0.00000000000E+00 0.  1.
          4   -1    0    0  502    0 -0.00000000000E+00 -0.00000000000E+00 -0.62829164764E+03  0.62829164764E+03  0.00000000000E+00 0.  1.
    9000010    2    1    2  501    0 -0.73658729921E+02 -0.35759920847E+02  0.34157185560E+03  0.10653119194E+04  0.10057404101E+04 0.  0.
        -13    1    3    3    0    0  0.22870788224E+03 -0.44203773876E+03  0.22186194319E+03  0.54491044299E+03  0.10566000000E+00 0.  1.
          4    1    3    3  501    0 -0.30236661216E+03  0.40627781791E+03  0.11970991241E+03  0.52040147637E+03  0.00000000000E+00 0.  1.
         13    1    1    2    0    0  0.73658729921E+02  0.35759920847E+02 -0.26013046744E+03  0.27271276408E+03  0.10566000000E+00 0. -1.
<mgrwt>
<rscale>  1 0.53856141E+03</rscale>
<asrwt>0</asrwt>
<pdfrwt beam="1">  1       21 0.10918970E+00 0.10090680E+04</pdfrwt>
<pdfrwt beam="2">  1        4 0.96660253E-01 0.10090680E+04</pdfrwt>
<totfact> 0.22107659E+01</totfact>
</mgrwt>
</event>
<event>
 6    1  0.1431486E-005  0.1020635E+04  0.7818608E-02  0.9877570E-01
          4   -1    0    0  502    0 -0.00000000000E+00  0.00000000000E+00  0.59259744635E+03  0.59259744635E+03  0.00000000000E+00 0.  1.
         21   -1    0    0  501  502  0.00000000000E+00 -0.00000000000E+00 -0.84207402187E+03  0.84207402187E+03  0.00000000000E+00 0.  1.
    9000010    2    1    2  501    0 -0.96061340719E+02  0.92472062434E+02 -0.51078234333E+03  0.11413123385E+04  0.10118875374E+04 0.  0.
        -13    1    3    3    0    0  0.19682904364E+03  0.48465614996E+03 -0.19223334070E+03  0.55730326085E+03  0.10566000000E+00 0.  1.
          4    1    3    3  501    0 -0.29289038436E+03 -0.39218408752E+03 -0.31854900263E+03  0.58400907770E+03  0.00000000000E+00 0.  1.
         13    1    1    2    0    0  0.96061340719E+02 -0.92472062434E+02  0.26130576781E+03  0.29335912968E+03  0.10566000000E+00 0. -1.
<mgrwt>
<rscale>  1 0.61360769E+03</rscale>
<asrwt>0</asrwt>
<pdfrwt beam="2">  1       21 0.12954985E+00 0.10206347E+04</pdfrwt>
<pdfrwt beam="1">  1        4 0.91168838E-01 0.10206347E+04</pdfrwt>
<totfact> 0.16294536E+01</totfact>
</mgrwt>
</event>
<event>
 6    1  0.1431486E-005  0.1147816E+04  0.7818608E-02  0.9403944E-01
         21   -1    0    0  501  502  0.00000000000E+00  0.00000000000E+00  0.93267776284E+03  0.93267776284E+03  0.00000000000E+00 0. -1.
          4   -1    0    0  502    0 -0.00000000000E+00 -0.00000000000E+00 -0.11347833475E+04  0.11347833475E+04  0.00000000000E+00 0.  1.
    9000010    2    1    2  501    0 -0.69788427052E+02  0.46341752461E+03  0.47647312176E+03  0.12427822040E+04  0.10477856384E+04 0.  0.
        -13    1    3    3    0    0 -0.36028164528E+03  0.10167988081E+03 -0.19851111306E+03  0.42373144238E+03  0.10566000000E+00 0.  1.
          4    1    3    3  501    0  0.29049321823E+03  0.36173764380E+03  0.67498423482E+03  0.81905076158E+03  0.00000000000E+00 0.  1.
         13    1    1    2    0    0  0.69788427052E+02 -0.46341752461E+03 -0.67857870638E+03  0.82467890635E+03  0.10566000000E+00 0. -1.
<mgrwt>
<rscale>  1 0.91751814E+03</rscale>
<asrwt>0</asrwt>
<pdfrwt beam="1">  1       21 0.14348889E+00 0.11478157E+04</pdfrwt>
<pdfrwt beam="2">  1        4 0.17458205E+00 0.11478157E+04</pdfrwt>
<totfact> 0.22904105E+00</totfact>
</mgrwt>
</event>
<event>
 6    1  0.1431486E-005  0.1194634E+04  0.7818608E-02  0.9286631E-01
          4   -1    0    0  502    0 -0.00000000000E+00  0.00000000000E+00  0.68941489746E+03  0.68941489746E+03  0.00000000000E+00 0.  1.
         21   -1    0    0  501  502  0.00000000000E+00 -0.00000000000E+00 -0.12739876405E+04  0.12739876405E+04  0.00000000000E+00 0.  1.
    9000010    2    1    2  501    0  0.41161341177E+03  0.48413211101E+03 -0.57985759688E+03  0.13279249653E+04  0.10116028762E+04 0.  0.
        -13    1    3    3    0    0 -0.55837180998E+02 -0.22680267906E+03 -0.39242701785E+03  0.45667956108E+03  0.10566000000E+00 0.  1.
          4    1    3    3  501    0  0.46745059276E+03  0.71093479006E+03 -0.18743057903E+03  0.87124540421E+03  0.00000000000E+00 0.  1.
         13    1    1    2    0    0 -0.41161341177E+03 -0.48413211101E+03 -0.47151461959E+01  0.63547757271E+03  0.10566000000E+00 0. -1.
<mgrwt>
<rscale>  1 0.10202302E+04</rscale>
<asrwt>0</asrwt>
<pdfrwt beam="2">  1       21 0.19599810E+00 0.11946338E+04</pdfrwt>
<pdfrwt beam="1">  1        4 0.10606383E+00 0.11946338E+04</pdfrwt>
<totfact> 0.33732047E+00</totfact>
</mgrwt>
</event>
<event>
 6    1  0.1431486E-005  0.9902597E+03  0.7818608E-02  0.9988405E-01
          4   -1    0    0  502    0 -0.00000000000E+00  0.00000000000E+00  0.42122013156E+03  0.42122013156E+03  0.00000000000E+00 0.  1.
         21   -1    0    0  501  502  0.00000000000E+00 -0.00000000000E+00 -0.89528254742E+03  0.89528254742E+03  0.00000000000E+00 0.  1.
    9000010    2    1    2  501    0  0.85080374536E+02 -0.57072116848E+02 -0.59713665258E+03  0.11563678122E+04  0.98494590642E+03 0.  0.
        -13    1    3    3    0    0  0.28143028382E+02  0.43776246770E+03 -0.46874096226E+03  0.64198606607E+03  0.10566000000E+00 0.  1.
          4    1    3    3  501    0  0.56937346154E+02 -0.49483458454E+03 -0.12839569033E+03  0.51438174612E+03  0.00000000000E+00 0.  1.
         13    1    1    2    0    0 -0.85080374536E+02  0.57072116848E+02  0.12307423672E+03  0.16013486678E+03  0.10566000000E+00 0. -1.
<mgrwt>
<rscale>  1 0.56161583E+03</rscale>
<asrwt>0</asrwt>
<pdfrwt beam="2">  1       21 0.13773577E+00 0.99025973E+03</pdfrwt>
<pdfrwt beam="1">  1        4 0.64803098E-01 0.99025973E+03</pdfrwt>
<totfact> 0.30225752E+01</totfact>
</mgrwt>
</event>
<event>
 6    1  0.1431486E-005  0.1029398E+04  0.7818608E-02  0.9687262E-01
          4   -1    0    0  502    0 -0.00000000000E+00  0.00000000000E+00  0.54685815648E+03  0.54685815648E+03  0.00000000000E+00 0.  1.
         21   -1    0    0  501  502  0.00000000000E+00 -0.00000000000E+00 -0.74598580723E+03  0.74598580723E+03  0.00000000000E+00 0.  1.
    9000010    2    1    2  501    0 -0.24336193237E+03 -0.21938825364E+01 -0.20402753089E+03  0.10494227994E+04  0.10002155444E+04 0.  0.
        -13    1    3    3    0    0  0.21257581753E+03  0.16069762207E+03  0.26465416771E+03  0.37557162245E+03  0.10566000000E+00 0.  1.
          4    1    3    3  501    0 -0.45593774990E+03 -0.16289150461E+03 -0.46868169860E+03  0.67385117694E+03  0.00000000000E+00 0.  1.
         13    1    1    2    0    0  0.24336193237E+03  0.21938825364E+01  0.48998801378E+01  0.24342116432E+03  0.10566000000E+00 0. -1.
<mgrwt>
<rscale>  1 0.71780286E+03</rscale>
<asrwt>0</asrwt>
<pdfrwt beam="2">  1       21 0.11476705E+00 0.10293984E+04</pdfrwt>
<pdfrwt beam="1">  1        4 0.84132024E-01 0.10293984E+04</pdfrwt>
<totfact> 0.26954641E+01</totfact>
</mgrwt>
</event>
<event>
 6    1  0.1431486E-005  0.1014536E+04  0.7818608E-02  0.9802897E-01
          4   -1    0    0  502    0 -0.00000000000E+00  0.00000000000E+00  0.24614328383E+03  0.24614328383E+03  0.00000000000E+00 0.  1.
         21   -1    0    0  501  502  0.00000000000E+00 -0.00000000000E+00 -0.16918583778E+04  0.16918583778E+04  0.00000000000E+00 0.  1.
    9000010    2    1    2  501    0 -0.83900494265E+02 -0.15144667886E+03 -0.14441080576E+04  0.17648601496E+04  0.99965387815E+03 0.  0.
        -13    1    3    3    0    0 -0.66126306266E+02 -0.53467916032E+03 -0.11855448235E+04  0.13022177362E+04  0.10566000000E+00 0.  1.
          4    1    3    3  501    0 -0.17774187999E+02  0.38323248146E+03 -0.25856323408E+03  0.46264241334E+03  0.00000000000E+00 0.  1.
         13    1    1    2    0    0  0.83900494265E+02  0.15144667886E+03 -0.16070364092E+01  0.17314151209E+03  0.10566000000E+00 0. -1.
<mgrwt>
<rscale>  1 0.65207300E+03</rscale>
<asrwt>0</asrwt>
<pdfrwt beam="2">  1       21 0.26028589E+00 0.10145360E+04</pdfrwt>
<pdfrwt beam="1">  1        4 0.37868199E-01 0.10145360E+04</pdfrwt>
<totfact> 0.12754839E+01</totfact>
</mgrwt>
</event>
<event>
 6    1  0.1431486E-005  0.1069196E+04  0.7818608E-02  0.9551108E-01
         21   -1    0    0  501  502  0.00000000000E+00  0.00000000000E+00  0.37986641544E+03  0.37986641544E+03  0.00000000000E+00 0.  1.
          4   -1    0    0  502    0 -0.00000000000E+00 -0.00000000000E+00 -0.13669796777E+04  0.13669796777E+04  0.00000000000E+00 0.  1.
    9000010    2    1    2  501    0  0.21543518319E+03 -0.27022775515E+03 -0.59285662540E+03  0.12225621389E+04  0.10118022768E+04 0.  0.
        -13    1    3    3    0    0  0.28835016118E+03 -0.61679864975E+03 -0.23815155300E+03  0.72132001438E+03  0.10566000000E+00 0.  1.
          4    1    3    3  501    0 -0.72914977993E+02  0.34657089460E+03 -0.35470507241E+03  0.50124212452E+03  0.00000000000E+00 0.  1.
         13    1    1    2    0    0 -0.21543518319E+03  0.27022775515E+03 -0.39425663688E+03  0.52428395426E+03  0.10566000000E+00 0. -1.
<mgrwt>
<rscale>  1 0.80618458E+03</rscale>
<asrwt>0</asrwt>
<pdfrwt beam="1">  1       21 0.58440987E-01 0.10691956E+04</pdfrwt>
<pdfrwt beam="2">  1        4 0.21030457E+00 0.10691956E+04</pdfrwt>
<totfact> 0.11941580E+01</totfact>
</mgrwt>
</event>
<event>
 6    1  0.1431486E-005  0.1057541E+04  0.7818608E-02  0.9556196E-01
          4   -1    0    0  502    0 -0.00000000000E+00  0.00000000000E+00  0.12017351649E+04  0.12017351649E+04  0.00000000000E+00 0.  1.
         21   -1    0    0  501  502  0.00000000000E+00 -0.00000000000E+00 -0.41321789855E+03  0.41321789855E+03  0.00000000000E+00 0. -1.
    9000010    2    1    2  501    0 -0.23641046003E+03  0.25932866640E+03  0.61690877288E+03  0.12243244047E+04  0.99762345154E+03 0.  0.
        -13    1    3    3    0    0  0.35915029127E+03  0.28888716758E+03  0.25380834551E+03  0.52617812072E+03  0.10566000000E+00 0.  1.
          4    1    3    3  501    0 -0.59556075130E+03 -0.29558501187E+02  0.36310042737E+03  0.69814628398E+03  0.00000000000E+00 0.  1.
         13    1    1    2    0    0  0.23641046003E+03 -0.25932866640E+03  0.17160849343E+03  0.39062865871E+03  0.10566000000E+00 0. -1.
<mgrwt>
<rscale>  1 0.80264507E+03</rscale>
<asrwt>0</asrwt>
<pdfrwt beam="2">  1       21 0.63571985E-01 0.10575414E+04</pdfrwt>
<pdfrwt beam="1">  1        4 0.18488233E+00 0.10575414E+04</pdfrwt>
<totfact> 0.14635984E+01</totfact>
</mgrwt>
</event>
<event>
 6    1  0.1431486E-005  0.1152360E+04  0.7818608E-02  0.9377176E-01
         21   -1    0    0  501  502  0.00000000000E+00  0.00000000000E+00  0.15753496308E+04  0.15753496308E+04  0.00000000000E+00 0. -1.
          4   -1    0    0  502    0 -0.00000000000E+00 -0.00000000000E+00 -0.44208424216E+03  0.44208424216E+03  0.00000000000E+00 0.  1.
    9000010    2    1    2  501    0 -0.13096553030E+03 -0.49261908709E+03  0.69892652301E+03  0.13477505176E+04  0.10334929308E+04 0.  0.
        -13    1    3    3    0    0 -0.27292726138E+03 -0.23680883278E+03 -0.19258728052E+03  0.40946011414E+03  0.10566000000E+00 0.  1.
          4    1    3    3  501    0  0.14196173109E+03 -0.25581025431E+03  0.89151380353E+03  0.93829040344E+03  0.00000000000E+00 0.  1.
         13    1    1    2    0    0  0.13096553030E+03  0.49261908709E+03  0.43433886559E+03  0.66968335534E+03  0.10566000000E+00 0. -1.
<mgrwt>
<rscale>  1 0.93978037E+03</rscale>
<asrwt>0</asrwt>
<pdfrwt beam="1">  1       21 0.24236148E+00 0.11523598E+04</pdfrwt>
<pdfrwt beam="2">  1        4 0.68012961E-01 0.11523598E+04</pdfrwt>
<totfact> 0.46953484E+00</totfact>
</mgrwt>
</event>
<event>
 6    1  0.1431486E-005  0.1025386E+04  0.7818608E-02  0.9687000E-01
          4   -1    0    0  502    0 -0.00000000000E+00  0.00000000000E+00  0.50798731455E+03  0.50798731455E+03  0.00000000000E+00 0.  1.
         21   -1    0    0  501  502  0.00000000000E+00 -0.00000000000E+00 -0.11423445846E+04  0.11423445846E+04  0.00000000000E+00 0.  1.
    9000010    2    1    2  501    0 -0.40348170880E+02 -0.24313126822E+03 -0.84299279565E+03  0.13274238903E+04  0.99532735453E+03 0.  0.
        -13    1    3    3    0    0 -0.14500568445E+03 -0.56841273362E+03 -0.78635632878E+03  0.98105859726E+03  0.10566000000E+00 0.  1.
          4    1    3    3  501    0  0.10465751357E+03  0.32528146540E+03 -0.56636466865E+02  0.34636529309E+03  0.00000000000E+00 0.  1.
         13    1    1    2    0    0  0.40348170880E+02  0.24313126822E+03  0.20863552556E+03  0.32290800884E+03  0.10566000000E+00 0. -1.
<mgrwt>
<rscale>  1 0.71796081E+03</rscale>
<asrwt>0</asrwt>
<pdfrwt beam="2">  1       21 0.17574532E+00 0.10253864E+04</pdfrwt>
<pdfrwt beam="1">  1        4 0.78151895E-01 0.10253864E+04</pdfrwt>
<totfact> 0.99100347E+00</totfact>
</mgrwt>
</event>
<event>
 6    1  0.1431486E-005  0.1212910E+04  0.7818608E-02  0.9255130E-01
          4   -1    0    0  502    0 -0.00000000000E+00  0.00000000000E+00  0.13698333740E+04  0.13698333740E+04  0.00000000000E+00 0.  1.
         21   -1    0    0  501  502  0.00000000000E+00 -0.00000000000E+00 -0.93912167526E+03  0.93912167526E+03  0.00000000000E+00 0.  1.
    9000010    2    1    2  501    0  0.60149361435E+03  0.32088382171E+03 -0.35973456611E+03  0.12651321218E+04  0.10031895795E+04 0.  0.
        -13    1    3    3    0    0 -0.51106241856E+02  0.56585532698E+02 -0.53431089550E+03  0.53972392451E+03  0.10566000000E+00 0.  1.
          4    1    3    3  501    0  0.65259985621E+03  0.26429828901E+03  0.17457632939E+03  0.72540819728E+03  0.00000000000E+00 0.  1.
         13    1    1    2    0    0 -0.60149361435E+03 -0.32088382171E+03  0.79044626486E+03  0.10438229275E+04  0.10566000000E+00 0. -1.
<mgrwt>
<rscale>  1 0.10502075E+04</rscale>
<asrwt>0</asrwt>
<pdfrwt beam="2">  1       21 0.14448026E+00 0.12129099E+04</pdfrwt>
<pdfrwt beam="1">  1        4 0.21074360E+00 0.12129099E+04</pdfrwt>
<totfact> 0.12666922E+00</totfact>
</mgrwt>
</event>
<event>
 6    1  0.1431486E-005  0.1047941E+04  0.7818608E-02  0.9575794E-01
         21   -1    0    0  501  502  0.00000000000E+00  0.00000000000E+00  0.77548794465E+03  0.77548794465E+03  0.00000000000E+00 0.  1.
          4   -1    0    0  502    0 -0.00000000000E+00 -0.00000000000E+00 -0.68628077575E+03  0.68628077575E+03  0.00000000000E+00 0.  1.
    9000010    2    1    2  501    0  0.33267510727E+03 -0.54254701831E+02  0.26596418087E+03  0.10811647896E+04  0.99225201294E+03 0.  0.
        -13    1    3    3    0    0 -0.48656536695E+02  0.75274753826E+02  0.56971853812E+03  0.57672607967E+03  0.10566000000E+00 0.  1.
          4    1    3    3  501    0  0.38133164397E+03 -0.12952945566E+03 -0.30375435725E+03  0.50443870998E+03  0.00000000000E+00 0.  1.
         13    1    1    2    0    0 -0.33267510727E+03  0.54254701831E+02 -0.17675701197E+03  0.38060393077E+03  0.10566000000E+00 0. -1.
<mgrwt>
<rscale>  1 0.78919207E+03</rscale>
<asrwt>0</asrwt>
<pdfrwt beam="1">  1       21 0.11930584E+00 0.10479410E+04</pdfrwt>
<pdfrwt beam="2">  1        4 0.10558166E+00 0.10479410E+04</pdfrwt>
<totfact> 0.14181537E+01</totfact>
</mgrwt>
</event>
<event>
 6    1  0.1431486E-005  0.9993142E+03  0.7818608E-02  0.1010227E+00
         21   -1    0    0  501  502  0.00000000000E+00  0.00000000000E+00  0.21025730392E+03  0.21025730392E+03  0.00000000000E+00 0.  1.
          4   -1    0    0  502    0 -0.00000000000E+00 -0.00000000000E+00 -0.14281936934E+04  0.14281936934E+04  0.00000000000E+00 0.  1.
    9000010    2    1    2  501    0  0.66272008363E+02 -0.22099379070E+02 -0.10173781855E+04  0.14260740541E+04  0.99686933642E+03 0.  0.
        -13    1    3    3    0    0 -0.22944190620E+03  0.13174496915E+03 -0.10577151583E+04  0.10903034864E+04  0.10566000000E+00 0.  1.
          4    1    3    3  501    0  0.29571391457E+03 -0.15384434822E+03  0.40336972848E+02  0.33577056769E+03  0.00000000000E+00 0.  1.
         13    1    1    2    0    0 -0.66272008363E+02  0.22099379070E+02 -0.20055820401E+03  0.21237694321E+03  0.10566000000E+00 0. -1.
<mgrwt>
<rscale>  1 0.51384622E+03</rscale>
<asrwt>0</asrwt>
<pdfrwt beam="1">  1       21 0.32347279E-01 0.99931418E+03</pdfrwt>
<pdfrwt beam="2">  1        4 0.21972209E+00 0.99931418E+03</pdfrwt>
<totfact> 0.36694422E+01</totfact>
</mgrwt>
</event>
<event>
 6    1  0.1431486E-005  0.1052528E+04  0.7818608E-02  0.9661623E-01
         21   -1    0    0  501  502  0.00000000000E+00  0.00000000000E+00  0.21117185786E+04  0.21117185786E+04  0.00000000000E+00 0.  1.
          4   -1    0    0  502    0 -0.00000000000E+00 -0.00000000000E+00 -0.54746942721E+03  0.54746942721E+03  0.00000000000E+00 0.  1.
    9000010    2    1    2  501    0 -0.19075022170E+03 -0.15885485507E+03  0.19410014946E+04  0.22080086055E+04  0.10228365890E+04 0.  0.
        -13    1    3    3    0    0  0.13984023283E+03 -0.41748444000E+03  0.16223142353E+04  0.16809973342E+04  0.10566000000E+00 0.  1.
          4    1    3    3  501    0 -0.33059045453E+03  0.25862958493E+03  0.31868725928E+03  0.52701127128E+03  0.00000000000E+00 0.  1.
         13    1    1    2    0    0  0.19075022170E+03  0.15885485507E+03 -0.37675234316E+03  0.45117940035E+03  0.10566000000E+00 0. -1.
<mgrwt>
<rscale>  1 0.73348446E+03</rscale>
<asrwt>0</asrwt>
<pdfrwt beam="1">  1       21 0.32487978E+00 0.10525280E+04</pdfrwt>
<pdfrwt beam="2">  1        4 0.84226067E-01 0.10525280E+04</pdfrwt>
<totfact> 0.88917128E-01</totfact>
</mgrwt>
</event>
<event>
 6    1  0.1431486E-005  0.9769949E+03  0.7818608E-02  0.9763851E-01
         21   -1    0    0  501  502  0.00000000000E+00  0.00000000000E+00  0.20616655549E+03  0.20616655549E+03  0.00000000000E+00 0.  1.
          4   -1    0    0  502    0 -0.00000000000E+00 -0.00000000000E+00 -0.18898876751E+04  0.18898876751E+04  0.00000000000E+00 0.  1.
    9000010    2    1    2  501    0 -0.20310326262E+03  0.85823773567E+02 -0.10955166899E+04  0.14678813900E+04  0.95178900066E+03 0.  0.
        -13    1    3    3    0    0  0.19586934551E+03 -0.29597267056E+03 -0.17811947835E+03  0.39710349024E+03  0.10566000000E+00 0.  1.
          4    1    3    3  501    0 -0.39897260813E+03  0.38179644412E+03 -0.91739721155E+03  0.10707778997E+04  0.00000000000E+00 0.  1.
         13    1    1    2    0    0  0.20310326262E+03 -0.85823773567E+02 -0.58820442970E+03  0.62817284061E+03  0.10566000000E+00 0. -1.
<mgrwt>
<rscale>  1 0.67339108E+03</rscale>
<asrwt>0</asrwt>
<pdfrwt beam="1">  1       21 0.31717932E-01 0.97699486E+03</pdfrwt>
<pdfrwt beam="2">  1        4 0.29075195E+00 0.97699486E+03</pdfrwt>
<totfact> 0.13875582E+01</totfact>
</mgrwt>
</event>
<event>
 6    1  0.1431486E-005  0.1078849E+04  0.7818608E-02  0.9506843E-01
         21   -1    0    0  501  502  0.00000000000E+00  0.00000000000E+00  0.42475200455E+03  0.42475200455E+03  0.00000000000E+00 0.  1.
          4   -1    0    0  502    0 -0.00000000000E+00 -0.00000000000E+00 -0.16888465939E+04  0.16888465939E+04  0.00000000000E+00 0.  1.
    9000010    2    1    2  501    0  0.25417823523E+02 -0.39155309835E+03 -0.37567172043E+03  0.11423853882E+04  0.10049652925E+04 0.  0.
        -13    1    3    3    0    0 -0.11388400261E+02 -0.72699213728E+03 -0.34125495705E+03  0.80318255721E+03  0.10566000000E+00 0.  1.
          4    1    3    3  501    0  0.36806223784E+02  0.33543903894E+03 -0.34416763384E+02  0.33920283099E+03  0.00000000000E+00 0.  1.
         13    1    1    2    0    0 -0.25417823523E+02  0.39155309835E+03 -0.88842286894E+03  0.97121321027E+03  0.10566000000E+00 0. -1.
<mgrwt>
<rscale>  1 0.83781175E+03</rscale>
<asrwt>0</asrwt>
<pdfrwt beam="1">  1       21 0.65346463E-01 0.10788490E+04</pdfrwt>
<pdfrwt beam="2">  1        4 0.25982255E+00 0.10788490E+04</pdfrwt>
<totfact> 0.45288686E+00</totfact>
</mgrwt>
</event>
<event>
 6    1  0.1431486E-005  0.1041968E+04  0.7818608E-02  0.9547871E-01
          4   -1    0    0  502    0 -0.00000000000E+00  0.00000000000E+00  0.12218432967E+04  0.12218432967E+04  0.00000000000E+00 0.  1.
         21   -1    0    0  501  502  0.00000000000E+00 -0.00000000000E+00 -0.43126634783E+03  0.43126634783E+03  0.00000000000E+00 0.  1.
    9000010    2    1    2  501    0 -0.26711299640E+03 -0.26690713377E+03  0.41814826010E+03  0.11227400467E+04  0.97113772154E+03 0.  0.
        -13    1    3    3    0    0  0.31298404863E+03  0.81391994789E+02 -0.72902042573E+01  0.32347616567E+03  0.10566000000E+00 0.  1.
          4    1    3    3  501    0 -0.58009704503E+03 -0.34829912856E+03  0.42543846435E+03  0.79926388105E+03  0.00000000000E+00 0.  1.
         13    1    1    2    0    0  0.26711299640E+03  0.26690713377E+03  0.37242868879E+03  0.53036959783E+03  0.10566000000E+00 0. -1.
<mgrwt>
<rscale>  1 0.80844680E+03</rscale>
<asrwt>0</asrwt>
<pdfrwt beam="2">  1       21 0.66348669E-01 0.10419680E+04</pdfrwt>
<pdfrwt beam="1">  1        4 0.18797589E+00 0.10419680E+04</pdfrwt>
<totfact> 0.12674143E+01</totfact>
</mgrwt>
</event>
<event>
 6    1  0.1431486E-005  0.1216410E+04  0.7818608E-02  0.9237706E-01
          4   -1    0    0  502    0 -0.00000000000E+00  0.00000000000E+00  0.10259272687E+04  0.10259272687E+04  0.00000000000E+00 0.  1.
         21   -1    0    0  501  502  0.00000000000E+00 -0.00000000000E+00 -0.91665371015E+03  0.91665371015E+03  0.00000000000E+00 0. -1.
    9000010    2    1    2  501    0  0.45609157295E+03 -0.55819829552E+03  0.11388971081E+03  0.12217299679E+04  0.97982058975E+03 0.  0.
        -13    1    3    3    0    0  0.31564049627E+02 -0.26683445008E+03  0.50708368510E+03  0.57387349463E+03  0.10566000000E+00 0.  1.
          4    1    3    3  501    0  0.42452752332E+03 -0.29136384543E+03 -0.39319397429E+03  0.64785647323E+03  0.00000000000E+00 0.  1.
         13    1    1    2    0    0 -0.45609157295E+03  0.55819829552E+03 -0.46161522565E+01  0.72085101100E+03  0.10566000000E+00 0. -1.
<mgrwt>
<rscale>  1 0.10672574E+04</rscale>
<asrwt>0</asrwt>
<pdfrwt beam="2">  1       21 0.14102365E+00 0.12164100E+04</pdfrwt>
<pdfrwt beam="1">  1        4 0.15783497E+00 0.12164100E+04</pdfrwt>
<totfact> 0.31603644E+00</totfact>
</mgrwt>
</event>
<event>
 6    1  0.1431486E-005  0.1086682E+04  0.7818608E-02  0.9438584E-01
         21   -1    0    0  501  502  0.00000000000E+00  0.00000000000E+00  0.12024492484E+04  0.12024492484E+04  0.00000000000E+00 0. -1.
          4   -1    0    0  502    0 -0.00000000000E+00 -0.00000000000E+00 -0.51611870306E+03  0.51611870306E+03  0.00000000000E+00 0.  1.
    9000010    2    1    2  501    0  0.10162399225E+03 -0.47752314925E+03  0.45022670614E+03  0.11762573136E+04  0.97083540677E+03 0.  0.
        -13    1    3    3    0    0 -0.40566331348E+03 -0.53613669122E+02  0.27274107721E+03  0.49175690721E+03  0.10566000000E+00 0.  1.
          4    1    3    3  501    0  0.50728730573E+03 -0.42390948013E+03  0.17748562893E+03  0.68450040641E+03  0.00000000000E+00 0.  1.
         13    1    1    2    0    0 -0.10162399225E+03  0.47752314925E+03  0.23610383920E+03  0.54231063785E+03  0.10566000000E+00 0. -1.
<mgrwt>
<rscale>  1 0.88967225E+03</rscale>
<asrwt>0</asrwt>
<pdfrwt beam="1">  1       21 0.18499219E+00 0.10866817E+04</pdfrwt>
<pdfrwt beam="2">  1        4 0.79402878E-01 0.10866817E+04</pdfrwt>
<totfact> 0.81251118E+00</totfact>
</mgrwt>
</event>
<event>
 6    1  0.1431486E-005  0.1078699E+04  0.7818608E-02  0.9556740E-01
         21   -1    0    0  501  502  0.00000000000E+00  0.00000000000E+00  0.58946905218E+03  0.58946905218E+03  0.00000000000E+00 0.  1.
          4   -1    0    0  502    0 -0.00000000000E+00 -0.00000000000E+00 -0.84184066692E+03  0.84184066692E+03  0.00000000000E+00 0.  1.
    9000010    2    1    2  501    0 -0.19654230272E+03 -0.26514730428E+03 -0.18475789042E+03  0.10944067708E+04  0.10269657891E+04 0.  0.
        -13    1    3    3    0    0  0.75203802791E+02  0.36399507865E+03  0.38414848334E+02  0.37366260312E+03  0.10566000000E+00 0.  1.
          4    1    3    3  501    0 -0.27174610551E+03 -0.62914238293E+03 -0.22317273876E+03  0.72074416763E+03  0.00000000000E+00 0.  1.
         13    1    1    2    0    0  0.19654230272E+03  0.26514730428E+03 -0.67613724315E+02  0.33690294835E+03  0.10566000000E+00 0. -1.
<mgrwt>
<rscale>  1 0.80226809E+03</rscale>
<asrwt>0</asrwt>
<pdfrwt beam="1">  1       21 0.90687547E-01 0.10786986E+04</pdfrwt>
<pdfrwt beam="2">  1        4 0.12951395E+00 0.10786986E+04</pdfrwt>
<totfact> 0.16852335E+01</totfact>
</mgrwt>
</event>
<event>
 6    1  0.1431486E-005  0.1002526E+04  0.7818608E-02  0.9993288E-01
         21   -1    0    0  501  502  0.00000000000E+00  0.00000000000E+00  0.63055417344E+03  0.63055417344E+03  0.00000000000E+00 0.  1.
          4   -1    0    0  502    0 -0.00000000000E+00 -0.00000000000E+00 -0.48178200444E+03  0.48178200444E+03  0.00000000000E+00 0.  1.
    9000010    2    1    2  501    0 -0.88392519676E+00  0.97219996603E+02  0.15708148662E+03  0.10147576711E+04  0.99780059559E+03 0.  0.
        -13    1    3    3    0    0  0.14390222975E+03  0.40193004780E+03  0.41093589674E+03  0.59255711745E+03  0.10566000000E+00 0.  1.
          4    1    3    3  501    0 -0.14478615495E+03 -0.30471005120E+03 -0.25385441012E+03  0.42220055365E+03  0.00000000000E+00 0.  1.
         13    1    1    2    0    0  0.88392519676E+00 -0.97219996603E+02 -0.83093176144E+01  0.97578506785E+02  0.10566000000E+00 0. -1.
<mgrwt>
<rscale>  1 0.55945507E+03</rscale>
<asrwt>0</asrwt>
<pdfrwt beam="1">  1       21 0.97008335E-01 0.10025261E+04</pdfrwt>
<pdfrwt beam="2">  1        4 0.74120308E-01 0.10025261E+04</pdfrwt>
<totfact> 0.55103316E+01</totfact>
</mgrwt>
</event>
<event>
 6    1  0.1431486E-005  0.1002139E+04  0.7818608E-02  0.1002638E+00
         21   -1    0    0  501  502  0.00000000000E+00  0.00000000000E+00  0.17978383996E+03  0.17978383996E+03  0.00000000000E+00 0.  1.
          4   -1    0    0  502    0 -0.00000000000E+00 -0.00000000000E+00 -0.16523645070E+04  0.16523645070E+04  0.00000000000E+00 0.  1.
    9000010    2    1    2  501    0  0.78094435334E+02  0.39938625253E+02 -0.13639592687E+04  0.16925329683E+04  0.99829310703E+03 0.  0.
        -13    1    3    3    0    0  0.29730536651E+03  0.10663869760E+03 -0.65492266476E+01  0.31591960419E+03  0.10566000000E+00 0.  1.
          4    1    3    3  501    0 -0.21921093117E+03 -0.66700072351E+02 -0.13574100421E+04  0.13766133641E+04  0.00000000000E+00 0.  1.
         13    1    1    2    0    0 -0.78094435334E+02 -0.39938625253E+02 -0.10862139836E+03  0.13961537867E+03  0.10566000000E+00 0. -1.
<mgrwt>
<rscale>  1 0.54508474E+03</rscale>
<asrwt>0</asrwt>
<pdfrwt beam="1">  1       21 0.27659052E-01 0.10021392E+04</pdfrwt>
<pdfrwt beam="2">  1        4 0.25420993E+00 0.10021392E+04</pdfrwt>
<totfact> 0.30605934E+01</totfact>
</mgrwt>
</event>
<event>
 6    1  0.1431486E-005  0.1035973E+04  0.7818608E-02  0.9649201E-01
          4   -1    0    0  502    0 -0.00000000000E+00  0.00000000000E+00  0.38351671734E+03  0.38351671734E+03  0.00000000000E+00 0.  1.
         21   -1    0    0  501  502  0.00000000000E+00 -0.00000000000E+00 -0.11225053121E+04  0.11225053121E+04  0.00000000000E+00 0. -1.
    9000010    2    1    2  501    0 -0.15164201948E+03  0.22521255215E+03 -0.63610019139E+03  0.12156739101E+04  0.99976177483E+03 0.  0.
        -13    1    3    3    0    0  0.21190447015E+03  0.29131748707E+03  0.11538037961E+03  0.37826184833E+03  0.10566000000E+00 0.  1.
          4    1    3    3  501    0 -0.36354648963E+03 -0.66104934914E+02 -0.75148057100E+03  0.83741206173E+03  0.00000000000E+00 0.  1.
         13    1    1    2    0    0  0.15164201948E+03 -0.22521255215E+03 -0.10288840338E+03  0.29034811939E+03  0.10566000000E+00 0. -1.
<mgrwt>
<rscale>  1 0.74123597E+03</rscale>
<asrwt>0</asrwt>
<pdfrwt beam="2">  1       21 0.17269313E+00 0.10359728E+04</pdfrwt>
<pdfrwt beam="1">  1        4 0.59002572E-01 0.10359728E+04</pdfrwt>
<totfact> 0.19505462E+01</totfact>
</mgrwt>
</event>
<event>
 6    1  0.1431486E-005  0.9976196E+03  0.7818608E-02  0.9963440E-01
          4   -1    0    0  502    0 -0.00000000000E+00  0.00000000000E+00  0.26803264429E+03  0.26803264429E+03  0.00000000000E+00 0.  1.
         21   -1    0    0  501  502  0.00000000000E+00 -0.00000000000E+00 -0.11509933361E+04  0.11509933361E+04  0.00000000000E+00 0.  1.
    9000010    2    1    2  501    0 -0.51046930503E+02  0.95676997000E+02 -0.75383881927E+03  0.12504070431E+04  0.99170808770E+03 0.  0.
        -13    1    3    3    0    0 -0.33048554982E+03 -0.24719199972E+03 -0.45358856203E+02  0.41518913806E+03  0.10566000000E+00 0.  1.
          4    1    3    3  501    0  0.27943861932E+03  0.34286899672E+03 -0.70847996306E+03  0.83521790506E+03  0.00000000000E+00 0.  1.
         13    1    1    2    0    0  0.51046930503E+02 -0.95676997000E+02 -0.12912187256E+03  0.16861893727E+03  0.10566000000E+00 0. -1.
<mgrwt>
<rscale>  1 0.57282791E+03</rscale>
<asrwt>0</asrwt>
<pdfrwt beam="2">  1       21 0.17707590E+00 0.99761957E+03</pdfrwt>
<pdfrwt beam="1">  1        4 0.41235791E-01 0.99761957E+03</pdfrwt>
<totfact> 0.38696260E+01</totfact>
</mgrwt>
</event>
<event>
 6    1  0.1431486E-005  0.9954126E+03  0.7818608E-02  0.1001330E+00
         21   -1    0    0  501  502  0.00000000000E+00  0.00000000000E+00  0.40209558916E+03  0.40209558916E+03  0.00000000000E+00 0.  1.
          4   -1    0    0  502    0 -0.00000000000E+00 -0.00000000000E+00 -0.80254159920E+03  0.80254159920E+03  0.00000000000E+00 0.  1.
    9000010    2    1    2  501    0  0.11372028489E+02 -0.92561469272E+02 -0.24785712346E+03  0.10258067433E+04  0.99103449599E+03 0.  0.
        -13    1    3    3    0    0 -0.92138534833E+02 -0.26215102148E+03 -0.57752518142E+03  0.64089625838E+03  0.10566000000E+00 0.  1.
          4    1    3    3  501    0  0.10351056332E+03  0.16958955221E+03  0.32966805795E+03  0.38491048488E+03  0.00000000000E+00 0.  1.
         13    1    1    2    0    0 -0.11372028489E+02  0.92561469272E+02 -0.15258888657E+03  0.17883044510E+03  0.10566000000E+00 0. -1.
<mgrwt>
<rscale>  1 0.55071042E+03</rscale>
<asrwt>0</asrwt>
<pdfrwt beam="1">  1       21 0.61860860E-01 0.99541264E+03</pdfrwt>
<pdfrwt beam="2">  1        4 0.12346794E+00 0.99541264E+03</pdfrwt>
<totfact> 0.46699761E+01</totfact>
</mgrwt>
</event>
<event>
 6    1  0.1431486E-005  0.1075522E+04  0.7818608E-02  0.9969233E-01
          4   -1    0    0  502    0 -0.00000000000E+00  0.00000000000E+00  0.76685186685E+03  0.76685186685E+03  0.00000000000E+00 0.  1.
         21   -1    0    0  501  502  0.00000000000E+00 -0.00000000000E+00 -0.48211925021E+03  0.48211925021E+03  0.00000000000E+00 0.  1.
    9000010    2    1    2  501    0  0.80329572070E+02  0.27689134976E+02  0.14474941694E+03  0.10852187561E+04  0.10721603549E+04 0.  0.
        -13    1    3    3    0    0  0.45560185500E+03 -0.22342053339E+03  0.32106742461E+03  0.60047821553E+03  0.10566000000E+00 0.  1.
          4    1    3    3  501    0 -0.37527228293E+03  0.25110966837E+03 -0.17631800767E+03  0.48474054061E+03  0.00000000000E+00 0.  1.
         13    1    1    2    0    0 -0.80329572070E+02 -0.27689134976E+02  0.13998319969E+03  0.16375236091E+03  0.10566000000E+00 0. -1.
<mgrwt>
<rscale>  1 0.57020120E+03</rscale>
<asrwt>0</asrwt>
<pdfrwt beam="2">  1       21 0.74172193E-01 0.10755219E+04</pdfrwt>
<pdfrwt beam="1">  1        4 0.11797721E+00 0.10755219E+04</pdfrwt>
<totfact> 0.34412475E+01</totfact>
</mgrwt>
</event>
<event>
 6    1  0.1431486E-005  0.1004845E+04  0.7818608E-02  0.9886514E-01
          4   -1    0    0  502    0 -0.00000000000E+00  0.00000000000E+00  0.63296959027E+03  0.63296959027E+03  0.00000000000E+00 0.  1.
         21   -1    0    0  501  502  0.00000000000E+00 -0.00000000000E+00 -0.51451791226E+03  0.51451791226E+03  0.00000000000E+00 0.  1.
    9000010    2    1    2  501    0 -0.11759039378E+03  0.67816796255E+02  0.90659310049E+02  0.10089268824E+04  0.99563433298E+03 0.  0.
        -13    1    3    3    0    0 -0.25175905703E+03 -0.28240198699E+03  0.37926111786E+03  0.53569815357E+03  0.10566000000E+00 0.  1.
          4    1    3    3  501    0  0.13416866325E+03  0.35021878325E+03 -0.28860180781E+03  0.47322872885E+03  0.00000000000E+00 0.  1.
         13    1    1    2    0    0  0.11759039378E+03 -0.67816796255E+02  0.27792367963E+02  0.13856062011E+03  0.10566000000E+00 0. -1.
<mgrwt>
<rscale>  1 0.60919339E+03</rscale>
<asrwt>0</asrwt>
<pdfrwt beam="2">  1       21 0.79156602E-01 0.10048454E+04</pdfrwt>
<pdfrwt beam="1">  1        4 0.97379937E-01 0.10048454E+04</pdfrwt>
<totfact> 0.47577002E+01</totfact>
</mgrwt>
</event>
<event>
 6    1  0.1431486E-005  0.9977741E+03  0.7818608E-02  0.1022621E+00
         21   -1    0    0  501  502  0.00000000000E+00  0.00000000000E+00  0.43318242938E+03  0.43318242938E+03  0.00000000000E+00 0.  1.
          4   -1    0    0  502    0 -0.00000000000E+00 -0.00000000000E+00 -0.81784142706E+03  0.81784142706E+03  0.00000000000E+00 0.  1.
    9000010    2    1    2  501    0 -0.38883825884E+02  0.28309105436E+02 -0.14699744528E+03  0.10085442037E+04  0.99661417029E+03 0.  0.
        -13    1    3    3    0    0 -0.40279632460E+03  0.32630054889E+03 -0.14466320405E+03  0.53818619556E+03  0.10566000000E+00 0.  1.
          4    1    3    3  501    0  0.36391249872E+03 -0.29799144346E+03 -0.23342412308E+01  0.47035800809E+03  0.00000000000E+00 0.  1.
         13    1    1    2    0    0  0.38883825884E+02 -0.28309105436E+02 -0.23766155239E+03  0.24247965279E+03  0.10566000000E+00 0. -1.
<mgrwt>
<rscale>  1 0.46752493E+03</rscale>
<asrwt>0</asrwt>
<pdfrwt beam="1">  1       21 0.66643450E-01 0.99777410E+03</pdfrwt>
<pdfrwt beam="2">  1        4 0.12582176E+00 0.99777410E+03</pdfrwt>
<totfact> 0.37619159E+01</totfact>
</mgrwt>
</event>
<event>
 6    1  0.1431486E-005  0.9952950E+03  0.7818608E-02  0.9479088E-01
         21   -1    0    0  501  502  0.00000000000E+00  0.00000000000E+00  0.25405560631E+03  0.25405560631E+03  0.00000000000E+00 0. -1.
          4   -1    0    0  502    0 -0.00000000000E+00 -0.00000000000E+00 -0.23555710616E+04  0.23555710616E+04  0.00000000000E+00 0.  1.
    9000010    2    1    2  501    0  0.75171472563E+02 -0.54561513822E+03 -0.13048512821E+04  0.16411121118E+04  0.82901475611E+03 0.  0.
        -13    1    3    3    0    0  0.27023934085E+03 -0.13465458283E+02 -0.65616647053E+02  0.27841726858E+03  0.10566000000E+00 0.  1.
          4    1    3    3  501    0 -0.19506786829E+03 -0.53214967994E+03 -0.12392346351E+04  0.13626948433E+04  0.00000000000E+00 0.  1.
         13    1    1    2    0    0 -0.75171472563E+02  0.54561513822E+03 -0.79666417323E+03  0.96851455612E+03  0.10566000000E+00 0. -1.
<mgrwt>
<rscale>  1 0.85843271E+03</rscale>
<asrwt>0</asrwt>
<pdfrwt beam="1">  1       21 0.39085477E-01 0.99529498E+03</pdfrwt>
<pdfrwt beam="2">  1        4 0.36239556E+00 0.99529498E+03</pdfrwt>
<totfact> 0.31697686E+00</totfact>
</mgrwt>
</event>
<event>
 6    1  0.1431486E-005  0.9970137E+03  0.7818608E-02  0.9701853E-01
          4   -1    0    0  502    0 -0.00000000000E+00  0.00000000000E+00  0.79867155578E+03  0.79867155578E+03  0.00000000000E+00 0.  1.
         21   -1    0    0  501  502  0.00000000000E+00 -0.00000000000E+00 -0.53170320972E+03  0.53170320972E+03  0.00000000000E+00 0.  1.
    9000010    2    1    2  501    0  0.11339380277E+03  0.22846775457E+03  0.35832173948E+03  0.10594483492E+04  0.96383643131E+03 0.  0.
        -13    1    3    3    0    0 -0.40601380904E+03  0.22940194236E+03  0.24902786305E+03  0.52866563348E+03  0.10566000000E+00 0.  1.
          4    1    3    3  501    0  0.51940761181E+03 -0.93418779043E+00  0.10929387643E+03  0.53078271575E+03  0.00000000000E+00 0.  1.
         13    1    1    2    0    0 -0.11339380277E+03 -0.22846775457E+03 -0.91353393413E+02  0.27092641627E+03  0.10566000000E+00 0. -1.
<mgrwt>
<rscale>  1 0.70906583E+03</rscale>
<asrwt>0</asrwt>
<pdfrwt beam="2">  1       21 0.81800494E-01 0.99701371E+03</pdfrwt>
<pdfrwt beam="1">  1        4 0.12287255E+00 0.99701371E+03</pdfrwt>
<totfact> 0.24863438E+01</totfact>
</mgrwt>
</event>
<event>
 6    1  0.1431486E-005  0.9914092E+03  0.7818608E-02  0.1043695E+00
          4   -1    0    0  502    0 -0.00000000000E+00  0.00000000000E+00  0.29754539427E+03  0.29754539427E+03  0.00000000000E+00 0.  1.
         21   -1    0    0  501  502  0.00000000000E+00 -0.00000000000E+00 -0.94014385179E+03  0.94014385179E+03  0.00000000000E+00 0.  1.
    9000010    2    1    2  501    0 -0.24520994607E+02 -0.96060353643E+01 -0.67239848002E+03  0.11979198156E+04  0.99105933912E+03 0.  0.
        -13    1    3    3    0    0 -0.95494407477E+02 -0.49301505626E+03 -0.36231223023E+03  0.61923597351E+03  0.10566000000E+00 0.  1.
          4    1    3    3  501    0  0.70973412870E+02  0.48340902089E+03 -0.31008624979E+03  0.57868384211E+03  0.00000000000E+00 0.  1.
         13    1    1    2    0    0  0.24520994607E+02  0.96060353643E+01  0.29800022498E+02  0.39769430432E+02  0.10566000000E+00 0. -1.
<mgrwt>
<rscale>  1 0.40024480E+03</rscale>
<asrwt>0</asrwt>
<pdfrwt beam="2">  1       21 0.14463751E+00 0.99140918E+03</pdfrwt>
<pdfrwt beam="1">  1        4 0.45776215E-01 0.99140918E+03</pdfrwt>
<totfact> 0.55674736E+01</totfact>
</mgrwt>
</event>
<event>
 6    1  0.1431486E-005  0.1096037E+04  0.7818608E-02  0.9471150E-01
         21   -1    0    0  501  502  0.00000000000E+00  0.00000000000E+00  0.10602178788E+04  0.10602178788E+04  0.00000000000E+00 0. -1.
          4   -1    0    0  502    0 -0.00000000000E+00 -0.00000000000E+00 -0.69978560502E+03  0.69978560502E+03  0.00000000000E+00 0.  1.
    9000010    2    1    2  501    0 -0.10746790527E+03 -0.41026541583E+03  0.62346159855E+03  0.12609528863E+04  0.10106585746E+04 0.  0.
        -13    1    3    3    0    0  0.26394608345E+03 -0.52674338615E+03  0.83122841101E+02  0.59500886354E+03  0.10566000000E+00 0.  1.
          4    1    3    3  501    0 -0.37141398872E+03  0.11647797031E+03  0.54033875745E+03  0.66594402271E+03  0.00000000000E+00 0.  1.
         13    1    1    2    0    0  0.10746790527E+03  0.41026541583E+03 -0.26302932475E+03  0.49905059757E+03  0.10566000000E+00 0. -1.
<mgrwt>
<rscale>  1 0.86444619E+03</rscale>
<asrwt>0</asrwt>
<pdfrwt beam="1">  1       21 0.16311044E+00 0.10960373E+04</pdfrwt>
<pdfrwt beam="2">  1        4 0.10765932E+00 0.10960373E+04</pdfrwt>
<totfact> 0.57250688E+00</totfact>
</mgrwt>
</event>
<event>
 6    1  0.1431486E-005  0.9381457E+03  0.7818608E-02  0.9770996E-01
          4   -1    0    0  502    0 -0.00000000000E+00  0.00000000000E+00  0.29933781031E+03  0.29933781031E+03  0.00000000000E+00 0.  1.
         21   -1    0    0  501  502  0.00000000000E+00 -0.00000000000E+00 -0.12608471209E+04  0.12608471209E+04  0.00000000000E+00 0. -1.
    9000010    2    1    2  501    0  0.23439324743E+03  0.64926378425E+02 -0.56536135241E+03  0.10953313575E+04  0.90606936537E+03 0.  0.
        -13    1    3    3    0    0  0.10331517122E+03  0.31447249687E+03  0.12171811677E+03  0.35267873058E+03  0.10566000000E+00 0.  1.
          4    1    3    3  501    0  0.13107807621E+03 -0.24954611844E+03 -0.68707946918E+03  0.74265262691E+03  0.00000000000E+00 0.  1.
         13    1    1    2    0    0 -0.23439324743E+03 -0.64926378425E+02 -0.39614795814E+03  0.46485357367E+03  0.10566000000E+00 0. -1.
<mgrwt>
<rscale>  1 0.66942556E+03</rscale>
<asrwt>0</asrwt>
<pdfrwt beam="2">  1       21 0.19397648E+00 0.93814568E+03</pdfrwt>
<pdfrwt beam="1">  1        4 0.46051971E-01 0.93814568E+03</pdfrwt>
<totfact> 0.23502476E+01</totfact>
</mgrwt>
</event>
<event>
 6    1  0.1431486E-005  0.1105960E+04  0.7818608E-02  0.9429563E-01
          4   -1    0    0  502    0 -0.00000000000E+00  0.00000000000E+00  0.33600511127E+03  0.33600511127E+03  0.00000000000E+00 0.  1.
         21   -1    0    0  501  502  0.00000000000E+00 -0.00000000000E+00 -0.20035987771E+04  0.20035987771E+04  0.00000000000E+00 0.  1.
    9000010    2    1    2  501    0  0.47672589115E+03  0.37465083363E+02 -0.85970963240E+03  0.14008026153E+04  0.99723422882E+03 0.  0.
        -13    1    3    3    0    0  0.22056652523E+03  0.49569297400E+03 -0.61948671600E+03  0.82348340541E+03  0.10566000000E+00 0.  1.
          4    1    3    3  501    0  0.25615936593E+03 -0.45822789063E+03 -0.24022291640E+03  0.57731920986E+03  0.00000000000E+00 0.  1.
         13    1    1    2    0    0 -0.47672589115E+03 -0.37465083363E+02 -0.80788403345E+03  0.93880127314E+03  0.10566000000E+00 0. -1.
<mgrwt>
<rscale>  1 0.89682154E+03</rscale>
<asrwt>0</asrwt>
<pdfrwt beam="2">  1       21 0.30824597E+00 0.11059599E+04</pdfrwt>
<pdfrwt beam="1">  1        4 0.51693093E-01 0.11059599E+04</pdfrwt>
<totfact> 0.33063178E+00</totfact>
</mgrwt>
</event>
<event>
 6    1  0.1431486E-005  0.1028807E+04  0.7818608E-02  0.9694368E-01
          4   -1    0    0  502    0 -0.00000000000E+00  0.00000000000E+00  0.95054093601E+03  0.95054093601E+03  0.00000000000E+00 0.  1.
         21   -1    0    0  501  502  0.00000000000E+00 -0.00000000000E+00 -0.48487134186E+03  0.48487134186E+03  0.00000000000E+00 0.  1.
    9000010    2    1    2  501    0 -0.23224242765E+03 -0.52218294313E+02  0.14943959943E+03  0.10396033389E+04  0.10008894109E+04 0.  0.
        -13    1    3    3    0    0 -0.89700035367E+01 -0.50223093250E+03 -0.37223046861E+02  0.50368833310E+03  0.10566000000E+00 0.  1.
          4    1    3    3  501    0 -0.22327242411E+03  0.45001263818E+03  0.18666264629E+03  0.53591500577E+03  0.00000000000E+00 0.  1.
         13    1    1    2    0    0  0.23224242765E+03  0.52218294313E+02  0.31622999472E+03  0.39580893899E+03  0.10566000000E+00 0. -1.
<mgrwt>
<rscale>  1 0.71353130E+03</rscale>
<asrwt>0</asrwt>
<pdfrwt beam="2">  1       21 0.74595591E-01 0.10288065E+04</pdfrwt>
<pdfrwt beam="1">  1        4 0.14623707E+00 0.10288065E+04</pdfrwt>
<totfact> 0.19578966E+01</totfact>
</mgrwt>
</event>
<event>
 6    1  0.1431486E-005  0.9892564E+03  0.7818608E-02  0.9872817E-01
         21   -1    0    0  501  502  0.00000000000E+00  0.00000000000E+00  0.36481523295E+03  0.36481523295E+03  0.00000000000E+00 0.  1.
          4   -1    0    0  502    0 -0.00000000000E+00 -0.00000000000E+00 -0.88829070370E+03  0.88829070370E+03  0.00000000000E+00 0.  1.
    9000010    2    1    2  501    0  0.13782573477E+03 -0.55818880488E+02 -0.46827600440E+03  0.10944910797E+04  0.97801668021E+03 0.  0.
        -13    1    3    3    0    0 -0.17208490090E+03  0.40118391737E+03 -0.22488120162E+03  0.49105327071E+03  0.10566000000E+00 0.  1.
          4    1    3    3  501    0  0.30991063566E+03 -0.45700279786E+03 -0.24339480279E+03  0.60343780903E+03  0.00000000000E+00 0.  1.
         13    1    1    2    0    0 -0.13782573477E+03  0.55818880488E+02 -0.55199466349E+02  0.15861485691E+03  0.10566000000E+00 0. -1.
<mgrwt>
<rscale>  1 0.61596987E+03</rscale>
<asrwt>0</asrwt>
<pdfrwt beam="1">  1       21 0.56125421E-01 0.98925644E+03</pdfrwt>
<pdfrwt beam="2">  1        4 0.13666011E+00 0.98925644E+03</pdfrwt>
<totfact> 0.44692539E+01</totfact>
</mgrwt>
</event>
<event>
 6    1  0.1431486E-005  0.1112571E+04  0.7818608E-02  0.9410496E-01
         21   -1    0    0  501  502  0.00000000000E+00  0.00000000000E+00  0.19829094713E+04  0.19829094713E+04  0.00000000000E+00 0. -1.
          4   -1    0    0  502    0 -0.00000000000E+00 -0.00000000000E+00 -0.33185733395E+03  0.33185733395E+03  0.00000000000E+00 0.  1.
    9000010    2    1    2  501    0 -0.41676288811E+03  0.28111643623E+03  0.10341431253E+04  0.15189687807E+04  0.99252022516E+03 0.  0.
        -13    1    3    3    0    0 -0.65625893967E+03  0.11170918175E+03  0.30347223324E+03  0.73160791732E+03  0.10566000000E+00 0.  1.
          4    1    3    3  501    0  0.23949605155E+03  0.16940725448E+03  0.73067089208E+03  0.78736086334E+03  0.00000000000E+00 0.  1.
         13    1    1    2    0    0  0.41676288811E+03 -0.28111643623E+03  0.61690901199E+03  0.79579802455E+03  0.10566000000E+00 0. -1.
<mgrwt>
<rscale>  1 0.91216902E+03</rscale>
<asrwt>0</asrwt>
<pdfrwt beam="1">  1       21 0.30506299E+00 0.11125710E+04</pdfrwt>
<pdfrwt beam="2">  1        4 0.51054975E-01 0.11125710E+04</pdfrwt>
<totfact> 0.35497572E+00</totfact>
</mgrwt>
</event>
<event>
 6    1  0.1431486E-005  0.1032604E+04  0.7818608E-02  0.9664793E-01
          4   -1    0    0  502    0 -0.00000000000E+00  0.00000000000E+00  0.82551040347E+03  0.82551040347E+03  0.00000000000E+00 0.  1.
         21   -1    0    0  501  502  0.00000000000E+00 -0.00000000000E+00 -0.50745188617E+03  0.50745188617E+03  0.00000000000E+00 0. -1.
    9000010    2    1    2  501    0 -0.22455457307E+03 -0.13121575266E+03  0.28179983432E+03  0.10703655774E+04  0.99931426118E+03 0.  0.
        -13    1    3    3    0    0  0.30076909286E+03  0.22481196776E+03 -0.12381786659E+01  0.37550500972E+03  0.10566000000E+00 0.  1.
          4    1    3    3  501    0 -0.52532366593E+03 -0.35602772043E+03  0.28303801298E+03  0.69486056767E+03  0.00000000000E+00 0.  1.
         13    1    1    2    0    0  0.22455457307E+03  0.13121575266E+03  0.36258682981E+02  0.26259671226E+03  0.10566000000E+00 0. -1.
<mgrwt>
<rscale>  1 0.73152266E+03</rscale>
<asrwt>0</asrwt>
<pdfrwt beam="2">  1       21 0.78069521E-01 0.10326041E+04</pdfrwt>
<pdfrwt beam="1">  1        4 0.12700160E+00 0.10326041E+04</pdfrwt>
<totfact> 0.25425897E+01</totfact>
</mgrwt>
</event>
<event>
 6    1  0.1431486E-005  0.1059053E+04  0.7818608E-02  0.9496701E-01
         21   -1    0    0  501  502  0.00000000000E+00  0.00000000000E+00  0.89332469356E+03  0.89332469356E+03  0.00000000000E+00 0. -1.
          4   -1    0    0  502    0 -0.00000000000E+00 -0.00000000000E+00 -0.79638218203E+03  0.79638218203E+03  0.00000000000E+00 0.  1.
    9000010    2    1    2  501    0 -0.14592838985E+03  0.40423905774E+03  0.43299210975E+03  0.11441487628E+04  0.96793073803E+03 0.  0.
        -13    1    3    3    0    0 -0.44137149285E+02  0.43527574266E+03 -0.21499657534E+03  0.48747984437E+03  0.10566000000E+00 0.  1.
          4    1    3    3  501    0 -0.10179124057E+03 -0.31036684922E+02  0.64798868509E+03  0.65666891846E+03  0.00000000000E+00 0.  1.
         13    1    1    2    0    0  0.14592838985E+03 -0.40423905774E+03 -0.33604959822E+03  0.54555811276E+03  0.10566000000E+00 0. -1.
<mgrwt>
<rscale>  1 0.84527504E+03</rscale>
<asrwt>0</asrwt>
<pdfrwt beam="1">  1       21 0.13743457E+00 0.10590535E+04</pdfrwt>
<pdfrwt beam="2">  1        4 0.12252034E+00 0.10590535E+04</pdfrwt>
<totfact> 0.67280770E+00</totfact>
</mgrwt>
</event>
<event>
 6    1  0.1431486E-005  0.1263335E+04  0.7818608E-02  0.9185430E-01
         21   -1    0    0  501  502  0.00000000000E+00  0.00000000000E+00  0.20103086813E+04  0.20103086813E+04  0.00000000000E+00 0. -1.
          4   -1    0    0  502    0 -0.00000000000E+00 -0.00000000000E+00 -0.52760281094E+03  0.52760281094E+03  0.00000000000E+00 0.  1.
    9000010    2    1    2  501    0  0.68327900913E+03  0.37995768425E+03  0.10600744008E+04  0.16491733889E+04  0.99235935286E+03 0.  0.
        -13    1    3    3    0    0  0.10353536415E+03  0.62436912173E+03  0.56873921132E+03  0.85089404361E+03  0.10566000000E+00 0.  1.
          4    1    3    3  501    0  0.57974364498E+03 -0.24441143747E+03  0.49133518952E+03  0.79827934530E+03  0.00000000000E+00 0.  1.
         13    1    1    2    0    0 -0.68327900913E+03 -0.37995768425E+03  0.42263146954E+03  0.88873810336E+03  0.10566000000E+00 0. -1.
<mgrwt>
<rscale>  1 0.11205086E+04</rscale>
<asrwt>0</asrwt>
<pdfrwt beam="1">  1       21 0.30927825E+00 0.12633349E+04</pdfrwt>
<pdfrwt beam="2">  1        4 0.81169664E-01 0.12633349E+04</pdfrwt>
<totfact> 0.11681639E+00</totfact>
</mgrwt>
</event>
<event>
 6    1  0.1431486E-005  0.1022644E+04  0.7818608E-02  0.9746325E-01
         21   -1    0    0  501  502  0.00000000000E+00  0.00000000000E+00  0.91317350546E+03  0.91317350546E+03  0.00000000000E+00 0.  1.
          4   -1    0    0  502    0 -0.00000000000E+00 -0.00000000000E+00 -0.41957342716E+03  0.41957342716E+03  0.00000000000E+00 0.  1.
    9000010    2    1    2  501    0 -0.19240630477E+03  0.67080244039E+02  0.47667231044E+03  0.11282805399E+04  0.10021379845E+04 0.  0.
        -13    1    3    3    0    0 -0.27606721326E+03  0.38892162447E+03 -0.76315100055E+02  0.48300842837E+03  0.10566000000E+00 0.  1.
          4    1    3    3  501    0  0.83660908490E+02 -0.32184138043E+03  0.55298741050E+03  0.64527211154E+03  0.00000000000E+00 0.  1.
         13    1    1    2    0    0  0.19240630477E+03 -0.67080244039E+02  0.16927767852E+02  0.20446639270E+03  0.10566000000E+00 0. -1.
<mgrwt>
<rscale>  1 0.68324337E+03</rscale>
<asrwt>0</asrwt>
<pdfrwt beam="1">  1       21 0.14048823E+00 0.10226439E+04</pdfrwt>
<pdfrwt beam="2">  1        4 0.64549758E-01 0.10226439E+04</pdfrwt>
<totfact> 0.28795269E+01</totfact>
</mgrwt>
</event>
<event>
 6    1  0.1431486E-005  0.1045090E+04  0.7818608E-02  0.9690406E-01
         21   -1    0    0  501  502  0.00000000000E+00  0.00000000000E+00  0.87282868243E+03  0.87282868243E+03  0.00000000000E+00 0.  1.
          4   -1    0    0  502    0 -0.00000000000E+00 -0.00000000000E+00 -0.54280888256E+03  0.54280888256E+03  0.00000000000E+00 0.  1.
    9000010    2    1    2  501    0 -0.23012488906E+03 -0.12531292308E+01  0.47039614999E+03  0.11460739069E+04  0.10194379958E+04 0.  0.
        -13    1    3    3    0    0  0.28008260348E+03 -0.92933087517E+02  0.54752730176E+03  0.62198792662E+03  0.10566000000E+00 0.  1.
          4    1    3    3  501    0 -0.51020749255E+03  0.91679958287E+02 -0.77131151763E+02  0.52408598032E+03  0.00000000000E+00 0.  1.
         13    1    1    2    0    0  0.23012488906E+03  0.12531292308E+01 -0.14037635012E+03  0.26956365804E+03  0.10566000000E+00 0. -1.
<mgrwt>
<rscale>  1 0.71590888E+03</rscale>
<asrwt>0</asrwt>
<pdfrwt beam="1">  1       21 0.13428134E+00 0.10450899E+04</pdfrwt>
<pdfrwt beam="2">  1        4 0.83509059E-01 0.10450899E+04</pdfrwt>
<totfact> 0.18135381E+01</totfact>
</mgrwt>
</event>
<event>
 6    1  0.1431486E-005  0.1132136E+04  0.7818608E-02  0.9397693E-01
          4   -1    0    0  502    0 -0.00000000000E+00  0.00000000000E+00  0.13175354461E+04  0.13175354461E+04  0.00000000000E+00 0.  1.
         21   -1    0    0  501  502  0.00000000000E+00 -0.00000000000E+00 -0.50518963488E+03  0.50518963488E+03  0.00000000000E+00 0.  1.
    9000010    2    1    2  501    0  0.47987528512E+03 -0.13835102398E+03  0.57449955315E+03  0.12695595101E+04  0.10160267310E+04 0.  0.
        -13    1    3    3    0    0  0.16540885529E+03 -0.89729431438E+02  0.83648021781E+03  0.85738592608E+03  0.10566000000E+00 0.  1.
          4    1    3    3  501    0  0.31446642983E+03 -0.48621592540E+02 -0.26198066466E+03  0.41217358407E+03  0.00000000000E+00 0.  1.
         13    1    1    2    0    0 -0.47987528512E+03  0.13835102398E+03  0.23784625805E+03  0.55316557082E+03  0.10566000000E+00 0. -1.
<mgrwt>
<rscale>  1 0.92265780E+03</rscale>
<asrwt>0</asrwt>
<pdfrwt beam="2">  1       21 0.77721483E-01 0.11321359E+04</pdfrwt>
<pdfrwt beam="1">  1        4 0.20269776E+00 0.11321359E+04</pdfrwt>
<totfact> 0.69414132E+00</totfact>
</mgrwt>
</event>
<event>
 6    1  0.1431486E-005  0.1026250E+04  0.7818608E-02  0.9741313E-01
         21   -1    0    0  501  502  0.00000000000E+00  0.00000000000E+00  0.11218216194E+04  0.11218216194E+04  0.00000000000E+00 0. -1.
          4   -1    0    0  502    0 -0.00000000000E+00 -0.00000000000E+00 -0.34710589613E+03  0.34710589613E+03  0.00000000000E+00 0.  1.
    9000010    2    1    2  501    0 -0.99693196905E+02 -0.17913766083E+03  0.54848563991E+03  0.11636258666E+04  0.10055643318E+04 0.  0.
        -13    1    3    3    0    0  0.30813172795E+03  0.26738422299E+03  0.12988467791E+03  0.42814661646E+03  0.10566000000E+00 0.  1.
          4    1    3    3  501    0 -0.40782492485E+03 -0.44652188381E+03  0.41860096200E+03  0.73547925017E+03  0.00000000000E+00 0.  1.
         13    1    1    2    0    0  0.99693196905E+02  0.17913766083E+03  0.22623008334E+03  0.30530164888E+03  0.10566000000E+00 0. -1.
<mgrwt>
<rscale>  1 0.68609391E+03</rscale>
<asrwt>0</asrwt>
<pdfrwt beam="1">  1       21 0.17258794E+00 0.10262498E+04</pdfrwt>
<pdfrwt beam="2">  1        4 0.53400908E-01 0.10262498E+04</pdfrwt>
<totfact> 0.24249617E+01</totfact>
</mgrwt>
</event>
<event>
 6    1  0.1431486E-005  0.9903456E+03  0.7818608E-02  0.1023691E+00
         21   -1    0    0  501  502  0.00000000000E+00  0.00000000000E+00  0.17235029946E+04  0.17235029946E+04  0.00000000000E+00 0.  1.
          4   -1    0    0  502    0 -0.00000000000E+00 -0.00000000000E+00 -0.23409587441E+03  0.23409587441E+03  0.00000000000E+00 0.  1.
    9000010    2    1    2  501    0 -0.47629222079E+02  0.11712008907E+00  0.15745115261E+04  0.18600728337E+04  0.98919959782E+03 0.  0.
        -13    1    3    3    0    0 -0.23413962848E+03 -0.44427890689E+03  0.90711424094E+03  0.10368516625E+04  0.10566000000E+00 0.  1.
          4    1    3    3  501    0  0.18651040640E+03  0.44439602698E+03  0.66739728516E+03  0.82322117121E+03  0.00000000000E+00 0.  1.
         13    1    1    2    0    0  0.47629222079E+02 -0.11712008907E+00 -0.85104405854E+02  0.97526035359E+02  0.10566000000E+00 0. -1.
<mgrwt>
<rscale>  1 0.46377683E+03</rscale>
<asrwt>0</asrwt>
<pdfrwt beam="1">  1       21 0.26515430E+00 0.99034560E+03</pdfrwt>
<pdfrwt beam="2">  1        4 0.36014751E-01 0.99034560E+03</pdfrwt>
<totfact> 0.13200362E+01</totfact>
</mgrwt>
</event>
<event>
 6    1  0.1431486E-005  0.1044173E+04  0.7818608E-02  0.9738395E-01
          4   -1    0    0  502    0 -0.00000000000E+00  0.00000000000E+00  0.40832842790E+03  0.40832842790E+03  0.00000000000E+00 0.  1.
         21   -1    0    0  501  502  0.00000000000E+00 -0.00000000000E+00 -0.16308312043E+04  0.16308312043E+04  0.00000000000E+00 0.  1.
    9000010    2    1    2  501    0  0.23771862928E+02 -0.19508824458E+03 -0.14186489891E+04  0.17614945955E+04  0.10255114485E+04 0.  0.
        -13    1    3    3    0    0 -0.10576049126E+03  0.78112546194E+02 -0.14514271391E+04  0.14573700980E+04  0.10566000000E+00 0.  1.
          4    1    3    3  501    0  0.12953235419E+03 -0.27320079078E+03  0.32778149948E+02  0.30412449749E+03  0.00000000000E+00 0.  1.
         13    1    1    2    0    0 -0.23771862928E+02  0.19508824458E+03  0.19614621275E+03  0.27766503666E+03  0.10566000000E+00 0. -1.
<mgrwt>
<rscale>  1 0.68776077E+03</rscale>
<asrwt>0</asrwt>
<pdfrwt beam="2">  1       21 0.25089711E+00 0.10441735E+04</pdfrwt>
<pdfrwt beam="1">  1        4 0.62819759E-01 0.10441735E+04</pdfrwt>
<totfact> 0.50149052E+00</totfact>
</mgrwt>
</event>
<event>
 6    1  0.1431486E-005  0.1024619E+04  0.7818608E-02  0.9776161E-01
          4   -1    0    0  502    0 -0.00000000000E+00  0.00000000000E+00  0.15869145475E+04  0.15869145475E+04  0.00000000000E+00 0.  1.
         21   -1    0    0  501  502  0.00000000000E+00 -0.00000000000E+00 -0.25267603002E+03  0.25267603002E+03  0.00000000000E+00 0.  1.
    9000010    2    1    2  501    0  0.26231594279E+02 -0.18164853527E+03  0.12960147933E+04  0.16521196434E+04  0.10080479576E+04 0.  0.
        -13    1    3    3    0    0  0.24408278747E+03 -0.48896701488E+03  0.10981363455E+04  0.12266085737E+04  0.10566000000E+00 0.  1.
          4    1    3    3  501    0 -0.21785119319E+03  0.30731847961E+03  0.19787844778E+03  0.42551106963E+03  0.00000000000E+00 0.  1.
         13    1    1    2    0    0 -0.26231594279E+02  0.18164853527E+03  0.38223724272E+02  0.18747093419E+03  0.10566000000E+00 0. -1.
<mgrwt>
<rscale>  1 0.66657716E+03</rscale>
<asrwt>0</asrwt>
<pdfrwt beam="2">  1       21 0.38873236E-01 0.10246194E+04</pdfrwt>
<pdfrwt beam="1">  1        4 0.24414069E+00 0.10246194E+04</pdfrwt>
<totfact> 0.17599888E+01</totfact>
</mgrwt>
</event>
<event>
 6    1  0.1431486E-005  0.9705488E+03  0.7818608E-02  0.9942300E-01
         21   -1    0    0  501  502  0.00000000000E+00  0.00000000000E+00  0.15517948355E+04  0.15517948355E+04  0.00000000000E+00 0.  1.
          4   -1    0    0  502    0 -0.00000000000E+00 -0.00000000000E+00 -0.32882598288E+03  0.32882598288E+03  0.00000000000E+00 0.  1.
    9000010    2    1    2  501    0 -0.12345751794E+03  0.25024150430E+02  0.13750967834E+04  0.16831090837E+04  0.96233936688E+03 0.  0.
        -13    1    3    3    0    0 -0.47955484175E+03  0.23288256936E+03  0.58217374329E+03  0.78938800086E+03  0.10566000000E+00 0.  1.
          4    1    3    3  501    0  0.35609732382E+03 -0.20785841893E+03  0.79292304012E+03  0.89372108284E+03  0.00000000000E+00 0.  1.
         13    1    1    2    0    0  0.12345751794E+03 -0.25024150430E+02 -0.15212793080E+03  0.19751173468E+03  0.10566000000E+00 0. -1.
<mgrwt>
<rscale>  1 0.58254334E+03</rscale>
<asrwt>0</asrwt>
<pdfrwt beam="1">  1       21 0.23873766E+00 0.97054883E+03</pdfrwt>
<pdfrwt beam="2">  1        4 0.50588614E-01 0.97054883E+03</pdfrwt>
<totfact> 0.96732781E+00</totfact>
</mgrwt>
</event>
<event>
 6    1  0.1431486E-005  0.1025600E+04  0.7818608E-02  0.9711179E-01
          4   -1    0    0  502    0 -0.00000000000E+00  0.00000000000E+00  0.61892268690E+03  0.61892268690E+03  0.00000000000E+00 0.  1.
         21   -1    0    0  501  502  0.00000000000E+00 -0.00000000000E+00 -0.63774825970E+03  0.63774825970E+03  0.00000000000E+00 0. -1.
    9000010    2    1    2  501    0  0.13012628837E+03 -0.18614245443E+03  0.22394105150E+02  0.10258443076E+04  0.10001365823E+04 0.  0.
        -13    1    3    3    0    0 -0.63444101634E+02  0.30684475459E+03  0.29484561097E+03  0.43024737410E+03  0.10566000000E+00 0.  1.
          4    1    3    3  501    0  0.19357039000E+03 -0.49298720902E+03 -0.27245150582E+03  0.59559693347E+03  0.00000000000E+00 0.  1.
         13    1    1    2    0    0 -0.13012628837E+03  0.18614245443E+03 -0.41219677953E+02  0.23082663902E+03  0.10566000000E+00 0. -1.
<mgrwt>
<rscale>  1 0.70355112E+03</rscale>
<asrwt>0</asrwt>
<pdfrwt beam="2">  1       21 0.98115117E-01 0.10255998E+04</pdfrwt>
<pdfrwt beam="1">  1        4 0.95218875E-01 0.10255998E+04</pdfrwt>
<totfact> 0.29901149E+01</totfact>
</mgrwt>
</event>
<event>
 6    1  0.1431486E-005  0.1037313E+04  0.7818608E-02  0.9649597E-01
          4   -1    0    0  502    0 -0.00000000000E+00  0.00000000000E+00  0.29720473234E+03  0.29720473234E+03  0.00000000000E+00 0.  1.
         21   -1    0    0  501  502  0.00000000000E+00 -0.00000000000E+00 -0.14952264507E+04  0.14952264507E+04  0.00000000000E+00 0.  1.
    9000010    2    1    2  501    0  0.22668807388E+03  0.14684174566E+03 -0.10806454311E+04  0.14979363867E+04  0.10015332694E+04 0.  0.
        -13    1    3    3    0    0  0.12614167948E+03  0.82826594245E+01 -0.12504421780E+04  0.12568158089E+04  0.10566000000E+00 0.  1.
          4    1    3    3  501    0  0.10054639440E+03  0.13855908624E+03  0.16979674688E+03  0.24112057783E+03  0.00000000000E+00 0.  1.
         13    1    1    2    0    0 -0.22668807388E+03 -0.14684174566E+03 -0.11737628727E+03  0.29449479636E+03  0.10566000000E+00 0. -1.
<mgrwt>
<rscale>  1 0.74098704E+03</rscale>
<asrwt>0</asrwt>
<pdfrwt beam="2">  1       21 0.23003483E+00 0.10373133E+04</pdfrwt>
<pdfrwt beam="1">  1        4 0.45723806E-01 0.10373133E+04</pdfrwt>
<totfact> 0.13483402E+01</totfact>
</mgrwt>
</event>
<event>
 6    1  0.1431486E-005  0.1003822E+04  0.7818608E-02  0.9815760E-01
         21   -1    0    0  501  502  0.00000000000E+00  0.00000000000E+00  0.34769560737E+03  0.34769560737E+03  0.00000000000E+00 0.  1.
          4   -1    0    0  502    0 -0.00000000000E+00 -0.00000000000E+00 -0.99607769932E+03  0.99607769932E+03  0.00000000000E+00 0.  1.
    9000010    2    1    2  501    0  0.15188579911E+03 -0.79336175342E+02 -0.52673072752E+03  0.11336243350E+04  0.98908814006E+03 0.  0.
        -13    1    3    3    0    0  0.44486406217E+02 -0.51971282581E+03 -0.41554878133E+03  0.66690423787E+03  0.10566000000E+00 0.  1.
          4    1    3    3  501    0  0.10739939289E+03  0.44037665047E+03 -0.11118194619E+03  0.46672009709E+03  0.00000000000E+00 0.  1.
         13    1    1    2    0    0 -0.15188579911E+03  0.79336175342E+02 -0.12165136442E+03  0.21014897173E+03  0.10566000000E+00 0. -1.
<mgrwt>
<rscale>  1 0.64523604E+03</rscale>
<asrwt>0</asrwt>
<pdfrwt beam="1">  1       21 0.53491633E-01 0.10038221E+04</pdfrwt>
<pdfrwt beam="2">  1        4 0.15324272E+00 0.10038221E+04</pdfrwt>
<totfact> 0.36587172E+01</totfact>
</mgrwt>
</event>
<event>
 6    1  0.1431486E-005  0.1032474E+04  0.7818608E-02  0.9629922E-01
          4   -1    0    0  502    0 -0.00000000000E+00  0.00000000000E+00  0.34496086259E+03  0.34496086259E+03  0.00000000000E+00 0.  1.
         21   -1    0    0  501  502  0.00000000000E+00 -0.00000000000E+00 -0.13376283844E+04  0.13376283844E+04  0.00000000000E+00 0.  1.
    9000010    2    1    2  501    0 -0.10820321627E+03 -0.27211324020E+03 -0.60473951784E+03  0.11965422339E+04  0.99007569487E+03 0.  0.
        -13    1    3    3    0    0  0.21114015310E+03 -0.46604048256E+03 -0.64215530710E+03  0.82105867345E+03  0.10566000000E+00 0.  1.
          4    1    3    3  501    0 -0.31934336936E+03  0.19392724236E+03  0.37415789262E+02  0.37548356046E+03  0.00000000000E+00 0.  1.
         13    1    1    2    0    0  0.10820321627E+03  0.27211324020E+03 -0.38792800393E+03  0.48604701306E+03  0.10566000000E+00 0. -1.
<mgrwt>
<rscale>  1 0.75347015E+03</rscale>
<asrwt>0</asrwt>
<pdfrwt beam="2">  1       21 0.20578898E+00 0.10324744E+04</pdfrwt>
<pdfrwt beam="1">  1        4 0.53070903E-01 0.10324744E+04</pdfrwt>
<totfact> 0.14282604E+01</totfact>
</mgrwt>
</event>
<event>
 6    1  0.1431486E-005  0.1031814E+04  0.7818608E-02  0.9644848E-01
          4   -1    0    0  502    0 -0.00000000000E+00  0.00000000000E+00  0.43815714040E+03  0.43815714040E+03  0.00000000000E+00 0.  1.
         21   -1    0    0  501  502  0.00000000000E+00 -0.00000000000E+00 -0.12570388887E+04  0.12570388887E+04  0.00000000000E+00 0.  1.
    9000010    2    1    2  501    0 -0.98122543695E+02 -0.26105761435E+03 -0.93563150235E+03  0.13928557774E+04  0.99340917896E+03 0.  0.
        -13    1    3    3    0    0 -0.52198953147E+03 -0.30048028345E+03 -0.60658561472E+03  0.85481436046E+03  0.10566000000E+00 0.  1.
          4    1    3    3  501    0  0.42386698778E+03  0.39422669098E+02 -0.32904588763E+03  0.53804141693E+03  0.00000000000E+00 0.  1.
         13    1    1    2    0    0  0.98122543695E+02  0.26105761435E+03  0.11674975401E+03  0.30234025174E+03  0.10566000000E+00 0. -1.
<mgrwt>
<rscale>  1 0.74397623E+03</rscale>
<asrwt>0</asrwt>
<pdfrwt beam="2">  1       21 0.19339060E+00 0.10318144E+04</pdfrwt>
<pdfrwt beam="1">  1        4 0.67408789E-01 0.10318144E+04</pdfrwt>
<totfact> 0.10330836E+01</totfact>
</mgrwt>
</event>
<event>
 6    1  0.1431486E-005  0.1035235E+04  0.7818608E-02  0.9633737E-01
         21   -1    0    0  501  502  0.00000000000E+00  0.00000000000E+00  0.86939621163E+03  0.86939621163E+03  0.00000000000E+00 0.  1.
          4   -1    0    0  502    0 -0.00000000000E+00 -0.00000000000E+00 -0.50395258400E+03  0.50395258400E+03  0.00000000000E+00 0.  1.
    9000010    2    1    2  501    0  0.28556962628E+03  0.26036054543E+02  0.25599196010E+03  0.10664162847E+04  0.99472806384E+03 0.  0.
        -13    1    3    3    0    0 -0.11835848064E+03  0.13327736571E+02  0.55249287747E+03  0.56518558838E+03  0.10566000000E+00 0.  1.
          4    1    3    3  501    0  0.40392810692E+03  0.12708317972E+02 -0.29650091737E+03  0.50123069629E+03  0.00000000000E+00 0.  1.
         13    1    1    2    0    0 -0.28556962628E+03 -0.26036054543E+02  0.10945166753E+03  0.30693251095E+03  0.10566000000E+00 0. -1.
<mgrwt>
<rscale>  1 0.75102900E+03</rscale>
<asrwt>0</asrwt>
<pdfrwt beam="1">  1       21 0.13375326E+00 0.10352351E+04</pdfrwt>
<pdfrwt beam="2">  1        4 0.77531167E-01 0.10352351E+04</pdfrwt>
<totfact> 0.21766671E+01</totfact>
</mgrwt>
</event>
<event>
 6    1  0.1431486E-005  0.1595238E+04  0.7818608E-02  0.8884484E-01
          4   -1    0    0  502    0 -0.00000000000E+00  0.00000000000E+00  0.12552090510E+04  0.12552090510E+04  0.00000000000E+00 0.  1.
         21   -1    0    0  501  502  0.00000000000E+00 -0.00000000000E+00 -0.16659336274E+04  0.16659336274E+04  0.00000000000E+00 0. -1.
    9000010    2    1    2  501    0  0.15563184135E+03 -0.12371538091E+04  0.38725686068E+02  0.15957082715E+04  0.99499466920E+03 0.  0.
        -13    1    3    3    0    0 -0.34709015993E+03 -0.93511320348E+03  0.11594573438E+03  0.10041671708E+04  0.10566000000E+00 0.  1.
          4    1    3    3  501    0  0.50272200127E+03 -0.30204060561E+03 -0.77220048315E+02  0.59154110074E+03  0.00000000000E+00 0.  1.
         13    1    1    2    0    0 -0.15563184135E+03  0.12371538091E+04 -0.44945026249E+03  0.13254344069E+04  0.10566000000E+00 0. -1.
<mgrwt>
<rscale>  1 0.14999526E+04</rscale>
<asrwt>0</asrwt>
<pdfrwt beam="2">  1       21 0.25629748E+00 0.15952383E+04</pdfrwt>
<pdfrwt beam="1">  1        4 0.19310908E+00 0.15952383E+04</pdfrwt>
<totfact> 0.25401306E-01</totfact>
</mgrwt>
</event>
<event>
 6    1  0.1431486E-005  0.1004309E+04  0.7818608E-02  0.9850211E-01
         21   -1    0    0  501  502  0.00000000000E+00  0.00000000000E+00  0.37977887044E+03  0.37977887044E+03  0.00000000000E+00 0.  1.
          4   -1    0    0  502    0 -0.00000000000E+00 -0.00000000000E+00 -0.10940419773E+04  0.10940419773E+04  0.00000000000E+00 0.  1.
    9000010    2    1    2  501    0 -0.94099773180E+02  0.12054136945E+03 -0.32498175810E+03  0.10555805236E+04  0.99259866497E+03 0.  0.
        -13    1    3    3    0    0 -0.50991192344E+03 -0.11998529242E+03 -0.16195343344E+03  0.54830244011E+03  0.10566000000E+00 0.  1.
          4    1    3    3  501    0  0.41581215026E+03  0.24052666187E+03 -0.16302832466E+03  0.50727808352E+03  0.00000000000E+00 0.  1.
         13    1    1    2    0    0  0.94099773180E+02 -0.12054136945E+03 -0.38928134877E+03  0.41824032413E+03  0.10566000000E+00 0. -1.
<mgrwt>
<rscale>  1 0.62736137E+03</rscale>
<asrwt>0</asrwt>
<pdfrwt beam="1">  1       21 0.58427519E-01 0.10043093E+04</pdfrwt>
<pdfrwt beam="2">  1        4 0.16831415E+00 0.10043093E+04</pdfrwt>
<totfact> 0.23259268E+01</totfact>
</mgrwt>
</event>
<event>
 6    1  0.1431486E-005  0.1037445E+04  0.7818608E-02  0.9649278E-01
          4   -1    0    0  502    0 -0.00000000000E+00  0.00000000000E+00  0.56854211728E+03  0.56854211728E+03  0.00000000000E+00 0.  1.
         21   -1    0    0  501  502  0.00000000000E+00 -0.00000000000E+00 -0.83206753623E+03  0.83206753623E+03  0.00000000000E+00 0.  1.
    9000010    2    1    2  501    0  0.25772429742E+03  0.81429494086E+02 -0.38195047468E+03  0.11055213939E+04  0.10016180965E+04 0.  0.
        -13    1    3    3    0    0 -0.16883251368E+03 -0.18357547141E+03  0.21228142032E+03  0.32751760862E+03  0.10566000000E+00 0.  1.
          4    1    3    3  501    0  0.42655681111E+03  0.26500496549E+03 -0.59423189500E+03  0.77800378525E+03  0.00000000000E+00 0.  1.
         13    1    1    2    0    0 -0.25772429742E+03 -0.81429494086E+02  0.11842505573E+03  0.29508825964E+03  0.10566000000E+00 0. -1.
<mgrwt>
<rscale>  1 0.74118761E+03</rscale>
<asrwt>0</asrwt>
<pdfrwt beam="2">  1       21 0.12801039E+00 0.10374446E+04</pdfrwt>
<pdfrwt beam="1">  1        4 0.87468018E-01 0.10374446E+04</pdfrwt>
<totfact> 0.18506910E+01</totfact>
</mgrwt>
</event>
<event>
 6    1  0.1431486E-005  0.1223740E+04  0.7818608E-02  0.9282447E-01
          4   -1    0    0  502    0 -0.00000000000E+00  0.00000000000E+00  0.79478619440E+03  0.79478619440E+03  0.00000000000E+00 0.  1.
         21   -1    0    0  501  502  0.00000000000E+00 -0.00000000000E+00 -0.10549913913E+04  0.10549913913E+04  0.00000000000E+00 0. -1.
    9000010    2    1    2  501    0 -0.44232452091E+03  0.40588149584E+03 -0.25188732684E+03  0.12493944009E+04  0.10663715924E+04 0.  0.
        -13    1    3    3    0    0 -0.46593801249E+03 -0.11317427667E+02 -0.56120157810E+03  0.72950225365E+03  0.10566000000E+00 0.  1.
          4    1    3    3  501    0  0.23613491577E+02  0.41719892351E+03  0.30931425126E+03  0.51989214727E+03  0.00000000000E+00 0.  1.
         13    1    1    2    0    0  0.44232452091E+03 -0.40588149584E+03 -0.83178700723E+01  0.60038318481E+03  0.10566000000E+00 0. -1.
<mgrwt>
<rscale>  1 0.10241499E+04</rscale>
<asrwt>0</asrwt>
<pdfrwt beam="2">  1       21 0.16230637E+00 0.12237398E+04</pdfrwt>
<pdfrwt beam="1">  1        4 0.12227480E+00 0.12237398E+04</pdfrwt>
<totfact> 0.41657260E+00</totfact>
</mgrwt>
</event>
<event>
 6    1  0.1431486E-005  0.9801215E+03  0.7818608E-02  0.9988327E-01
          4   -1    0    0  502    0 -0.00000000000E+00  0.00000000000E+00  0.69057186328E+03  0.69057186328E+03  0.00000000000E+00 0.  1.
         21   -1    0    0  501  502  0.00000000000E+00 -0.00000000000E+00 -0.53041941012E+03  0.53041941012E+03  0.00000000000E+00 0.  1.
    9000010    2    1    2  501    0  0.10020410361E+03 -0.33600741022E+02 -0.54599993554E+02  0.98164111837E+03  0.97440661626E+03 0.  0.
        -13    1    3    3    0    0 -0.21689281388E+03  0.32108446476E+03 -0.25663375338E+03  0.46475651772E+03  0.10566000000E+00 0.  1.
          4    1    3    3  501    0  0.31709691749E+03 -0.35468520578E+03  0.20203375983E+03  0.51688460065E+03  0.00000000000E+00 0.  1.
         13    1    1    2    0    0 -0.10020410361E+03  0.33600741022E+02  0.21475244672E+03  0.23935015503E+03  0.10566000000E+00 0. -1.
<mgrwt>
<rscale>  1 0.56165032E+03</rscale>
<asrwt>0</asrwt>
<pdfrwt beam="2">  1       21 0.81602986E-01 0.98012149E+03</pdfrwt>
<pdfrwt beam="1">  1        4 0.10624183E+00 0.98012149E+03</pdfrwt>
<totfact> 0.35937278E+01</totfact>
</mgrwt>
</event>
<event>
 6    1  0.1431486E-005  0.9874816E+03  0.7818608E-02  0.9811885E-01
         21   -1    0    0  501  502  0.00000000000E+00  0.00000000000E+00  0.46922664898E+03  0.46922664898E+03  0.00000000000E+00 0.  1.
          4   -1    0    0  502    0 -0.00000000000E+00 -0.00000000000E+00 -0.79946500763E+03  0.79946500763E+03  0.00000000000E+00 0.  1.
    9000010    2    1    2  501    0  0.18092336470E+03  0.22397367985E+02 -0.41062039829E+03  0.10694526307E+04  0.97050755372E+03 0.  0.
        -13    1    3    3    0    0 -0.83325771757E+02 -0.44309020826E+03 -0.21575384006E+03  0.49982181581E+03  0.10566000000E+00 0.  1.
          4    1    3    3  501    0  0.26424913646E+03  0.46548757624E+03 -0.19486655822E+03  0.56963081489E+03  0.00000000000E+00 0.  1.
         13    1    1    2    0    0 -0.18092336470E+03 -0.22397367985E+02  0.80382039636E+02  0.19923902592E+03  0.10566000000E+00 0. -1.
<mgrwt>
<rscale>  1 0.64728586E+03</rscale>
<asrwt>0</asrwt>
<pdfrwt beam="1">  1       21 0.72188716E-01 0.98748155E+03</pdfrwt>
<pdfrwt beam="2">  1        4 0.12299462E+00 0.98748155E+03</pdfrwt>
<totfact> 0.33227779E+01</totfact>
</mgrwt>
</event>
<event>
 6    1  0.1431486E-005  0.1037900E+04  0.7818608E-02  0.9637748E-01
          4   -1    0    0  502    0 -0.00000000000E+00  0.00000000000E+00  0.16234888019E+04  0.16234888019E+04  0.00000000000E+00 0.  1.
         21   -1    0    0  501  502  0.00000000000E+00 -0.00000000000E+00 -0.27427646396E+03  0.27427646396E+03  0.00000000000E+00 0.  1.
    9000010    2    1    2  501    0 -0.60696669450E+02 -0.27405720311E+03  0.93215552421E+03  0.13950448333E+04  0.99922206210E+03 0.  0.
        -13    1    3    3    0    0  0.10013575304E+03 -0.63149697283E+03  0.65250564348E+03  0.91355307545E+03  0.10566000000E+00 0.  1.
          4    1    3    3  501    0 -0.16083242249E+03  0.35743976972E+03  0.27964988074E+03  0.48149175787E+03  0.00000000000E+00 0.  1.
         13    1    1    2    0    0  0.60696669450E+02  0.27405720311E+03  0.41705681375E+03  0.50272043257E+03  0.10566000000E+00 0. -1.
<mgrwt>
<rscale>  1 0.74847359E+03</rscale>
<asrwt>0</asrwt>
<pdfrwt beam="2">  1       21 0.42196380E-01 0.10378999E+04</pdfrwt>
<pdfrwt beam="1">  1        4 0.24976750E+00 0.10378999E+04</pdfrwt>
<totfact> 0.13651567E+01</totfact>
</mgrwt>
</event>
<event>
 6    1  0.1431486E-005  0.1014476E+04  0.7818608E-02  0.9683504E-01
         21   -1    0    0  501  502  0.00000000000E+00  0.00000000000E+00  0.72543952879E+03  0.72543952879E+03  0.00000000000E+00 0.  1.
          4   -1    0    0  502    0 -0.00000000000E+00 -0.00000000000E+00 -0.67318829842E+03  0.67318829842E+03  0.00000000000E+00 0.  1.
    9000010    2    1    2  501    0  0.13426431017E+03 -0.21973091422E+03  0.28262857137E+03  0.10531103746E+04  0.98125122780E+03 0.  0.
        -13    1    3    3    0    0  0.53001451088E+03 -0.13270331970E+03  0.34050343409E+03  0.64379201035E+03  0.10566000000E+00 0.  1.
          4    1    3    3  501    0 -0.39575020071E+03 -0.87027594528E+02 -0.57874862716E+02  0.40931836424E+03  0.00000000000E+00 0.  1.
         13    1    1    2    0    0 -0.13426431017E+03  0.21973091422E+03 -0.23037734101E+03  0.34551745262E+03  0.10566000000E+00 0. -1.
<mgrwt>
<rscale>  1 0.72007497E+03</rscale>
<asrwt>0</asrwt>
<pdfrwt beam="1">  1       21 0.11160608E+00 0.10144765E+04</pdfrwt>
<pdfrwt beam="2">  1        4 0.10356743E+00 0.10144765E+04</pdfrwt>
<totfact> 0.17695272E+01</totfact>
</mgrwt>
</event>
<event>
 6    1  0.1431486E-005  0.1029288E+04  0.7818608E-02  0.9649351E-01
          4   -1    0    0  502    0 -0.00000000000E+00  0.00000000000E+00  0.39807423116E+03  0.39807423116E+03  0.00000000000E+00 0.  1.
         21   -1    0    0  501  502  0.00000000000E+00 -0.00000000000E+00 -0.15327581319E+04  0.15327581319E+04  0.00000000000E+00 0.  1.
    9000010    2    1    2  501    0  0.25893114349E+03 -0.97532551723E+02 -0.12600969321E+04  0.16270456364E+04  0.99140067023E+03 0.  0.
        -13    1    3    3    0    0  0.55368932032E+03 -0.25775427407E+03 -0.10934313127E+04  0.12524380927E+04  0.10566000000E+00 0.  1.
          4    1    3    3  501    0 -0.29475817682E+03  0.16022172234E+03 -0.16666561938E+03  0.37460754370E+03  0.00000000000E+00 0.  1.
         13    1    1    2    0    0 -0.25893114349E+03  0.97532551723E+02  0.12541303134E+03  0.30378672669E+03  0.10566000000E+00 0. -1.
<mgrwt>
<rscale>  1 0.74114192E+03</rscale>
<asrwt>0</asrwt>
<pdfrwt beam="2">  1       21 0.23580895E+00 0.10292877E+04</pdfrwt>
<pdfrwt beam="1">  1        4 0.61242189E-01 0.10292877E+04</pdfrwt>
<totfact> 0.66396276E+00</totfact>
</mgrwt>
</event>
<event>
 6    1  0.1431486E-005  0.1137503E+04  0.7818608E-02  0.9379097E-01
         21   -1    0    0  501  502  0.00000000000E+00  0.00000000000E+00  0.81112620217E+03  0.81112620217E+03  0.00000000000E+00 0.  1.
          4   -1    0    0  502    0 -0.00000000000E+00 -0.00000000000E+00 -0.10136405502E+04  0.10136405502E+04  0.00000000000E+00 0.  1.
    9000010    2    1    2  501    0 -0.19167630587E+03 -0.49017755467E+03  0.20915375053E+03  0.11565718138E+04  0.10084142144E+04 0.  0.
        -13    1    3    3    0    0 -0.54810442818E+03 -0.14905044867E+03 -0.96572757754E+02  0.57616040227E+03  0.10566000000E+00 0.  1.
          4    1    3    3  501    0  0.35642812231E+03 -0.34112710600E+03  0.30572650828E+03  0.58041141157E+03  0.00000000000E+00 0.  1.
         13    1    1    2    0    0  0.19167630587E+03  0.49017755467E+03 -0.41166809856E+03  0.66819493853E+03  0.10566000000E+00 0. -1.
<mgrwt>
<rscale>  1 0.93816040E+03</rscale>
<asrwt>0</asrwt>
<pdfrwt beam="1">  1       21 0.12478865E+00 0.11375030E+04</pdfrwt>
<pdfrwt beam="2">  1        4 0.15594470E+00 0.11375030E+04</pdfrwt>
<totfact> 0.45789452E+00</totfact>
</mgrwt>
</event>
<event>
 6    1  0.1431486E-005  0.1088293E+04  0.7818608E-02  0.9690650E-01
         21   -1    0    0  501  502  0.00000000000E+00  0.00000000000E+00  0.13499551309E+04  0.13499551309E+04  0.00000000000E+00 0.  1.
          4   -1    0    0  502    0 -0.00000000000E+00 -0.00000000000E+00 -0.34641766561E+03  0.34641766561E+03  0.00000000000E+00 0.  1.
    9000010    2    1    2  501    0  0.13415850471E+03 -0.15318580690E+03  0.10206657634E+04  0.14920255783E+04  0.10690731172E+04 0.  0.
        -13    1    3    3    0    0  0.30238855044E+03  0.70993896521E+02  0.11442852846E+04  0.11856929588E+04  0.10566000000E+00 0.  1.
          4    1    3    3  501    0 -0.16823004573E+03 -0.22417970342E+03 -0.12361952124E+03  0.30633261946E+03  0.00000000000E+00 0.  1.
         13    1    1    2    0    0 -0.13415850471E+03  0.15318580690E+03 -0.17128298140E+02  0.20434721820E+03  0.10566000000E+00 0. -1.
<mgrwt>
<rscale>  1 0.71576230E+03</rscale>
<asrwt>0</asrwt>
<pdfrwt beam="1">  1       21 0.20768540E+00 0.10882930E+04</pdfrwt>
<pdfrwt beam="2">  1        4 0.53295026E-01 0.10882930E+04</pdfrwt>
<totfact> 0.13647351E+01</totfact>
</mgrwt>
</event>
<event>
 6    1  0.1431486E-005  0.1167318E+04  0.7818608E-02  0.9325476E-01
         21   -1    0    0  501  502  0.00000000000E+00  0.00000000000E+00  0.26763704134E+03  0.26763704134E+03  0.00000000000E+00 0. -1.
          4   -1    0    0  502    0 -0.00000000000E+00 -0.00000000000E+00 -0.29381372443E+04  0.29381372443E+04  0.00000000000E+00 0.  1.
    9000010    2    1    2  501    0  0.24956807034E+03  0.53583796959E+03 -0.15679196537E+04  0.19547385427E+04  0.10065903727E+04 0.  0.
        -13    1    3    3    0    0  0.22420117733E+03  0.54481850548E+03 -0.17107718794E+04  0.18093738714E+04  0.10566000000E+00 0.  1.
          4    1    3    3  501    0  0.25366893013E+02 -0.89805358938E+01  0.14285222570E+03  0.14536467134E+03  0.00000000000E+00 0.  1.
         13    1    1    2    0    0 -0.24956807034E+03 -0.53583796959E+03 -0.11025805492E+04  0.12510357429E+04  0.10566000000E+00 0. -1.
<mgrwt>
<rscale>  1 0.98470966E+03</rscale>
<asrwt>0</asrwt>
<pdfrwt beam="1">  1       21 0.41174927E-01 0.11673178E+04</pdfrwt>
<pdfrwt beam="2">  1        4 0.45202114E+00 0.11673178E+04</pdfrwt>
<totfact> 0.65009635E-01</totfact>
</mgrwt>
</event>
<event>
 6    1  0.1431486E-005  0.1009688E+04  0.7818608E-02  0.9915968E-01
         21   -1    0    0  501  502  0.00000000000E+00  0.00000000000E+00  0.49437411250E+03  0.49437411250E+03  0.00000000000E+00 0.  1.
          4   -1    0    0  502    0 -0.00000000000E+00 -0.00000000000E+00 -0.67135985258E+03  0.67135985258E+03  0.00000000000E+00 0.  1.
    9000010    2    1    2  501    0  0.83345144810E+02 -0.88692865739E+02 -0.85162742834E+02  0.10132731125E+04  0.10023257305E+04 0.  0.
        -13    1    3    3    0    0  0.33203911924E+03  0.24792775445E+03 -0.32881052723E+03  0.52899387720E+03  0.10566000000E+00 0.  1.
          4    1    3    3  501    0 -0.24869397443E+03 -0.33662062019E+03  0.24364778439E+03  0.48427923525E+03  0.00000000000E+00 0.  1.
         13    1    1    2    0    0 -0.83345144810E+02  0.88692865739E+02 -0.91822997245E+02  0.15246085263E+03  0.10566000000E+00 0. -1.
<mgrwt>
<rscale>  1 0.59493593E+03</rscale>
<asrwt>0</asrwt>
<pdfrwt beam="1">  1       21 0.76057556E-01 0.10096879E+04</pdfrwt>
<pdfrwt beam="2">  1        4 0.10328613E+00 0.10096879E+04</pdfrwt>
<totfact> 0.45292226E+01</totfact>
</mgrwt>
</event>
<event>
 6    1  0.1431486E-005  0.1092158E+04  0.7818608E-02  0.9690231E-01
         21   -1    0    0  501  502  0.00000000000E+00  0.00000000000E+00  0.92647795420E+03  0.92647795420E+03  0.00000000000E+00 0.  1.
          4   -1    0    0  502    0 -0.00000000000E+00 -0.00000000000E+00 -0.45227505005E+03  0.45227505005E+03  0.00000000000E+00 0.  1.
    9000010    2    1    2  501    0 -0.11476213857E+03 -0.16593853920E+03  0.41681153611E+03  0.11689918841E+04  0.10733611793E+04 0.  0.
        -13    1    3    3    0    0 -0.18105981099E+03  0.29281755866E+03 -0.19944467160E+03  0.39787305263E+03  0.10566000000E+00 0.  1.
          4    1    3    3  501    0  0.66297672426E+02 -0.45875609787E+03  0.61625620771E+03  0.77111883146E+03  0.00000000000E+00 0.  1.
         13    1    1    2    0    0  0.11476213857E+03  0.16593853920E+03  0.57391368030E+02  0.20976112016E+03  0.10566000000E+00 0. -1.
<mgrwt>
<rscale>  1 0.71601397E+03</rscale>
<asrwt>0</asrwt>
<pdfrwt beam="1">  1       21 0.14253507E+00 0.10921585E+04</pdfrwt>
<pdfrwt beam="2">  1        4 0.69580777E-01 0.10921585E+04</pdfrwt>
<totfact> 0.23264441E+01</totfact>
</mgrwt>
</event>
<event>
 6    1  0.1431486E-005  0.1000205E+04  0.7818608E-02  0.9808678E-01
         21   -1    0    0  501  502  0.00000000000E+00  0.00000000000E+00  0.50628474431E+03  0.50628474431E+03  0.00000000000E+00 0.  1.
          4   -1    0    0  502    0 -0.00000000000E+00 -0.00000000000E+00 -0.76173255562E+03  0.76173255562E+03  0.00000000000E+00 0.  1.
    9000010    2    1    2  501    0 -0.16873375275E+03  0.54409589869E+02 -0.35902450785E+03  0.10626892063E+04  0.98436693832E+03 0.  0.
        -13    1    3    3    0    0 -0.43262146744E+03  0.36796836233E+03 -0.31775581305E+03  0.65079245360E+03  0.10566000000E+00 0.  1.
          4    1    3    3  501    0  0.26388771469E+03 -0.31355877246E+03 -0.41268694799E+02  0.41189675275E+03  0.00000000000E+00 0.  1.
         13    1    1    2    0    0  0.16873375275E+03 -0.54409589869E+02  0.10357669654E+03  0.20532809359E+03  0.10566000000E+00 0. -1.
<mgrwt>
<rscale>  1 0.64898910E+03</rscale>
<asrwt>0</asrwt>
<pdfrwt beam="1">  1       21 0.77889961E-01 0.10002049E+04</pdfrwt>
<pdfrwt beam="2">  1        4 0.11718962E+00 0.10002049E+04</pdfrwt>
<totfact> 0.31423195E+01</totfact>
</mgrwt>
</event>
<event>
 6    1  0.1431486E-005  0.1024002E+04  0.7818608E-02  0.9669457E-01
          4   -1    0    0  502    0 -0.00000000000E+00  0.00000000000E+00  0.41997215269E+03  0.41997215269E+03  0.00000000000E+00 0.  1.
         21   -1    0    0  501  502  0.00000000000E+00 -0.00000000000E+00 -0.98566608186E+03  0.98566608186E+03  0.00000000000E+00 0.  1.
    9000010    2    1    2  501    0 -0.26251596177E+03  0.20598810094E+01 -0.46150573905E+03  0.11231952077E+04  0.98977828533E+03 0.  0.
        -13    1    3    3    0    0  0.17859616796E+03 -0.25882828497E+03 -0.51967988122E+03  0.60741737086E+03  0.10566000000E+00 0.  1.
          4    1    3    3  501    0 -0.44111212973E+03  0.26088816598E+03  0.58174142175E+02  0.51577783683E+03  0.00000000000E+00 0.  1.
         13    1    1    2    0    0  0.26251596177E+03 -0.20598810094E+01 -0.10418819013E+03  0.28244302686E+03  0.10566000000E+00 0. -1.
<mgrwt>
<rscale>  1 0.72864813E+03</rscale>
<asrwt>0</asrwt>
<pdfrwt beam="2">  1       21 0.15164093E+00 0.10240019E+04</pdfrwt>
<pdfrwt beam="1">  1        4 0.64611101E-01 0.10240019E+04</pdfrwt>
<totfact> 0.23262156E+01</totfact>
</mgrwt>
</event>
<event>
 6    1  0.1431486E-005  0.1151464E+04  0.7818608E-02  0.9343101E-01
          4   -1    0    0  502    0 -0.00000000000E+00  0.00000000000E+00  0.42166926134E+03  0.42166926134E+03  0.00000000000E+00 0.  1.
         21   -1    0    0  501  502  0.00000000000E+00 -0.00000000000E+00 -0.21397736061E+04  0.21397736061E+04  0.00000000000E+00 0. -1.
    9000010    2    1    2  501    0 -0.53117947849E+03  0.22718676347E+03 -0.58956122473E+03  0.12936199110E+04  0.99604446317E+03 0.  0.
        -13    1    3    3    0    0  0.70799482070E+02  0.38527510747E+03  0.57370888701E+02  0.39590517189E+03  0.10566000000E+00 0.  1.
          4    1    3    3  501    0 -0.60197896056E+03 -0.15808834400E+03 -0.64693211343E+03  0.89771473913E+03  0.00000000000E+00 0.  1.
         13    1    1    2    0    0  0.53117947849E+03 -0.22718676347E+03 -0.11285431200E+04  0.12678229564E+04  0.10566000000E+00 0. -1.
<mgrwt>
<rscale>  1 0.96909887E+03</rscale>
<asrwt>0</asrwt>
<pdfrwt beam="2">  1       21 0.32919594E+00 0.11514643E+04</pdfrwt>
<pdfrwt beam="1">  1        4 0.64872193E-01 0.11514643E+04</pdfrwt>
<totfact> 0.14823419E+00</totfact>
</mgrwt>
</event>
<event>
 6    1  0.1431486E-005  0.1004349E+04  0.7818608E-02  0.9720008E-01
         21   -1    0    0  501  502  0.00000000000E+00  0.00000000000E+00  0.87946464407E+03  0.87946464407E+03  0.00000000000E+00 0.  1.
          4   -1    0    0  502    0 -0.00000000000E+00 -0.00000000000E+00 -0.97338983911E+03  0.97338983911E+03  0.00000000000E+00 0.  1.
    9000010    2    1    2  501    0 -0.23438676128E+03 -0.14034181745E+02  0.56568334841E+03  0.11526991048E+04  0.97651598216E+03 0.  0.
        -13    1    3    3    0    0 -0.37947615979E+03  0.35271674137E+03  0.75520780346E+02  0.52355960016E+03  0.10566000000E+00 0.  1.
          4    1    3    3  501    0  0.14508939851E+03 -0.36675092311E+03  0.49016256806E+03  0.62913950464E+03  0.00000000000E+00 0.  1.
         13    1    1    2    0    0  0.23438676128E+03  0.14034181745E+02 -0.65960854345E+03  0.70015537838E+03  0.10566000000E+00 0. -1.
<mgrwt>
<rscale>  1 0.69837897E+03</rscale>
<asrwt>0</asrwt>
<pdfrwt beam="1">  1       21 0.13530225E+00 0.10043493E+04</pdfrwt>
<pdfrwt beam="2">  1        4 0.14975228E+00 0.10043493E+04</pdfrwt>
<totfact> 0.41894385E+00</totfact>
</mgrwt>
</event>
<event>
 6    1  0.1431486E-005  0.1077944E+04  0.7818608E-02  0.9447234E-01
         21   -1    0    0  501  502  0.00000000000E+00  0.00000000000E+00  0.44717007538E+03  0.44717007538E+03  0.00000000000E+00 0. -1.
          4   -1    0    0  502    0 -0.00000000000E+00 -0.00000000000E+00 -0.14928740419E+04  0.14928740419E+04  0.00000000000E+00 0.  1.
    9000010    2    1    2  501    0 -0.18281063354E+03  0.44932717698E+03 -0.96795930875E+03  0.14487612225E+04  0.96262620826E+03 0.  0.
        -13    1    3    3    0    0 -0.21624124110E+03  0.59448989572E+03 -0.10872696163E+04  0.12579084785E+04  0.10566000000E+00 0.  1.
          4    1    3    3  501    0  0.33430607558E+02 -0.14516271873E+03  0.11931030756E+03  0.19085274408E+03  0.00000000000E+00 0.  1.
         13    1    1    2    0    0  0.18281063354E+03 -0.44932717698E+03 -0.77744657788E+02  0.49128289477E+03  0.10566000000E+00 0. -1.
<mgrwt>
<rscale>  1 0.88288351E+03</rscale>
<asrwt>0</asrwt>
<pdfrwt beam="1">  1       21 0.68795397E-01 0.10779443E+04</pdfrwt>
<pdfrwt beam="2">  1        4 0.22967293E+00 0.10779443E+04</pdfrwt>
<totfact> 0.62095677E+00</totfact>
</mgrwt>
</event>
<event>
 6    1  0.1431486E-005  0.1141941E+04  0.7818608E-02  0.9295029E-01
         21   -1    0    0  501  502  0.00000000000E+00  0.00000000000E+00  0.66749543419E+03  0.66749543419E+03  0.00000000000E+00 0. -1.
          4   -1    0    0  502    0 -0.00000000000E+00 -0.00000000000E+00 -0.13331155784E+04  0.13331155784E+04  0.00000000000E+00 0.  1.
    9000010    2    1    2  501    0 -0.36461325418E+03  0.60399712966E+03 -0.21090647890E+03  0.11612541836E+04  0.89792782466E+03 0.  0.
        -13    1    3    3    0    0 -0.10418246017E+02  0.31930022396E+03  0.32695517782E+03  0.45712238223E+03  0.10566000000E+00 0.  1.
          4    1    3    3  501    0 -0.35419500816E+03  0.28469690570E+03 -0.53786165672E+03  0.70413180136E+03  0.00000000000E+00 0.  1.
         13    1    1    2    0    0  0.36461325418E+03 -0.60399712966E+03 -0.45471366526E+03  0.83935682895E+03  0.10566000000E+00 0. -1.
<mgrwt>
<rscale>  1 0.10124179E+04</rscale>
<asrwt>0</asrwt>
<pdfrwt beam="1">  1       21 0.10269161E+00 0.11419412E+04</pdfrwt>
<pdfrwt beam="2">  1        4 0.20509470E+00 0.11419412E+04</pdfrwt>
<totfact> 0.34074224E+00</totfact>
</mgrwt>
</event>
<event>
 6    1  0.1431486E-005  0.1290029E+04  0.7818608E-02  0.9147217E-01
         21   -1    0    0  501  502  0.00000000000E+00  0.00000000000E+00  0.19895625457E+04  0.19895625457E+04  0.00000000000E+00 0.  1.
          4   -1    0    0  502    0 -0.00000000000E+00 -0.00000000000E+00 -0.69481354924E+03  0.69481354924E+03  0.00000000000E+00 0.  1.
    9000010    2    1    2  501    0 -0.80244481144E+03 -0.27371457891E+03  0.13070399782E+04  0.18364442431E+04  0.97228422134E+03 0.  0.
        -13    1    3    3    0    0 -0.66401555113E+03 -0.50125968119E+03  0.46460714111E+03  0.95291013578E+03  0.10566000000E+00 0.  1.
          4    1    3    3  501    0 -0.13842926031E+03  0.22754510228E+03  0.84243283712E+03  0.88353410729E+03  0.00000000000E+00 0.  1.
         13    1    1    2    0    0  0.80244481144E+03  0.27371457891E+03 -0.12290981724E+02  0.84793185193E+03  0.10566000000E+00 0. -1.
<mgrwt>
<rscale>  1 0.11615244E+04</rscale>
<asrwt>0</asrwt>
<pdfrwt beam="1">  1       21 0.30608654E+00 0.12900287E+04</pdfrwt>
<pdfrwt beam="2">  1        4 0.10689439E+00 0.12900287E+04</pdfrwt>
<totfact> 0.63202488E-01</totfact>
</mgrwt>
</event>
<event>
 6    1  0.1431486E-005  0.1141648E+04  0.7818608E-02  0.9352325E-01
          4   -1    0    0  502    0 -0.00000000000E+00  0.00000000000E+00  0.13492464722E+04  0.13492464722E+04  0.00000000000E+00 0.  1.
         21   -1    0    0  501  502  0.00000000000E+00 -0.00000000000E+00 -0.68280712927E+03  0.68280712927E+03  0.00000000000E+00 0. -1.
    9000010    2    1    2  501    0 -0.57153727193E+03  0.45066008116E+02 -0.14712409443E+02  0.11417426899E+04  0.98725585170E+03 0.  0.
        -13    1    3    3    0    0  0.42221268491E+02  0.39357812864E+03  0.13874538385E+03  0.41944805586E+03  0.10566000000E+00 0.  1.
          4    1    3    3  501    0 -0.61375854042E+03 -0.34851212052E+03 -0.15345779329E+03  0.72229463407E+03  0.00000000000E+00 0.  1.
         13    1    1    2    0    0  0.57153727193E+03 -0.45066008116E+02  0.68115175237E+03  0.89031091154E+03  0.10566000000E+00 0. -1.
<mgrwt>
<rscale>  1 0.96105171E+03</rscale>
<asrwt>0</asrwt>
<pdfrwt beam="2">  1       21 0.10504725E+00 0.11416479E+04</pdfrwt>
<pdfrwt beam="1">  1        4 0.20757638E+00 0.11416479E+04</pdfrwt>
<totfact> 0.31004057E+00</totfact>
</mgrwt>
</event>
<event>
 6    1  0.1431486E-005  0.9941679E+03  0.7818608E-02  0.9805921E-01
         21   -1    0    0  501  502  0.00000000000E+00  0.00000000000E+00  0.23597405754E+04  0.23597405754E+04  0.00000000000E+00 0.  1.
          4   -1    0    0  502    0 -0.00000000000E+00 -0.00000000000E+00 -0.23230007910E+03  0.23230007910E+03  0.00000000000E+00 0.  1.
    9000010    2    1    2  501    0 -0.94995174495E+02 -0.15545063850E+03  0.21853669981E+04  0.24008745619E+04  0.97733349547E+03 0.  0.
        -13    1    3    3    0    0  0.41251929002E+03 -0.22204409921E+03  0.12449432241E+04  0.13301726914E+04  0.10566000000E+00 0.  1.
          4    1    3    3  501    0 -0.50751446452E+03  0.66593460706E+02  0.94042377403E+03  0.10707018705E+04  0.00000000000E+00 0.  1.
         13    1    1    2    0    0  0.94995174495E+02  0.15545063850E+03 -0.57926501804E+02  0.19116609261E+03  0.10566000000E+00 0. -1.
<mgrwt>
<rscale>  1 0.65045769E+03</rscale>
<asrwt>0</asrwt>
<pdfrwt beam="1">  1       21 0.36303700E+00 0.99416787E+03</pdfrwt>
<pdfrwt beam="2">  1        4 0.35738475E-01 0.99416787E+03</pdfrwt>
<totfact> 0.32705575E+00</totfact>
</mgrwt>
</event>
<event>
 6    1  0.1431486E-005  0.1093862E+04  0.7818608E-02  0.9466052E-01
          4   -1    0    0  502    0 -0.00000000000E+00  0.00000000000E+00  0.67889642257E+03  0.67889642257E+03  0.00000000000E+00 0.  1.
         21   -1    0    0  501  502  0.00000000000E+00 -0.00000000000E+00 -0.10166230591E+04  0.10166230591E+04  0.00000000000E+00 0.  1.
    9000010    2    1    2  501    0  0.11584505338E+02  0.43421899717E+03 -0.53589218852E+03  0.12180784535E+04  0.10039194902E+04 0.  0.
        -13    1    3    3    0    0  0.26687274373E+03 -0.21716464846E+03 -0.35728153927E+03  0.49601578136E+03  0.10566000000E+00 0.  1.
          4    1    3    3  501    0 -0.25528823839E+03  0.65138364562E+03 -0.17861064925E+03  0.72206267212E+03  0.00000000000E+00 0.  1.
         13    1    1    2    0    0 -0.11584505338E+02 -0.43421899717E+03  0.19816555196E+03  0.47744102821E+03  0.10566000000E+00 0. -1.
<mgrwt>
<rscale>  1 0.86833602E+03</rscale>
<asrwt>0</asrwt>
<pdfrwt beam="2">  1       21 0.15640355E+00 0.10938623E+04</pdfrwt>
<pdfrwt beam="1">  1        4 0.10444560E+00 0.10938623E+04</pdfrwt>
<totfact> 0.69572915E+00</totfact>
</mgrwt>
</event>
<event>
 6    1  0.1431486E-005  0.1094513E+04  0.7818608E-02  0.9497311E-01
         21   -1    0    0  501  502  0.00000000000E+00  0.00000000000E+00  0.17461809426E+03  0.17461809426E+03  0.00000000000E+00 0. -1.
          4   -1    0    0  502    0 -0.00000000000E+00 -0.00000000000E+00 -0.36935014000E+04  0.36935014000E+04  0.00000000000E+00 0.  1.
    9000010    2    1    2  501    0 -0.15539558363E+03 -0.35607730940E+03 -0.18063876321E+04  0.21121068858E+04  0.10232401390E+04 0.  0.
        -13    1    3    3    0    0 -0.17169904904E+03 -0.10007544282E+03 -0.18423853043E+04  0.18530729285E+04  0.10566000000E+00 0.  1.
          4    1    3    3  501    0  0.16303465410E+02 -0.25600186659E+03  0.35997672106E+02  0.25903395738E+03  0.00000000000E+00 0.  1.
         13    1    1    2    0    0  0.15539558363E+03  0.35607730940E+03 -0.17124956736E+04  0.17560126084E+04  0.10566000000E+00 0. -1.
<mgrwt>
<rscale>  1 0.84482332E+03</rscale>
<asrwt>0</asrwt>
<pdfrwt beam="1">  1       21 0.26864323E-01 0.10945132E+04</pdfrwt>
<pdfrwt beam="2">  1        4 0.56823096E+00 0.10945132E+04</pdfrwt>
<totfact> 0.17973951E-01</totfact>
</mgrwt>
</event>
<event>
 6    1  0.1431486E-005  0.1001070E+04  0.7818608E-02  0.1007123E+00
          4   -1    0    0  502    0 -0.00000000000E+00  0.00000000000E+00  0.85083327882E+03  0.85083327882E+03  0.00000000000E+00 0.  1.
         21   -1    0    0  501  502  0.00000000000E+00 -0.00000000000E+00 -0.34254965403E+03  0.34254965403E+03  0.00000000000E+00 0.  1.
    9000010    2    1    2  501    0 -0.76234496512E+02  0.64075464374E+01  0.45187391807E+03  0.10983312559E+04  0.99814265254E+03 0.  0.
        -13    1    3    3    0    0  0.63380118573E+02  0.40534253495E+03  0.52821962014E+03  0.66883150968E+03  0.10566000000E+00 0.  1.
          4    1    3    3  501    0 -0.13961461508E+03 -0.39893498852E+03 -0.76345702073E+02  0.42949974625E+03  0.00000000000E+00 0.  1.
         13    1    1    2    0    0  0.76234496512E+02 -0.64075464374E+01  0.56409706725E+02  0.95051676927E+02  0.10566000000E+00 0. -1.
<mgrwt>
<rscale>  1 0.52634262E+03</rscale>
<asrwt>0</asrwt>
<pdfrwt beam="2">  1       21 0.52699947E-01 0.10010702E+04</pdfrwt>
<pdfrwt beam="1">  1        4 0.13089743E+00 0.10010702E+04</pdfrwt>
<totfact> 0.57290041E+01</totfact>
</mgrwt>
</event>
<event>
 6    1  0.1431486E-005  0.1049731E+04  0.7818608E-02  0.9565057E-01
         21   -1    0    0  501  502  0.00000000000E+00  0.00000000000E+00  0.97508614909E+03  0.97508614909E+03  0.00000000000E+00 0.  1.
          4   -1    0    0  502    0 -0.00000000000E+00 -0.00000000000E+00 -0.51152806279E+03  0.51152806279E+03  0.00000000000E+00 0.  1.
    9000010    2    1    2  501    0  0.34770185974E+03  0.14205295125E+02  0.43876753536E+03  0.11377403719E+04  0.99037257130E+03 0.  0.
        -13    1    3    3    0    0 -0.59168214173E+02 -0.24200051751E+02  0.66672617109E+03  0.66978378485E+03  0.10566000000E+00 0.  1.
          4    1    3    3  501    0  0.40687007391E+03  0.38405346875E+02 -0.22795863573E+03  0.46795658700E+03  0.00000000000E+00 0.  1.
         13    1    1    2    0    0 -0.34770185974E+03 -0.14205295125E+02  0.24790550937E+02  0.34887384003E+03  0.10566000000E+00 0. -1.
<mgrwt>
<rscale>  1 0.79652785E+03</rscale>
<asrwt>0</asrwt>
<pdfrwt beam="1">  1       21 0.15001325E+00 0.10497315E+04</pdfrwt>
<pdfrwt beam="2">  1        4 0.78696625E-01 0.10497315E+04</pdfrwt>
<totfact> 0.15343266E+01</totfact>
</mgrwt>
</event>
<event>
 6    1  0.1431486E-005  0.1072730E+04  0.7818608E-02  0.9552141E-01
          4   -1    0    0  502    0 -0.00000000000E+00  0.00000000000E+00  0.18910371827E+04  0.18910371827E+04  0.00000000000E+00 0.  1.
         21   -1    0    0  501  502  0.00000000000E+00 -0.00000000000E+00 -0.26799993647E+03  0.26799993647E+03  0.00000000000E+00 0.  1.
    9000010    2    1    2  501    0 -0.26679017902E+03  0.21232635226E+03  0.13357249392E+04  0.17131583773E+04  0.10170993231E+04 0.  0.
        -13    1    3    3    0    0 -0.42312354733E+03  0.55374968350E+03  0.88771356975E+03  0.11285865680E+04  0.10566000000E+00 0.  1.
          4    1    3    3  501    0  0.15633336830E+03 -0.34142333124E+03  0.44801136946E+03  0.58457180938E+03  0.00000000000E+00 0.  1.
         13    1    1    2    0    0  0.26679017902E+03 -0.21232635226E+03  0.28731230701E+03  0.44587874182E+03  0.10566000000E+00 0. -1.
<mgrwt>
<rscale>  1 0.80546477E+03</rscale>
<asrwt>0</asrwt>
<pdfrwt beam="2">  1       21 0.41230761E-01 0.10727304E+04</pdfrwt>
<pdfrwt beam="1">  1        4 0.29092879E+00 0.10727304E+04</pdfrwt>
<totfact> 0.79546127E+00</totfact>
</mgrwt>
</event>
<event>
 6    1  0.1431486E-005  0.1060537E+04  0.7818608E-02  0.9515379E-01
         21   -1    0    0  501  502  0.00000000000E+00  0.00000000000E+00  0.86494812356E+03  0.86494812356E+03  0.00000000000E+00 0.  1.
          4   -1    0    0  502    0 -0.00000000000E+00 -0.00000000000E+00 -0.61894509669E+03  0.61894509669E+03  0.00000000000E+00 0.  1.
    9000010    2    1    2  501    0  0.40081465477E+03 -0.96431695019E+01  0.21204342528E+03  0.10815269146E+04  0.98183128626E+03 0.  0.
        -13    1    3    3    0    0  0.20247029476E+03 -0.88629195546E+02  0.59961064544E+03  0.63904795740E+03  0.10566000000E+00 0.  1.
          4    1    3    3  501    0  0.19834436001E+03  0.78986026044E+02 -0.38756722016E+03  0.44247895724E+03  0.00000000000E+00 0.  1.
         13    1    1    2    0    0 -0.40081465477E+03  0.96431695019E+01  0.33959601590E+02  0.40236630562E+03  0.10566000000E+00 0. -1.
<mgrwt>
<rscale>  1 0.83159446E+03</rscale>
<asrwt>0</asrwt>
<pdfrwt beam="1">  1       21 0.13306894E+00 0.10605367E+04</pdfrwt>
<pdfrwt beam="2">  1        4 0.95222322E-01 0.10605367E+04</pdfrwt>
<totfact> 0.13626751E+01</totfact>
</mgrwt>
</event>
<event>
 6    1  0.1431486E-005  0.1025800E+04  0.7818608E-02  0.9675040E-01
          4   -1    0    0  502    0 -0.00000000000E+00  0.00000000000E+00  0.58361552822E+03  0.58361552822E+03  0.00000000000E+00 0.  1.
         21   -1    0    0  501  502  0.00000000000E+00 -0.00000000000E+00 -0.70424588471E+03  0.70424588471E+03  0.00000000000E+00 0.  1.
    9000010    2    1    2  501    0 -0.17557574228E+03  0.18667949210E+03 -0.89289638774E+02  0.10296786757E+04  0.99327209845E+03 0.  0.
        -13    1    3    3    0    0 -0.38628178766E+03  0.18522485202E+03  0.34298640346E+03  0.54878187780E+03  0.10566000000E+00 0.  1.
          4    1    3    3  501    0  0.21070604538E+03  0.14546400736E+01 -0.43227604224E+03  0.48089679790E+03  0.00000000000E+00 0.  1.
         13    1    1    2    0    0  0.17557574228E+03 -0.18667949210E+03 -0.31340717717E+02  0.25818273722E+03  0.10566000000E+00 0. -1.
<mgrwt>
<rscale>  1 0.72522533E+03</rscale>
<asrwt>0</asrwt>
<pdfrwt beam="2">  1       21 0.10834552E+00 0.10257999E+04</pdfrwt>
<pdfrwt beam="1">  1        4 0.89787004E-01 0.10257999E+04</pdfrwt>
<totfact> 0.26811243E+01</totfact>
</mgrwt>
</event>
<event>
 6    1  0.1431486E-005  0.9972581E+03  0.7818608E-02  0.1032123E+00
          4   -1    0    0  502    0 -0.00000000000E+00  0.00000000000E+00  0.18436374615E+03  0.18436374615E+03  0.00000000000E+00 0.  1.
         21   -1    0    0  501  502  0.00000000000E+00 -0.00000000000E+00 -0.17224970401E+04  0.17224970401E+04  0.00000000000E+00 0.  1.
    9000010    2    1    2  501    0  0.16778649813E+02 -0.32170112245E+02 -0.15690777401E+04  0.18591742145E+04  0.99659789603E+03 0.  0.
        -13    1    3    3    0    0 -0.19202727608E+03  0.31344946484E+03 -0.17374142721E+03  0.40658472236E+03  0.10566000000E+00 0.  1.
          4    1    3    3  501    0  0.20880592589E+03 -0.34561957709E+03 -0.13953363129E+04  0.14525894922E+04  0.00000000000E+00 0.  1.
         13    1    1    2    0    0 -0.16778649813E+02  0.32170112245E+02  0.30944446125E+02  0.47686571710E+02  0.10566000000E+00 0. -1.
<mgrwt>
<rscale>  1 0.43554322E+03</rscale>
<asrwt>0</asrwt>
<pdfrwt beam="2">  1       21 0.26499954E+00 0.99725814E+03</pdfrwt>
<pdfrwt beam="1">  1        4 0.28363653E-01 0.99725814E+03</pdfrwt>
<totfact> 0.21177773E+01</totfact>
</mgrwt>
</event>
<event>
 6    1  0.1431486E-005  0.1381301E+04  0.7818608E-02  0.9066387E-01
          4   -1    0    0  502    0 -0.00000000000E+00  0.00000000000E+00  0.59714947367E+03  0.59714947367E+03  0.00000000000E+00 0.  1.
         21   -1    0    0  501  502  0.00000000000E+00 -0.00000000000E+00 -0.23877168963E+04  0.23877168963E+04  0.00000000000E+00 0. -1.
    9000010    2    1    2  501    0 -0.93713456218E+03  0.73021809004E+02 -0.71140981607E+03  0.15537358647E+04  0.10121451667E+04 0.  0.
        -13    1    3    3    0    0  0.20295659218E+03 -0.63511146108E+02 -0.20472401781E+02  0.21364497277E+03  0.10566000000E+00 0.  1.
          4    1    3    3  501    0 -0.11400911544E+04  0.13653295511E+03 -0.69093741429E+03  0.13400908919E+04  0.00000000000E+00 0.  1.
         13    1    1    2    0    0  0.93713456218E+03 -0.73021809004E+02 -0.10791576065E+04  0.14311305053E+04  0.10566000000E+00 0. -1.
<mgrwt>
<rscale>  1 0.12545711E+04</rscale>
<asrwt>0</asrwt>
<pdfrwt beam="2">  1       21 0.36734106E+00 0.13813006E+04</pdfrwt>
<pdfrwt beam="1">  1        4 0.91869150E-01 0.13813006E+04</pdfrwt>
<totfact> 0.36721964E-01</totfact>
</mgrwt>
</event>
<event>
 6    1  0.1431486E-005  0.9979461E+03  0.7818608E-02  0.1003078E+00
         21   -1    0    0  501  502  0.00000000000E+00  0.00000000000E+00  0.67443442620E+03  0.67443442620E+03  0.00000000000E+00 0.  1.
          4   -1    0    0  502    0 -0.00000000000E+00 -0.00000000000E+00 -0.44496972685E+03  0.44496972685E+03  0.00000000000E+00 0.  1.
    9000010    2    1    2  501    0 -0.54959102914E+02 -0.68225336213E+02  0.25133121685E+03  0.10291082215E+04  0.99409313024E+03 0.  0.
        -13    1    3    3    0    0 -0.31133083661E+03 -0.33499510181E+03  0.42142712802E+03  0.62189182616E+03  0.10566000000E+00 0.  1.
          4    1    3    3  501    0  0.25637173369E+03  0.26676976559E+03 -0.17009591116E+03  0.40721639538E+03  0.00000000000E+00 0.  1.
         13    1    1    2    0    0  0.54959102914E+02  0.68225336213E+02 -0.21866517498E+02  0.90295931503E+02  0.10566000000E+00 0. -1.
<mgrwt>
<rscale>  1 0.54320854E+03</rscale>
<asrwt>0</asrwt>
<pdfrwt beam="1">  1       21 0.10375914E+00 0.99794607E+03</pdfrwt>
<pdfrwt beam="2">  1        4 0.68456881E-01 0.99794607E+03</pdfrwt>
<totfact> 0.55766901E+01</totfact>
</mgrwt>
</event>
<event>
 6    1  0.1431486E-005  0.1103051E+04  0.7818608E-02  0.9438040E-01
         21   -1    0    0  501  502  0.00000000000E+00  0.00000000000E+00  0.23506332910E+03  0.23506332910E+03  0.00000000000E+00 0.  1.
          4   -1    0    0  502    0 -0.00000000000E+00 -0.00000000000E+00 -0.29165249637E+04  0.29165249637E+04  0.00000000000E+00 0.  1.
    9000010    2    1    2  501    0  0.44674391563E+03 -0.13844423734E+03 -0.13678305298E+04  0.17571803095E+04  0.99898716161E+03 0.  0.
        -13    1    3    3    0    0 -0.22202372558E+03 -0.29451391622E+03 -0.73948550478E+03  0.82636057779E+03  0.10566000000E+00 0.  1.
          4    1    3    3  501    0  0.66876764121E+03  0.15606967888E+03 -0.62834502497E+03  0.93081973174E+03  0.00000000000E+00 0.  1.
         13    1    1    2    0    0 -0.44674391563E+03  0.13844423734E+03 -0.13136311048E+04  0.13944079832E+04  0.10566000000E+00 0. -1.
<mgrwt>
<rscale>  1 0.89010153E+03</rscale>
<asrwt>0</asrwt>
<pdfrwt beam="1">  1       21 0.36163589E-01 0.11030514E+04</pdfrwt>
<pdfrwt beam="2">  1        4 0.44869615E+00 0.11030514E+04</pdfrwt>
<totfact> 0.91210233E-01</totfact>
</mgrwt>
</event>
<event>
 6    1  0.1431486E-005  0.1042055E+04  0.7818608E-02  0.9666275E-01
         21   -1    0    0  501  502  0.00000000000E+00  0.00000000000E+00  0.10982234084E+04  0.10982234084E+04  0.00000000000E+00 0.  1.
          4   -1    0    0  502    0 -0.00000000000E+00 -0.00000000000E+00 -0.42478484607E+03  0.42478484607E+03  0.00000000000E+00 0.  1.
    9000010    2    1    2  501    0  0.19835524972E+02 -0.25102326625E+03  0.72044319082E+03  0.12668528826E+04  0.10111734306E+04 0.  0.
        -13    1    3    3    0    0 -0.17624036706E+03  0.12967280109E+03  0.80167019496E+03  0.83099387181E+03  0.10566000000E+00 0.  1.
          4    1    3    3  501    0  0.19607589203E+03 -0.38069606733E+03 -0.81227004148E+02  0.43585901083E+03  0.00000000000E+00 0.  1.
         13    1    1    2    0    0 -0.19835524972E+02  0.25102326625E+03 -0.47004628498E+02  0.25615537182E+03  0.10566000000E+00 0. -1.
<mgrwt>
<rscale>  1 0.73060775E+03</rscale>
<asrwt>0</asrwt>
<pdfrwt beam="1">  1       21 0.16895745E+00 0.10420546E+04</pdfrwt>
<pdfrwt beam="2">  1        4 0.65351515E-01 0.10420546E+04</pdfrwt>
<totfact> 0.16612014E+01</totfact>
</mgrwt>
</event>
<event>
 6    1  0.1431486E-005  0.1128969E+04  0.7818608E-02  0.9381047E-01
         21   -1    0    0  501  502  0.00000000000E+00  0.00000000000E+00  0.12171898813E+04  0.12171898813E+04  0.00000000000E+00 0. -1.
          4   -1    0    0  502    0 -0.00000000000E+00 -0.00000000000E+00 -0.59979932555E+03  0.59979932555E+03  0.00000000000E+00 0.  1.
    9000010    2    1    2  501    0 -0.13597829009E+03 -0.51700910082E+03  0.21835105197E+03  0.11498902319E+04  0.99437510916E+03 0.  0.
        -13    1    3    3    0    0 -0.51708074093E+03 -0.11959929634E+03 -0.57869562776E+02  0.53387768429E+03  0.10566000000E+00 0.  1.
          4    1    3    3  501    0  0.38110245085E+03 -0.39740980448E+03  0.27622061475E+03  0.61601254756E+03  0.00000000000E+00 0.  1.
         13    1    1    2    0    0  0.13597829009E+03  0.51700910082E+03  0.39903950379E+03  0.66709897500E+03  0.10566000000E+00 0. -1.
<mgrwt>
<rscale>  1 0.93652006E+03</rscale>
<asrwt>0</asrwt>
<pdfrwt beam="1">  1       21 0.18725998E+00 0.11289687E+04</pdfrwt>
<pdfrwt beam="2">  1        4 0.92276820E-01 0.11289687E+04</pdfrwt>
<totfact> 0.54846350E+00</totfact>
</mgrwt>
</event>
<event>
 6    1  0.1431486E-005  0.1042238E+04  0.7818608E-02  0.9886242E-01
         21   -1    0    0  501  502  0.00000000000E+00  0.00000000000E+00  0.50036105957E+03  0.50036105957E+03  0.00000000000E+00 0.  1.
          4   -1    0    0  502    0 -0.00000000000E+00 -0.00000000000E+00 -0.69472592955E+03  0.69472592955E+03  0.00000000000E+00 0.  1.
    9000010    2    1    2  501    0  0.15932757653E+02  0.12071216891E+03 -0.11233713636E+03  0.10482747255E+04  0.10351014383E+04 0.  0.
        -13    1    3    3    0    0 -0.16805824244E+03  0.20603283102E+03 -0.52498839508E+03  0.58847763462E+03  0.10566000000E+00 0.  1.
          4    1    3    3  501    0  0.18399100009E+03 -0.85320662109E+02  0.41265125872E+03  0.45979709093E+03  0.00000000000E+00 0.  1.
         13    1    1    2    0    0 -0.15932757653E+02 -0.12071216891E+03 -0.82027733627E+02  0.14681226358E+03  0.10566000000E+00 0. -1.
<mgrwt>
<rscale>  1 0.60932727E+03</rscale>
<asrwt>0</asrwt>
<pdfrwt beam="1">  1       21 0.76978625E-01 0.10422381E+04</pdfrwt>
<pdfrwt beam="2">  1        4 0.10688091E+00 0.10422381E+04</pdfrwt>
<totfact> 0.40400134E+01</totfact>
</mgrwt>
</event>
<event>
 6    1  0.1431486E-005  0.8589313E+03  0.7818608E-02  0.1012649E+00
         21   -1    0    0  501  502  0.00000000000E+00  0.00000000000E+00  0.25814413816E+03  0.25814413816E+03  0.00000000000E+00 0.  1.
          4   -1    0    0  502    0 -0.00000000000E+00 -0.00000000000E+00 -0.12448046905E+04  0.12448046905E+04  0.00000000000E+00 0.  1.
    9000010    2    1    2  501    0  0.70656405736E+02 -0.73715359390E+02 -0.47565304852E+03  0.98183947160E+03  0.85284033883E+03 0.  0.
        -13    1    3    3    0    0  0.23721229140E+03 -0.41453572122E+03 -0.23185726327E+03  0.53091179780E+03  0.10566000000E+00 0.  1.
          4    1    3    3  501    0 -0.16655588566E+03  0.34082036183E+03 -0.24379578525E+03  0.45092767379E+03  0.00000000000E+00 0.  1.
         13    1    1    2    0    0 -0.70656405736E+02  0.73715359390E+02 -0.51100750378E+03  0.52110935701E+03  0.10566000000E+00 0. -1.
<mgrwt>
<rscale>  1 0.50435351E+03</rscale>
<asrwt>0</asrwt>
<pdfrwt beam="1">  1       21 0.39714483E-01 0.85893127E+03</pdfrwt>
<pdfrwt beam="2">  1        4 0.19150841E+00 0.85893127E+03</pdfrwt>
<totfact> 0.37285266E+01</totfact>
</mgrwt>
</event>
<event>
 6    1  0.1431486E-005  0.9330631E+03  0.7818608E-02  0.9803384E-01
          4   -1    0    0  502    0 -0.00000000000E+00  0.00000000000E+00  0.11763145390E+04  0.11763145390E+04  0.00000000000E+00 0.  1.
         21   -1    0    0  501  502  0.00000000000E+00 -0.00000000000E+00 -0.29364852305E+03  0.29364852305E+03  0.00000000000E+00 0. -1.
    9000010    2    1    2  501    0 -0.32118645533E+02  0.21987334610E+03  0.81165529706E+03  0.12366854826E+04  0.90621783579E+03 0.  0.
        -13    1    3    3    0    0  0.49172580371E+02  0.31225559108E+03 -0.88420066217E+02  0.32823713394E+03  0.10566000000E+00 0.  1.
          4    1    3    3  501    0 -0.81291225904E+02 -0.92382244980E+02  0.90007536328E+03  0.90844834866E+03  0.00000000000E+00 0.  1.
         13    1    1    2    0    0  0.32118645533E+02 -0.21987334610E+03  0.71010718889E+02  0.23327757946E+03  0.10566000000E+00 0. -1.
<mgrwt>
<rscale>  1 0.65181250E+03</rscale>
<asrwt>0</asrwt>
<pdfrwt beam="2">  1       21 0.45176697E-01 0.93306305E+03</pdfrwt>
<pdfrwt beam="1">  1        4 0.18097146E+00 0.93306305E+03</pdfrwt>
<totfact> 0.33293342E+01</totfact>
</mgrwt>
</event>
<event>
 6    1  0.1431486E-005  0.1020217E+04  0.7818608E-02  0.9782816E-01
         21   -1    0    0  501  502  0.00000000000E+00  0.00000000000E+00  0.12329462043E+04  0.12329462043E+04  0.00000000000E+00 0.  1.
          4   -1    0    0  502    0 -0.00000000000E+00 -0.00000000000E+00 -0.29311275922E+03  0.29311275922E+03  0.00000000000E+00 0.  1.
    9000010    2    1    2  501    0  0.18089929890E+03 -0.18888157885E+02  0.78708443583E+03  0.12885435117E+04  0.10038730764E+04 0.  0.
        -13    1    3    3    0    0 -0.12428750724E+03 -0.18655264629E+03 -0.16267091827E+03  0.27696771131E+03  0.10566000000E+00 0.  1.
          4    1    3    3  501    0  0.30518680614E+03  0.16766448840E+03  0.94975535411E+03  0.10115758004E+04  0.00000000000E+00 0.  1.
         13    1    1    2    0    0 -0.18089929890E+03  0.18888157885E+02  0.15274900927E+03  0.23751545181E+03  0.10566000000E+00 0. -1.
<mgrwt>
<rscale>  1 0.66292943E+03</rscale>
<asrwt>0</asrwt>
<pdfrwt beam="1">  1       21 0.18968403E+00 0.10202169E+04</pdfrwt>
<pdfrwt beam="2">  1        4 0.45094271E-01 0.10202169E+04</pdfrwt>
<totfact> 0.26053238E+01</totfact>
</mgrwt>
</event>
<event>
 6    1  0.1431486E-005  0.9898831E+03  0.7818608E-02  0.9910566E-01
         21   -1    0    0  501  502  0.00000000000E+00  0.00000000000E+00  0.10087279776E+04  0.10087279776E+04  0.00000000000E+00 0.  1.
          4   -1    0    0  502    0 -0.00000000000E+00 -0.00000000000E+00 -0.31169456196E+03  0.31169456196E+03  0.00000000000E+00 0.  1.
    9000010    2    1    2  501    0  0.58728621837E+01 -0.13128683499E+03  0.60824524937E+03  0.11618221827E+04  0.98112067420E+03 0.  0.
        -13    1    3    3    0    0 -0.28057200755E+03 -0.36598881300E+03  0.13680126343E+02  0.46136278533E+03  0.10566000000E+00 0.  1.
          4    1    3    3  501    0  0.28644486974E+03  0.23470197801E+03  0.59456512303E+03  0.70045939740E+03  0.00000000000E+00 0.  1.
         13    1    1    2    0    0 -0.58728621837E+01  0.13128683499E+03  0.88788166235E+02  0.15860035681E+03  0.10566000000E+00 0. -1.
<mgrwt>
<rscale>  1 0.59751915E+03</rscale>
<asrwt>0</asrwt>
<pdfrwt beam="1">  1       21 0.15518892E+00 0.98988307E+03</pdfrwt>
<pdfrwt beam="2">  1        4 0.47953010E-01 0.98988307E+03</pdfrwt>
<totfact> 0.41539391E+01</totfact>
</mgrwt>
</event>
<event>
 6    1  0.1431486E-005  0.1021492E+04  0.7818608E-02  0.9694916E-01
          4   -1    0    0  502    0 -0.00000000000E+00  0.00000000000E+00  0.58537959692E+03  0.58537959692E+03  0.00000000000E+00 0.  1.
         21   -1    0    0  501  502  0.00000000000E+00 -0.00000000000E+00 -0.10878219406E+04  0.10878219406E+04  0.00000000000E+00 0.  1.
    9000010    2    1    2  501    0 -0.18576043355E+03 -0.15626129474E+03 -0.79402457513E+03  0.12938010371E+04  0.99223060157E+03 0.  0.
        -13    1    3    3    0    0 -0.29093062012E+03  0.37196818650E+03 -0.46452483425E+03  0.66240794854E+03  0.10566000000E+00 0.  1.
          4    1    3    3  501    0  0.10517018657E+03 -0.52822948124E+03 -0.32949974088E+03  0.63139308853E+03  0.00000000000E+00 0.  1.
         13    1    1    2    0    0  0.18576043355E+03  0.15626129474E+03  0.29158223143E+03  0.37940050047E+03  0.10566000000E+00 0. -1.
<mgrwt>
<rscale>  1 0.71320320E+03</rscale>
<asrwt>0</asrwt>
<pdfrwt beam="2">  1       21 0.16735722E+00 0.10214921E+04</pdfrwt>
<pdfrwt beam="1">  1        4 0.90058401E-01 0.10214921E+04</pdfrwt>
<totfact> 0.82391722E+00</totfact>
</mgrwt>
</event>
<event>
 6    1  0.1431486E-005  0.1012714E+04  0.7818608E-02  0.9832734E-01
          4   -1    0    0  502    0 -0.00000000000E+00  0.00000000000E+00  0.16704951908E+04  0.16704951908E+04  0.00000000000E+00 0.  1.
         21   -1    0    0  501  502  0.00000000000E+00 -0.00000000000E+00 -0.24443805803E+03  0.24443805803E+03  0.00000000000E+00 0.  1.
    9000010    2    1    2  501    0 -0.15766489152E+03 -0.82235522639E+01  0.86423514395E+03  0.13313496617E+04  0.10003317914E+04 0.  0.
        -13    1    3    3    0    0 -0.58268602888E+03 -0.83800246010E+01  0.56400010326E+03  0.81098049342E+03  0.10566000000E+00 0.  1.
          4    1    3    3  501    0  0.42502113736E+03  0.15647233708E+00  0.30023504069E+03  0.52036916832E+03  0.00000000000E+00 0.  1.
         13    1    1    2    0    0  0.15766489152E+03  0.82235522639E+01  0.56182198878E+03  0.58358358705E+03  0.10566000000E+00 0. -1.
<mgrwt>
<rscale>  1 0.63635045E+03</rscale>
<asrwt>0</asrwt>
<pdfrwt beam="2">  1       21 0.37605856E-01 0.10127139E+04</pdfrwt>
<pdfrwt beam="1">  1        4 0.25699925E+00 0.10127139E+04</pdfrwt>
<totfact> 0.15717512E+01</totfact>
</mgrwt>
</event>
<event>
 6    1  0.1431486E-005  0.1138678E+04  0.7818608E-02  0.9364062E-01
         21   -1    0    0  501  502  0.00000000000E+00  0.00000000000E+00  0.77760891236E+03  0.77760891236E+03  0.00000000000E+00 0. -1.
          4   -1    0    0  502    0 -0.00000000000E+00 -0.00000000000E+00 -0.11920536238E+04  0.11920536238E+04  0.00000000000E+00 0.  1.
    9000010    2    1    2  501    0 -0.55234434979E+03 -0.40867023203E+02  0.18490128149E+03  0.11535926711E+04  0.99490359961E+03 0.  0.
        -13    1    3    3    0    0  0.17367382652E+03 -0.31661087575E+03  0.36896958756E+02  0.36299647573E+03  0.10566000000E+00 0.  1.
          4    1    3    3  501    0 -0.72601817631E+03  0.27574385255E+03  0.14800432273E+03  0.79059619534E+03  0.00000000000E+00 0.  1.
         13    1    1    2    0    0  0.55234434979E+03  0.40867023203E+02 -0.59934599297E+03  0.81606986513E+03  0.10566000000E+00 0. -1.
<mgrwt>
<rscale>  1 0.95093218E+03</rscale>
<asrwt>0</asrwt>
<pdfrwt beam="1">  1       21 0.11963214E+00 0.11386780E+04</pdfrwt>
<pdfrwt beam="2">  1        4 0.18339287E+00 0.11386780E+04</pdfrwt>
<totfact> 0.32351468E+00</totfact>
</mgrwt>
</event>
<event>
 6    1  0.1431486E-005  0.1004543E+04  0.7818608E-02  0.9895491E-01
          4   -1    0    0  502    0 -0.00000000000E+00  0.00000000000E+00  0.40762081020E+03  0.40762081020E+03  0.00000000000E+00 0.  1.
         21   -1    0    0  501  502  0.00000000000E+00 -0.00000000000E+00 -0.90499324484E+03  0.90499324484E+03  0.00000000000E+00 0.  1.
    9000010    2    1    2  501    0 -0.12172738554E+03  0.51035434940E+02 -0.57700003171E+03  0.11584623850E+04  0.99583326353E+03 0.  0.
        -13    1    3    3    0    0  0.13899975324E+01  0.48570026360E+03 -0.89605253471E+02  0.49389856323E+03  0.10566000000E+00 0.  1.
          4    1    3    3  501    0 -0.12311738307E+03 -0.43466482866E+03 -0.48739477824E+03  0.66456382172E+03  0.00000000000E+00 0.  1.
         13    1    1    2    0    0  0.12172738554E+03 -0.51035434940E+02  0.79627597068E+02  0.15415167008E+03  0.10566000000E+00 0. -1.
<mgrwt>
<rscale>  1 0.60480327E+03</rscale>
<asrwt>0</asrwt>
<pdfrwt beam="2">  1       21 0.13922973E+00 0.10045427E+04</pdfrwt>
<pdfrwt beam="1">  1        4 0.62710895E-01 0.10045427E+04</pdfrwt>
<totfact> 0.31505964E+01</totfact>
</mgrwt>
</event>
<event>
 6    1  0.1431486E-005  0.1067457E+04  0.7818608E-02  0.9493590E-01
          4   -1    0    0  502    0 -0.00000000000E+00  0.00000000000E+00  0.54628409943E+03  0.54628409943E+03  0.00000000000E+00 0.  1.
         21   -1    0    0  501  502  0.00000000000E+00 -0.00000000000E+00 -0.16470014347E+04  0.16470014347E+04  0.00000000000E+00 0.  1.
    9000010    2    1    2  501    0 -0.34304855324E+03  0.24969479612E+03 -0.13344516663E+04  0.17088667590E+04  0.97950729918E+03 0.  0.
        -13    1    3    3    0    0 -0.23504725766E+03  0.10572018079E+03  0.90074873973E+02  0.27301550148E+03  0.10566000000E+00 0.  1.
          4    1    3    3  501    0 -0.10800129558E+03  0.14397461533E+03 -0.14245265403E+04  0.14358512575E+04  0.00000000000E+00 0.  1.
         13    1    1    2    0    0  0.34304855324E+03 -0.24969479612E+03  0.23373433102E+03  0.48441877518E+03  0.10566000000E+00 0. -1.
<mgrwt>
<rscale>  1 0.84758026E+03</rscale>
<asrwt>0</asrwt>
<pdfrwt beam="2">  1       21 0.25338484E+00 0.10674570E+04</pdfrwt>
<pdfrwt beam="1">  1        4 0.84043707E-01 0.10674570E+04</pdfrwt>
<totfact> 0.24970034E+00</totfact>
</mgrwt>
</event>
<event>
 6    1  0.1431486E-005  0.1042448E+04  0.7818608E-02  0.9613967E-01
         21   -1    0    0  501  502  0.00000000000E+00  0.00000000000E+00  0.85762561920E+03  0.85762561920E+03  0.00000000000E+00 0.  1.
          4   -1    0    0  502    0 -0.00000000000E+00 -0.00000000000E+00 -0.55716205940E+03  0.55716205940E+03  0.00000000000E+00 0.  1.
    9000010    2    1    2  501    0 -0.17882700297E+03  0.24139447953E+03  0.37047209119E+03  0.11063211531E+04  0.99822168462E+03 0.  0.
        -13    1    3    3    0    0 -0.58797254320E+03  0.18190809830E+03  0.13351572611E+03  0.62978466802E+03  0.10566000000E+00 0.  1.
          4    1    3    3  501    0  0.40914554023E+03  0.59486381226E+02  0.23695636508E+03  0.47653648506E+03  0.00000000000E+00 0.  1.
         13    1    1    2    0    0  0.17882700297E+03 -0.24139447953E+03 -0.70008531393E+02  0.30846652553E+03  0.10566000000E+00 0. -1.
<mgrwt>
<rscale>  1 0.76378620E+03</rscale>
<asrwt>0</asrwt>
<pdfrwt beam="1">  1       21 0.13194240E+00 0.10424476E+04</pdfrwt>
<pdfrwt beam="2">  1        4 0.85717240E-01 0.10424476E+04</pdfrwt>
<totfact> 0.17893669E+01</totfact>
</mgrwt>
</event>
<event>
 6    1  0.1431486E-005  0.1085631E+04  0.7818608E-02  0.9479644E-01
          4   -1    0    0  502    0 -0.00000000000E+00  0.00000000000E+00  0.73344929076E+03  0.73344929076E+03  0.00000000000E+00 0.  1.
         21   -1    0    0  501  502  0.00000000000E+00 -0.00000000000E+00 -0.80408816190E+03  0.80408816190E+03  0.00000000000E+00 0. -1.
    9000010    2    1    2  501    0  0.37311309897E+03  0.20050483692E+03 -0.17908003260E+03  0.11003017372E+04  0.99958925588E+03 0.  0.
        -13    1    3    3    0    0  0.21909348780E+03 -0.37792674050E+03  0.86702106085E+02  0.44536259828E+03  0.10566000000E+00 0.  1.
          4    1    3    3  501    0  0.15401961116E+03  0.57843157742E+03 -0.26578213869E+03  0.65493913887E+03  0.00000000000E+00 0.  1.
         13    1    1    2    0    0 -0.37311309897E+03 -0.20050483692E+03  0.10844116145E+03  0.43723571550E+03  0.10566000000E+00 0. -1.
<mgrwt>
<rscale>  1 0.85801354E+03</rscale>
<asrwt>0</asrwt>
<pdfrwt beam="2">  1       21 0.12370587E+00 0.10856308E+04</pdfrwt>
<pdfrwt beam="1">  1        4 0.11283835E+00 0.10856308E+04</pdfrwt>
<totfact> 0.10910186E+01</totfact>
</mgrwt>
</event>
<event>
 6    1  0.1431486E-005  0.1084527E+04  0.7818608E-02  0.9464073E-01
          4   -1    0    0  502    0 -0.00000000000E+00  0.00000000000E+00  0.10056750450E+04  0.10056750450E+04  0.00000000000E+00 0.  1.
         21   -1    0    0  501  502  0.00000000000E+00 -0.00000000000E+00 -0.11632376313E+04  0.11632376313E+04  0.00000000000E+00 0.  1.
    9000010    2    1    2  501    0  0.10031474878E+03 -0.43745373288E+03 -0.82636354602E+03  0.13634789099E+04  0.98730401113E+03 0.  0.
        -13    1    3    3    0    0  0.81826658603E+02  0.12376219173E+03  0.16638574948E+03  0.22292803986E+03  0.10566000000E+00 0.  1.
          4    1    3    3  501    0  0.18488090174E+02 -0.56121592460E+03 -0.99274929550E+03  0.11405508701E+04  0.00000000000E+00 0.  1.
         13    1    1    2    0    0 -0.10031474878E+03  0.43745373288E+03  0.66880095964E+03  0.80543376637E+03  0.10566000000E+00 0. -1.
<mgrwt>
<rscale>  1 0.86985201E+03</rscale>
<asrwt>0</asrwt>
<pdfrwt beam="2">  1       21 0.17895963E+00 0.10845266E+04</pdfrwt>
<pdfrwt beam="1">  1        4 0.15471924E+00 0.10845266E+04</pdfrwt>
<totfact> 0.17155323E+00</totfact>
</mgrwt>
</event>
<event>
 6    1  0.1431486E-005  0.1008871E+04  0.7818608E-02  0.9799026E-01
         21   -1    0    0  501  502  0.00000000000E+00  0.00000000000E+00  0.55940972545E+03  0.55940972545E+03  0.00000000000E+00 0.  1.
          4   -1    0    0  502    0 -0.00000000000E+00 -0.00000000000E+00 -0.66370672494E+03  0.66370672494E+03  0.00000000000E+00 0.  1.
    9000010    2    1    2  501    0 -0.17611716299E+03  0.27936827931E+02  0.14279016166E+02  0.10089716300E+04  0.99298647440E+03 0.  0.
        -13    1    3    3    0    0  0.12741654187E+03  0.43130735300E+03 -0.15628937677E+03  0.47611699019E+03  0.10566000000E+00 0.  1.
          4    1    3    3  501    0 -0.30353370486E+03 -0.40337052506E+03  0.17056839294E+03  0.53285463979E+03  0.00000000000E+00 0.  1.
         13    1    1    2    0    0  0.17611716299E+03 -0.27936827931E+02 -0.11857601566E+03  0.21414482041E+03  0.10566000000E+00 0. -1.
<mgrwt>
<rscale>  1 0.65414815E+03</rscale>
<asrwt>0</asrwt>
<pdfrwt beam="1">  1       21 0.86063035E-01 0.10088706E+04</pdfrwt>
<pdfrwt beam="2">  1        4 0.10210873E+00 0.10088706E+04</pdfrwt>
<totfact> 0.34796956E+01</totfact>
</mgrwt>
</event>
<event>
 6    1  0.1431486E-005  0.1031517E+04  0.7818608E-02  0.9678445E-01
         21   -1    0    0  501  502  0.00000000000E+00  0.00000000000E+00  0.64875074021E+03  0.64875074021E+03  0.00000000000E+00 0.  1.
          4   -1    0    0  502    0 -0.00000000000E+00 -0.00000000000E+00 -0.68018744175E+03  0.68018744175E+03  0.00000000000E+00 0.  1.
    9000010    2    1    2  501    0  0.99205502763E+02 -0.22855931261E+03 -0.16752934817E+03  0.10450327210E+04  0.10009726341E+04 0.  0.
        -13    1    3    3    0    0 -0.92572805763E+02 -0.35575561538E+03  0.33181637080E+03  0.49521096246E+03  0.10566000000E+00 0.  1.
          4    1    3    3  501    0  0.19177830853E+03  0.12719630277E+03 -0.49934571897E+03  0.54982175850E+03  0.00000000000E+00 0.  1.
         13    1    1    2    0    0 -0.99205502763E+02  0.22855931261E+03  0.13609264663E+03  0.28390546101E+03  0.10566000000E+00 0. -1.
<mgrwt>
<rscale>  1 0.72314814E+03</rscale>
<asrwt>0</asrwt>
<pdfrwt beam="1">  1       21 0.99807806E-01 0.10315170E+04</pdfrwt>
<pdfrwt beam="2">  1        4 0.10464422E+00 0.10315170E+04</pdfrwt>
<totfact> 0.22814652E+01</totfact>
</mgrwt>
</event>
<event>
 6    1  0.1431486E-005  0.9817119E+03  0.7818608E-02  0.1013310E+00
          4   -1    0    0  502    0 -0.00000000000E+00  0.00000000000E+00  0.87555218646E+03  0.87555218646E+03  0.00000000000E+00 0.  1.
         21   -1    0    0  501  502  0.00000000000E+00 -0.00000000000E+00 -0.32025202720E+03  0.32025202720E+03  0.00000000000E+00 0.  1.
    9000010    2    1    2  501    0 -0.50059975633E+02 -0.44552504472E+02  0.47314036601E+03  0.10897798315E+04  0.97942194606E+03 0.  0.
        -13    1    3    3    0    0  0.33542030217E+03 -0.14221506415E+03 -0.11302733680E+03  0.38145392069E+03  0.10566000000E+00 0.  1.
          4    1    3    3  501    0 -0.38548027781E+03  0.97662559677E+02  0.58616770281E+03  0.70832591083E+03  0.00000000000E+00 0.  1.
         13    1    1    2    0    0  0.50059975633E+02  0.44552504472E+02  0.82159793255E+02  0.10602438213E+03  0.10566000000E+00 0. -1.
<mgrwt>
<rscale>  1 0.50179945E+03</rscale>
<asrwt>0</asrwt>
<pdfrwt beam="2">  1       21 0.49269543E-01 0.98171191E+03</pdfrwt>
<pdfrwt beam="1">  1        4 0.13470033E+00 0.98171191E+03</pdfrwt>
<totfact> 0.61663608E+01</totfact>
</mgrwt>
</event>
<event>
 6    1  0.1431486E-005  0.1029529E+04  0.7818608E-02  0.9662619E-01
         21   -1    0    0  501  502  0.00000000000E+00  0.00000000000E+00  0.69454942640E+03  0.69454942640E+03  0.00000000000E+00 0.  1.
          4   -1    0    0  502    0 -0.00000000000E+00 -0.00000000000E+00 -0.62159475104E+03  0.62159475104E+03  0.00000000000E+00 0.  1.
    9000010    2    1    2  501    0  0.24932019786E+03  0.87876435282E+02  0.15092327812E+03  0.10405322345E+04  0.99501088744E+03 0.  0.
        -13    1    3    3    0    0 -0.34882970795E+03  0.70683626476E+02  0.24869890829E+03  0.43419983688E+03  0.10566000000E+00 0.  1.
          4    1    3    3  501    0  0.59814990581E+03  0.17192808806E+02 -0.97775630170E+02  0.60633239757E+03  0.00000000000E+00 0.  1.
         13    1    1    2    0    0 -0.24932019786E+03 -0.87876435282E+02 -0.77968602758E+02  0.27561194299E+03  0.10566000000E+00 0. -1.
<mgrwt>
<rscale>  1 0.73286703E+03</rscale>
<asrwt>0</asrwt>
<pdfrwt beam="1">  1       21 0.10685376E+00 0.10295288E+04</pdfrwt>
<pdfrwt beam="2">  1        4 0.95629962E-01 0.10295288E+04</pdfrwt>
<totfact> 0.23906779E+01</totfact>
</mgrwt>
</event>
<event>
 6    1  0.1431486E-005  0.1025185E+04  0.7818608E-02  0.9637117E-01
         21   -1    0    0  501  502  0.00000000000E+00  0.00000000000E+00  0.20272115428E+04  0.20272115428E+04  0.00000000000E+00 0.  1.
          4   -1    0    0  502    0 -0.00000000000E+00 -0.00000000000E+00 -0.23523221000E+03  0.23523221000E+03  0.00000000000E+00 0.  1.
    9000010    2    1    2  501    0  0.14771588768E+03  0.25176204307E+03  0.10611662339E+04  0.14754927337E+04  0.98275170892E+03 0.  0.
        -13    1    3    3    0    0  0.30782888170E+03  0.19268241334E+03  0.12010952552E+04  0.12547967788E+04  0.10566000000E+00 0.  1.
          4    1    3    3  501    0 -0.16011299402E+03  0.59079629730E+02 -0.13992902130E+03  0.22069595489E+03  0.00000000000E+00 0.  1.
         13    1    1    2    0    0 -0.14771588768E+03 -0.25176204307E+03  0.73081309884E+03  0.78695101906E+03  0.10566000000E+00 0. -1.
<mgrwt>
<rscale>  1 0.74887516E+03</rscale>
<asrwt>0</asrwt>
<pdfrwt beam="1">  1       21 0.31187869E+00 0.10251854E+04</pdfrwt>
<pdfrwt beam="2">  1        4 0.36189572E-01 0.10251854E+04</pdfrwt>
<totfact> 0.66458393E+00</totfact>
</mgrwt>
</event>
<event>
 6    1  0.1431486E-005  0.1000073E+04  0.7818608E-02  0.9944327E-01
         21   -1    0    0  501  502  0.00000000000E+00  0.00000000000E+00  0.72667489820E+03  0.72667489820E+03  0.00000000000E+00 0.  1.
          4   -1    0    0  502    0 -0.00000000000E+00 -0.00000000000E+00 -0.62825082001E+03  0.62825082001E+03  0.00000000000E+00 0.  1.
    9000010    2    1    2  501    0  0.11264778337E+03 -0.19921391392E+02  0.36519147281E+03  0.10646650786E+04  0.99350920115E+03 0.  0.
        -13    1    3    3    0    0  0.45390824928E+03 -0.29364580284E+03  0.90591770193E+02  0.54814910041E+03  0.10566000000E+00 0.  1.
          4    1    3    3  501    0 -0.34126046591E+03  0.27372441144E+03  0.27459970262E+03  0.51651597816E+03  0.00000000000E+00 0.  1.
         13    1    1    2    0    0 -0.11264778337E+03  0.19921391392E+02 -0.26676739462E+03  0.29026063965E+03  0.10566000000E+00 0. -1.
<mgrwt>
<rscale>  1 0.58160273E+03</rscale>
<asrwt>0</asrwt>
<pdfrwt beam="1">  1       21 0.11179614E+00 0.10000735E+04</pdfrwt>
<pdfrwt beam="2">  1        4 0.96653973E-01 0.10000735E+04</pdfrwt>
<totfact> 0.20845851E+01</totfact>
</mgrwt>
</event>
<event>
 6    1  0.1431486E-005  0.1018300E+04  0.7818608E-02  0.9801559E-01
          4   -1    0    0  502    0 -0.00000000000E+00  0.00000000000E+00  0.49322564642E+03  0.49322564642E+03  0.00000000000E+00 0.  1.
         21   -1    0    0  501  502  0.00000000000E+00 -0.00000000000E+00 -0.72107185844E+03  0.72107185844E+03  0.00000000000E+00 0.  1.
    9000010    2    1    2  501    0  0.12798645522E+03  0.11486815860E+03 -0.16715754806E+03  0.10319287804E+04  0.10036733210E+04 0.  0.
        -13    1    3    3    0    0  0.18251379580E+03  0.52679901788E+03 -0.24533866027E+03  0.60911374987E+03  0.10566000000E+00 0.  1.
          4    1    3    3  501    0 -0.54527340581E+02 -0.41193085928E+03  0.78181112210E+02  0.42281503048E+03  0.00000000000E+00 0.  1.
         13    1    1    2    0    0 -0.12798645522E+03 -0.11486815860E+03 -0.60688663962E+02  0.18236872450E+03  0.10566000000E+00 0. -1.
<mgrwt>
<rscale>  1 0.65278921E+03</rscale>
<asrwt>0</asrwt>
<pdfrwt beam="2">  1       21 0.11093413E+00 0.10183002E+04</pdfrwt>
<pdfrwt beam="1">  1        4 0.75880868E-01 0.10183002E+04</pdfrwt>
<totfact> 0.37295439E+01</totfact>
</mgrwt>
</event>
<event>
 6    1  0.1431486E-005  0.1030445E+04  0.7818608E-02  0.9685816E-01
          4   -1    0    0  502    0 -0.00000000000E+00  0.00000000000E+00  0.13173440347E+04  0.13173440347E+04  0.00000000000E+00 0.  1.
         21   -1    0    0  501  502  0.00000000000E+00 -0.00000000000E+00 -0.33679110890E+03  0.33679110890E+03  0.00000000000E+00 0.  1.
    9000010    2    1    2  501    0  0.17970877043E+02 -0.24315008743E+03  0.96185876059E+03  0.14096062078E+04  0.10011855314E+04 0.  0.
        -13    1    3    3    0    0  0.76962609533E+02  0.33958360448E+03  0.67029280722E+03  0.75533616773E+03  0.10566000000E+00 0.  1.
          4    1    3    3  501    0 -0.58991732490E+02 -0.58273369191E+03  0.29156595337E+03  0.65427004009E+03  0.00000000000E+00 0.  1.
         13    1    1    2    0    0 -0.17970877043E+02  0.24315008743E+03  0.18694165162E+02  0.24452893574E+03  0.10566000000E+00 0. -1.
<mgrwt>
<rscale>  1 0.71867592E+03</rscale>
<asrwt>0</asrwt>
<pdfrwt beam="2">  1       21 0.51814017E-01 0.10304452E+04</pdfrwt>
<pdfrwt beam="1">  1        4 0.20266831E+00 0.10304452E+04</pdfrwt>
<totfact> 0.17521760E+01</totfact>
</mgrwt>
</event>
<event>
 6    1  0.1431486E-005  0.1122169E+04  0.7818608E-02  0.9394262E-01
          4   -1    0    0  502    0 -0.00000000000E+00  0.00000000000E+00  0.82071605354E+03  0.82071605354E+03  0.00000000000E+00 0.  1.
         21   -1    0    0  501  502  0.00000000000E+00 -0.00000000000E+00 -0.95443877137E+03  0.95443877137E+03  0.00000000000E+00 0.  1.
    9000010    2    1    2  501    0  0.36449488287E+03  0.36972049817E+03 -0.40043243167E+03  0.11914735343E+04  0.99484334655E+03 0.  0.
        -13    1    3    3    0    0  0.37285262318E+03  0.58687358314E+03 -0.58321354075E+03  0.90751183269E+03  0.10566000000E+00 0.  1.
          4    1    3    3  501    0 -0.83577403140E+01 -0.21715308497E+03  0.18278110908E+03  0.28396170159E+03  0.00000000000E+00 0.  1.
         13    1    1    2    0    0 -0.36449488287E+03 -0.36972049817E+03  0.26670971385E+03  0.58368129063E+03  0.10566000000E+00 0. -1.
<mgrwt>
<rscale>  1 0.92549387E+03</rscale>
<asrwt>0</asrwt>
<pdfrwt beam="2">  1       21 0.14683673E+00 0.11221689E+04</pdfrwt>
<pdfrwt beam="1">  1        4 0.12626401E+00 0.11221689E+04</pdfrwt>
<totfact> 0.51574479E+00</totfact>
</mgrwt>
</event>
<event>
 6    1  0.1431486E-005  0.1000248E+04  0.7818608E-02  0.9860302E-01
          4   -1    0    0  502    0 -0.00000000000E+00  0.00000000000E+00  0.41294054348E+03  0.41294054348E+03  0.00000000000E+00 0.  1.
         21   -1    0    0  501  502  0.00000000000E+00 -0.00000000000E+00 -0.82232548119E+03  0.82232548119E+03  0.00000000000E+00 0.  1.
    9000010    2    1    2  501    0 -0.12139703526E+03 -0.87770243708E+02 -0.42052134450E+03  0.10850498918E+04  0.98896623333E+03 0.  0.
        -13    1    3    3    0    0 -0.15443181023E+03  0.32077228236E+03  0.14685518870E+03  0.38511102134E+03  0.10566000000E+00 0.  1.
          4    1    3    3  501    0  0.33034774970E+02 -0.40854252607E+03 -0.56737653320E+03  0.69993887047E+03  0.00000000000E+00 0.  1.
         13    1    1    2    0    0  0.12139703526E+03  0.87770243708E+02  0.11136406791E+02  0.15021613286E+03  0.10566000000E+00 0. -1.
<mgrwt>
<rscale>  1 0.62224378E+03</rscale>
<asrwt>0</asrwt>
<pdfrwt beam="2">  1       21 0.12651161E+00 0.10002475E+04</pdfrwt>
<pdfrwt beam="1">  1        4 0.63529316E-01 0.10002475E+04</pdfrwt>
<totfact> 0.39572383E+01</totfact>
</mgrwt>
</event>
<event>
 6    1  0.1431486E-005  0.1013166E+04  0.7818608E-02  0.9844968E-01
          4   -1    0    0  502    0 -0.00000000000E+00  0.00000000000E+00  0.29841738484E+03  0.29841738484E+03  0.00000000000E+00 0.  1.
         21   -1    0    0  501  502  0.00000000000E+00 -0.00000000000E+00 -0.13758184356E+04  0.13758184356E+04  0.00000000000E+00 0.  1.
    9000010    2    1    2  501    0  0.28635477843E+02 -0.14877681936E+03 -0.11263837225E+04  0.15150069101E+04  0.10017739839E+04 0.  0.
        -13    1    3    3    0    0 -0.33613466291E+02  0.23612294255E+03  0.76530454727E+02  0.25048119845E+03  0.10566000000E+00 0.  1.
          4    1    3    3  501    0  0.62248944134E+02 -0.38489976191E+03 -0.12029141772E+04  0.12645257117E+04  0.00000000000E+00 0.  1.
         13    1    1    2    0    0 -0.28635477843E+02  0.14877681936E+03  0.48982671747E+02  0.15922891027E+03  0.10566000000E+00 0. -1.
<mgrwt>
<rscale>  1 0.63004140E+03</rscale>
<asrwt>0</asrwt>
<pdfrwt beam="2">  1       21 0.21166437E+00 0.10131661E+04</pdfrwt>
<pdfrwt beam="1">  1        4 0.45910367E-01 0.10131661E+04</pdfrwt>
<totfact> 0.17737499E+01</totfact>
</mgrwt>
</event>
<event>
 6    1  0.1431486E-005  0.1047084E+04  0.7818608E-02  0.9665422E-01
          4   -1    0    0  502    0 -0.00000000000E+00  0.00000000000E+00  0.69118677343E+03  0.69118677343E+03  0.00000000000E+00 0.  1.
         21   -1    0    0  501  502  0.00000000000E+00 -0.00000000000E+00 -0.81193296478E+03  0.81193296478E+03  0.00000000000E+00 0.  1.
    9000010    2    1    2  501    0 -0.21549230565E+02 -0.24797590733E+03 -0.40733841881E+03  0.11235258289E+04  0.10170689657E+04 0.  0.
        -13    1    3    3    0    0  0.26693084715E+03 -0.10326931238E+03 -0.65625195502E+03  0.71594920747E+03  0.10566000000E+00 0.  1.
          4    1    3    3  501    0 -0.28848007771E+03 -0.14470659495E+03  0.24891353622E+03  0.40757662147E+03  0.00000000000E+00 0.  1.
         13    1    1    2    0    0  0.21549230565E+02  0.24797590733E+03  0.28659222746E+03  0.37959390928E+03  0.10566000000E+00 0. -1.
<mgrwt>
<rscale>  1 0.73113413E+03</rscale>
<asrwt>0</asrwt>
<pdfrwt beam="2">  1       21 0.12491276E+00 0.10470844E+04</pdfrwt>
<pdfrwt beam="1">  1        4 0.10633643E+00 0.10470844E+04</pdfrwt>
<totfact> 0.12358338E+01</totfact>
</mgrwt>
</event>
<event>
 6    1  0.1431486E-005  0.1002266E+04  0.7818608E-02  0.9995149E-01
          4   -1    0    0  502    0 -0.00000000000E+00  0.00000000000E+00  0.24077793049E+03  0.24077793049E+03  0.00000000000E+00 0.  1.
         21   -1    0    0  501  502  0.00000000000E+00 -0.00000000000E+00 -0.12562774352E+04  0.12562774352E+04  0.00000000000E+00 0.  1.
    9000010    2    1    2  501    0  0.89692745138E+02 -0.36220844746E+02 -0.90749328682E+03  0.13520653923E+04  0.99758709957E+03 0.  0.
        -13    1    3    3    0    0  0.10831301866E+03  0.47644219213E+03 -0.46733719174E+03  0.67611606577E+03  0.10566000000E+00 0.  1.
          4    1    3    3  501    0 -0.18620273524E+02 -0.51266303687E+03 -0.44015609508E+03  0.67594932650E+03  0.00000000000E+00 0.  1.
         13    1    1    2    0    0 -0.89692745138E+02  0.36220844746E+02 -0.10800621788E+03  0.14498997341E+03  0.10566000000E+00 0. -1.
<mgrwt>
<rscale>  1 0.55863465E+03</rscale>
<asrwt>0</asrwt>
<pdfrwt beam="2">  1       21 0.19327345E+00 0.10022658E+04</pdfrwt>
<pdfrwt beam="1">  1        4 0.37042759E-01 0.10022658E+04</pdfrwt>
<totfact> 0.36838022E+01</totfact>
</mgrwt>
</event>
<event>
 6    1  0.1431486E-005  0.1081322E+04  0.7818608E-02  0.9496434E-01
         21   -1    0    0  501  502  0.00000000000E+00  0.00000000000E+00  0.16609136755E+04  0.16609136755E+04  0.00000000000E+00 0.  1.
          4   -1    0    0  502    0 -0.00000000000E+00 -0.00000000000E+00 -0.39636467301E+03  0.39636467301E+03  0.00000000000E+00 0.  1.
    9000010    2    1    2  501    0  0.23853604243E+03 -0.32623601434E+03  0.12501016863E+04  0.16528798858E+04  0.10029597749E+04 0.  0.
        -13    1    3    3    0    0  0.21563539775E+03  0.88731278213E+01 -0.11674248721E+03  0.24536946967E+03  0.10566000000E+00 0.  1.
          4    1    3    3  501    0  0.22900644673E+02 -0.33510914216E+03  0.13668441735E+04  0.14075104161E+04  0.00000000000E+00 0.  1.
         13    1    1    2    0    0 -0.23853604243E+03  0.32623601434E+03  0.14447316196E+02  0.40439846278E+03  0.10566000000E+00 0. -1.
<mgrwt>
<rscale>  1 0.84547230E+03</rscale>
<asrwt>0</asrwt>
<pdfrwt beam="1">  1       21 0.25552518E+00 0.10813222E+04</pdfrwt>
<pdfrwt beam="2">  1        4 0.60979182E-01 0.10813222E+04</pdfrwt>
<totfact> 0.49743243E+00</totfact>
</mgrwt>
</event>
<event>
 6    1  0.1431486E-005  0.1080839E+04  0.7818608E-02  0.9561520E-01
          4   -1    0    0  502    0 -0.00000000000E+00  0.00000000000E+00  0.19079938366E+04  0.19079938366E+04  0.00000000000E+00 0.  1.
         21   -1    0    0  501  502  0.00000000000E+00 -0.00000000000E+00 -0.40219965852E+03  0.40219965852E+03  0.00000000000E+00 0.  1.
    9000010    2    1    2  501    0  0.65486091734E+02  0.31600315875E+03  0.39061397391E+03  0.11492570957E+04  0.10315358311E+04 0.  0.
        -13    1    3    3    0    0 -0.27591007123E+03  0.12467415321E+03 -0.25396063995E+03  0.39517847828E+03  0.10566000000E+00 0.  1.
          4    1    3    3  501    0  0.34139616296E+03  0.19132900554E+03  0.64457461386E+03  0.75407861744E+03  0.00000000000E+00 0.  1.
         13    1    1    2    0    0 -0.65486091734E+02 -0.31600315875E+03  0.11151802042E+04  0.11609363994E+04  0.10566000000E+00 0. -1.
<mgrwt>
<rscale>  1 0.79896225E+03</rscale>
<asrwt>0</asrwt>
<pdfrwt beam="2">  1       21 0.61876872E-01 0.10808388E+04</pdfrwt>
<pdfrwt beam="1">  1        4 0.29353751E+00 0.10808388E+04</pdfrwt>
<totfact> 0.31715442E+00</totfact>
</mgrwt>
</event>
<event>
 6    1  0.1431486E-005  0.1090878E+04  0.7818608E-02  0.9484525E-01
         21   -1    0    0  501  502  0.00000000000E+00  0.00000000000E+00  0.13589657702E+04  0.13589657702E+04  0.00000000000E+00 0.  1.
          4   -1    0    0  502    0 -0.00000000000E+00 -0.00000000000E+00 -0.10291885026E+04  0.10291885026E+04  0.00000000000E+00 0.  1.
    9000010    2    1    2  501    0 -0.94687993658E+02  0.39932271699E+03  0.10787065412E+04  0.15341522140E+04  0.10107377332E+04 0.  0.
        -13    1    3    3    0    0 -0.12322223846E+03  0.59061266335E+03  0.20182069792E+03  0.63619072882E+03  0.10566000000E+00 0.  1.
          4    1    3    3  501    0  0.28534244801E+02 -0.19128994635E+03  0.87688584332E+03  0.89796148521E+03  0.00000000000E+00 0.  1.
         13    1    1    2    0    0  0.94687993658E+02 -0.39932271699E+03 -0.74892927363E+03  0.85400205884E+03  0.10566000000E+00 0. -1.
<mgrwt>
<rscale>  1 0.85434413E+03</rscale>
<asrwt>0</asrwt>
<pdfrwt beam="1">  1       21 0.20907166E+00 0.10908782E+04</pdfrwt>
<pdfrwt beam="2">  1        4 0.15833669E+00 0.10908782E+04</pdfrwt>
<totfact> 0.98960485E-01</totfact>
</mgrwt>
</event>
<event>
 6    1  0.1431486E-005  0.1016210E+04  0.7818608E-02  0.9639589E-01
         21   -1    0    0  501  502  0.00000000000E+00  0.00000000000E+00  0.10481575067E+04  0.10481575067E+04  0.00000000000E+00 0.  1.
          4   -1    0    0  502    0 -0.00000000000E+00 -0.00000000000E+00 -0.62361527498E+03  0.62361527498E+03  0.00000000000E+00 0.  1.
    9000010    2    1    2  501    0  0.28498068402E+03  0.84321334643E+02  0.72565086281E+03  0.12487000969E+04  0.97178118919E+03 0.  0.
        -13    1    3    3    0    0  0.17420681832E+03  0.23870101975E+03 -0.16469445086E+03  0.33830528475E+03  0.10566000000E+00 0.  1.
          4    1    3    3  501    0  0.11077386570E+03 -0.15437968511E+03  0.89034531367E+03  0.91039481219E+03  0.00000000000E+00 0.  1.
         13    1    1    2    0    0 -0.28498068402E+03 -0.84321334643E+02 -0.30110863105E+03  0.42307268477E+03  0.10566000000E+00 0. -1.
<mgrwt>
<rscale>  1 0.74730432E+03</rscale>
<asrwt>0</asrwt>
<pdfrwt beam="1">  1       21 0.16125500E+00 0.10162100E+04</pdfrwt>
<pdfrwt beam="2">  1        4 0.95940811E-01 0.10162100E+04</pdfrwt>
<totfact> 0.79012379E+00</totfact>
</mgrwt>
</event>
<event>
 6    1  0.1431486E-005  0.1029321E+04  0.7818608E-02  0.9725543E-01
          4   -1    0    0  502    0 -0.00000000000E+00  0.00000000000E+00  0.42179859835E+03  0.42179859835E+03  0.00000000000E+00 0.  1.
         21   -1    0    0  501  502  0.00000000000E+00 -0.00000000000E+00 -0.11835887995E+04  0.11835887995E+04  0.00000000000E+00 0.  1.
    9000010    2    1    2  501    0 -0.16412519778E+01 -0.21412976492E+03 -0.88574998744E+03  0.13579600556E+04  0.10068009845E+04 0.  0.
        -13    1    3    3    0    0 -0.36846276234E+03  0.18620159833E+03 -0.14092419249E+03  0.43622870337E+03  0.10566000000E+00 0.  1.
          4    1    3    3  501    0  0.36682151036E+03 -0.40033136325E+03 -0.74482579496E+03  0.92173135224E+03  0.00000000000E+00 0.  1.
         13    1    1    2    0    0  0.16412519778E+01  0.21412976492E+03  0.12395978626E+03  0.24742734228E+03  0.10566000000E+00 0. -1.
<mgrwt>
<rscale>  1 0.69516149E+03</rscale>
<asrwt>0</asrwt>
<pdfrwt beam="2">  1       21 0.18209058E+00 0.10293214E+04</pdfrwt>
<pdfrwt beam="1">  1        4 0.64892093E-01 0.10293214E+04</pdfrwt>
<totfact> 0.13524794E+01</totfact>
</mgrwt>
</event>
<event>
 6    1  0.1431486E-005  0.1024668E+04  0.7818608E-02  0.9690577E-01
          4   -1    0    0  502    0 -0.00000000000E+00  0.00000000000E+00  0.52597236599E+03  0.52597236599E+03  0.00000000000E+00 0.  1.
         21   -1    0    0  501  502  0.00000000000E+00 -0.00000000000E+00 -0.86956005866E+03  0.86956005866E+03  0.00000000000E+00 0.  1.
    9000010    2    1    2  501    0 -0.38665487756E+02  0.24094027923E+03 -0.46234294560E+03  0.11241469804E+04  0.99518751804E+03 0.  0.
        -13    1    3    3    0    0 -0.61821481357E+02 -0.18420152989E+03 -0.63547892870E+03  0.66451905853E+03  0.10566000000E+00 0.  1.
          4    1    3    3  501    0  0.23155993601E+02  0.42514180912E+03  0.17313598310E+03  0.45962792185E+03  0.00000000000E+00 0.  1.
         13    1    1    2    0    0  0.38665487756E+02 -0.24094027923E+03  0.11875525293E+03  0.27138544427E+03  0.10566000000E+00 0. -1.
<mgrwt>
<rscale>  1 0.71580584E+03</rscale>
<asrwt>0</asrwt>
<pdfrwt beam="2">  1       21 0.13377847E+00 0.10246685E+04</pdfrwt>
<pdfrwt beam="1">  1        4 0.80918825E-01 0.10246685E+04</pdfrwt>
<totfact> 0.19743930E+01</totfact>
</mgrwt>
</event>
<event>
 6    1  0.1431486E-005  0.1202227E+04  0.7818608E-02  0.9413768E-01
         21   -1    0    0  501  502  0.00000000000E+00  0.00000000000E+00  0.15580695697E+04  0.15580695697E+04  0.00000000000E+00 0.  1.
          4   -1    0    0  502    0 -0.00000000000E+00 -0.00000000000E+00 -0.43127098506E+03  0.43127098506E+03  0.00000000000E+00 0.  1.
    9000010    2    1    2  501    0  0.31517209701E+03  0.23610267576E+03  0.10317014092E+04  0.15842215498E+04  0.11359014908E+04 0.  0.
        -13    1    3    3    0    0 -0.34812772463E+03 -0.10149941437E+03  0.65821860981E+03  0.75149636941E+03  0.10566000000E+00 0.  1.
          4    1    3    3  501    0  0.66329982164E+03  0.33760209013E+03  0.37348279941E+03  0.83272518042E+03  0.00000000000E+00 0.  1.
         13    1    1    2    0    0 -0.31517209701E+03 -0.23610267576E+03  0.95097175444E+02  0.40511900495E+03  0.10566000000E+00 0. -1.
<mgrwt>
<rscale>  1 0.90951245E+03</rscale>
<asrwt>0</asrwt>
<pdfrwt beam="1">  1       21 0.23970301E+00 0.12022272E+04</pdfrwt>
<pdfrwt beam="2">  1        4 0.66349383E-01 0.12022272E+04</pdfrwt>
<totfact> 0.51269891E+00</totfact>
</mgrwt>
</event>
<event>
 6    1  0.1431486E-005  0.1040790E+04  0.7818608E-02  0.9831704E-01
         21   -1    0    0  501  502  0.00000000000E+00  0.00000000000E+00  0.58524349239E+03  0.58524349239E+03  0.00000000000E+00 0.  1.
          4   -1    0    0  502    0 -0.00000000000E+00 -0.00000000000E+00 -0.60176135117E+03  0.60176135117E+03  0.00000000000E+00 0.  1.
    9000010    2    1    2  501    0 -0.14481932420E+03 -0.18000003874E+02 -0.21004526918E+02  0.10410021787E+04  0.10305084711E+04 0.  0.
        -13    1    3    3    0    0 -0.11458316698E+03 -0.67865681051E+02  0.49964944691E+03  0.51709248088E+03  0.10566000000E+00 0.  1.
          4    1    3    3  501    0 -0.30236157218E+02  0.49865677177E+02 -0.52065397383E+03  0.52390969778E+03  0.00000000000E+00 0.  1.
         13    1    1    2    0    0  0.14481932420E+03  0.18000003874E+02  0.44866681352E+01  0.14600266490E+03  0.10566000000E+00 0. -1.
<mgrwt>
<rscale>  1 0.63688552E+03</rscale>
<asrwt>0</asrwt>
<pdfrwt beam="1">  1       21 0.90037460E-01 0.10407903E+04</pdfrwt>
<pdfrwt beam="2">  1        4 0.92578669E-01 0.10407903E+04</pdfrwt>
<totfact> 0.39370687E+01</totfact>
</mgrwt>
</event>
<event>
 6    1  0.1431486E-005  0.1022801E+04  0.7818608E-02  0.9709686E-01
          4   -1    0    0  502    0 -0.00000000000E+00  0.00000000000E+00  0.54534782046E+03  0.54534782046E+03  0.00000000000E+00 0.  1.
         21   -1    0    0  501  502  0.00000000000E+00 -0.00000000000E+00 -0.88268613104E+03  0.88268613104E+03  0.00000000000E+00 0.  1.
    9000010    2    1    2  501    0 -0.18338755243E+03 -0.13903313846E+03 -0.50753540170E+03  0.11418028055E+04  0.99657425945E+03 0.  0.
        -13    1    3    3    0    0  0.30410719534E+03 -0.23111262302E+03 -0.52038831108E+03  0.64552167760E+03  0.10566000000E+00 0.  1.
          4    1    3    3  501    0 -0.48749474777E+03  0.92079484559E+02  0.12852909383E+02  0.49628112785E+03  0.00000000000E+00 0.  1.
         13    1    1    2    0    0  0.18338755243E+03  0.13903313846E+03  0.17019709112E+03  0.28623114605E+03  0.10566000000E+00 0. -1.
<mgrwt>
<rscale>  1 0.70443032E+03</rscale>
<asrwt>0</asrwt>
<pdfrwt beam="2">  1       21 0.13579787E+00 0.10228008E+04</pdfrwt>
<pdfrwt beam="1">  1        4 0.83899665E-01 0.10228008E+04</pdfrwt>
<totfact> 0.17448553E+01</totfact>
</mgrwt>
</event>
<event>
 6    1  0.1431486E-005  0.1109178E+04  0.7818608E-02  0.9445930E-01
         21   -1    0    0  501  502  0.00000000000E+00  0.00000000000E+00  0.15501116091E+04  0.15501116091E+04  0.00000000000E+00 0.  1.
          4   -1    0    0  502    0 -0.00000000000E+00 -0.00000000000E+00 -0.11887832516E+04  0.11887832516E+04  0.00000000000E+00 0.  1.
    9000010    2    1    2  501    0  0.19697016847E+03 -0.40161460722E+03  0.12941088103E+04  0.17044042013E+04  0.10149800631E+04 0.  0.
        -13    1    3    3    0    0  0.36432447177E+03  0.23613222986E+03  0.37771854173E+03  0.57546681801E+03  0.10566000000E+00 0.  1.
          4    1    3    3  501    0 -0.16735430330E+03 -0.63774683707E+03  0.91639026858E+03  0.11289373833E+04  0.00000000000E+00 0.  1.
         13    1    1    2    0    0 -0.19697016847E+03  0.40161460722E+03 -0.93278045285E+03  0.10344906594E+04  0.10566000000E+00 0. -1.
<mgrwt>
<rscale>  1 0.88390290E+03</rscale>
<asrwt>0</asrwt>
<pdfrwt beam="1">  1       21 0.23847871E+00 0.11091781E+04</pdfrwt>
<pdfrwt beam="2">  1        4 0.18288973E+00 0.11091781E+04</pdfrwt>
<totfact> 0.41968852E-01</totfact>
</mgrwt>
</event>
<event>
 6    1  0.1431486E-005  0.9601337E+03  0.7818608E-02  0.9921832E-01
         21   -1    0    0  501  502  0.00000000000E+00  0.00000000000E+00  0.19896551960E+04  0.19896551960E+04  0.00000000000E+00 0.  1.
          4   -1    0    0  502    0 -0.00000000000E+00 -0.00000000000E+00 -0.15905543111E+03  0.15905543111E+03  0.00000000000E+00 0.  1.
    9000010    2    1    2  501    0 -0.86600053876E+01 -0.13863738361E+03  0.17250629420E+04  0.19742590522E+04  0.95003227924E+03 0.  0.
        -13    1    3    3    0    0  0.25764178895E+03  0.24115003715E+03  0.12932260717E+04  0.13405097223E+04  0.10566000000E+00 0.  1.
          4    1    3    3  501    0 -0.26630179434E+03 -0.37978742077E+03  0.43183687024E+03  0.63374932989E+03  0.00000000000E+00 0.  1.
         13    1    1    2    0    0  0.86600053876E+01  0.13863738361E+03  0.10553682290E+03  0.17445157488E+03  0.10566000000E+00 0. -1.
<mgrwt>
<rscale>  1 0.59214805E+03</rscale>
<asrwt>0</asrwt>
<pdfrwt beam="1">  1       21 0.30610078E+00 0.96013366E+03</pdfrwt>
<pdfrwt beam="2">  1        4 0.24470068E-01 0.96013366E+03</pdfrwt>
<totfact> 0.15697167E+01</totfact>
</mgrwt>
</event>
<event>
 6    1  0.1431486E-005  0.1006383E+04  0.7818608E-02  0.9872811E-01
          4   -1    0    0  502    0 -0.00000000000E+00  0.00000000000E+00  0.21471914827E+03  0.21471914827E+03  0.00000000000E+00 0.  1.
         21   -1    0    0  501  502  0.00000000000E+00 -0.00000000000E+00 -0.25163198928E+04  0.25163198928E+04  0.00000000000E+00 0.  1.
    9000010    2    1    2  501    0  0.11070119045E+03 -0.87714259954E+02 -0.23694741544E+04  0.25743375546E+04  0.99642236599E+03 0.  0.
        -13    1    3    3    0    0  0.41327378093E+03  0.10710331721E+03 -0.20472543391E+04  0.20912954547E+04  0.10566000000E+00 0.  1.
          4    1    3    3  501    0 -0.30257259048E+03 -0.19481757716E+03 -0.32221981526E+03  0.48304209985E+03  0.00000000000E+00 0.  1.
         13    1    1    2    0    0 -0.11070119045E+03  0.87714259954E+02  0.67873409827E+02  0.15670148657E+03  0.10566000000E+00 0. -1.
<mgrwt>
<rscale>  1 0.61597246E+03</rscale>
<asrwt>0</asrwt>
<pdfrwt beam="2">  1       21 0.38712614E+00 0.10063827E+04</pdfrwt>
<pdfrwt beam="1">  1        4 0.33033715E-01 0.10063827E+04</pdfrwt>
<totfact> 0.26718789E+00</totfact>
</mgrwt>
</event>
<event>
 6    1  0.1431486E-005  0.9988290E+03  0.7818608E-02  0.1031497E+00
          4   -1    0    0  502    0 -0.00000000000E+00  0.00000000000E+00  0.13755118713E+04  0.13755118713E+04  0.00000000000E+00 0.  1.
         21   -1    0    0  501  502  0.00000000000E+00 -0.00000000000E+00 -0.20382453941E+03  0.20382453941E+03  0.00000000000E+00 0.  1.
    9000010    2    1    2  501    0  0.49467434289E+01  0.36452154032E+02  0.10373509181E+04  0.14400542760E+04  0.99815137172E+03 0.  0.
        -13    1    3    3    0    0  0.63428094922E+02  0.50201651486E+03  0.69280922941E+03  0.85792094270E+03  0.10566000000E+00 0.  1.
          4    1    3    3  501    0 -0.58481351493E+02 -0.46556436082E+03  0.34454168870E+03  0.58213333335E+03  0.00000000000E+00 0.  1.
         13    1    1    2    0    0 -0.49467434289E+01 -0.36452154032E+02  0.13433641377E+03  0.13928213465E+03  0.10566000000E+00 0. -1.
<mgrwt>
<rscale>  1 0.43756266E+03</rscale>
<asrwt>0</asrwt>
<pdfrwt beam="2">  1       21 0.31357622E-01 0.99882901E+03</pdfrwt>
<pdfrwt beam="1">  1        4 0.21161720E+00 0.99882901E+03</pdfrwt>
<totfact> 0.44068739E+01</totfact>
</mgrwt>
</event>
<event>
 6    1  0.1431486E-005  0.1032583E+04  0.7818608E-02  0.9945561E-01
         21   -1    0    0  501  502  0.00000000000E+00  0.00000000000E+00  0.18380979281E+03  0.18380979281E+03  0.00000000000E+00 0.  1.
          4   -1    0    0  502    0 -0.00000000000E+00 -0.00000000000E+00 -0.18561831710E+04  0.18561831710E+04  0.00000000000E+00 0.  1.
    9000010    2    1    2  501    0  0.94702125429E+02 -0.41806690957E+02 -0.13389078913E+04  0.16908289134E+04  0.10273810302E+04 0.  0.
        -13    1    3    3    0    0 -0.95433318411E+02 -0.49024825084E+02 -0.14608825324E+04  0.14648169634E+04  0.10566000000E+00 0.  1.
          4    1    3    3  501    0  0.19013544384E+03  0.72181341271E+01  0.12197464111E+03  0.22601194999E+03  0.00000000000E+00 0.  1.
         13    1    1    2    0    0 -0.94702125429E+02  0.41806690957E+02 -0.33346548686E+03  0.34916405035E+03  0.10566000000E+00 0. -1.
<mgrwt>
<rscale>  1 0.58103115E+03</rscale>
<asrwt>0</asrwt>
<pdfrwt beam="1">  1       21 0.28278431E-01 0.10325832E+04</pdfrwt>
<pdfrwt beam="2">  1        4 0.28556663E+00 0.10325832E+04</pdfrwt>
<totfact> 0.18705734E+01</totfact>
</mgrwt>
</event>
<event>
 6    1  0.1431486E-005  0.1051299E+04  0.7818608E-02  0.9578461E-01
          4   -1    0    0  502    0 -0.00000000000E+00  0.00000000000E+00  0.10447175712E+04  0.10447175712E+04  0.00000000000E+00 0.  1.
         21   -1    0    0  501  502  0.00000000000E+00 -0.00000000000E+00 -0.45855945614E+03  0.45855945614E+03  0.00000000000E+00 0.  1.
    9000010    2    1    2  501    0  0.16638016263E+03 -0.28591300218E+03  0.40927825741E+03  0.11281569152E+04  0.99789815611E+03 0.  0.
        -13    1    3    3    0    0  0.41796699330E+03 -0.14940965244E+03  0.62722378913E+03  0.76839400346E+03  0.10566000000E+00 0.  1.
          4    1    3    3  501    0 -0.25158683068E+03 -0.13650334974E+03 -0.21794553172E+03  0.35976291173E+03  0.00000000000E+00 0.  1.
         13    1    1    2    0    0 -0.16638016263E+03  0.28591300218E+03  0.17687985762E+03  0.37512011213E+03  0.10566000000E+00 0. -1.
<mgrwt>
<rscale>  1 0.78738296E+03</rscale>
<asrwt>0</asrwt>
<pdfrwt beam="2">  1       21 0.70547609E-01 0.10512989E+04</pdfrwt>
<pdfrwt beam="1">  1        4 0.16072578E+00 0.10512989E+04</pdfrwt>
<totfact> 0.17202324E+01</totfact>
</mgrwt>
</event>
<event>
 6    1  0.1431486E-005  0.9970194E+03  0.7818608E-02  0.1042624E+00
         21   -1    0    0  501  502  0.00000000000E+00  0.00000000000E+00  0.14516895512E+04  0.14516895512E+04  0.00000000000E+00 0.  1.
          4   -1    0    0  502    0 -0.00000000000E+00 -0.00000000000E+00 -0.26349068289E+03  0.26349068289E+03  0.00000000000E+00 0.  1.
    9000010    2    1    2  501    0  0.18002016189E+02 -0.19728597557E+02  0.12783360317E+04  0.16211695456E+04  0.99666162534E+03 0.  0.
        -13    1    3    3    0    0 -0.44540685360E+03 -0.21124030199E+03  0.69266767205E+03  0.85017542042E+03  0.10566000000E+00 0.  1.
          4    1    3    3  501    0  0.46340886979E+03  0.19151170444E+03  0.58566835967E+03  0.77099412517E+03  0.00000000000E+00 0.  1.
         13    1    1    2    0    0 -0.18002016189E+02  0.19728597557E+02 -0.90137163447E+02  0.94010688471E+02  0.10566000000E+00 0. -1.
<mgrwt>
<rscale>  1 0.40335443E+03</rscale>
<asrwt>0</asrwt>
<pdfrwt beam="1">  1       21 0.22333685E+00 0.99701940E+03</pdfrwt>
<pdfrwt beam="2">  1        4 0.40537029E-01 0.99701940E+03</pdfrwt>
<totfact> 0.19222387E+01</totfact>
</mgrwt>
</event>
<event>
 6    1  0.1431486E-005  0.8490111E+03  0.7818608E-02  0.1000981E+00
          4   -1    0    0  502    0 -0.00000000000E+00  0.00000000000E+00  0.11512953526E+04  0.11512953526E+04  0.00000000000E+00 0.  1.
         21   -1    0    0  501  502  0.00000000000E+00 -0.00000000000E+00 -0.23018042526E+03  0.23018042526E+03  0.00000000000E+00 0.  1.
    9000010    2    1    2  501    0  0.11634081094E+03  0.97750120869E+02  0.88270846671E+03  0.12247424445E+04  0.83530206973E+03 0.  0.
        -13    1    3    3    0    0  0.21252827968E+03  0.15267010704E+03 -0.65769875649E+02  0.26981867792E+03  0.10566000000E+00 0.  1.
          4    1    3    3  501    0 -0.96187468731E+02 -0.54919986176E+02  0.94847834236E+03  0.95492376656E+03  0.00000000000E+00 0.  1.
         13    1    1    2    0    0 -0.11634081094E+03 -0.97750120869E+02  0.38406460682E+02  0.15673333343E+03  0.10566000000E+00 0. -1.
<mgrwt>
<rscale>  1 0.55222203E+03</rscale>
<asrwt>0</asrwt>
<pdfrwt beam="2">  1       21 0.35412374E-01 0.84901108E+03</pdfrwt>
<pdfrwt beam="1">  1        4 0.17712236E+00 0.84901108E+03</pdfrwt>
<totfact> 0.59379042E+01</totfact>
</mgrwt>
</event>
<event>
 6    1  0.1431486E-005  0.1010702E+04  0.7818608E-02  0.9907229E-01
         21   -1    0    0  501  502  0.00000000000E+00  0.00000000000E+00  0.41778045398E+03  0.41778045398E+03  0.00000000000E+00 0.  1.
          4   -1    0    0  502    0 -0.00000000000E+00 -0.00000000000E+00 -0.83489194336E+03  0.83489194336E+03  0.00000000000E+00 0.  1.
    9000010    2    1    2  501    0 -0.11618496109E+03 -0.45546368256E+02 -0.24481464290E+03  0.10399292863E+04  0.10029682419E+04 0.  0.
        -13    1    3    3    0    0  0.19441903003E+03 -0.19438417137E+03 -0.52717647470E+03  0.59455782894E+03  0.10566000000E+00 0.  1.
          4    1    3    3  501    0 -0.31060399112E+03  0.14883780311E+03  0.28236183180E+03  0.44537145732E+03  0.00000000000E+00 0.  1.
         13    1    1    2    0    0  0.11618496109E+03  0.45546368256E+02 -0.17229684648E+03  0.21274311109E+03  0.10566000000E+00 0. -1.
<mgrwt>
<rscale>  1 0.59912218E+03</rscale>
<asrwt>0</asrwt>
<pdfrwt beam="1">  1       21 0.64273917E-01 0.10107021E+04</pdfrwt>
<pdfrwt beam="2">  1        4 0.12844491E+00 0.10107021E+04</pdfrwt>
<totfact> 0.38692347E+01</totfact>
</mgrwt>
</event>
<event>
 6    1  0.1431486E-005  0.1044121E+04  0.7818608E-02  0.9586766E-01
         21   -1    0    0  501  502  0.00000000000E+00  0.00000000000E+00  0.83408737177E+03  0.83408737177E+03  0.00000000000E+00 0.  1.
          4   -1    0    0  502    0 -0.00000000000E+00 -0.00000000000E+00 -0.67522777102E+03  0.67522777102E+03  0.00000000000E+00 0.  1.
    9000010    2    1    2  501    0  0.32801422174E+03 -0.99508969184E+01  0.38273500031E+03  0.11120588581E+04  0.99120960118E+03 0.  0.
        -13    1    3    3    0    0 -0.29763985493E+03 -0.63278373331E+02 -0.99697249565E+02  0.32020803942E+03  0.10566000000E+00 0.  1.
          4    1    3    3  501    0  0.62565407666E+03  0.53327476413E+02  0.48243224987E+03  0.79185081872E+03  0.00000000000E+00 0.  1.
         13    1    1    2    0    0 -0.32801422174E+03  0.99508969184E+01 -0.22387539956E+03  0.39725628466E+03  0.10566000000E+00 0. -1.
<mgrwt>
<rscale>  1 0.78178307E+03</rscale>
<asrwt>0</asrwt>
<pdfrwt beam="1">  1       21 0.12832113E+00 0.10441211E+04</pdfrwt>
<pdfrwt beam="2">  1        4 0.10388120E+00 0.10441211E+04</pdfrwt>
<totfact> 0.12190228E+01</totfact>
</mgrwt>
</event>
<event>
 6    1  0.1431486E-005  0.1090729E+04  0.7818608E-02  0.9479631E-01
          4   -1    0    0  502    0 -0.00000000000E+00  0.00000000000E+00  0.91643919833E+03  0.91643919833E+03  0.00000000000E+00 0.  1.
         21   -1    0    0  501  502  0.00000000000E+00 -0.00000000000E+00 -0.75055779073E+03  0.75055779073E+03  0.00000000000E+00 0.  1.
    9000010    2    1    2  501    0  0.34933010744E+03  0.22897058573E+03 -0.20333582637E+03  0.11095201464E+04  0.10075864449E+04 0.  0.
        -13    1    3    3    0    0 -0.34790993637E+03 -0.24415561504E+02 -0.72336515624E+02  0.35618818920E+03  0.10566000000E+00 0.  1.
          4    1    3    3  501    0  0.69724004382E+03  0.25338614723E+03 -0.13099931074E+03  0.75333195719E+03  0.00000000000E+00 0.  1.
         13    1    1    2    0    0 -0.34933010744E+03 -0.22897058573E+03  0.36921723397E+03  0.55747684267E+03  0.10566000000E+00 0. -1.
<mgrwt>
<rscale>  1 0.85802374E+03</rscale>
<asrwt>0</asrwt>
<pdfrwt beam="2">  1       21 0.11547043E+00 0.10907289E+04</pdfrwt>
<pdfrwt beam="1">  1        4 0.14099065E+00 0.10907289E+04</pdfrwt>
<totfact> 0.73837417E+00</totfact>
</mgrwt>
</event>
<event>
 6    1  0.1431486E-005  0.1039449E+04  0.7818608E-02  0.9624410E-01
          4   -1    0    0  502    0 -0.00000000000E+00  0.00000000000E+00  0.54111639122E+03  0.54111639122E+03  0.00000000000E+00 0.  1.
         21   -1    0    0  501  502  0.00000000000E+00 -0.00000000000E+00 -0.17240234438E+04  0.17240234438E+04  0.00000000000E+00 0.  1.
    9000010    2    1    2  501    0 -0.28341192567E+02  0.29104342966E+03 -0.15056665146E+04  0.18296135068E+04  0.99746901213E+03 0.  0.
        -13    1    3    3    0    0  0.48207368672E+02  0.53026565525E+03 -0.14850261012E+04  0.15775956858E+04  0.10566000000E+00 0.  1.
          4    1    3    3  501    0 -0.76548561238E+02 -0.23922222559E+03 -0.20640413373E+02  0.25201782102E+03  0.00000000000E+00 0.  1.
         13    1    1    2    0    0  0.28341192567E+02 -0.29104342966E+03  0.32275946194E+03  0.43552632823E+03  0.10566000000E+00 0. -1.
<mgrwt>
<rscale>  1 0.75701441E+03</rscale>
<asrwt>0</asrwt>
<pdfrwt beam="2">  1       21 0.26523438E+00 0.10394489E+04</pdfrwt>
<pdfrwt beam="1">  1        4 0.83248676E-01 0.10394489E+04</pdfrwt>
<totfact> 0.21585702E+00</totfact>
</mgrwt>
</event>
<event>
 6    1  0.1431486E-005  0.1103772E+04  0.7818608E-02  0.9429317E-01
          4   -1    0    0  502    0 -0.00000000000E+00  0.00000000000E+00  0.14848285736E+04  0.14848285736E+04  0.00000000000E+00 0.  1.
         21   -1    0    0  501  502  0.00000000000E+00 -0.00000000000E+00 -0.44250549515E+03  0.44250549515E+03  0.00000000000E+00 0.  1.
    9000010    2    1    2  501    0  0.41388667053E+03  0.24598290999E+03  0.53048391249E+03  0.12246327730E+04  0.99322831176E+03 0.  0.
        -13    1    3    3    0    0 -0.21847673786E+03  0.31757408069E+03  0.43481995827E+03  0.58107984735E+03  0.10566000000E+00 0.  1.
          4    1    3    3  501    0  0.63236340840E+03 -0.71591170704E+02  0.95663954214E+02  0.64355292567E+03  0.00000000000E+00 0.  1.
         13    1    1    2    0    0 -0.41388667053E+03 -0.24598290999E+03  0.51183916594E+03  0.70270129572E+03  0.10566000000E+00 0. -1.
<mgrwt>
<rscale>  1 0.89701757E+03</rscale>
<asrwt>0</asrwt>
<pdfrwt beam="2">  1       21 0.68077769E-01 0.11037718E+04</pdfrwt>
<pdfrwt beam="1">  1        4 0.22843516E+00 0.11037718E+04</pdfrwt>
<totfact> 0.64563186E+00</totfact>
</mgrwt>
</event>
<event>
 6    1  0.1431486E-005  0.1011853E+04  0.7818608E-02  0.9599476E-01
          4   -1    0    0  502    0 -0.00000000000E+00  0.00000000000E+00  0.87836166359E+03  0.87836166359E+03  0.00000000000E+00 0.  1.
         21   -1    0    0  501  502  0.00000000000E+00 -0.00000000000E+00 -0.62381372637E+03  0.62381372637E+03  0.00000000000E+00 0.  1.
    9000010    2    1    2  501    0  0.30469475212E+03  0.16222680003E+03 -0.88245795174E+02  0.10156941665E+04  0.95115240259E+03 0.  0.
        -13    1    3    3    0    0 -0.25449206264E+02  0.34669054479E+03  0.31051963684E+03  0.46611635025E+03  0.10566000000E+00 0.  1.
          4    1    3    3  501    0  0.33014395838E+03 -0.18446374476E+03 -0.39876543201E+03  0.54957781629E+03  0.00000000000E+00 0.  1.
         13    1    1    2    0    0 -0.30469475212E+03 -0.16222680003E+03  0.34279373239E+03  0.48648122342E+03  0.10566000000E+00 0. -1.
<mgrwt>
<rscale>  1 0.77330869E+03</rscale>
<asrwt>0</asrwt>
<pdfrwt beam="2">  1       21 0.95971342E-01 0.10118534E+04</pdfrwt>
<pdfrwt beam="1">  1        4 0.13513256E+00 0.10118534E+04</pdfrwt>
<totfact> 0.13245470E+01</totfact>
</mgrwt>
</event>
<event>
 6    1  0.1431486E-005  0.1406350E+04  0.7818608E-02  0.9038904E-01
         21   -1    0    0  501  502  0.00000000000E+00  0.00000000000E+00  0.10510670877E+04  0.10510670877E+04  0.00000000000E+00 0. -1.
          4   -1    0    0  502    0 -0.00000000000E+00 -0.00000000000E+00 -0.13840686967E+04  0.13840686967E+04  0.00000000000E+00 0.  1.
    9000010    2    1    2  501    0  0.93922556216E+03 -0.31396599951E+03 -0.33119402034E+03  0.14448213979E+04  0.99854899099E+03 0.  0.
        -13    1    3    3    0    0  0.78337576314E+03 -0.47689172447E+03 -0.59849886710E+03  0.10951274849E+04  0.10566000000E+00 0.  1.
          4    1    3    3  501    0  0.15584979902E+03  0.16292572496E+03  0.26730484676E+03  0.34969391303E+03  0.00000000000E+00 0.  1.
         13    1    1    2    0    0 -0.93922556216E+03  0.31396599951E+03 -0.18075885959E+01  0.99031438645E+03  0.10566000000E+00 0. -1.
<mgrwt>
<rscale>  1 0.12882885E+04</rscale>
<asrwt>0</asrwt>
<pdfrwt beam="1">  1       21 0.16170263E+00 0.14063497E+04</pdfrwt>
<pdfrwt beam="2">  1        4 0.21293364E+00 0.14063497E+04</pdfrwt>
<totfact> 0.86921227E-01</totfact>
</mgrwt>
</event>
<event>
 6    1  0.1431486E-005  0.1098611E+04  0.7818608E-02  0.9459092E-01
         21   -1    0    0  501  502  0.00000000000E+00  0.00000000000E+00  0.12383534770E+04  0.12383534770E+04  0.00000000000E+00 0.  1.
          4   -1    0    0  502    0 -0.00000000000E+00 -0.00000000000E+00 -0.68668542712E+03  0.68668542712E+03  0.00000000000E+00 0.  1.
    9000010    2    1    2  501    0 -0.43873730913E+03  0.24515976464E+02 -0.13803439780E+03  0.11072486272E+04  0.10069034551E+04 0.  0.
        -13    1    3    3    0    0 -0.53693382694E+03 -0.37864039530E+03 -0.20208840017E+03  0.68739087579E+03  0.10566000000E+00 0.  1.
          4    1    3    3  501    0  0.98196517816E+02  0.40315637177E+03  0.64054002368E+02  0.41985775142E+03  0.00000000000E+00 0.  1.
         13    1    1    2    0    0  0.43873730913E+03 -0.24515976464E+02  0.68970244768E+03  0.81779027692E+03  0.10566000000E+00 0. -1.
<mgrwt>
<rscale>  1 0.87368199E+03</rscale>
<asrwt>0</asrwt>
<pdfrwt beam="1">  1       21 0.19051592E+00 0.10986110E+04</pdfrwt>
<pdfrwt beam="2">  1        4 0.10564391E+00 0.10986110E+04</pdfrwt>
<totfact> 0.37689015E+00</totfact>
</mgrwt>
</event>
<event>
 6    1  0.1431486E-005  0.1031880E+04  0.7818608E-02  0.9714150E-01
          4   -1    0    0  502    0 -0.00000000000E+00  0.00000000000E+00  0.13960696948E+04  0.13960696948E+04  0.00000000000E+00 0.  1.
         21   -1    0    0  501  502  0.00000000000E+00 -0.00000000000E+00 -0.31712177902E+03  0.31712177902E+03  0.00000000000E+00 0.  1.
    9000010    2    1    2  501    0 -0.21989108384E+03 -0.19897369434E+02  0.61979571739E+03  0.12037125768E+04  0.10079827589E+04 0.  0.
        -13    1    3    3    0    0 -0.30299618672E+03  0.25616935770E+03 -0.11605551616E+03  0.41339850385E+03  0.10566000000E+00 0.  1.
          4    1    3    3  501    0  0.83105102879E+02 -0.27606672714E+03  0.73585123355E+03  0.79031407293E+03  0.00000000000E+00 0.  1.
         13    1    1    2    0    0  0.21989108384E+03  0.19897369434E+02  0.45915219836E+03  0.50947889700E+03  0.10566000000E+00 0. -1.
<mgrwt>
<rscale>  1 0.70180529E+03</rscale>
<asrwt>0</asrwt>
<pdfrwt beam="2">  1       21 0.48787967E-01 0.10318804E+04</pdfrwt>
<pdfrwt beam="1">  1        4 0.21477995E+00 0.10318804E+04</pdfrwt>
<totfact> 0.16645211E+01</totfact>
</mgrwt>
</event>
<event>
 6    1  0.1431486E-005  0.1094260E+04  0.7818608E-02  0.9500680E-01
          4   -1    0    0  502    0 -0.00000000000E+00  0.00000000000E+00  0.35339707621E+03  0.35339707621E+03  0.00000000000E+00 0.  1.
         21   -1    0    0  501  502  0.00000000000E+00 -0.00000000000E+00 -0.15868037506E+04  0.15868037506E+04  0.00000000000E+00 0. -1.
    9000010    2    1    2  501    0 -0.37337558305E+03  0.90646919767E+02 -0.10416980162E+04  0.15108077541E+04  0.10245872939E+04 0.  0.
        -13    1    3    3    0    0 -0.40620301654E+03 -0.41897139963E+03 -0.55001744327E+03  0.80190842583E+03  0.10566000000E+00 0.  1.
          4    1    3    3  501    0  0.32827433485E+02  0.50961831940E+03 -0.49168057292E+03  0.70889932829E+03  0.00000000000E+00 0.  1.
         13    1    1    2    0    0  0.37337558305E+03 -0.90646919767E+02 -0.19170865822E+03  0.42939307270E+03  0.10566000000E+00 0. -1.
<mgrwt>
<rscale>  1 0.84233699E+03</rscale>
<asrwt>0</asrwt>
<pdfrwt beam="2">  1       21 0.24412365E+00 0.10942602E+04</pdfrwt>
<pdfrwt beam="1">  1        4 0.54368781E-01 0.10942602E+04</pdfrwt>
<totfact> 0.75253282E+00</totfact>
</mgrwt>
</event>
<event>
 6    1  0.1431486E-005  0.9977284E+03  0.7818608E-02  0.1002237E+00
         21   -1    0    0  501  502  0.00000000000E+00  0.00000000000E+00  0.33942733152E+03  0.33942733152E+03  0.00000000000E+00 0.  1.
          4   -1    0    0  502    0 -0.00000000000E+00 -0.00000000000E+00 -0.92665622093E+03  0.92665622093E+03  0.00000000000E+00 0.  1.
    9000010    2    1    2  501    0 -0.87157346609E+02  0.22474230664E+02 -0.43326689940E+03  0.10877417468E+04  0.99366010663E+03 0.  0.
        -13    1    3    3    0    0 -0.46298974014E+03  0.28083906883E+03 -0.24452488304E+03  0.59415697559E+03  0.10566000000E+00 0.  1.
          4    1    3    3  501    0  0.37583239353E+03 -0.25836483817E+03 -0.18874201636E+03  0.49358477121E+03  0.00000000000E+00 0.  1.
         13    1    1    2    0    0  0.87157346609E+02 -0.22474230664E+02 -0.15396199002E+03  0.17834180566E+03  0.10566000000E+00 0. -1.
<mgrwt>
<rscale>  1 0.54680183E+03</rscale>
<asrwt>0</asrwt>
<pdfrwt beam="1">  1       21 0.52219590E-01 0.99772837E+03</pdfrwt>
<pdfrwt beam="2">  1        4 0.14256249E+00 0.99772837E+03</pdfrwt>
<totfact> 0.46796008E+01</totfact>
</mgrwt>
</event>
<event>
 6    1  0.1431486E-005  0.1020755E+04  0.7818608E-02  0.9794901E-01
          4   -1    0    0  502    0 -0.00000000000E+00  0.00000000000E+00  0.10543854559E+04  0.10543854559E+04  0.00000000000E+00 0.  1.
         21   -1    0    0  501  502  0.00000000000E+00 -0.00000000000E+00 -0.79584554375E+03  0.79584554375E+03  0.00000000000E+00 0.  1.
    9000010    2    1    2  501    0 -0.17405389911E+03 -0.12649731924E+02 -0.45361304342E+03  0.11170075557E+04  0.10057267575E+04 0.  0.
        -13    1    3    3    0    0 -0.59565292108E+03 -0.44377630726E+02 -0.24576911540E+03  0.64589027377E+03  0.10566000000E+00 0.  1.
          4    1    3    3  501    0  0.42159902197E+03  0.31727898802E+02 -0.20784392802E+03  0.47111728189E+03  0.00000000000E+00 0.  1.
         13    1    1    2    0    0  0.17405389911E+03  0.12649731924E+02  0.71215295556E+03  0.73322344398E+03  0.10566000000E+00 0. -1.
<mgrwt>
<rscale>  1 0.65636911E+03</rscale>
<asrwt>0</asrwt>
<pdfrwt beam="2">  1       21 0.12243778E+00 0.10207552E+04</pdfrwt>
<pdfrwt beam="1">  1        4 0.16221315E+00 0.10207552E+04</pdfrwt>
<totfact> 0.43809151E+00</totfact>
</mgrwt>
</event>
<event>
 6    1  0.1431486E-005  0.9807135E+03  0.7818608E-02  0.1017654E+00
         21   -1    0    0  501  502  0.00000000000E+00  0.00000000000E+00  0.20665079522E+04  0.20665079522E+04  0.00000000000E+00 0.  1.
          4   -1    0    0  502    0 -0.00000000000E+00 -0.00000000000E+00 -0.18944902259E+03  0.18944902259E+03  0.00000000000E+00 0.  1.
    9000010    2    1    2  501    0 -0.16146611104E+02 -0.56608591511E+02  0.19375118205E+04  0.21715780150E+04  0.97894523581E+03 0.  0.
        -13    1    3    3    0    0 -0.20722158476E+03 -0.38535572159E+03  0.41764963859E+03  0.60487275450E+03  0.10566000000E+00 0.  1.
          4    1    3    3  501    0  0.19107497366E+03  0.32874713008E+03  0.15198621819E+04  0.15667052605E+04  0.00000000000E+00 0.  1.
         13    1    1    2    0    0  0.16146611104E+02  0.56608591511E+02 -0.60452890888E+02  0.84378959841E+02  0.10566000000E+00 0. -1.
<mgrwt>
<rscale>  1 0.48542658E+03</rscale>
<asrwt>0</asrwt>
<pdfrwt beam="1">  1       21 0.31792428E+00 0.98071353E+03</pdfrwt>
<pdfrwt beam="2">  1        4 0.29146005E-01 0.98071353E+03</pdfrwt>
<totfact> 0.94276331E+00</totfact>
</mgrwt>
</event>
<event>
 6    1  0.1431486E-005  0.1030172E+04  0.7818608E-02  0.9682244E-01
          4   -1    0    0  502    0 -0.00000000000E+00  0.00000000000E+00  0.46936682994E+03  0.46936682994E+03  0.00000000000E+00 0.  1.
         21   -1    0    0  501  502  0.00000000000E+00 -0.00000000000E+00 -0.97301799118E+03  0.97301799118E+03  0.00000000000E+00 0.  1.
    9000010    2    1    2  501    0 -0.92018369937E+02  0.22917451040E+03 -0.58211211342E+03  0.11832623234E+04  0.10001334295E+04 0.  0.
        -13    1    3    3    0    0  0.34903490906E+03  0.61975049869E+02  0.86615249652E+02  0.36492257698E+03  0.10566000000E+00 0.  1.
          4    1    3    3  501    0 -0.44105327900E+03  0.16719946053E+03 -0.66872736307E+03  0.81833974646E+03  0.00000000000E+00 0.  1.
         13    1    1    2    0    0  0.92018369937E+02 -0.22917451040E+03  0.78460952179E+02  0.25912249768E+03  0.10566000000E+00 0. -1.
<mgrwt>
<rscale>  1 0.72083904E+03</rscale>
<asrwt>0</asrwt>
<pdfrwt beam="2">  1       21 0.14969507E+00 0.10301724E+04</pdfrwt>
<pdfrwt beam="1">  1        4 0.72210282E-01 0.10301724E+04</pdfrwt>
<totfact> 0.18806512E+01</totfact>
</mgrwt>
</event>
<event>
 6    1  0.1431486E-005  0.9915644E+03  0.7818608E-02  0.9955420E-01
         21   -1    0    0  501  502  0.00000000000E+00  0.00000000000E+00  0.78909988352E+03  0.78909988352E+03  0.00000000000E+00 0.  1.
          4   -1    0    0  502    0 -0.00000000000E+00 -0.00000000000E+00 -0.54610387955E+03  0.54610387955E+03  0.00000000000E+00 0.  1.
    9000010    2    1    2  501    0 -0.59309412718E+02  0.96528335182E+02  0.45796012010E+03  0.10922121823E+04  0.98507088764E+03 0.  0.
        -13    1    3    3    0    0  0.51683752701E+02 -0.38308010100E+03 -0.44114800149E+02  0.38906002214E+03  0.10566000000E+00 0.  1.
          4    1    3    3  501    0 -0.11099316542E+03  0.47960843618E+03  0.50207492025E+03  0.70315216018E+03  0.00000000000E+00 0.  1.
         13    1    1    2    0    0  0.59309412718E+02 -0.96528335182E+02 -0.21496411613E+03  0.24299158076E+03  0.10566000000E+00 0. -1.
<mgrwt>
<rscale>  1 0.57648977E+03</rscale>
<asrwt>0</asrwt>
<pdfrwt beam="1">  1       21 0.12139998E+00 0.99156441E+03</pdfrwt>
<pdfrwt beam="2">  1        4 0.84015982E-01 0.99156441E+03</pdfrwt>
<totfact> 0.23477669E+01</totfact>
</mgrwt>
</event>
<event>
 6    1  0.1431486E-005  0.1111291E+04  0.7818608E-02  0.9407578E-01
          4   -1    0    0  502    0 -0.00000000000E+00  0.00000000000E+00  0.10722486670E+04  0.10722486670E+04  0.00000000000E+00 0.  1.
         21   -1    0    0  501  502  0.00000000000E+00 -0.00000000000E+00 -0.62638861524E+03  0.62638861524E+03  0.00000000000E+00 0. -1.
    9000010    2    1    2  501    0  0.50696085794E+03  0.53064409453E+02  0.18689788137E+03  0.11268973414E+04  0.98749261114E+03 0.  0.
        -13    1    3    3    0    0  0.53964600754E+03 -0.38562816032E+03  0.17866423514E+03  0.68691179314E+03  0.10566000000E+00 0.  1.
          4    1    3    3  501    0 -0.32685149599E+02  0.43869256977E+03  0.82336462261E+01  0.43998554829E+03  0.00000000000E+00 0.  1.
         13    1    1    2    0    0 -0.50696085794E+03 -0.53064409453E+02  0.25896217035E+03  0.57173994076E+03  0.10566000000E+00 0. -1.
<mgrwt>
<rscale>  1 0.91454669E+03</rscale>
<asrwt>0</asrwt>
<pdfrwt beam="2">  1       21 0.96367479E-01 0.11112906E+04</pdfrwt>
<pdfrwt beam="1">  1        4 0.16496133E+00 0.11112906E+04</pdfrwt>
<totfact> 0.75862292E+00</totfact>
</mgrwt>
</event>
<event>
 6    1  0.1431486E-005  0.1095973E+04  0.7818608E-02  0.9463669E-01
          4   -1    0    0  502    0 -0.00000000000E+00  0.00000000000E+00  0.11518714389E+04  0.11518714389E+04  0.00000000000E+00 0.  1.
         21   -1    0    0  501  502  0.00000000000E+00 -0.00000000000E+00 -0.54917206677E+03  0.54917206677E+03  0.00000000000E+00 0. -1.
    9000010    2    1    2  501    0  0.30748886310E+03 -0.30841714424E+03  0.21267787600E+03  0.11164177156E+04  0.10057266532E+04 0.  0.
        -13    1    3    3    0    0 -0.16397407028E+03  0.25649589432E+03 -0.94955231644E+02  0.31889519706E+03  0.10566000000E+00 0.  1.
          4    1    3    3  501    0  0.47146293338E+03 -0.56491303856E+03  0.30763310764E+03  0.79752251855E+03  0.00000000000E+00 0.  1.
         13    1    1    2    0    0 -0.30748886310E+03  0.30841714424E+03  0.39002149614E+03  0.58462579006E+03  0.10566000000E+00 0. -1.
<mgrwt>
<rscale>  1 0.87016148E+03</rscale>
<asrwt>0</asrwt>
<pdfrwt beam="2">  1       21 0.84488010E-01 0.10959729E+04</pdfrwt>
<pdfrwt beam="1">  1        4 0.17721099E+00 0.10959729E+04</pdfrwt>
<totfact> 0.85307320E+00</totfact>
</mgrwt>
</event>
<event>
 6    1  0.1431486E-005  0.1029095E+04  0.7818608E-02  0.9659305E-01
          4   -1    0    0  502    0 -0.00000000000E+00  0.00000000000E+00  0.70555007953E+03  0.70555007953E+03  0.00000000000E+00 0.  1.
         21   -1    0    0  501  502  0.00000000000E+00 -0.00000000000E+00 -0.59709362811E+03  0.59709362811E+03  0.00000000000E+00 0.  1.
    9000010    2    1    2  501    0  0.98738376288E+02 -0.24879408321E+03  0.61909555399E+02  0.10309556743E+04  0.99367451736E+03 0.  0.
        -13    1    3    3    0    0  0.23609644214E+03 -0.31635862773E+03  0.45899117894E+03  0.60539014267E+03  0.10566000000E+00 0.  1.
          4    1    3    3  501    0 -0.13735806585E+03  0.67564544527E+02 -0.39708162354E+03  0.42556553160E+03  0.00000000000E+00 0.  1.
         13    1    1    2    0    0 -0.98738376288E+02  0.24879408321E+03  0.46546896022E+02  0.27168803338E+03  0.10566000000E+00 0. -1.
<mgrwt>
<rscale>  1 0.73492324E+03</rscale>
<asrwt>0</asrwt>
<pdfrwt beam="2">  1       21 0.91860558E-01 0.10290951E+04</pdfrwt>
<pdfrwt beam="1">  1        4 0.10854617E+00 0.10290951E+04</pdfrwt>
<totfact> 0.25566704E+01</totfact>
</mgrwt>
</event>
<event>
 6    1  0.1431486E-005  0.1058778E+04  0.7818608E-02  0.9546007E-01
          4   -1    0    0  502    0 -0.00000000000E+00  0.00000000000E+00  0.28371407216E+03  0.28371407216E+03  0.00000000000E+00 0.  1.
         21   -1    0    0  501  502  0.00000000000E+00 -0.00000000000E+00 -0.18597849482E+04  0.18597849482E+04  0.00000000000E+00 0.  1.
    9000010    2    1    2  501    0  0.50558366725E+02 -0.35869267711E+03 -0.13532163389E+04  0.17181982551E+04  0.99488401275E+03 0.  0.
        -13    1    3    3    0    0 -0.24885537583E+03 -0.11902366193E+02  0.39323751372E+02  0.25222417209E+03  0.10566000000E+00 0.  1.
          4    1    3    3  501    0  0.29941374256E+03 -0.34679031092E+03 -0.13925400903E+04  0.14659740830E+04  0.00000000000E+00 0.  1.
         13    1    1    2    0    0 -0.50558366725E+02  0.35869267711E+03 -0.22285453715E+03  0.42530076528E+03  0.10566000000E+00 0. -1.
<mgrwt>
<rscale>  1 0.80975244E+03</rscale>
<asrwt>0</asrwt>
<pdfrwt beam="2">  1       21 0.28612076E+00 0.10587780E+04</pdfrwt>
<pdfrwt beam="1">  1        4 0.43648320E-01 0.10587780E+04</pdfrwt>
<totfact> 0.65262033E+00</totfact>
</mgrwt>
</event>
<event>
 6    1  0.1431486E-005  0.1198915E+04  0.7818608E-02  0.9259831E-01
         21   -1    0    0  501  502  0.00000000000E+00  0.00000000000E+00  0.78431875701E+03  0.78431875701E+03  0.00000000000E+00 0. -1.
          4   -1    0    0  502    0 -0.00000000000E+00 -0.00000000000E+00 -0.12897283015E+04  0.12897283015E+04  0.00000000000E+00 0.  1.
    9000010    2    1    2  501    0  0.66573918960E+03  0.19515049732E+03  0.27516753690E+02  0.11992311718E+04  0.97780665090E+03 0.  0.
        -13    1    3    3    0    0  0.46486011486E+03 -0.16269668681E+02 -0.44515278357E+03  0.64383277363E+03  0.10566000000E+00 0.  1.
          4    1    3    3  501    0  0.20087907474E+03  0.21142016600E+03  0.47266953726E+03  0.55539839819E+03  0.00000000000E+00 0.  1.
         13    1    1    2    0    0 -0.66573918960E+03 -0.19515049732E+03 -0.53292629820E+03  0.87481588672E+03  0.10566000000E+00 0. -1.
<mgrwt>
<rscale>  1 0.10456649E+04</rscale>
<asrwt>0</asrwt>
<pdfrwt beam="1">  1       21 0.12066442E+00 0.11989154E+04</pdfrwt>
<pdfrwt beam="2">  1        4 0.19841974E+00 0.11989154E+04</pdfrwt>
<totfact> 0.24821049E+00</totfact>
</mgrwt>
</event>
<event>
 6    1  0.1431486E-005  0.1011906E+04  0.7818608E-02  0.9796295E-01
          4   -1    0    0  502    0 -0.00000000000E+00  0.00000000000E+00  0.52412606456E+03  0.52412606456E+03  0.00000000000E+00 0.  1.
         21   -1    0    0  501  502  0.00000000000E+00 -0.00000000000E+00 -0.78698874409E+03  0.78698874409E+03  0.00000000000E+00 0.  1.
    9000010    2    1    2  501    0  0.12521599249E+03 -0.12694939177E+03 -0.39801738807E+03  0.10873694193E+04  0.99607189500E+03 0.  0.
        -13    1    3    3    0    0 -0.26085918138E+03  0.29195364547E+03  0.15753431302E+01  0.39151875623E+03  0.10566000000E+00 0.  1.
          4    1    3    3  501    0  0.38607517387E+03 -0.41890303723E+03 -0.39959273120E+03  0.69585066308E+03  0.00000000000E+00 0.  1.
         13    1    1    2    0    0 -0.12521599249E+03  0.12694939177E+03  0.13515470855E+03  0.22374538934E+03  0.10566000000E+00 0. -1.
<mgrwt>
<rscale>  1 0.65561735E+03</rscale>
<asrwt>0</asrwt>
<pdfrwt beam="2">  1       21 0.12107519E+00 0.10119063E+04</pdfrwt>
<pdfrwt beam="1">  1        4 0.80634780E-01 0.10119063E+04</pdfrwt>
<totfact> 0.25943630E+01</totfact>
</mgrwt>
</event>
<event>
 6    1  0.1431486E-005  0.1119305E+04  0.7818608E-02  0.9396819E-01
          4   -1    0    0  502    0 -0.00000000000E+00  0.00000000000E+00  0.97792195565E+03  0.97792195565E+03  0.00000000000E+00 0.  1.
         21   -1    0    0  501  502  0.00000000000E+00 -0.00000000000E+00 -0.93867657273E+03  0.93867657273E+03  0.00000000000E+00 0.  1.
    9000010    2    1    2  501    0  0.45489072117E+03  0.24864546263E+03 -0.44754407104E+03  0.12054627341E+04  0.99201540985E+03 0.  0.
        -13    1    3    3    0    0  0.46202393787E+03  0.37875790971E+03  0.13167268408E+03  0.61176905792E+03  0.10566000000E+00 0.  1.
          4    1    3    3  501    0 -0.71332166975E+01 -0.13011244708E+03 -0.57921675513E+03  0.59369367614E+03  0.00000000000E+00 0.  1.
         13    1    1    2    0    0 -0.45489072117E+03 -0.24864546263E+03  0.48678945396E+03  0.71113579431E+03  0.10566000000E+00 0. -1.
<mgrwt>
<rscale>  1 0.92337913E+03</rscale>
<asrwt>0</asrwt>
<pdfrwt beam="2">  1       21 0.14441178E+00 0.11193055E+04</pdfrwt>
<pdfrwt beam="1">  1        4 0.15044953E+00 0.11193055E+04</pdfrwt>
<totfact> 0.34123161E+00</totfact>
</mgrwt>
</event>
<event>
 6    1  0.1431486E-005  0.1015597E+04  0.7818608E-02  0.9739875E-01
          4   -1    0    0  502    0 -0.00000000000E+00  0.00000000000E+00  0.50494252921E+03  0.50494252921E+03  0.00000000000E+00 0.  1.
         21   -1    0    0  501  502  0.00000000000E+00 -0.00000000000E+00 -0.10303125113E+04  0.10303125113E+04  0.00000000000E+00 0.  1.
    9000010    2    1    2  501    0  0.13464292084E+03 -0.16445664997E+03 -0.72170192292E+03  0.12459093165E+04  0.99310707058E+03 0.  0.
        -13    1    3    3    0    0 -0.69298431430E+02  0.35849370609E+03 -0.46837929958E+02  0.36812200797E+03  0.10566000000E+00 0.  1.
          4    1    3    3  501    0  0.20394135227E+03 -0.52295035606E+03 -0.67486399296E+03  0.87778730856E+03  0.00000000000E+00 0.  1.
         13    1    1    2    0    0 -0.13464292084E+03  0.16445664997E+03  0.19633194080E+03  0.28934572400E+03  0.10566000000E+00 0. -1.
<mgrwt>
<rscale>  1 0.68691475E+03</rscale>
<asrwt>0</asrwt>
<pdfrwt beam="2">  1       21 0.15850962E+00 0.10155966E+04</pdfrwt>
<pdfrwt beam="1">  1        4 0.77683466E-01 0.10155966E+04</pdfrwt>
<totfact> 0.13584053E+01</totfact>
</mgrwt>
</event>
<event>
 6    1  0.1431486E-005  0.1067073E+04  0.7818608E-02  0.9557973E-01
          4   -1    0    0  502    0 -0.00000000000E+00  0.00000000000E+00  0.72628087897E+03  0.72628087897E+03  0.00000000000E+00 0.  1.
         21   -1    0    0  501  502  0.00000000000E+00 -0.00000000000E+00 -0.11520277219E+04  0.11520277219E+04  0.00000000000E+00 0.  1.
    9000010    2    1    2  501    0 -0.32221363414E+03 -0.10696568272E+03 -0.82893874927E+03  0.13512156225E+04  0.10116229165E+04 0.  0.
        -13    1    3    3    0    0 -0.43548634311E+03 -0.45246233780E+03 -0.26808479514E+03  0.68281768483E+03  0.10566000000E+00 0.  1.
          4    1    3    3  501    0  0.11327270897E+03  0.34549665508E+03 -0.56085395414E+03  0.66839793771E+03  0.00000000000E+00 0.  1.
         13    1    1    2    0    0  0.32221363414E+03  0.10696568272E+03  0.40319190634E+03  0.52709297833E+03  0.10566000000E+00 0. -1.
<mgrwt>
<rscale>  1 0.80141394E+03</rscale>
<asrwt>0</asrwt>
<pdfrwt beam="2">  1       21 0.17723504E+00 0.10670727E+04</pdfrwt>
<pdfrwt beam="1">  1        4 0.11173552E+00 0.10670727E+04</pdfrwt>
<totfact> 0.41082558E+00</totfact>
</mgrwt>
</event>
<event>
 6    1  0.1431486E-005  0.1001604E+04  0.7818608E-02  0.9835520E-01
          4   -1    0    0  502    0 -0.00000000000E+00  0.00000000000E+00  0.83852794917E+03  0.83852794917E+03  0.00000000000E+00 0.  1.
         21   -1    0    0  501  502  0.00000000000E+00 -0.00000000000E+00 -0.46765443368E+03  0.46765443368E+03  0.00000000000E+00 0.  1.
    9000010    2    1    2  501    0 -0.13231531874E+03 -0.92975549167E+02  0.12147628777E+03  0.10089437840E+04  0.98846308701E+03 0.  0.
        -13    1    3    3    0    0  0.43026276153E+03 -0.22752885859E+02  0.90428586407E+01  0.43095884053E+03  0.10566000000E+00 0.  1.
          4    1    3    3  501    0 -0.56257808027E+03 -0.70222663308E+02  0.11243342913E+03  0.57798494343E+03  0.00000000000E+00 0.  1.
         13    1    1    2    0    0  0.13231531874E+03  0.92975549167E+02  0.24939722771E+03  0.29723859889E+03  0.10566000000E+00 0. -1.
<mgrwt>
<rscale>  1 0.63490659E+03</rscale>
<asrwt>0</asrwt>
<pdfrwt beam="2">  1       21 0.71946836E-01 0.10016042E+04</pdfrwt>
<pdfrwt beam="1">  1        4 0.12900430E+00 0.10016042E+04</pdfrwt>
<totfact> 0.29612743E+01</totfact>
</mgrwt>
</event>
<event>
 6    1  0.1431486E-005  0.1000291E+04  0.7818608E-02  0.1010168E+00
          4   -1    0    0  502    0 -0.00000000000E+00  0.00000000000E+00  0.10282943539E+04  0.10282943539E+04  0.00000000000E+00 0.  1.
         21   -1    0    0  501  502  0.00000000000E+00 -0.00000000000E+00 -0.32037081964E+03  0.32037081964E+03  0.00000000000E+00 0.  1.
    9000010    2    1    2  501    0 -0.61983031065E+02 -0.32056117456E+02  0.47847014877E+03  0.11088353212E+04  0.99785399504E+03 0.  0.
        -13    1    3    3    0    0 -0.19839870089E+03  0.28892937395E+03  0.63596759839E+03  0.72615220513E+03  0.10566000000E+00 0.  1.
          4    1    3    3  501    0  0.13641566983E+03 -0.32098549141E+03 -0.15749744962E+03  0.38268311604E+03  0.00000000000E+00 0.  1.
         13    1    1    2    0    0  0.61983031065E+02  0.32056117456E+02  0.22945338548E+03  0.23982985236E+03  0.10566000000E+00 0. -1.
<mgrwt>
<rscale>  1 0.51407956E+03</rscale>
<asrwt>0</asrwt>
<pdfrwt beam="2">  1       21 0.49287819E-01 0.10002910E+04</pdfrwt>
<pdfrwt beam="1">  1        4 0.15819913E+00 0.10002910E+04</pdfrwt>
<totfact> 0.40085105E+01</totfact>
</mgrwt>
</event>
<event>
 6    1  0.1431486E-005  0.1172366E+04  0.7818608E-02  0.9345103E-01
         21   -1    0    0  501  502  0.00000000000E+00  0.00000000000E+00  0.33674927092E+03  0.33674927092E+03  0.00000000000E+00 0.  1.
          4   -1    0    0  502    0 -0.00000000000E+00 -0.00000000000E+00 -0.27196095578E+04  0.27196095578E+04  0.00000000000E+00 0.  1.
    9000010    2    1    2  501    0 -0.35612510291E+02  0.54225411807E+03 -0.90280818874E+03  0.14796971644E+04  0.10388134063E+04 0.  0.
        -13    1    3    3    0    0  0.19754431939E+03  0.51789489393E+03 -0.76417390885E+01  0.55434401470E+03  0.10566000000E+00 0.  1.
          4    1    3    3  501    0 -0.23315682968E+03  0.24359224138E+02 -0.89516644965E+03  0.92535314968E+03  0.00000000000E+00 0.  1.
         13    1    1    2    0    0  0.35612510291E+02 -0.54225411807E+03 -0.14800520982E+04  0.15766616644E+04  0.10566000000E+00 0. -1.
<mgrwt>
<rscale>  1 0.96734560E+03</rscale>
<asrwt>0</asrwt>
<pdfrwt beam="1">  1       21 0.51807580E-01 0.11723656E+04</pdfrwt>
<pdfrwt beam="2">  1        4 0.41840147E+00 0.11723656E+04</pdfrwt>
<totfact> 0.69926154E-01</totfact>
</mgrwt>
</event>
<event>
 6    1  0.1431486E-005  0.9692405E+03  0.7818608E-02  0.9655645E-01
         21   -1    0    0  501  502  0.00000000000E+00  0.00000000000E+00  0.19787366840E+04  0.19787366840E+04  0.00000000000E+00 0.  1.
          4   -1    0    0  502    0 -0.00000000000E+00 -0.00000000000E+00 -0.22394051018E+03  0.22394051018E+03  0.00000000000E+00 0.  1.
    9000010    2    1    2  501    0 -0.32173237996E+03 -0.41348138679E+02  0.15180848395E+04  0.18011131771E+04  0.91334862115E+03 0.  0.
        -13    1    3    3    0    0 -0.48149386472E+03  0.19813755734E+03  0.13931910093E+04  0.14873049563E+04  0.10566000000E+00 0.  1.
          4    1    3    3  501    0  0.15976148476E+03 -0.23948569602E+03  0.12489383021E+03  0.31380822079E+03  0.00000000000E+00 0.  1.
         13    1    1    2    0    0  0.32173237996E+03  0.41348138679E+02  0.23671133431E+03  0.40156401712E+03  0.10566000000E+00 0. -1.
<mgrwt>
<rscale>  1 0.73720228E+03</rscale>
<asrwt>0</asrwt>
<pdfrwt beam="1">  1       21 0.30442102E+00 0.96924047E+03</pdfrwt>
<pdfrwt beam="2">  1        4 0.34452387E-01 0.96924047E+03</pdfrwt>
<totfact> 0.82419549E+00</totfact>
</mgrwt>
</event>
<event>
 6    1  0.1431486E-005  0.9036452E+03  0.7818608E-02  0.9777930E-01
         21   -1    0    0  501  502  0.00000000000E+00  0.00000000000E+00  0.83561526872E+03  0.83561526872E+03  0.00000000000E+00 0.  1.
          4   -1    0    0  502    0 -0.00000000000E+00 -0.00000000000E+00 -0.83210881060E+03  0.83210881060E+03  0.00000000000E+00 0.  1.
    9000010    2    1    2  501    0  0.47141978790E+01 -0.26595301491E+03  0.55145867037E+03  0.10586223900E+04  0.86360955864E+03 0.  0.
        -13    1    3    3    0    0  0.11049640737E+03 -0.35606148894E+03  0.73752300976E+03  0.82639545076E+03  0.10566000000E+00 0.  1.
          4    1    3    3  501    0 -0.10578220949E+03  0.90108474029E+02 -0.18606433939E+03  0.23222693929E+03  0.00000000000E+00 0.  1.
         13    1    1    2    0    0 -0.47141978790E+01  0.26595301491E+03 -0.54795221225E+03  0.60910168927E+03  0.10566000000E+00 0. -1.
<mgrwt>
<rscale>  1 0.66560529E+03</rscale>
<asrwt>0</asrwt>
<pdfrwt beam="1">  1       21 0.12855620E+00 0.90364523E+03</pdfrwt>
<pdfrwt beam="2">  1        4 0.12801674E+00 0.90364523E+03</pdfrwt>
<totfact> 0.73343894E+00</totfact>
</mgrwt>
</event>
<event>
 6    1  0.1431486E-005  0.9965741E+03  0.7818608E-02  0.1011260E+00
          4   -1    0    0  502    0 -0.00000000000E+00  0.00000000000E+00  0.37315712520E+03  0.37315712520E+03  0.00000000000E+00 0.  1.
         21   -1    0    0  501  502  0.00000000000E+00 -0.00000000000E+00 -0.86402961351E+03  0.86402961351E+03  0.00000000000E+00 0.  1.
    9000010    2    1    2  501    0 -0.66428044884E+02 -0.15568491393E+02 -0.55742356605E+03  0.11418760878E+04  0.99423583960E+03 0.  0.
        -13    1    3    3    0    0  0.16157328724E+03 -0.39141595003E+03  0.10638018291E+02  0.42358653388E+03  0.10566000000E+00 0.  1.
          4    1    3    3  501    0 -0.22800133212E+03  0.37584745864E+03 -0.56806158434E+03  0.71828955388E+03  0.00000000000E+00 0.  1.
         13    1    1    2    0    0  0.66428044884E+02  0.15568491393E+02  0.66551077744E+02  0.95310650949E+02  0.10566000000E+00 0. -1.
<mgrwt>
<rscale>  1 0.50976854E+03</rscale>
<asrwt>0</asrwt>
<pdfrwt beam="2">  1       21 0.13292763E+00 0.99657412E+03</pdfrwt>
<pdfrwt beam="1">  1        4 0.57408790E-01 0.99657412E+03</pdfrwt>
<totfact> 0.43297495E+01</totfact>
</mgrwt>
</event>
<event>
 6    1  0.1431486E-005  0.9951828E+03  0.7818608E-02  0.1001030E+00
         21   -1    0    0  501  502  0.00000000000E+00  0.00000000000E+00  0.38912164857E+03  0.38912164857E+03  0.00000000000E+00 0.  1.
          4   -1    0    0  502    0 -0.00000000000E+00 -0.00000000000E+00 -0.93999902671E+03  0.93999902671E+03  0.00000000000E+00 0.  1.
    9000010    2    1    2  501    0  0.94070901094E+02  0.50434828524E+01 -0.26751817241E+03  0.10305118646E+04  0.99071386356E+03 0.  0.
        -13    1    3    3    0    0  0.62487220007E+02  0.44447143213E+03  0.96406135939E+02  0.45907914443E+03  0.10566000000E+00 0.  1.
          4    1    3    3  501    0  0.31583681087E+02 -0.43942794928E+03 -0.36392430834E+03  0.57143272021E+03  0.00000000000E+00 0.  1.
         13    1    1    2    0    0 -0.94070901094E+02 -0.50434828524E+01 -0.28335920574E+03  0.29860881064E+03  0.10566000000E+00 0. -1.
<mgrwt>
<rscale>  1 0.55200988E+03</rscale>
<asrwt>0</asrwt>
<pdfrwt beam="1">  1       21 0.59864869E-01 0.99518276E+03</pdfrwt>
<pdfrwt beam="2">  1        4 0.14461523E+00 0.99518276E+03</pdfrwt>
<totfact> 0.33358926E+01</totfact>
</mgrwt>
</event>
<event>
 6    1  0.1431486E-005  0.1024708E+04  0.7818608E-02  0.9653958E-01
          4   -1    0    0  502    0 -0.00000000000E+00  0.00000000000E+00  0.13083643346E+04  0.13083643346E+04  0.00000000000E+00 0.  1.
         21   -1    0    0  501  502  0.00000000000E+00 -0.00000000000E+00 -0.74896572821E+03  0.74896572821E+03  0.00000000000E+00 0.  1.
    9000010    2    1    2  501    0 -0.24205047414E+03  0.13277255167E+03 -0.36871565284E+03  0.10890258380E+04  0.98681764302E+03 0.  0.
        -13    1    3    3    0    0 -0.47548549903E+03 -0.10724646127E+03  0.11492963337E+03  0.50079646069E+03  0.10566000000E+00 0.  1.
          4    1    3    3  501    0  0.23343502489E+03  0.24001901293E+03 -0.48364528621E+03  0.58822937727E+03  0.00000000000E+00 0.  1.
         13    1    1    2    0    0  0.24205047414E+03 -0.13277255167E+03  0.92811425928E+03  0.96830422490E+03  0.10566000000E+00 0. -1.
<mgrwt>
<rscale>  1 0.73825518E+03</rscale>
<asrwt>0</asrwt>
<pdfrwt beam="2">  1       21 0.11522550E+00 0.10247078E+04</pdfrwt>
<pdfrwt beam="1">  1        4 0.20128682E+00 0.10247078E+04</pdfrwt>
<totfact> 0.27383272E+00</totfact>
</mgrwt>
</event>
<event>
 6    1  0.1431486E-005  0.1009081E+04  0.7818608E-02  0.9829229E-01
         21   -1    0    0  501  502  0.00000000000E+00  0.00000000000E+00  0.12789697984E+04  0.12789697984E+04  0.00000000000E+00 0.  1.
          4   -1    0    0  502    0 -0.00000000000E+00 -0.00000000000E+00 -0.29816629132E+03  0.29816629132E+03  0.00000000000E+00 0.  1.
    9000010    2    1    2  501    0  0.42143435778E+02  0.15582799871E+03  0.99237890400E+03  0.14152953181E+04  0.99608559574E+03 0.  0.
        -13    1    3    3    0    0  0.13068571634E+03 -0.39294615669E+03  0.62233080468E+03  0.74751660860E+03  0.10566000000E+00 0.  1.
          4    1    3    3  501    0 -0.88542280561E+02  0.54877415540E+03  0.37004809932E+03  0.66777870952E+03  0.00000000000E+00 0.  1.
         13    1    1    2    0    0 -0.42143435778E+02 -0.15582799871E+03 -0.11575396960E+02  0.16184077156E+03  0.10566000000E+00 0. -1.
<mgrwt>
<rscale>  1 0.63817261E+03</rscale>
<asrwt>0</asrwt>
<pdfrwt beam="1">  1       21 0.19676458E+00 0.10090812E+04</pdfrwt>
<pdfrwt beam="2">  1        4 0.45871738E-01 0.10090812E+04</pdfrwt>
<totfact> 0.22461751E+01</totfact>
</mgrwt>
</event>
<event>
 6    1  0.1431486E-005  0.1018282E+04  0.7818608E-02  0.9759199E-01
         21   -1    0    0  501  502  0.00000000000E+00  0.00000000000E+00  0.72818378473E+03  0.72818378473E+03  0.00000000000E+00 0.  1.
          4   -1    0    0  502    0 -0.00000000000E+00 -0.00000000000E+00 -0.53075157275E+03  0.53075157275E+03  0.00000000000E+00 0.  1.
    9000010    2    1    2  501    0 -0.13087373705E+03  0.14826964372E+03  0.26100674314E+03  0.10512010212E+04  0.99889300963E+03 0.  0.
        -13    1    3    3    0    0 -0.18607892015E+03  0.54394501051E+03  0.30236426437E+03  0.64955807940E+03  0.10566000000E+00 0.  1.
          4    1    3    3  501    0  0.55205183098E+02 -0.39567536679E+03 -0.41357521227E+02  0.40164294178E+03  0.00000000000E+00 0.  1.
         13    1    1    2    0    0  0.13087373705E+03 -0.14826964372E+03 -0.63574531157E+02  0.20773433629E+03  0.10566000000E+00 0. -1.
<mgrwt>
<rscale>  1 0.67598912E+03</rscale>
<asrwt>0</asrwt>
<pdfrwt beam="1">  1       21 0.11202828E+00 0.10182824E+04</pdfrwt>
<pdfrwt beam="2">  1        4 0.81654087E-01 0.10182824E+04</pdfrwt>
<totfact> 0.30751724E+01</totfact>
</mgrwt>
</event>
<event>
 6    1  0.1431486E-005  0.1028642E+04  0.7818608E-02  0.9648143E-01
         21   -1    0    0  501  502  0.00000000000E+00  0.00000000000E+00  0.80054790449E+03  0.80054790449E+03  0.00000000000E+00 0. -1.
          4   -1    0    0  502    0 -0.00000000000E+00 -0.00000000000E+00 -0.57977770602E+03  0.57977770602E+03  0.00000000000E+00 0.  1.
    9000010    2    1    2  501    0  0.16074849461E+03  0.22724037176E+03  0.58483810419E+01  0.10286586319E+04  0.99026567766E+03 0.  0.
        -13    1    3    3    0    0  0.61062782750E+02  0.61501025630E+03 -0.67180194452E+02  0.62167472885E+03  0.10566000000E+00 0.  1.
          4    1    3    3  501    0  0.99685711855E+02 -0.38776988454E+03  0.73028575494E+02  0.40698390305E+03  0.00000000000E+00 0.  1.
         13    1    1    2    0    0 -0.16074849461E+03 -0.22724037176E+03  0.21492181742E+03  0.35166697861E+03  0.10566000000E+00 0. -1.
<mgrwt>
<rscale>  1 0.74190063E+03</rscale>
<asrwt>0</asrwt>
<pdfrwt beam="1">  1       21 0.12316122E+00 0.10286420E+04</pdfrwt>
<pdfrwt beam="2">  1        4 0.89196570E-01 0.10286420E+04</pdfrwt>
<totfact> 0.19588367E+01</totfact>
</mgrwt>
</event>
<event>
 6    1  0.1431486E-005  0.1021974E+04  0.7818608E-02  0.9724427E-01
          4   -1    0    0  502    0 -0.00000000000E+00  0.00000000000E+00  0.65284141246E+03  0.65284141246E+03  0.00000000000E+00 0.  1.
         21   -1    0    0  501  502  0.00000000000E+00 -0.00000000000E+00 -0.59628634123E+03  0.59628634123E+03  0.00000000000E+00 0.  1.
    9000010    2    1    2  501    0 -0.96385295119E+01 -0.21939184275E+03  0.94257202685E+02  0.10263113634E+04  0.99810065244E+03 0.  0.
        -13    1    3    3    0    0  0.11833031947E+02  0.40101799588E+03  0.36862407542E+02  0.40288249145E+03  0.10566000000E+00 0.  1.
          4    1    3    3  501    0 -0.21471561459E+02 -0.62040983863E+03  0.57394795144E+02  0.62342887191E+03  0.00000000000E+00 0.  1.
         13    1    1    2    0    0  0.96385295119E+01  0.21939184275E+03 -0.37702131455E+02  0.22281639032E+03  0.10566000000E+00 0. -1.
<mgrwt>
<rscale>  1 0.69580847E+03</rscale>
<asrwt>0</asrwt>
<pdfrwt beam="2">  1       21 0.91736360E-01 0.10219739E+04</pdfrwt>
<pdfrwt beam="1">  1        4 0.10043714E+00 0.10219739E+04</pdfrwt>
<totfact> 0.31021127E+01</totfact>
</mgrwt>
</event>
<event>
 6    1  0.1431486E-005  0.1029803E+04  0.7818608E-02  0.9632733E-01
          4   -1    0    0  502    0 -0.00000000000E+00  0.00000000000E+00  0.45249390312E+03  0.45249390312E+03  0.00000000000E+00 0.  1.
         21   -1    0    0  501  502  0.00000000000E+00 -0.00000000000E+00 -0.16790815400E+04  0.16790815400E+04  0.00000000000E+00 0.  1.
    9000010    2    1    2  501    0 -0.24685288478E+03  0.15655749579E+03 -0.14395084029E+04  0.17699376962E+04  0.98744539596E+03 0.  0.
        -13    1    3    3    0    0 -0.43898018976E+03  0.33459475471E+03 -0.35971026472E+03  0.65882375685E+03  0.10566000000E+00 0.  1.
          4    1    3    3  501    0  0.19212730498E+03 -0.17803725892E+03 -0.10797981382E+04  0.11111139393E+04  0.00000000000E+00 0.  1.
         13    1    1    2    0    0  0.24685288478E+03 -0.15655749579E+03  0.21292076607E+03  0.36163774693E+03  0.10566000000E+00 0. -1.
<mgrwt>
<rscale>  1 0.75167064E+03</rscale>
<asrwt>0</asrwt>
<pdfrwt beam="2">  1       21 0.25832024E+00 0.10298034E+04</pdfrwt>
<pdfrwt beam="1">  1        4 0.69614447E-01 0.10298034E+04</pdfrwt>
<totfact> 0.35918641E+00</totfact>
</mgrwt>
</event>
<event>
 6    1  0.1431486E-005  0.1062803E+04  0.7818608E-02  0.9816178E-01
         21   -1    0    0  501  502  0.00000000000E+00  0.00000000000E+00  0.42355859423E+03  0.42355859423E+03  0.00000000000E+00 0.  1.
          4   -1    0    0  502    0 -0.00000000000E+00 -0.00000000000E+00 -0.93530423810E+03  0.93530423810E+03  0.00000000000E+00 0.  1.
    9000010    2    1    2  501    0  0.51353205030E+02  0.13473056130E+03 -0.30298111080E+03  0.11051462242E+04  0.10529772778E+04 0.  0.
        -13    1    3    3    0    0  0.36465940985E+03 -0.14767452175E+03  0.20600839975E+03  0.44409877449E+03  0.10566000000E+00 0.  1.
          4    1    3    3  501    0 -0.31330620482E+03  0.28240508305E+03 -0.50898951055E+03  0.66104744971E+03  0.00000000000E+00 0.  1.
         13    1    1    2    0    0 -0.51353205030E+02 -0.13473056130E+03 -0.20876453307E+03  0.25371660814E+03  0.10566000000E+00 0. -1.
<mgrwt>
<rscale>  1 0.64501544E+03</rscale>
<asrwt>0</asrwt>
<pdfrwt beam="1">  1       21 0.65162862E-01 0.10628032E+04</pdfrwt>
<pdfrwt beam="2">  1        4 0.14389296E+00 0.10628032E+04</pdfrwt>
<totfact> 0.27778177E+01</totfact>
</mgrwt>
</event>
<event>
 6    1  0.1431486E-005  0.1069256E+04  0.7818608E-02  0.9504298E-01
          4   -1    0    0  502    0 -0.00000000000E+00  0.00000000000E+00  0.86822458037E+03  0.86822458037E+03  0.00000000000E+00 0.  1.
         21   -1    0    0  501  502  0.00000000000E+00 -0.00000000000E+00 -0.65323370283E+03  0.65323370283E+03  0.00000000000E+00 0. -1.
    9000010    2    1    2  501    0  0.20571404816E+02  0.40611323701E+03  0.17489527906E+02  0.10693986209E+04  0.98891677248E+03 0.  0.
        -13    1    3    3    0    0 -0.23676454392E+03  0.39952534468E+03 -0.37712257959E+03  0.59824694024E+03  0.10566000000E+00 0.  1.
          4    1    3    3  501    0  0.25733594874E+03  0.65878923307E+01  0.39461210749E+03  0.47115168069E+03  0.00000000000E+00 0.  1.
         13    1    1    2    0    0 -0.20571404816E+02 -0.40611323701E+03  0.19750134964E+03  0.45205966226E+03  0.10566000000E+00 0. -1.
<mgrwt>
<rscale>  1 0.83967660E+03</rscale>
<asrwt>0</asrwt>
<pdfrwt beam="2">  1       21 0.10049749E+00 0.10692556E+04</pdfrwt>
<pdfrwt beam="1">  1        4 0.13357301E+00 0.10692556E+04</pdfrwt>
<totfact> 0.12109954E+01</totfact>
</mgrwt>
</event>
<event>
 6    1  0.1431486E-005  0.1051573E+04  0.7818608E-02  0.9598657E-01
          4   -1    0    0  502    0 -0.00000000000E+00  0.00000000000E+00  0.13529395498E+04  0.13529395498E+04  0.00000000000E+00 0.  1.
         21   -1    0    0  501  502  0.00000000000E+00 -0.00000000000E+00 -0.34457206858E+03  0.34457206858E+03  0.00000000000E+00 0.  1.
    9000010    2    1    2  501    0  0.15744588101E+03  0.26517991700E+03  0.71312823430E+03  0.12705738970E+04  0.10053340517E+04 0.  0.
        -13    1    3    3    0    0 -0.13848249535E+03  0.56726224099E+03  0.59008026600E+03  0.83015575831E+03  0.10566000000E+00 0.  1.
          4    1    3    3  501    0  0.29592837636E+03 -0.30208232399E+03  0.12304796830E+03  0.44041813872E+03  0.00000000000E+00 0.  1.
         13    1    1    2    0    0 -0.15744588101E+03 -0.26517991700E+03  0.29523924696E+03  0.42693772138E+03  0.10566000000E+00 0. -1.
<mgrwt>
<rscale>  1 0.77385158E+03</rscale>
<asrwt>0</asrwt>
<pdfrwt beam="2">  1       21 0.53011088E-01 0.10515732E+04</pdfrwt>
<pdfrwt beam="1">  1        4 0.20814454E+00 0.10515732E+04</pdfrwt>
<totfact> 0.15316424E+01</totfact>
</mgrwt>
</event>
<event>
 6    1  0.1431486E-005  0.1039776E+04  0.7818608E-02  0.9647505E-01
          4   -1    0    0  502    0 -0.00000000000E+00  0.00000000000E+00  0.40503593937E+03  0.40503593937E+03  0.00000000000E+00 0.  1.
         21   -1    0    0  501  502  0.00000000000E+00 -0.00000000000E+00 -0.11097423980E+04  0.11097423980E+04  0.00000000000E+00 0.  1.
    9000010    2    1    2  501    0 -0.20504487201E+03  0.17579320664E+03 -0.68254231932E+03  0.12437840362E+04  0.10040856836E+04 0.  0.
        -13    1    3    3    0    0 -0.48127857632E+03  0.28879091800E+03 -0.75101498281E+03  0.93757814496E+03  0.10566000000E+00 0.  1.
          4    1    3    3  501    0  0.27623370430E+03 -0.11299771137E+03  0.68472663487E+02  0.30620589121E+03  0.00000000000E+00 0.  1.
         13    1    1    2    0    0  0.20504487201E+03 -0.17579320664E+03 -0.22164139294E+02  0.27099430118E+03  0.10566000000E+00 0. -1.
<mgrwt>
<rscale>  1 0.74230196E+03</rscale>
<asrwt>0</asrwt>
<pdfrwt beam="2">  1       21 0.17072959E+00 0.10397763E+04</pdfrwt>
<pdfrwt beam="1">  1        4 0.62313223E-01 0.10397763E+04</pdfrwt>
<totfact> 0.17898432E+01</totfact>
</mgrwt>
</event>
<event>
 6    1  0.1431486E-005  0.9970368E+03  0.7818608E-02  0.9967473E-01
          4   -1    0    0  502    0 -0.00000000000E+00  0.00000000000E+00  0.88883767286E+03  0.88883767286E+03  0.00000000000E+00 0.  1.
         21   -1    0    0  501  502  0.00000000000E+00 -0.00000000000E+00 -0.70680402406E+03  0.70680402406E+03  0.00000000000E+00 0.  1.
    9000010    2    1    2  501    0  0.73805400248E+02  0.77818224357E+02 -0.34711549936E+03  0.10557326811E+04  0.99125143682E+03 0.  0.
        -13    1    3    3    0    0  0.48142790667E+03 -0.99794167869E+02 -0.36246683642E+03  0.61083051981E+03  0.10566000000E+00 0.  1.
          4    1    3    3  501    0 -0.40762250642E+03  0.17761239223E+03  0.15351337058E+02  0.44490216134E+03  0.00000000000E+00 0.  1.
         13    1    1    2    0    0 -0.73805400248E+02 -0.77818224357E+02  0.52914914817E+03  0.53990901578E+03  0.10566000000E+00 0. -1.
<mgrwt>
<rscale>  1 0.57099777E+03</rscale>
<asrwt>0</asrwt>
<pdfrwt beam="2">  1       21 0.10873908E+00 0.99703677E+03</pdfrwt>
<pdfrwt beam="1">  1        4 0.13674426E+00 0.99703677E+03</pdfrwt>
<totfact> 0.94228141E+00</totfact>
</mgrwt>
</event>
<event>
 6    1  0.1431486E-005  0.1101389E+04  0.7818608E-02  0.9427483E-01
          4   -1    0    0  502    0 -0.00000000000E+00  0.00000000000E+00  0.49313317567E+03  0.49313317567E+03  0.00000000000E+00 0.  1.
         21   -1    0    0  501  502  0.00000000000E+00 -0.00000000000E+00 -0.17306848317E+04  0.17306848317E+04  0.00000000000E+00 0. -1.
    9000010    2    1    2  501    0 -0.42893027542E+03 -0.23223960733E+03 -0.26049411486E+03  0.11317750291E+04  0.98749233734E+03 0.  0.
        -13    1    3    3    0    0 -0.71105242560E+02  0.28668383401E+03  0.19513741230E+03  0.35400875277E+03  0.10566000000E+00 0.  1.
          4    1    3    3  501    0 -0.35782503286E+03 -0.51892344133E+03 -0.45563152715E+03  0.77776627636E+03  0.00000000000E+00 0.  1.
         13    1    1    2    0    0  0.42893027542E+03  0.23223960733E+03 -0.97705754118E+03  0.10920429782E+04  0.10566000000E+00 0. -1.
<mgrwt>
<rscale>  1 0.89848045E+03</rscale>
<asrwt>0</asrwt>
<pdfrwt beam="2">  1       21 0.26625920E+00 0.11013889E+04</pdfrwt>
<pdfrwt beam="1">  1        4 0.75866643E-01 0.11013889E+04</pdfrwt>
<totfact> 0.26056337E+00</totfact>
</mgrwt>
</event>
<event>
 6    1  0.1431486E-005  0.1085237E+04  0.7818608E-02  0.9523196E-01
          4   -1    0    0  502    0 -0.00000000000E+00  0.00000000000E+00  0.22036347841E+03  0.22036347841E+03  0.00000000000E+00 0.  1.
         21   -1    0    0  501  502  0.00000000000E+00 -0.00000000000E+00 -0.26358777035E+04  0.26358777035E+04  0.00000000000E+00 0. -1.
    9000010    2    1    2  501    0  0.33358343268E+03 -0.14595833787E+03 -0.13614548043E+04  0.17410627134E+04  0.10223299100E+04 0.  0.
        -13    1    3    3    0    0 -0.24742910752E+03  0.26560526035E+03 -0.57677127162E+03  0.68149279417E+03  0.10566000000E+00 0.  1.
          4    1    3    3  501    0  0.58101254020E+03 -0.41156359822E+03 -0.78468353270E+03  0.10595699192E+04  0.00000000000E+00 0.  1.
         13    1    1    2    0    0 -0.33358343268E+03  0.14595833787E+03 -0.10540594208E+04  0.11151784685E+04  0.10566000000E+00 0. -1.
<mgrwt>
<rscale>  1 0.82595062E+03</rscale>
<asrwt>0</asrwt>
<pdfrwt beam="2">  1       21 0.40551964E+00 0.10852374E+04</pdfrwt>
<pdfrwt beam="1">  1        4 0.33902074E-01 0.10852374E+04</pdfrwt>
<totfact> 0.18922705E+00</totfact>
</mgrwt>
</event>
<event>
 6    1  0.1431486E-005  0.1003936E+04  0.7818608E-02  0.9721056E-01
          4   -1    0    0  502    0 -0.00000000000E+00  0.00000000000E+00  0.19461525146E+03  0.19461525146E+03  0.00000000000E+00 0.  1.
         21   -1    0    0  501  502  0.00000000000E+00 -0.00000000000E+00 -0.22532143746E+04  0.22532143746E+04  0.00000000000E+00 0.  1.
    9000010    2    1    2  501    0 -0.61007967848E+02  0.22619250088E+03 -0.19419820960E+04  0.21861340744E+04  0.97621857716E+03 0.  0.
        -13    1    3    3    0    0 -0.22534652069E+03  0.71209542763E+02 -0.53687325311E+01  0.23639096391E+03  0.10566000000E+00 0.  1.
          4    1    3    3  501    0  0.16433855284E+03  0.15498295812E+03 -0.19366133635E+04  0.19497431105E+04  0.00000000000E+00 0.  1.
         13    1    1    2    0    0  0.61007967848E+02 -0.22619250088E+03 -0.11661702716E+03  0.26169555171E+03  0.10566000000E+00 0. -1.
<mgrwt>
<rscale>  1 0.69776840E+03</rscale>
<asrwt>0</asrwt>
<pdfrwt beam="2">  1       21 0.34664838E+00 0.10039361E+04</pdfrwt>
<pdfrwt beam="1">  1        4 0.29940806E-01 0.10039361E+04</pdfrwt>
<totfact> 0.58866482E+00</totfact>
</mgrwt>
</event>
<event>
 6    1  0.1431486E-005  0.1007276E+04  0.7818608E-02  0.9985763E-01
         21   -1    0    0  501  502  0.00000000000E+00  0.00000000000E+00  0.15082992715E+04  0.15082992715E+04  0.00000000000E+00 0.  1.
          4   -1    0    0  502    0 -0.00000000000E+00 -0.00000000000E+00 -0.21626502556E+03  0.21626502556E+03  0.00000000000E+00 0.  1.
    9000010    2    1    2  501    0  0.77534713648E+02 -0.60198923569E+02  0.12750946676E+04  0.16249525372E+04  0.10024813189E+04 0.  0.
        -13    1    3    3    0    0 -0.23540818635E+03 -0.27666330677E+03  0.81664125081E+02  0.37232867201E+03  0.10566000000E+00 0.  1.
          4    1    3    3  501    0  0.31294290000E+03  0.21646438320E+03  0.11934305425E+04  0.12526238652E+04  0.00000000000E+00 0.  1.
         13    1    1    2    0    0 -0.77534713648E+02  0.60198923569E+02  0.16939578342E+02  0.99611759837E+02  0.10566000000E+00 0. -1.
<mgrwt>
<rscale>  1 0.56278932E+03</rscale>
<asrwt>0</asrwt>
<pdfrwt beam="1">  1       21 0.23204604E+00 0.10072757E+04</pdfrwt>
<pdfrwt beam="2">  1        4 0.33271543E-01 0.10072757E+04</pdfrwt>
<totfact> 0.25064980E+01</totfact>
</mgrwt>
</event>
<event>
 6    1  0.1431486E-005  0.1006611E+04  0.7818608E-02  0.9942167E-01
         21   -1    0    0  501  502  0.00000000000E+00  0.00000000000E+00  0.75043920400E+03  0.75043920400E+03  0.00000000000E+00 0.  1.
          4   -1    0    0  502    0 -0.00000000000E+00 -0.00000000000E+00 -0.46249203412E+03  0.46249203412E+03  0.00000000000E+00 0.  1.
    9000010    2    1    2  501    0 -0.10292825217E+03  0.46529905555E+02  0.37091994681E+03  0.10727750749E+04  0.10002527167E+04 0.  0.
        -13    1    3    3    0    0  0.15624120473E+03  0.47197527517E+03  0.26534258561E+03  0.56354119044E+03  0.10566000000E+00 0.  1.
          4    1    3    3  501    0 -0.25916945690E+03 -0.42544536961E+03  0.10557736120E+03  0.50923388449E+03  0.00000000000E+00 0.  1.
         13    1    1    2    0    0  0.10292825217E+03 -0.46529905555E+02 -0.82972776925E+02  0.14015616319E+03  0.10566000000E+00 0. -1.
<mgrwt>
<rscale>  1 0.58260515E+03</rscale>
<asrwt>0</asrwt>
<pdfrwt beam="1">  1       21 0.11545218E+00 0.10066105E+04</pdfrwt>
<pdfrwt beam="2">  1        4 0.71152621E-01 0.10066105E+04</pdfrwt>
<totfact> 0.39004214E+01</totfact>
</mgrwt>
</event>
<event>
 6    1  0.1431486E-005  0.1022598E+04  0.7818608E-02  0.9871837E-01
         21   -1    0    0  501  502  0.00000000000E+00  0.00000000000E+00  0.89494328751E+03  0.89494328751E+03  0.00000000000E+00 0.  1.
          4   -1    0    0  502    0 -0.00000000000E+00 -0.00000000000E+00 -0.42974822690E+03  0.42974822690E+03  0.00000000000E+00 0.  1.
    9000010    2    1    2  501    0  0.61581374728E+02 -0.12019448660E+03  0.55403472774E+03  0.11630391778E+04  0.10136403056E+04 0.  0.
        -13    1    3    3    0    0  0.33935250518E+03  0.34283451574E+03  0.27441557096E+03  0.55497706683E+03  0.10566000000E+00 0.  1.
          4    1    3    3  501    0 -0.27777113045E+03 -0.46302900235E+03  0.27961915678E+03  0.60806211094E+03  0.00000000000E+00 0.  1.
         13    1    1    2    0    0 -0.61581374728E+02  0.12019448660E+03 -0.88839667133E+02  0.16165233665E+03  0.10566000000E+00 0. -1.
<mgrwt>
<rscale>  1 0.61645822E+03</rscale>
<asrwt>0</asrwt>
<pdfrwt beam="1">  1       21 0.13768358E+00 0.10225975E+04</pdfrwt>
<pdfrwt beam="2">  1        4 0.66115112E-01 0.10225975E+04</pdfrwt>
<totfact> 0.28851180E+01</totfact>
</mgrwt>
</event>
<event>
 6    1  0.1431486E-005  0.1030502E+04  0.7818608E-02  0.9760511E-01
          4   -1    0    0  502    0 -0.00000000000E+00  0.00000000000E+00  0.86950895688E+03  0.86950895688E+03  0.00000000000E+00 0.  1.
         21   -1    0    0  501  502  0.00000000000E+00 -0.00000000000E+00 -0.78867764699E+03  0.78867764699E+03  0.00000000000E+00 0.  1.
    9000010    2    1    2  501    0 -0.16416338183E+03  0.95632446840E+02 -0.42738996558E+03  0.11156148973E+04  0.10128372206E+04 0.  0.
        -13    1    3    3    0    0 -0.24632734959E+03 -0.27965146134E+02  0.29086854144E+03  0.38218285168E+03  0.10566000000E+00 0.  1.
          4    1    3    3  501    0  0.82163967754E+02  0.12359759297E+03 -0.71825850702E+03  0.73343204558E+03  0.00000000000E+00 0.  1.
         13    1    1    2    0    0  0.16416338183E+03 -0.95632446840E+02  0.50822127546E+03  0.54257170661E+03  0.10566000000E+00 0. -1.
<mgrwt>
<rscale>  1 0.67525500E+03</rscale>
<asrwt>0</asrwt>
<pdfrwt beam="2">  1       21 0.12133502E+00 0.10305020E+04</pdfrwt>
<pdfrwt beam="1">  1        4 0.13377061E+00 0.10305020E+04</pdfrwt>
<totfact> 0.75040550E+00</totfact>
</mgrwt>
</event>
<event>
 6    1  0.1431486E-005  0.1076723E+04  0.7818608E-02  0.9508083E-01
          4   -1    0    0  502    0 -0.00000000000E+00  0.00000000000E+00  0.12031856620E+04  0.12031856620E+04  0.00000000000E+00 0.  1.
         21   -1    0    0  501  502  0.00000000000E+00 -0.00000000000E+00 -0.58499982213E+03  0.58499982213E+03  0.00000000000E+00 0.  1.
    9000010    2    1    2  501    0  0.38151551696E+03  0.94314795904E+02  0.25479372935E+02  0.10770242243E+04  0.10024383327E+04 0.  0.
        -13    1    3    3    0    0  0.94835838832E+02 -0.42719689615E+03 -0.13980083340E+03  0.45938579494E+03  0.10566000000E+00 0.  1.
          4    1    3    3  501    0  0.28667967813E+03  0.52151169206E+03  0.16528020633E+03  0.61763842935E+03  0.00000000000E+00 0.  1.
         13    1    1    2    0    0 -0.38151551696E+03 -0.94314795904E+02  0.59270646698E+03  0.71116125989E+03  0.10566000000E+00 0. -1.
<mgrwt>
<rscale>  1 0.83690508E+03</rscale>
<asrwt>0</asrwt>
<pdfrwt beam="2">  1       21 0.89999973E-01 0.10767228E+04</pdfrwt>
<pdfrwt beam="1">  1        4 0.18510549E+00 0.10767228E+04</pdfrwt>
<totfact> 0.64710041E+00</totfact>
</mgrwt>
</event>
<event>
 6    1  0.1431486E-005  0.1016363E+04  0.7818608E-02  0.9710961E-01
          4   -1    0    0  502    0 -0.00000000000E+00  0.00000000000E+00  0.38885152280E+03  0.38885152280E+03  0.00000000000E+00 0.  1.
         21   -1    0    0  501  502  0.00000000000E+00 -0.00000000000E+00 -0.10722011734E+04  0.10722011734E+04  0.00000000000E+00 0.  1.
    9000010    2    1    2  501    0 -0.12856172310E+03  0.19496323539E+03 -0.68824378549E+03  0.12274660024E+04  0.98916858982E+03 0.  0.
        -13    1    3    3    0    0 -0.20878887799E+02  0.14953163918E+03 -0.93886778717E+03  0.95093026664E+03  0.10566000000E+00 0.  1.
          4    1    3    3  501    0 -0.10768283530E+03  0.45431596214E+02  0.25062400168E+03  0.27653573580E+03  0.00000000000E+00 0.  1.
         13    1    1    2    0    0  0.12856172310E+03 -0.19496323539E+03  0.48941348470E+01  0.23358669380E+03  0.10566000000E+00 0. -1.
<mgrwt>
<rscale>  1 0.70367926E+03</rscale>
<asrwt>0</asrwt>
<pdfrwt beam="2">  1       21 0.16495403E+00 0.10163628E+04</pdfrwt>
<pdfrwt beam="1">  1        4 0.59823311E-01 0.10163628E+04</pdfrwt>
<totfact> 0.21688273E+01</totfact>
</mgrwt>
</event>
<event>
 6    1  0.1431486E-005  0.7794299E+03  0.7818608E-02  0.1041344E+00
         21   -1    0    0  501  502  0.00000000000E+00  0.00000000000E+00  0.86945878217E+02  0.86945878217E+02  0.00000000000E+00 0.  1.
          4   -1    0    0  502    0 -0.00000000000E+00 -0.00000000000E+00 -0.20426090236E+04  0.20426090236E+04  0.00000000000E+00 0.  1.
    9000010    2    1    2  501    0 -0.49092691394E+02 -0.30909751294E+02 -0.17471955886E+04  0.19131658114E+04  0.77726796657E+03 0.  0.
        -13    1    3    3    0    0  0.32551528290E+03 -0.28912037262E+02 -0.12417426842E+04  0.12840253153E+04  0.10566000000E+00 0.  1.
          4    1    3    3  501    0 -0.37460797429E+03 -0.19977140324E+01 -0.50545290439E+03  0.62914049609E+03  0.00000000000E+00 0.  1.
         13    1    1    2    0    0  0.49092691394E+02  0.30909751294E+02 -0.20846755676E+03  0.21638909044E+03  0.10566000000E+00 0. -1.
<mgrwt>
<rscale>  1 0.40711234E+03</rscale>
<asrwt>0</asrwt>
<pdfrwt beam="1">  1       21 0.13376289E-01 0.77942992E+03</pdfrwt>
<pdfrwt beam="2">  1        4 0.31424755E+00 0.77942992E+03</pdfrwt>
<totfact> 0.54220500E+01</totfact>
</mgrwt>
</event>
<event>
 6    1  0.1431486E-005  0.1021865E+04  0.7818608E-02  0.9610280E-01
         21   -1    0    0  501  502  0.00000000000E+00  0.00000000000E+00  0.16278488103E+04  0.16278488103E+04  0.00000000000E+00 0. -1.
          4   -1    0    0  502    0 -0.00000000000E+00 -0.00000000000E+00 -0.42087673549E+03  0.42087673549E+03  0.00000000000E+00 0.  1.
    9000010    2    1    2  501    0  0.27628544357E+03 -0.16728102116E+03  0.26896334501E+03  0.10566686045E+04  0.96947958846E+03 0.  0.
        -13    1    3    3    0    0  0.13211489696E+03 -0.47995219331E+03  0.44701003469E+03  0.66904890415E+03  0.10566000000E+00 0.  1.
          4    1    3    3  501    0  0.14417054661E+03  0.31267117215E+03 -0.17804668969E+03  0.38761970037E+03  0.00000000000E+00 0.  1.
         13    1    1    2    0    0 -0.27628544357E+03  0.16728102116E+03  0.93800872982E+03  0.99205694129E+03  0.10566000000E+00 0. -1.
<mgrwt>
<rscale>  1 0.76619488E+03</rscale>
<asrwt>0</asrwt>
<pdfrwt beam="1">  1       21 0.25043828E+00 0.10218646E+04</pdfrwt>
<pdfrwt beam="2">  1        4 0.64750268E-01 0.10218646E+04</pdfrwt>
<totfact> 0.47400141E+00</totfact>
</mgrwt>
</event>
<event>
 6    1  0.1431486E-005  0.1032909E+04  0.7818608E-02  0.9493253E-01
         21   -1    0    0  501  502  0.00000000000E+00  0.00000000000E+00  0.90850963500E+03  0.90850963500E+03  0.00000000000E+00 0.  1.
          4   -1    0    0  502    0 -0.00000000000E+00 -0.00000000000E+00 -0.71676657615E+03  0.71676657615E+03  0.00000000000E+00 0.  1.
    9000010    2    1    2  501    0 -0.46845101319E+03 -0.19763283136E+02  0.40591899822E+03  0.11098072176E+04  0.92036128127E+03 0.  0.
        -13    1    3    3    0    0  0.11061699364E+03  0.31570772024E+03  0.26290670940E+03  0.42547318706E+03  0.10566000000E+00 0.  1.
          4    1    3    3  501    0 -0.57906800683E+03 -0.33547100337E+03  0.14301228883E+03  0.68433403057E+03  0.00000000000E+00 0.  1.
         13    1    1    2    0    0  0.46845101319E+03  0.19763283136E+02 -0.21417593937E+03  0.51546899353E+03  0.10566000000E+00 0. -1.
<mgrwt>
<rscale>  1 0.84783093E+03</rscale>
<asrwt>0</asrwt>
<pdfrwt beam="1">  1       21 0.13977071E+00 0.10329094E+04</pdfrwt>
<pdfrwt beam="2">  1        4 0.11027178E+00 0.10329094E+04</pdfrwt>
<totfact> 0.83834331E+00</totfact>
</mgrwt>
</event>
<event>
 6    1  0.1431486E-005  0.1031624E+04  0.7818608E-02  0.9694101E-01
         21   -1    0    0  501  502  0.00000000000E+00  0.00000000000E+00  0.21192399982E+04  0.21192399982E+04  0.00000000000E+00 0.  1.
          4   -1    0    0  502    0 -0.00000000000E+00 -0.00000000000E+00 -0.19181151875E+03  0.19181151875E+03  0.00000000000E+00 0.  1.
    9000010    2    1    2  501    0  0.21273696252E+03 -0.10287890010E+03  0.14654983791E+04  0.17921868794E+04  0.10041948159E+04 0.  0.
        -13    1    3    3    0    0 -0.10336568245E+03  0.39936177644E+03  0.80300746063E+03  0.90277089329E+03  0.10566000000E+00 0.  1.
          4    1    3    3  501    0  0.31610264496E+03 -0.50224067653E+03  0.66249091847E+03  0.88941598613E+03  0.00000000000E+00 0.  1.
         13    1    1    2    0    0 -0.21273696252E+03  0.10287890010E+03  0.46193010034E+03  0.51886463752E+03  0.10566000000E+00 0. -1.
<mgrwt>
<rscale>  1 0.71369131E+03</rscale>
<asrwt>0</asrwt>
<pdfrwt beam="1">  1       21 0.32603691E+00 0.10316241E+04</pdfrwt>
<pdfrwt beam="2">  1        4 0.29509466E-01 0.10316241E+04</pdfrwt>
<totfact> 0.81155833E+00</totfact>
</mgrwt>
</event>
<event>
 6    1  0.1431486E-005  0.1060683E+04  0.7818608E-02  0.9551853E-01
         21   -1    0    0  501  502  0.00000000000E+00  0.00000000000E+00  0.45782357365E+03  0.45782357365E+03  0.00000000000E+00 0.  1.
          4   -1    0    0  502    0 -0.00000000000E+00 -0.00000000000E+00 -0.11878079604E+04  0.11878079604E+04  0.00000000000E+00 0.  1.
    9000010    2    1    2  501    0 -0.25401869117E+03  0.24522091076E+03 -0.32719380254E+03  0.11100019452E+04  0.10001948527E+04 0.  0.
        -13    1    3    3    0    0  0.19122751653E+03  0.39061565886E+03  0.13156607408E+03  0.45437671489E+03  0.10566000000E+00 0.  1.
          4    1    3    3  501    0 -0.44524620770E+03 -0.14539474809E+03 -0.45875987662E+03  0.65562523032E+03  0.00000000000E+00 0.  1.
         13    1    1    2    0    0  0.25401869117E+03 -0.24522091076E+03 -0.40279058423E+03  0.53562958884E+03  0.10566000000E+00 0. -1.
<mgrwt>
<rscale>  1 0.80566517E+03</rscale>
<asrwt>0</asrwt>
<pdfrwt beam="1">  1       21 0.70434398E-01 0.10606831E+04</pdfrwt>
<pdfrwt beam="2">  1        4 0.18273968E+00 0.10606831E+04</pdfrwt>
<totfact> 0.11988999E+01</totfact>
</mgrwt>
</event>
<event>
 6    1  0.1431486E-005  0.9764363E+03  0.7818608E-02  0.9604409E-01
         21   -1    0    0  501  502  0.00000000000E+00  0.00000000000E+00  0.20045973728E+04  0.20045973728E+04  0.00000000000E+00 0.  1.
          4   -1    0    0  502    0 -0.00000000000E+00 -0.00000000000E+00 -0.36111484500E+03  0.36111484500E+03  0.00000000000E+00 0.  1.
    9000010    2    1    2  501    0 -0.34071952771E+03 -0.16299094501E+03  0.17223403914E+04  0.19798697389E+04  0.90042873921E+03 0.  0.
        -13    1    3    3    0    0 -0.83513288356E+02  0.34872658444E+03  0.39081271157E+03  0.53039540601E+03  0.10566000000E+00 0.  1.
          4    1    3    3  501    0 -0.25720623935E+03 -0.51171752946E+03  0.13315276799E+04  0.14494743329E+04  0.00000000000E+00 0.  1.
         13    1    1    2    0    0  0.34071952771E+03  0.16299094501E+03 -0.78857863596E+02  0.38584247891E+03  0.10566000000E+00 0. -1.
<mgrwt>
<rscale>  1 0.77005035E+03</rscale>
<asrwt>0</asrwt>
<pdfrwt beam="1">  1       21 0.30839959E+00 0.97643625E+03</pdfrwt>
<pdfrwt beam="2">  1        4 0.55556131E-01 0.97643625E+03</pdfrwt>
<totfact> 0.28953860E+00</totfact>
</mgrwt>
</event>
<event>
 6    1  0.1431486E-005  0.1045958E+04  0.7818608E-02  0.9648028E-01
          4   -1    0    0  502    0 -0.00000000000E+00  0.00000000000E+00  0.57204027929E+03  0.57204027929E+03  0.00000000000E+00 0.  1.
         21   -1    0    0  501  502  0.00000000000E+00 -0.00000000000E+00 -0.77425005988E+03  0.77425005988E+03  0.00000000000E+00 0.  1.
    9000010    2    1    2  501    0  0.18492152211E+02  0.26420956521E+03 -0.25414338568E+03  0.10763907939E+04  0.10118693723E+04 0.  0.
        -13    1    3    3    0    0  0.43295266625E+03 -0.12794124332E+03  0.76196745594E+00  0.45146158719E+03  0.10566000000E+00 0.  1.
          4    1    3    3  501    0 -0.41446051404E+03  0.39215080852E+03 -0.25490535314E+03  0.62492920669E+03  0.00000000000E+00 0.  1.
         13    1    1    2    0    0 -0.18492152211E+02 -0.26420956521E+03  0.51933605088E+02  0.26989954528E+03  0.10566000000E+00 0. -1.
<mgrwt>
<rscale>  1 0.74197305E+03</rscale>
<asrwt>0</asrwt>
<pdfrwt beam="2">  1       21 0.11911539E+00 0.10459581E+04</pdfrwt>
<pdfrwt beam="1">  1        4 0.88006197E-01 0.10459581E+04</pdfrwt>
<totfact> 0.22021481E+01</totfact>
</mgrwt>
</event>
<event>
 6    1  0.1431486E-005  0.1008518E+04  0.7818608E-02  0.9876320E-01
         21   -1    0    0  501  502  0.00000000000E+00  0.00000000000E+00  0.57847557695E+03  0.57847557695E+03  0.00000000000E+00 0.  1.
          4   -1    0    0  502    0 -0.00000000000E+00 -0.00000000000E+00 -0.57058692723E+03  0.57058692723E+03  0.00000000000E+00 0.  1.
    9000010    2    1    2  501    0  0.50370258144E+02 -0.12929547493E+03 -0.13828928795E+02  0.10086127013E+04  0.99892635327E+03 0.  0.
        -13    1    3    3    0    0  0.45150802642E+03  0.79025456613E+02 -0.22395009987E+03  0.51015505399E+03  0.10566000000E+00 0.  1.
          4    1    3    3  501    0 -0.40113776828E+03 -0.20832093154E+03  0.21012117107E+03  0.49845764734E+03  0.00000000000E+00 0.  1.
         13    1    1    2    0    0 -0.50370258144E+02  0.12929547493E+03  0.21717578509E+02  0.14044980286E+03  0.10566000000E+00 0. -1.
<mgrwt>
<rscale>  1 0.61422752E+03</rscale>
<asrwt>0</asrwt>
<pdfrwt beam="1">  1       21 0.88996243E-01 0.10085179E+04</pdfrwt>
<pdfrwt beam="2">  1        4 0.87782603E-01 0.10085179E+04</pdfrwt>
<totfact> 0.46016723E+01</totfact>
</mgrwt>
</event>
<event>
 6    1  0.1431486E-005  0.1227022E+04  0.7818608E-02  0.9240106E-01
          4   -1    0    0  502    0 -0.00000000000E+00  0.00000000000E+00  0.32997215108E+04  0.32997215108E+04  0.00000000000E+00 0.  1.
         21   -1    0    0  501  502  0.00000000000E+00 -0.00000000000E+00 -0.28864623137E+03  0.28864623137E+03  0.00000000000E+00 0. -1.
    9000010    2    1    2  501    0 -0.35720539001E+03  0.59743716952E+03  0.16136843169E+04  0.20272052345E+04  0.10104737136E+04 0.  0.
        -13    1    3    3    0    0 -0.31933246651E+03  0.29029186884E+03  0.16591988732E+04  0.17144047087E+04  0.10566000000E+00 0.  1.
          4    1    3    3  501    0 -0.37872923505E+02  0.30714530068E+03 -0.45514556299E+02  0.31280052573E+03  0.00000000000E+00 0.  1.
         13    1    1    2    0    0  0.35720539001E+03 -0.59743716952E+03  0.13973909625E+04  0.15611625077E+04  0.10566000000E+00 0. -1.
<mgrwt>
<rscale>  1 0.10648884E+04</rscale>
<asrwt>0</asrwt>
<pdfrwt beam="2">  1       21 0.44407115E-01 0.12270224E+04</pdfrwt>
<pdfrwt beam="1">  1        4 0.50764944E+00 0.12270224E+04</pdfrwt>
<totfact> 0.20171539E-01</totfact>
</mgrwt>
</event>
<event>
 6    1  0.1431486E-005  0.8858625E+03  0.7818608E-02  0.1004042E+00
         21   -1    0    0  501  502  0.00000000000E+00  0.00000000000E+00  0.45292437549E+03  0.45292437549E+03  0.00000000000E+00 0.  1.
          4   -1    0    0  502    0 -0.00000000000E+00 -0.00000000000E+00 -0.88072091121E+03  0.88072091121E+03  0.00000000000E+00 0.  1.
    9000010    2    1    2  501    0  0.34598704790E+02 -0.11649680786E+03  0.31741956316E+01  0.88586815568E+03  0.87748717205E+03 0.  0.
        -13    1    3    3    0    0 -0.25476150060E+03 -0.40421780970E+03  0.18352234638E+01  0.47780627777E+03  0.10566000000E+00 0.  1.
          4    1    3    3  501    0  0.28936020539E+03  0.28772100183E+03  0.13389721679E+01  0.40806187791E+03  0.00000000000E+00 0.  1.
         13    1    1    2    0    0 -0.34598704790E+02  0.11649680786E+03 -0.43097073136E+03  0.44777713102E+03  0.10566000000E+00 0. -1.
<mgrwt>
<rscale>  1 0.53912826E+03</rscale>
<asrwt>0</asrwt>
<pdfrwt beam="1">  1       21 0.69680674E-01 0.88586247E+03</pdfrwt>
<pdfrwt beam="2">  1        4 0.13549552E+00 0.88586247E+03</pdfrwt>
<totfact> 0.28398441E+01</totfact>
</mgrwt>
</event>
<event>
 6    1  0.1431486E-005  0.1046524E+04  0.7818608E-02  0.9578468E-01
          4   -1    0    0  502    0 -0.00000000000E+00  0.00000000000E+00  0.44027218226E+03  0.44027218226E+03  0.00000000000E+00 0.  1.
         21   -1    0    0  501  502  0.00000000000E+00 -0.00000000000E+00 -0.10979038607E+04  0.10979038607E+04  0.00000000000E+00 0.  1.
    9000010    2    1    2  501    0 -0.88307435369E+02  0.32350580169E+03 -0.56950528164E+03  0.11914477922E+04  0.99134119704E+03 0.  0.
        -13    1    3    3    0    0 -0.29017272000E+03  0.19920554238E+02 -0.73545656669E+03  0.79088141245E+03  0.10566000000E+00 0.  1.
          4    1    3    3  501    0  0.20186528463E+03  0.30358524745E+03  0.16595128505E+03  0.40056637979E+03  0.00000000000E+00 0.  1.
         13    1    1    2    0    0  0.88307435369E+02 -0.32350580169E+03 -0.88126396810E+02  0.34672825072E+03  0.10566000000E+00 0. -1.
<mgrwt>
<rscale>  1 0.78737882E+03</rscale>
<asrwt>0</asrwt>
<pdfrwt beam="2">  1       21 0.16890828E+00 0.10465236E+04</pdfrwt>
<pdfrwt beam="1">  1        4 0.67734183E-01 0.10465236E+04</pdfrwt>
<totfact> 0.15347670E+01</totfact>
</mgrwt>
</event>
<event>
 6    1  0.1431486E-005  0.1003090E+04  0.7818608E-02  0.9918231E-01
          4   -1    0    0  502    0 -0.00000000000E+00  0.00000000000E+00  0.18705146631E+04  0.18705146631E+04  0.00000000000E+00 0.  1.
         21   -1    0    0  501  502  0.00000000000E+00 -0.00000000000E+00 -0.18180576795E+03  0.18180576795E+03  0.00000000000E+00 0.  1.
    9000010    2    1    2  501    0  0.15892562671E+02  0.12219915153E+03  0.12846115403E+04  0.16298516280E+04  0.99549199580E+03 0.  0.
        -13    1    3    3    0    0 -0.45692708880E+03 -0.39229737574E+02  0.85801131084E+03  0.97288476064E+03  0.10566000000E+00 0.  1.
          4    1    3    3  501    0  0.47281965147E+03  0.16142888911E+03  0.42660022946E+03  0.65696686738E+03  0.00000000000E+00 0.  1.
         13    1    1    2    0    0 -0.15892562671E+02 -0.12219915153E+03  0.40409735488E+03  0.42246880308E+03  0.10566000000E+00 0. -1.
<mgrwt>
<rscale>  1 0.59385791E+03</rscale>
<asrwt>0</asrwt>
<pdfrwt beam="2">  1       21 0.27970119E-01 0.10030900E+04</pdfrwt>
<pdfrwt beam="1">  1        4 0.28777147E+00 0.10030900E+04</pdfrwt>
<totfact> 0.18594439E+01</totfact>
</mgrwt>
</event>
<event>
 6    1  0.1431486E-005  0.1004657E+04  0.7818608E-02  0.9849920E-01
          4   -1    0    0  502    0 -0.00000000000E+00  0.00000000000E+00  0.36530576228E+03  0.36530576228E+03  0.00000000000E+00 0.  1.
         21   -1    0    0  501  502  0.00000000000E+00 -0.00000000000E+00 -0.95121206715E+03  0.95121206715E+03  0.00000000000E+00 0.  1.
    9000010    2    1    2  501    0 -0.15032505755E+03  0.27984204101E+02 -0.58706298090E+03  0.11636058035E+04  0.99295255869E+03 0.  0.
        -13    1    3    3    0    0  0.98450974902E+02 -0.36243280060E+03 -0.59148169434E+03  0.70064308696E+03  0.10566000000E+00 0.  1.
          4    1    3    3  501    0 -0.24877603245E+03  0.39041700470E+03  0.44187134372E+01  0.46296271655E+03  0.00000000000E+00 0.  1.
         13    1    1    2    0    0  0.15032505755E+03 -0.27984204101E+02  0.11566760304E+01  0.15291202592E+03  0.10566000000E+00 0. -1.
<mgrwt>
<rscale>  1 0.62750998E+03</rscale>
<asrwt>0</asrwt>
<pdfrwt beam="2">  1       21 0.14634031E+00 0.10046569E+04</pdfrwt>
<pdfrwt beam="1">  1        4 0.56200888E-01 0.10046569E+04</pdfrwt>
<totfact> 0.34874286E+01</totfact>
</mgrwt>
</event>
<event>
 6    1  0.1431486E-005  0.9924363E+03  0.7818608E-02  0.1017876E+00
         21   -1    0    0  501  502  0.00000000000E+00  0.00000000000E+00  0.27612558798E+03  0.27612558798E+03  0.00000000000E+00 0.  1.
          4   -1    0    0  502    0 -0.00000000000E+00 -0.00000000000E+00 -0.10561210567E+04  0.10561210567E+04  0.00000000000E+00 0.  1.
    9000010    2    1    2  501    0  0.41791227398E+02 -0.37909298146E+02 -0.63894848537E+03  0.11803325761E+04  0.99083106611E+03 0.  0.
        -13    1    3    3    0    0  0.12164018204E+03 -0.48606699893E+03 -0.17599656683E+03  0.53106709938E+03  0.10566000000E+00 0.  1.
          4    1    3    3  501    0 -0.79848954642E+02  0.44815770079E+03 -0.46295191853E+03  0.64926547668E+03  0.00000000000E+00 0.  1.
         13    1    1    2    0    0 -0.41791227398E+02  0.37909298146E+02 -0.14104698338E+03  0.15191406866E+03  0.10566000000E+00 0. -1.
<mgrwt>
<rscale>  1 0.48460998E+03</rscale>
<asrwt>0</asrwt>
<pdfrwt beam="1">  1       21 0.42480859E-01 0.99243631E+03</pdfrwt>
<pdfrwt beam="2">  1        4 0.16248016E+00 0.99243631E+03</pdfrwt>
<totfact> 0.51174963E+01</totfact>
</mgrwt>
</event>
<event>
 6    1  0.1431486E-005  0.1018638E+04  0.7818608E-02  0.9721509E-01
         21   -1    0    0  501  502  0.00000000000E+00  0.00000000000E+00  0.54881967061E+03  0.54881967061E+03  0.00000000000E+00 0.  1.
          4   -1    0    0  502    0 -0.00000000000E+00 -0.00000000000E+00 -0.10751876771E+04  0.10751876771E+04  0.00000000000E+00 0.  1.
    9000010    2    1    2  501    0  0.22130294140E+03  0.34253300120E+02  0.35396671241E+02  0.10192529804E+04  0.99371798480E+03 0.  0.
        -13    1    3    3    0    0 -0.32338986668E+03 -0.23820138748E+03 -0.48119225582E+02  0.40451993511E+03  0.10566000000E+00 0.  1.
          4    1    3    3  501    0  0.54469280808E+03  0.27245468760E+03  0.83515896823E+02  0.61473304531E+03  0.00000000000E+00 0.  1.
         13    1    1    2    0    0 -0.22130294140E+03 -0.34253300120E+02 -0.56176467773E+03  0.60475436728E+03  0.10566000000E+00 0. -1.
<mgrwt>
<rscale>  1 0.69750444E+03</rscale>
<asrwt>0</asrwt>
<pdfrwt beam="1">  1       21 0.84433796E-01 0.10186382E+04</pdfrwt>
<pdfrwt beam="2">  1        4 0.16541349E+00 0.10186382E+04</pdfrwt>
<totfact> 0.10471092E+01</totfact>
</mgrwt>
</event>
<event>
 6    1  0.1431486E-005  0.9921822E+03  0.7818608E-02  0.1009467E+00
         21   -1    0    0  501  502  0.00000000000E+00  0.00000000000E+00  0.40070001755E+03  0.40070001755E+03  0.00000000000E+00 0.  1.
          4   -1    0    0  502    0 -0.00000000000E+00 -0.00000000000E+00 -0.70891903866E+03  0.70891903866E+03  0.00000000000E+00 0.  1.
    9000010    2    1    2  501    0 -0.32521527089E+02 -0.65436799715E+02 -0.29706845493E+03  0.10357003795E+04  0.98948773850E+03 0.  0.
        -13    1    3    3    0    0  0.45133501528E+03 -0.11799003833E+03 -0.28932054646E+03  0.54893654909E+03  0.10566000000E+00 0.  1.
          4    1    3    3  501    0 -0.48385654236E+03  0.52553238613E+02 -0.77479084662E+01  0.48676383038E+03  0.00000000000E+00 0.  1.
         13    1    1    2    0    0  0.32521527089E+02  0.65436799715E+02 -0.11150566186E+02  0.73918676743E+02  0.10566000000E+00 0. -1.
<mgrwt>
<rscale>  1 0.51687151E+03</rscale>
<asrwt>0</asrwt>
<pdfrwt beam="1">  1       21 0.61646157E-01 0.99218225E+03</pdfrwt>
<pdfrwt beam="2">  1        4 0.10906447E+00 0.99218225E+03</pdfrwt>
<totfact> 0.64130178E+01</totfact>
</mgrwt>
</event>
<event>
 6    1  0.1431486E-005  0.9935008E+03  0.7818608E-02  0.1056768E+00
         21   -1    0    0  501  502  0.00000000000E+00  0.00000000000E+00  0.95321369929E+03  0.95321369929E+03  0.00000000000E+00 0.  1.
          4   -1    0    0  502    0 -0.00000000000E+00 -0.00000000000E+00 -0.34433149724E+03  0.34433149724E+03  0.00000000000E+00 0.  1.
    9000010    2    1    2  501    0  0.63779827873E+01  0.16858448476E+02  0.69312856184E+03  0.12113921568E+04  0.99333723801E+03 0.  0.
        -13    1    3    3    0    0 -0.51421275210E+01 -0.29817956408E+03 -0.13346255430E+03  0.32672581544E+03  0.10566000000E+00 0.  1.
          4    1    3    3  501    0  0.11520110308E+02  0.31503801256E+03  0.82659111614E+03  0.88466634138E+03  0.00000000000E+00 0.  1.
         13    1    1    2    0    0 -0.63779827873E+01 -0.16858448476E+02 -0.84246359787E+02  0.86153039708E+02  0.10566000000E+00 0. -1.
<mgrwt>
<rscale>  1 0.36462327E+03</rscale>
<asrwt>0</asrwt>
<pdfrwt beam="1">  1       21 0.14664826E+00 0.99350076E+03</pdfrwt>
<pdfrwt beam="2">  1        4 0.52974077E-01 0.99350076E+03</pdfrwt>
<totfact> 0.39397312E+01</totfact>
</mgrwt>
</event>
<event>
 6    1  0.1431486E-005  0.1101755E+04  0.7818608E-02  0.9498067E-01
         21   -1    0    0  501  502  0.00000000000E+00  0.00000000000E+00  0.84824251862E+03  0.84824251862E+03  0.00000000000E+00 0.  1.
          4   -1    0    0  502    0 -0.00000000000E+00 -0.00000000000E+00 -0.66192520381E+03  0.66192520381E+03  0.00000000000E+00 0.  1.
    9000010    2    1    2  501    0  0.36871407700E+03  0.91474745417E+02  0.23686025790E+03  0.11269285022E+04  0.10341892321E+04 0.  0.
        -13    1    3    3    0    0  0.31201716014E+03  0.34845959124E+03  0.54730778200E+03  0.71994764695E+03  0.10566000000E+00 0.  1.
          4    1    3    3  501    0  0.56696916863E+02 -0.25698484582E+03 -0.31044752410E+03  0.40698085530E+03  0.00000000000E+00 0.  1.
         13    1    1    2    0    0 -0.36871407700E+03 -0.91474745417E+02 -0.50542943087E+02  0.38323922018E+03  0.10566000000E+00 0. -1.
<mgrwt>
<rscale>  1 0.84426514E+03</rscale>
<asrwt>0</asrwt>
<pdfrwt beam="1">  1       21 0.13049885E+00 0.11017554E+04</pdfrwt>
<pdfrwt beam="2">  1        4 0.10183465E+00 0.11017554E+04</pdfrwt>
<totfact> 0.12162393E+01</totfact>
</mgrwt>
</event>
<event>
 6    1  0.1431486E-005  0.7165641E+03  0.7818608E-02  0.1046893E+00
          4   -1    0    0  502    0 -0.00000000000E+00  0.00000000000E+00  0.13275777157E+03  0.13275777157E+03  0.00000000000E+00 0.  1.
         21   -1    0    0  501  502  0.00000000000E+00 -0.00000000000E+00 -0.14072166313E+04  0.14072166313E+04  0.00000000000E+00 0.  1.
    9000010    2    1    2  501    0 -0.37545179572E+01  0.63502794967E+02 -0.12889423525E+04  0.14747326670E+04  0.71373478949E+03 0.  0.
        -13    1    3    3    0    0  0.13500214189E+03  0.22713766559E+03 -0.12216251988E+04  0.12498740877E+04  0.10566000000E+00 0.  1.
          4    1    3    3  501    0 -0.13875665985E+03 -0.16363487062E+03 -0.67317153700E+02  0.22485857938E+03  0.00000000000E+00 0.  1.
         13    1    1    2    0    0  0.37545179572E+01 -0.63502794967E+02  0.14483492748E+02  0.65241735875E+02  0.10566000000E+00 0. -1.
<mgrwt>
<rscale>  1 0.39113714E+03</rscale>
<asrwt>0</asrwt>
<pdfrwt beam="2">  1       21 0.21649488E+00 0.71656406E+03</pdfrwt>
<pdfrwt beam="1">  1        4 0.20424271E-01 0.71656406E+03</pdfrwt>
<totfact> 0.84112535E+01</totfact>
</mgrwt>
</event>
<event>
 6    1  0.1431486E-005  0.1155849E+04  0.7818608E-02  0.9346556E-01
          4   -1    0    0  502    0 -0.00000000000E+00  0.00000000000E+00  0.76607377222E+03  0.76607377222E+03  0.00000000000E+00 0.  1.
         21   -1    0    0  501  502  0.00000000000E+00 -0.00000000000E+00 -0.10464529392E+04  0.10464529392E+04  0.00000000000E+00 0.  1.
    9000010    2    1    2  501    0 -0.56349625480E+03  0.25648594419E+02 -0.42279073548E+03  0.12307475905E+04  0.10088616089E+04 0.  0.
        -13    1    3    3    0    0 -0.43428927122E+03 -0.45802182729E+03 -0.11073175442E+03  0.64082189255E+03  0.10566000000E+00 0.  1.
          4    1    3    3  501    0 -0.12920698358E+03  0.48367042171E+03 -0.31205898105E+03  0.58992569795E+03  0.00000000000E+00 0.  1.
         13    1    1    2    0    0  0.56349625480E+03 -0.25648594419E+02  0.14241156848E+03  0.58177912095E+03  0.10566000000E+00 0. -1.
<mgrwt>
<rscale>  1 0.96607541E+03</rscale>
<asrwt>0</asrwt>
<pdfrwt beam="2">  1       21 0.16099276E+00 0.11558493E+04</pdfrwt>
<pdfrwt beam="1">  1        4 0.11785750E+00 0.11558493E+04</pdfrwt>
<totfact> 0.47176510E+00</totfact>
</mgrwt>
</event>
<event>
 6    1  0.1431486E-005  0.1037034E+04  0.7818608E-02  0.1003795E+00
          4   -1    0    0  502    0 -0.00000000000E+00  0.00000000000E+00  0.15848082609E+03  0.15848082609E+03  0.00000000000E+00 0.  1.
         21   -1    0    0  501  502  0.00000000000E+00 -0.00000000000E+00 -0.21624835123E+04  0.21624835123E+04  0.00000000000E+00 0.  1.
    9000010    2    1    2  501    0 -0.64981339645E+02 -0.40060464732E+02 -0.19890754636E+04  0.22431809953E+04  0.10342206545E+04 0.  0.
        -13    1    3    3    0    0  0.43827012787E+02 -0.41948464509E+03 -0.17062269566E+04  0.17575831739E+04  0.10566000000E+00 0.  1.
          4    1    3    3  501    0 -0.10880835243E+03  0.37942418036E+03 -0.28284850702E+03  0.48559782137E+03  0.00000000000E+00 0.  1.
         13    1    1    2    0    0  0.64981339645E+02  0.40060464732E+02 -0.14927222632E+02  0.77783343179E+02  0.10566000000E+00 0. -1.
<mgrwt>
<rscale>  1 0.54016866E+03</rscale>
<asrwt>0</asrwt>
<pdfrwt beam="2">  1       21 0.33268973E+00 0.10370341E+04</pdfrwt>
<pdfrwt beam="1">  1        4 0.24381668E-01 0.10370341E+04</pdfrwt>
<totfact> 0.10647982E+01</totfact>
</mgrwt>
</event>
<event>
 6    1  0.1431486E-005  0.1000894E+04  0.7818608E-02  0.1004551E+00
          4   -1    0    0  502    0 -0.00000000000E+00  0.00000000000E+00  0.12552240601E+04  0.12552240601E+04  0.00000000000E+00 0.  1.
         21   -1    0    0  501  502  0.00000000000E+00 -0.00000000000E+00 -0.23432631394E+03  0.23432631394E+03  0.00000000000E+00 0.  1.
    9000010    2    1    2  501    0 -0.70262034209E+02 -0.44049351401E+02  0.95786291438E+03  0.13853846407E+04  0.99745282658E+03 0.  0.
        -13    1    3    3    0    0 -0.38831473690E+03 -0.31913984747E+03  0.78194318970E+03  0.92955566816E+03  0.10566000000E+00 0.  1.
          4    1    3    3  501    0  0.31805270269E+03  0.27509049607E+03  0.17591972468E+03  0.45582897258E+03  0.00000000000E+00 0.  1.
         13    1    1    2    0    0  0.70262034209E+02  0.44049351401E+02  0.63034831793E+02  0.10416573330E+03  0.10566000000E+00 0. -1.
<mgrwt>
<rscale>  1 0.53699091E+03</rscale>
<asrwt>0</asrwt>
<pdfrwt beam="2">  1       21 0.36050203E-01 0.10008942E+04</pdfrwt>
<pdfrwt beam="1">  1        4 0.19311139E+00 0.10008942E+04</pdfrwt>
<totfact> 0.43861624E+01</totfact>
</mgrwt>
</event>
<event>
 6    1  0.1431486E-005  0.1062245E+04  0.7818608E-02  0.9475699E-01
         21   -1    0    0  501  502  0.00000000000E+00  0.00000000000E+00  0.66118538919E+03  0.66118538919E+03  0.00000000000E+00 0.  1.
          4   -1    0    0  502    0 -0.00000000000E+00 -0.00000000000E+00 -0.90048496920E+03  0.90048496920E+03  0.00000000000E+00 0.  1.
    9000010    2    1    2  501    0 -0.39791006034E+03 -0.22776502412E+03 -0.43526167845E+02  0.10631359439E+04  0.95820362430E+03 0.  0.
        -13    1    3    3    0    0 -0.55025719348E+02  0.12539909858E+03  0.38617180572E+03  0.40973337478E+03  0.10566000000E+00 0.  1.
          4    1    3    3  501    0 -0.34288434099E+03 -0.35316412271E+03 -0.42969797356E+03  0.65340256913E+03  0.00000000000E+00 0.  1.
         13    1    1    2    0    0  0.39791006034E+03  0.22776502412E+03 -0.19577341217E+03  0.49853441447E+03  0.10566000000E+00 0. -1.
<mgrwt>
<rscale>  1 0.86099353E+03</rscale>
<asrwt>0</asrwt>
<pdfrwt beam="1">  1       21 0.10172083E+00 0.10622446E+04</pdfrwt>
<pdfrwt beam="2">  1        4 0.13853615E+00 0.10622446E+04</pdfrwt>
<totfact> 0.10692354E+01</totfact>
</mgrwt>
</event>
<event>
 6    1  0.1431486E-005  0.1044353E+04  0.7818608E-02  0.9604438E-01
          4   -1    0    0  502    0 -0.00000000000E+00  0.00000000000E+00  0.21029808703E+04  0.21029808703E+04  0.00000000000E+00 0.  1.
         21   -1    0    0  501  502  0.00000000000E+00 -0.00000000000E+00 -0.51340901126E+03  0.51340901126E+03  0.00000000000E+00 0.  1.
    9000010    2    1    2  501    0  0.43650091672E+02  0.30556613811E+03  0.49323822993E+02  0.10455175064E+04  0.99769635733E+03 0.  0.
        -13    1    3    3    0    0 -0.36276552465E+03  0.23139102438E+03  0.33324184157E+03  0.54423411155E+03  0.10566000000E+00 0.  1.
          4    1    3    3  501    0  0.40641561633E+03  0.74175113739E+02 -0.28391801858E+03  0.50128339486E+03  0.00000000000E+00 0.  1.
         13    1    1    2    0    0 -0.43650091672E+02 -0.30556613811E+03  0.15402480361E+04  0.15708723752E+04  0.10566000000E+00 0. -1.
<mgrwt>
<rscale>  1 0.77003161E+03</rscale>
<asrwt>0</asrwt>
<pdfrwt beam="2">  1       21 0.78986003E-01 0.10443534E+04</pdfrwt>
<pdfrwt beam="1">  1        4 0.32353551E+00 0.10443534E+04</pdfrwt>
<totfact> 0.11836949E+00</totfact>
</mgrwt>
</event>
<event>
 6    1  0.1431486E-005  0.1010711E+04  0.7818608E-02  0.9903653E-01
         21   -1    0    0  501  502  0.00000000000E+00  0.00000000000E+00  0.71791365994E+03  0.71791365994E+03  0.00000000000E+00 0.  1.
          4   -1    0    0  502    0 -0.00000000000E+00 -0.00000000000E+00 -0.49023566972E+03  0.49023566972E+03  0.00000000000E+00 0.  1.
    9000010    2    1    2  501    0 -0.11921505589E+03 -0.41501266794E+02  0.31031228809E+03  0.10572751336E+04  0.10027972912E+04 0.  0.
        -13    1    3    3    0    0  0.23278907769E+03  0.20850684674E+03 -0.21348386508E+03  0.37847223365E+03  0.10566000000E+00 0.  1.
          4    1    3    3  501    0 -0.35200413358E+03 -0.25000811354E+03  0.52379615316E+03  0.67880289993E+03  0.00000000000E+00 0.  1.
         13    1    1    2    0    0  0.11921505589E+03  0.41501266794E+02 -0.82634297863E+02  0.15087419608E+03  0.10566000000E+00 0. -1.
<mgrwt>
<rscale>  1 0.60084565E+03</rscale>
<asrwt>0</asrwt>
<pdfrwt beam="1">  1       21 0.11044826E+00 0.10107111E+04</pdfrwt>
<pdfrwt beam="2">  1        4 0.75420872E-01 0.10107111E+04</pdfrwt>
<totfact> 0.38263958E+01</totfact>
</mgrwt>
</event>
<event>
 6    1  0.1431486E-005  0.1082343E+04  0.7818608E-02  0.9466318E-01
          4   -1    0    0  502    0 -0.00000000000E+00  0.00000000000E+00  0.15035990276E+04  0.15035990276E+04  0.00000000000E+00 0.  1.
         21   -1    0    0  501  502  0.00000000000E+00 -0.00000000000E+00 -0.68758176572E+03  0.68758176572E+03  0.00000000000E+00 0.  1.
    9000010    2    1    2  501    0  0.44045415520E+03 -0.81715296218E+02 -0.18171910261E+03  0.10974920274E+04  0.98528659056E+03 0.  0.
        -13    1    3    3    0    0  0.42314075480E+03  0.12532105830E+03  0.32616333548E+03  0.54875859775E+03  0.10566000000E+00 0.  1.
          4    1    3    3  501    0  0.17313400398E+02 -0.20703635452E+03 -0.50788243809E+03  0.54873342968E+03  0.00000000000E+00 0.  1.
         13    1    1    2    0    0 -0.44045415520E+03  0.81715296218E+02  0.99773636448E+03  0.10936887659E+04  0.10566000000E+00 0. -1.
<mgrwt>
<rscale>  1 0.86813253E+03</rscale>
<asrwt>0</asrwt>
<pdfrwt beam="2">  1       21 0.10578181E+00 0.10823433E+04</pdfrwt>
<pdfrwt beam="1">  1        4 0.23132293E+00 0.10823433E+04</pdfrwt>
<totfact> 0.21627125E+00</totfact>
</mgrwt>
</event>
<event>
 6    1  0.1431486E-005  0.1017727E+04  0.7818608E-02  0.9849058E-01
          4   -1    0    0  502    0 -0.00000000000E+00  0.00000000000E+00  0.34775338395E+03  0.34775338395E+03  0.00000000000E+00 0.  1.
         21   -1    0    0  501  502  0.00000000000E+00 -0.00000000000E+00 -0.10132019750E+04  0.10132019750E+04  0.00000000000E+00 0.  1.
    9000010    2    1    2  501    0 -0.88132782914E+02 -0.11827987667E+03 -0.48353360578E+03  0.11267533315E+04  0.10069810353E+04 0.  0.
        -13    1    3    3    0    0 -0.22161502056E+03 -0.30417333234E+03  0.18556032767E+03  0.41960371759E+03  0.10566000000E+00 0.  1.
          4    1    3    3  501    0  0.13348223765E+03  0.18589345567E+03 -0.66909393346E+03  0.70714961389E+03  0.00000000000E+00 0.  1.
         13    1    1    2    0    0  0.88132782914E+02  0.11827987667E+03 -0.18191498529E+03  0.23420202751E+03  0.10566000000E+00 0. -1.
<mgrwt>
<rscale>  1 0.62794952E+03</rscale>
<asrwt>0</asrwt>
<pdfrwt beam="2">  1       21 0.15587723E+00 0.10177270E+04</pdfrwt>
<pdfrwt beam="1">  1        4 0.53500521E-01 0.10177270E+04</pdfrwt>
<totfact> 0.32448696E+01</totfact>
</mgrwt>
</event>
<event>
 6    1  0.1431486E-005  0.1017932E+04  0.7818608E-02  0.9760946E-01
          4   -1    0    0  502    0 -0.00000000000E+00  0.00000000000E+00  0.99633742400E+03  0.99633742400E+03  0.00000000000E+00 0.  1.
         21   -1    0    0  501  502  0.00000000000E+00 -0.00000000000E+00 -0.38096260978E+03  0.38096260978E+03  0.00000000000E+00 0.  1.
    9000010    2    1    2  501    0  0.18943395060E+03 -0.53445522686E+02  0.42379136562E+03  0.11026259096E+04  0.99872074650E+03 0.  0.
        -13    1    3    3    0    0 -0.30125237292E+03 -0.25304178304E+03 -0.44048082646E+02  0.39588303942E+03  0.10566000000E+00 0.  1.
          4    1    3    3  501    0  0.49068632352E+03  0.19959626035E+03  0.46783944827E+03  0.70674287021E+03  0.00000000000E+00 0.  1.
         13    1    1    2    0    0 -0.18943395060E+03  0.53445522686E+02  0.19158344859E+03  0.27467412415E+03  0.10566000000E+00 0. -1.
<mgrwt>
<rscale>  1 0.67501158E+03</rscale>
<asrwt>0</asrwt>
<pdfrwt beam="2">  1       21 0.58609633E-01 0.10179316E+04</pdfrwt>
<pdfrwt beam="1">  1        4 0.15328268E+00 0.10179316E+04</pdfrwt>
<totfact> 0.29860249E+01</totfact>
</mgrwt>
</event>
<event>
 6    1  0.1431486E-005  0.1095082E+04  0.7818608E-02  0.9496999E-01
          4   -1    0    0  502    0 -0.00000000000E+00  0.00000000000E+00  0.93677445685E+03  0.93677445685E+03  0.00000000000E+00 0.  1.
         21   -1    0    0  501  502  0.00000000000E+00 -0.00000000000E+00 -0.12160163580E+04  0.12160163580E+04  0.00000000000E+00 0.  1.
    9000010    2    1    2  501    0  0.38987691091E+02  0.38636523635E+03 -0.90209725515E+03  0.14187969872E+04  0.10239176223E+04 0.  0.
        -13    1    3    3    0    0  0.46645536148E+03  0.35204254226E+03 -0.24395838074E+03  0.63326949912E+03  0.10566000000E+00 0.  1.
          4    1    3    3  501    0 -0.42746767039E+03  0.34322694096E+02 -0.65813887440E+03  0.78552748810E+03  0.00000000000E+00 0.  1.
         13    1    1    2    0    0 -0.38987691091E+02 -0.38636523635E+03  0.62285535397E+03  0.73399382767E+03  0.10566000000E+00 0. -1.
<mgrwt>
<rscale>  1 0.84505426E+03</rscale>
<asrwt>0</asrwt>
<pdfrwt beam="2">  1       21 0.18707944E+00 0.10950824E+04</pdfrwt>
<pdfrwt beam="1">  1        4 0.14411915E+00 0.10950824E+04</pdfrwt>
<totfact> 0.18112094E+00</totfact>
</mgrwt>
</event>
<event>
 6    1  0.1431486E-005  0.1013135E+04  0.7818608E-02  0.9762409E-01
          4   -1    0    0  502    0 -0.00000000000E+00  0.00000000000E+00  0.61905560134E+03  0.61905560134E+03  0.00000000000E+00 0.  1.
         21   -1    0    0  501  502  0.00000000000E+00 -0.00000000000E+00 -0.77984556629E+03  0.77984556629E+03  0.00000000000E+00 0.  1.
    9000010    2    1    2  501    0  0.12065863322E+03  0.15783768638E+03 -0.39886137649E+03  0.10888217437E+04  0.99346421717E+03 0.  0.
        -13    1    3    3    0    0  0.51260841918E+02  0.37288203221E+02  0.33548332540E+03  0.34141932693E+03  0.10566000000E+00 0.  1.
          4    1    3    3  501    0  0.69397791306E+02  0.12054948316E+03 -0.73434470189E+03  0.74740241673E+03  0.00000000000E+00 0.  1.
         13    1    1    2    0    0 -0.12065863322E+03 -0.15783768638E+03  0.23807141154E+03  0.31007942397E+03  0.10566000000E+00 0. -1.
<mgrwt>
<rscale>  1 0.67419508E+03</rscale>
<asrwt>0</asrwt>
<pdfrwt beam="2">  1       21 0.11997624E+00 0.10131349E+04</pdfrwt>
<pdfrwt beam="1">  1        4 0.95239323E-01 0.10131349E+04</pdfrwt>
<totfact> 0.17992656E+01</totfact>
</mgrwt>
</event>
<event>
 6    1  0.1431486E-005  0.1199795E+04  0.7818608E-02  0.9223833E-01
          4   -1    0    0  502    0 -0.00000000000E+00  0.00000000000E+00  0.66929897935E+03  0.66929897935E+03  0.00000000000E+00 0.  1.
         21   -1    0    0  501  502  0.00000000000E+00 -0.00000000000E+00 -0.14817215498E+04  0.14817215498E+04  0.00000000000E+00 0. -1.
    9000010    2    1    2  501    0  0.75459471230E+03 -0.23678972902E+03 -0.45575473818E+03  0.12834408445E+04  0.90223359738E+03 0.  0.
        -13    1    3    3    0    0  0.65202758481E+03 -0.42210067710E+03  0.45522712717E+01  0.77674299952E+03  0.10566000000E+00 0.  1.
          4    1    3    3  501    0  0.10256712749E+03  0.18531094808E+03 -0.46030700945E+03  0.50669784494E+03  0.00000000000E+00 0.  1.
         13    1    1    2    0    0 -0.75459471230E+03  0.23678972902E+03 -0.35666783232E+03  0.86757968474E+03  0.10566000000E+00 0. -1.
<mgrwt>
<rscale>  1 0.10810785E+04</rscale>
<asrwt>0</asrwt>
<pdfrwt beam="2">  1       21 0.22795716E+00 0.11997950E+04</pdfrwt>
<pdfrwt beam="1">  1        4 0.10296907E+00 0.11997950E+04</pdfrwt>
<totfact> 0.22042008E+00</totfact>
</mgrwt>
</event>
<event>
 6    1  0.1431486E-005  0.1030839E+04  0.7818608E-02  0.1007792E+00
          4   -1    0    0  502    0 -0.00000000000E+00  0.00000000000E+00  0.16242676465E+03  0.16242676465E+03  0.00000000000E+00 0.  1.
         21   -1    0    0  501  502  0.00000000000E+00 -0.00000000000E+00 -0.27121953701E+04  0.27121953701E+04  0.00000000000E+00 0.  1.
    9000010    2    1    2  501    0 -0.23536047943E+02  0.64462463516E+02 -0.25951235092E+04  0.27923638025E+04  0.10285524892E+04 0.  0.
        -13    1    3    3    0    0 -0.29949194189E+03  0.19987073576E+03 -0.24031063775E+04  0.24299308646E+04  0.10566000000E+00 0.  1.
          4    1    3    3  501    0  0.27595589395E+03 -0.13540827225E+03 -0.19201713171E+03  0.36243293789E+03  0.00000000000E+00 0.  1.
         13    1    1    2    0    0  0.23536047943E+02 -0.64462463516E+02  0.45354903766E+02  0.82258332191E+02  0.10566000000E+00 0. -1.
<mgrwt>
<rscale>  1 0.52361673E+03</rscale>
<asrwt>0</asrwt>
<pdfrwt beam="2">  1       21 0.41726084E+00 0.10308393E+04</pdfrwt>
<pdfrwt beam="1">  1        4 0.24988732E-01 0.10308393E+04</pdfrwt>
<totfact> 0.29001219E+00</totfact>
</mgrwt>
</event>
<event>
 6    1  0.1431486E-005  0.1084694E+04  0.7818608E-02  0.9968752E-01
          4   -1    0    0  502    0 -0.00000000000E+00  0.00000000000E+00  0.83710102645E+03  0.83710102645E+03  0.00000000000E+00 0.  1.
         21   -1    0    0  501  502  0.00000000000E+00 -0.00000000000E+00 -0.63416091922E+03  0.63416091922E+03  0.00000000000E+00 0.  1.
    9000010    2    1    2  501    0 -0.82011699951E+02  0.12488069120E+02 -0.16225537440E+03  0.10967627844E+04  0.10815174192E+04 0.  0.
        -13    1    3    3    0    0 -0.44021769824E+03 -0.85640450756E+01  0.28414452637E+03  0.52402584645E+03  0.10566000000E+00 0.  1.
          4    1    3    3  501    0  0.35820599829E+03  0.21052114196E+02 -0.44639990077E+03  0.57273693798E+03  0.00000000000E+00 0.  1.
         13    1    1    2    0    0  0.82011699951E+02 -0.12488069120E+02  0.36519548163E+03  0.37449916123E+03  0.10566000000E+00 0. -1.
<mgrwt>
<rscale>  1 0.57041893E+03</rscale>
<asrwt>0</asrwt>
<pdfrwt beam="2">  1       21 0.97563219E-01 0.10846943E+04</pdfrwt>
<pdfrwt beam="1">  1        4 0.12878477E+00 0.10846943E+04</pdfrwt>
<totfact> 0.14294477E+01</totfact>
</mgrwt>
</event>
<event>
 6    1  0.1431486E-005  0.1020776E+04  0.7818608E-02  0.9777806E-01
         21   -1    0    0  501  502  0.00000000000E+00  0.00000000000E+00  0.48428621943E+03  0.48428621943E+03  0.00000000000E+00 0.  1.
          4   -1    0    0  502    0 -0.00000000000E+00 -0.00000000000E+00 -0.75894563724E+03  0.75894563724E+03  0.00000000000E+00 0.  1.
    9000010    2    1    2  501    0 -0.67010470035E+02 -0.17201783442E+03 -0.18273802603E+03  0.10370036048E+04  0.10039435999E+04 0.  0.
        -13    1    3    3    0    0 -0.53253205530E+03 -0.89499357738E+02 -0.16197258663E+03  0.56376915040E+03  0.10566000000E+00 0.  1.
          4    1    3    3  501    0  0.46552158526E+03 -0.82518476680E+02 -0.20765439399E+02  0.47323445438E+03  0.00000000000E+00 0.  1.
         13    1    1    2    0    0  0.67010470035E+02  0.17201783442E+03 -0.91921391776E+02  0.20622825190E+03  0.10566000000E+00 0. -1.
<mgrwt>
<rscale>  1 0.66567325E+03</rscale>
<asrwt>0</asrwt>
<pdfrwt beam="1">  1       21 0.74505572E-01 0.10207758E+04</pdfrwt>
<pdfrwt beam="2">  1        4 0.11676087E+00 0.10207758E+04</pdfrwt>
<totfact> 0.35105737E+01</totfact>
</mgrwt>
</event>
<event>
 6    1  0.1431486E-005  0.1050992E+04  0.7818608E-02  0.9692083E-01
         21   -1    0    0  501  502  0.00000000000E+00  0.00000000000E+00  0.93316601262E+03  0.93316601262E+03  0.00000000000E+00 0.  1.
          4   -1    0    0  502    0 -0.00000000000E+00 -0.00000000000E+00 -0.43818742421E+03  0.43818742421E+03  0.00000000000E+00 0.  1.
    9000010    2    1    2  501    0  0.11822804492E+03 -0.19143611919E+03  0.37164618536E+03  0.11147670944E+04  0.10266251162E+04 0.  0.
        -13    1    3    3    0    0  0.27451975910E+03 -0.43022092320E+03 -0.13974739056E+03  0.52913182217E+03  0.10566000000E+00 0.  1.
          4    1    3    3  501    0 -0.15629171418E+03  0.23878480402E+03  0.51139357592E+03  0.58563527220E+03  0.00000000000E+00 0.  1.
         13    1    1    2    0    0 -0.11822804492E+03  0.19143611919E+03  0.12333240305E+03  0.25658634247E+03  0.10566000000E+00 0. -1.
<mgrwt>
<rscale>  1 0.71490124E+03</rscale>
<asrwt>0</asrwt>
<pdfrwt beam="1">  1       21 0.14356400E+00 0.10509923E+04</pdfrwt>
<pdfrwt beam="2">  1        4 0.67413450E-01 0.10509923E+04</pdfrwt>
<totfact> 0.24576162E+01</totfact>
</mgrwt>
</event>
<event>
 6    1  0.1431486E-005  0.1017023E+04  0.7818608E-02  0.9744621E-01
         21   -1    0    0  501  502  0.00000000000E+00  0.00000000000E+00  0.63060148517E+03  0.63060148517E+03  0.00000000000E+00 0. -1.
          4   -1    0    0  502    0 -0.00000000000E+00 -0.00000000000E+00 -0.67779253905E+03  0.67779253905E+03  0.00000000000E+00 0.  1.
    9000010    2    1    2  501    0 -0.19881246677E+03 -0.62274702973E+02 -0.21664802022E+03  0.10398419619E+04  0.99545487365E+03 0.  0.
        -13    1    3    3    0    0  0.20442732029E+03 -0.33878160965E+03 -0.35512538431E+03  0.53167429697E+03  0.10566000000E+00 0.  1.
          4    1    3    3  501    0 -0.40323978705E+03  0.27650690668E+03  0.13847736408E+03  0.50816766492E+03  0.00000000000E+00 0.  1.
         13    1    1    2    0    0  0.19881246677E+03  0.62274702973E+02  0.16945696635E+03  0.26855206233E+03  0.10566000000E+00 0. -1.
<mgrwt>
<rscale>  1 0.68421077E+03</rscale>
<asrwt>0</asrwt>
<pdfrwt beam="1">  1       21 0.97015613E-01 0.10170226E+04</pdfrwt>
<pdfrwt beam="2">  1        4 0.10427578E+00 0.10170226E+04</pdfrwt>
<totfact> 0.24713462E+01</totfact>
</mgrwt>
</event>
<event>
 6    1  0.1431486E-005  0.1096413E+04  0.7818608E-02  0.9624037E-01
          4   -1    0    0  502    0 -0.00000000000E+00  0.00000000000E+00  0.77421698683E+03  0.77421698683E+03  0.00000000000E+00 0.  1.
         21   -1    0    0  501  502  0.00000000000E+00 -0.00000000000E+00 -0.59290344928E+03  0.59290344928E+03  0.00000000000E+00 0.  1.
    9000010    2    1    2  501    0  0.49827499258E+02  0.24445989382E+03  0.85048805140E+02  0.10997062831E+04  0.10676503128E+04 0.  0.
        -13    1    3    3    0    0 -0.32478964106E+03 -0.25701568723E+03 -0.13589584650E+03  0.43590488261E+03  0.10566000000E+00 0.  1.
          4    1    3    3  501    0  0.37461714032E+03  0.50147558104E+03  0.22094465164E+03  0.66380140049E+03  0.00000000000E+00 0.  1.
         13    1    1    2    0    0 -0.49827499258E+02 -0.24445989382E+03  0.96264732406E+02  0.26741415302E+03  0.10566000000E+00 0. -1.
<mgrwt>
<rscale>  1 0.75725510E+03</rscale>
<asrwt>0</asrwt>
<pdfrwt beam="2">  1       21 0.91215914E-01 0.10964126E+04</pdfrwt>
<pdfrwt beam="1">  1        4 0.11911031E+00 0.10964126E+04</pdfrwt>
<totfact> 0.20533326E+01</totfact>
</mgrwt>
</event>
<event>
 6    1  0.1431486E-005  0.1006484E+04  0.7818608E-02  0.9796322E-01
         21   -1    0    0  501  502  0.00000000000E+00  0.00000000000E+00  0.37867597763E+03  0.37867597763E+03  0.00000000000E+00 0.  1.
          4   -1    0    0  502    0 -0.00000000000E+00 -0.00000000000E+00 -0.94231655468E+03  0.94231655468E+03  0.00000000000E+00 0.  1.
    9000010    2    1    2  501    0 -0.14577650997E+03 -0.10761186745E+03 -0.52709281930E+03  0.11361497487E+04  0.99003954797E+03 0.  0.
        -13    1    3    3    0    0  0.42073322666E+03  0.27094322755E+02 -0.26165570389E+03  0.49619982757E+03  0.10566000000E+00 0.  1.
          4    1    3    3  501    0 -0.56650973663E+03 -0.13470619021E+03 -0.26543711541E+03  0.63994992118E+03  0.00000000000E+00 0.  1.
         13    1    1    2    0    0  0.14577650997E+03  0.10761186745E+03 -0.36547757738E+02  0.18484278356E+03  0.10566000000E+00 0. -1.
<mgrwt>
<rscale>  1 0.65560282E+03</rscale>
<asrwt>0</asrwt>
<pdfrwt beam="1">  1       21 0.58257843E-01 0.10064837E+04</pdfrwt>
<pdfrwt beam="2">  1        4 0.14497178E+00 0.10064837E+04</pdfrwt>
<totfact> 0.35173488E+01</totfact>
</mgrwt>
</event>
<event>
 6    1  0.1431486E-005  0.1015814E+04  0.7818608E-02  0.9938934E-01
          4   -1    0    0  502    0 -0.00000000000E+00  0.00000000000E+00  0.86317574827E+03  0.86317574827E+03  0.00000000000E+00 0.  1.
         21   -1    0    0  501  502  0.00000000000E+00 -0.00000000000E+00 -0.36881207306E+03  0.36881207306E+03  0.00000000000E+00 0.  1.
    9000010    2    1    2  501    0 -0.37116600094E+02 -0.10466778470E+03  0.46457354102E+03  0.11170076038E+04  0.10097249253E+04 0.  0.
        -13    1    3    3    0    0 -0.22403061410E+03  0.22500733949E+03  0.62845791684E+03  0.70411460948E+03  0.10566000000E+00 0.  1.
          4    1    3    3  501    0  0.18691401401E+03 -0.32967512419E+03 -0.16388437582E+03  0.41289299435E+03  0.00000000000E+00 0.  1.
         13    1    1    2    0    0  0.37116600094E+02  0.10466778470E+03  0.29790134197E+02  0.11498021750E+03  0.10566000000E+00 0. -1.
<mgrwt>
<rscale>  1 0.58410938E+03</rscale>
<asrwt>0</asrwt>
<pdfrwt beam="2">  1       21 0.56740319E-01 0.10158137E+04</pdfrwt>
<pdfrwt beam="1">  1        4 0.13279627E+00 0.10158137E+04</pdfrwt>
<totfact> 0.46893382E+01</totfact>
</mgrwt>
</event>
<event>
 6    1  0.1431486E-005  0.1138961E+04  0.7818608E-02  0.9391761E-01
          4   -1    0    0  502    0 -0.00000000000E+00  0.00000000000E+00  0.61937104052E+03  0.61937104052E+03  0.00000000000E+00 0.  1.
         21   -1    0    0  501  502  0.00000000000E+00 -0.00000000000E+00 -0.18491184922E+04  0.18491184922E+04  0.00000000000E+00 0.  1.
    9000010    2    1    2  501    0 -0.34373868663E+03  0.36450827522E+03 -0.15123510492E+04  0.18932614285E+04  0.10228443544E+04 0.  0.
        -13    1    3    3    0    0 -0.65544906274E+03  0.36737399350E+03 -0.71527570824E+03  0.10373988986E+04  0.10566000000E+00 0.  1.
          4    1    3    3  501    0  0.31171037610E+03 -0.28657182812E+01 -0.79707534097E+03  0.85586252990E+03  0.00000000000E+00 0.  1.
         13    1    1    2    0    0  0.34373868663E+03 -0.36450827522E+03  0.28260359750E+03  0.57522810421E+03  0.10566000000E+00 0. -1.
<mgrwt>
<rscale>  1 0.92756822E+03</rscale>
<asrwt>0</asrwt>
<pdfrwt beam="2">  1       21 0.28447977E+00 0.11389614E+04</pdfrwt>
<pdfrwt beam="1">  1        4 0.95287851E-01 0.11389614E+04</pdfrwt>
<totfact> 0.11699936E+00</totfact>
</mgrwt>
</event>
<event>
 6    1  0.1431486E-005  0.9897898E+03  0.7818608E-02  0.1015819E+00
         21   -1    0    0  501  502  0.00000000000E+00  0.00000000000E+00  0.13660121939E+04  0.13660121939E+04  0.00000000000E+00 0.  1.
          4   -1    0    0  502    0 -0.00000000000E+00 -0.00000000000E+00 -0.34831370161E+03  0.34831370161E+03  0.00000000000E+00 0.  1.
    9000010    2    1    2  501    0 -0.41081574728E+02  0.44489320046E+02  0.11805509069E+04  0.15405791962E+04  0.98793563582E+03 0.  0.
        -13    1    3    3    0    0  0.16158968265E+03  0.13517209637E+02  0.12954467215E+04  0.13055558816E+04  0.10566000000E+00 0.  1.
          4    1    3    3  501    0 -0.20267125738E+03  0.30972110409E+02 -0.11489581460E+03  0.23502331459E+03  0.00000000000E+00 0.  1.
         13    1    1    2    0    0  0.41081574728E+02 -0.44489320046E+02 -0.16285241467E+03  0.17374669927E+03  0.10566000000E+00 0. -1.
<mgrwt>
<rscale>  1 0.49226186E+03</rscale>
<asrwt>0</asrwt>
<pdfrwt beam="1">  1       21 0.21015572E+00 0.98978978E+03</pdfrwt>
<pdfrwt beam="2">  1        4 0.53586724E-01 0.98978978E+03</pdfrwt>
<totfact> 0.13146256E+01</totfact>
</mgrwt>
</event>
<event>
 6    1  0.1431486E-005  0.1148787E+04  0.7818608E-02  0.9341949E-01
          4   -1    0    0  502    0 -0.00000000000E+00  0.00000000000E+00  0.23792485763E+04  0.23792485763E+04  0.00000000000E+00 0.  1.
         21   -1    0    0  501  502  0.00000000000E+00 -0.00000000000E+00 -0.47044787199E+03  0.47044787199E+03  0.00000000000E+00 0.  1.
    9000010    2    1    2  501    0 -0.58253342950E+03  0.44158639805E+02  0.37506334588E+03  0.12084635344E+04  0.98914934084E+03 0.  0.
        -13    1    3    3    0    0  0.17055479013E+03  0.30695835033E+03  0.11601306616E+03  0.36982618614E+03  0.10566000000E+00 0.  1.
          4    1    3    3  501    0 -0.75308821963E+03 -0.26279971052E+03  0.25905027972E+03  0.83863734821E+03  0.00000000000E+00 0.  1.
         13    1    1    2    0    0  0.58253342950E+03 -0.44158639805E+02  0.15337373584E+04  0.16412329139E+04  0.10566000000E+00 0. -1.
<mgrwt>
<rscale>  1 0.97010984E+03</rscale>
<asrwt>0</asrwt>
<pdfrwt beam="2">  1       21 0.72376597E-01 0.11487870E+04</pdfrwt>
<pdfrwt beam="1">  1        4 0.36603823E+00 0.11487870E+04</pdfrwt>
<totfact> 0.75870298E-01</totfact>
</mgrwt>
</event>
<event>
 6    1  0.1431486E-005  0.9847356E+03  0.7818608E-02  0.9972236E-01
         21   -1    0    0  501  502  0.00000000000E+00  0.00000000000E+00  0.79738252394E+03  0.79738252394E+03  0.00000000000E+00 0.  1.
          4   -1    0    0  502    0 -0.00000000000E+00 -0.00000000000E+00 -0.40924814007E+03  0.40924814007E+03  0.00000000000E+00 0.  1.
    9000010    2    1    2  501    0  0.10788587051E+03  0.19605485250E+02  0.44782759801E+03  0.10817826481E+04  0.97861146734E+03 0.  0.
        -13    1    3    3    0    0 -0.29882584041E+03 -0.13922069205E+03 -0.13271252842E+03  0.35537573125E+03  0.10566000000E+00 0.  1.
          4    1    3    3  501    0  0.40671171093E+03  0.15882617730E+03  0.58054012643E+03  0.72640691682E+03  0.00000000000E+00 0.  1.
         13    1    1    2    0    0 -0.10788587051E+03 -0.19605485250E+02 -0.59693214143E+02  0.12484801595E+03  0.10566000000E+00 0. -1.
<mgrwt>
<rscale>  1 0.56884599E+03</rscale>
<asrwt>0</asrwt>
<pdfrwt beam="1">  1       21 0.12267423E+00 0.98473557E+03</pdfrwt>
<pdfrwt beam="2">  1        4 0.62961252E-01 0.98473557E+03</pdfrwt>
<totfact> 0.43827023E+01</totfact>
</mgrwt>
</event>
<event>
 6    1  0.1431486E-005  0.1026927E+04  0.7818608E-02  0.9725195E-01
         21   -1    0    0  501  502  0.00000000000E+00  0.00000000000E+00  0.68646918585E+03  0.68646918585E+03  0.00000000000E+00 0. -1.
          4   -1    0    0  502    0 -0.00000000000E+00 -0.00000000000E+00 -0.56253113342E+03  0.56253113342E+03  0.00000000000E+00 0.  1.
    9000010    2    1    2  501    0  0.64841894411E+02 -0.20591969596E+03  0.10519617482E+03  0.10323008463E+04  0.10039777934E+04 0.  0.
        -13    1    3    3    0    0 -0.32392484974E+03  0.26308483252E+03  0.27913298317E+02  0.41823450451E+03  0.10566000000E+00 0.  1.
          4    1    3    3  501    0  0.38876674415E+03 -0.46900452847E+03  0.77282876499E+02  0.61406634176E+03  0.00000000000E+00 0.  1.
         13    1    1    2    0    0 -0.64841894411E+02  0.20591969596E+03  0.18741877610E+02  0.21669947299E+03  0.10566000000E+00 0. -1.
<mgrwt>
<rscale>  1 0.69536288E+03</rscale>
<asrwt>0</asrwt>
<pdfrwt beam="1">  1       21 0.10561064E+00 0.10269269E+04</pdfrwt>
<pdfrwt beam="2">  1        4 0.86543251E-01 0.10269269E+04</pdfrwt>
<totfact> 0.31169409E+01</totfact>
</mgrwt>
</event>
<event>
 6    1  0.1431486E-005  0.1006960E+04  0.7818608E-02  0.9678288E-01
         21   -1    0    0  501  502  0.00000000000E+00  0.00000000000E+00  0.31221779852E+03  0.31221779852E+03  0.00000000000E+00 0.  1.
          4   -1    0    0  502    0 -0.00000000000E+00 -0.00000000000E+00 -0.22677165727E+04  0.22677165727E+04  0.00000000000E+00 0.  1.
    9000010    2    1    2  501    0 -0.12343479918E+01  0.26797669336E+03 -0.54654445546E+03  0.11457219339E+04  0.97064662794E+03 0.  0.
        -13    1    3    3    0    0 -0.29868265120E+03  0.13344984415E+02  0.15913425858E+03  0.33869328035E+03  0.10566000000E+00 0.  1.
          4    1    3    3  501    0  0.29744830321E+03  0.25463170894E+03 -0.70567871404E+03  0.80702865360E+03  0.00000000000E+00 0.  1.
         13    1    1    2    0    0  0.12343479918E+01 -0.26797669336E+03 -0.14089543187E+04  0.14342124373E+04  0.10566000000E+00 0. -1.
<mgrwt>
<rscale>  1 0.72324343E+03</rscale>
<asrwt>0</asrwt>
<pdfrwt beam="1">  1       21 0.48033506E-01 0.10069597E+04</pdfrwt>
<pdfrwt beam="2">  1        4 0.34887948E+00 0.10069597E+04</pdfrwt>
<totfact> 0.25042413E+00</totfact>
</mgrwt>
</event>
<event>
 6    1  0.1431486E-005  0.1000501E+04  0.7818608E-02  0.9820339E-01
         21   -1    0    0  501  502  0.00000000000E+00  0.00000000000E+00  0.13628268243E+04  0.13628268243E+04  0.00000000000E+00 0.  1.
          4   -1    0    0  502    0 -0.00000000000E+00 -0.00000000000E+00 -0.25378634471E+03  0.25378634471E+03  0.00000000000E+00 0.  1.
    9000010    2    1    2  501    0 -0.79101889724E+00 -0.17049389860E+03  0.99794512973E+03  0.14131162818E+04  0.98586730789E+03 0.  0.
        -13    1    3    3    0    0 -0.21199170958E+02  0.20811788427E+03  0.10122939463E+04  0.10336834639E+04  0.10566000000E+00 0.  1.
          4    1    3    3  501    0  0.20408152061E+02 -0.37861178287E+03 -0.14348816549E+02  0.37943281795E+03  0.00000000000E+00 0.  1.
         13    1    1    2    0    0  0.79101889724E+00  0.17049389860E+03  0.11109534981E+03  0.20349688716E+03  0.10566000000E+00 0. -1.
<mgrwt>
<rscale>  1 0.64282342E+03</rscale>
<asrwt>0</asrwt>
<pdfrwt beam="1">  1       21 0.20966566E+00 0.10005014E+04</pdfrwt>
<pdfrwt beam="2">  1        4 0.39044054E-01 0.10005014E+04</pdfrwt>
<totfact> 0.25570623E+01</totfact>
</mgrwt>
</event>
<event>
 6    1  0.1431486E-005  0.1120337E+04  0.7818608E-02  0.9371719E-01
         21   -1    0    0  501  502  0.00000000000E+00  0.00000000000E+00  0.18283149483E+03  0.18283149483E+03  0.00000000000E+00 0.  1.
          4   -1    0    0  502    0 -0.00000000000E+00 -0.00000000000E+00 -0.40230293044E+04  0.40230293044E+04  0.00000000000E+00 0.  1.
    9000010    2    1    2  501    0 -0.15028309739E+03  0.54536478100E+03 -0.21645313601E+04  0.24372834572E+04  0.96702993138E+03 0.  0.
        -13    1    3    3    0    0 -0.18871457492E+03 -0.19570866747E+03 -0.20070600343E+03  0.33793192257E+03  0.10566000000E+00 0.  1.
          4    1    3    3  501    0  0.38431477526E+02  0.74107344847E+03 -0.19638253567E+04  0.20993515346E+04  0.00000000000E+00 0.  1.
         13    1    1    2    0    0  0.15028309739E+03 -0.54536478100E+03 -0.16756664495E+04  0.17685773421E+04  0.10566000000E+00 0. -1.
<mgrwt>
<rscale>  1 0.94440120E+03</rscale>
<asrwt>0</asrwt>
<pdfrwt beam="1">  1       21 0.28127920E-01 0.11203368E+04</pdfrwt>
<pdfrwt beam="2">  1        4 0.61892764E+00 0.11203368E+04</pdfrwt>
<totfact> 0.57436371E-02</totfact>
</mgrwt>
</event>
<event>
 6    1  0.1431486E-005  0.1002993E+04  0.7818608E-02  0.1004088E+00
          4   -1    0    0  502    0 -0.00000000000E+00  0.00000000000E+00  0.96987484574E+03  0.96987484574E+03  0.00000000000E+00 0.  1.
         21   -1    0    0  501  502  0.00000000000E+00 -0.00000000000E+00 -0.34600659044E+03  0.34600659044E+03  0.00000000000E+00 0.  1.
    9000010    2    1    2  501    0  0.62601425067E+02  0.55421386557E+02  0.40515701655E+03  0.10817338638E+04  0.99950261411E+03 0.  0.
        -13    1    3    3    0    0 -0.61778092000E+02  0.47713041336E+03  0.42453447106E+03  0.64163813188E+03  0.10566000000E+00 0.  1.
          4    1    3    3  501    0  0.12437951707E+03 -0.42170902680E+03 -0.19377454510E+02  0.44009573196E+03  0.00000000000E+00 0.  1.
         13    1    1    2    0    0 -0.62601425067E+02 -0.55421386557E+02  0.21871123875E+03  0.23414757233E+03  0.10566000000E+00 0. -1.
<mgrwt>
<rscale>  1 0.53893571E+03</rscale>
<asrwt>0</asrwt>
<pdfrwt beam="2">  1       21 0.53231784E-01 0.10029935E+04</pdfrwt>
<pdfrwt beam="1">  1        4 0.14921151E+00 0.10029935E+04</pdfrwt>
<totfact> 0.39730889E+01</totfact>
</mgrwt>
</event>
<event>
 6    1  0.1431486E-005  0.1442364E+04  0.7818608E-02  0.9005081E-01
         21   -1    0    0  501  502  0.00000000000E+00  0.00000000000E+00  0.51465617653E+03  0.51465617653E+03  0.00000000000E+00 0. -1.
          4   -1    0    0  502    0 -0.00000000000E+00 -0.00000000000E+00 -0.30465454852E+04  0.30465454852E+04  0.00000000000E+00 0.  1.
    9000010    2    1    2  501    0 -0.30886330692E+01 -0.10469338503E+04 -0.16569963681E+04  0.21968271914E+04  0.99213543352E+03 0.  0.
        -13    1    3    3    0    0  0.18618338570E+03  0.75087239444E+02 -0.17990554255E+02  0.20155896865E+03  0.10566000000E+00 0.  1.
          4    1    3    3  501    0 -0.18927201876E+03 -0.11220210898E+04 -0.16390058139E+04  0.19952682228E+04  0.00000000000E+00 0.  1.
         13    1    1    2    0    0  0.30886330692E+01  0.10469338503E+04 -0.87489294057E+03  0.13643744703E+04  0.10566000000E+00 0. -1.
<mgrwt>
<rscale>  1 0.13313321E+04</rscale>
<asrwt>0</asrwt>
<pdfrwt beam="1">  1       21 0.79177871E-01 0.14423636E+04</pdfrwt>
<pdfrwt beam="2">  1        4 0.46869932E+00 0.14423636E+04</pdfrwt>
<totfact> 0.10850305E-01</totfact>
</mgrwt>
</event>
<event>
 6    1  0.1431486E-005  0.9980967E+03  0.7818608E-02  0.9968273E-01
         21   -1    0    0  501  502  0.00000000000E+00  0.00000000000E+00  0.49094843284E+03  0.49094843284E+03  0.00000000000E+00 0.  1.
          4   -1    0    0  502    0 -0.00000000000E+00 -0.00000000000E+00 -0.62847309291E+03  0.62847309291E+03  0.00000000000E+00 0.  1.
    9000010    2    1    2  501    0  0.22469119720E+02  0.10424521897E+03 -0.15888534963E+03  0.10106639180E+04  0.99238353161E+03 0.  0.
        -13    1    3    3    0    0 -0.12573115989E+03  0.50966891224E+03  0.56988085336E+02  0.52803255364E+03  0.10566000000E+00 0.  1.
          4    1    3    3  501    0  0.14820027961E+03 -0.40542369327E+03 -0.21587343497E+03  0.48263136436E+03  0.00000000000E+00 0.  1.
         13    1    1    2    0    0 -0.22469119720E+02 -0.10424521897E+03  0.21360689566E+02  0.10875760775E+03  0.10566000000E+00 0. -1.
<mgrwt>
<rscale>  1 0.57063555E+03</rscale>
<asrwt>0</asrwt>
<pdfrwt beam="1">  1       21 0.75530529E-01 0.99809669E+03</pdfrwt>
<pdfrwt beam="2">  1        4 0.96688167E-01 0.99809669E+03</pdfrwt>
<totfact> 0.54026975E+01</totfact>
</mgrwt>
</event>
<event>
 6    1  0.1431486E-005  0.1015575E+04  0.7818608E-02  0.9755632E-01
          4   -1    0    0  502    0 -0.00000000000E+00  0.00000000000E+00  0.15118098762E+03  0.15118098762E+03  0.00000000000E+00 0.  1.
         21   -1    0    0  501  502  0.00000000000E+00 -0.00000000000E+00 -0.25144857899E+04  0.25144857899E+04  0.00000000000E+00 0.  1.
    9000010    2    1    2  501    0  0.19869058105E+03 -0.34843546991E+02 -0.17916804312E+04  0.20594931617E+04  0.99533978905E+03 0.  0.
        -13    1    3    3    0    0  0.54560189458E+03  0.20767826858E+03 -0.11675718363E+04  0.13053871819E+04  0.10566000000E+00 0.  1.
          4    1    3    3  501    0 -0.34691131353E+03 -0.24252181557E+03 -0.62410859485E+03  0.75410597972E+03  0.00000000000E+00 0.  1.
         13    1    1    2    0    0 -0.19869058105E+03  0.34843546991E+02 -0.57162437111E+03  0.60617361587E+03  0.10566000000E+00 0. -1.
<mgrwt>
<rscale>  1 0.67798930E+03</rscale>
<asrwt>0</asrwt>
<pdfrwt beam="2">  1       21 0.38684394E+00 0.10155754E+04</pdfrwt>
<pdfrwt beam="1">  1        4 0.23258615E-01 0.10155754E+04</pdfrwt>
<totfact> 0.52863290E+00</totfact>
</mgrwt>
</event>
<event>
 6    1  0.1431486E-005  0.9982277E+03  0.7818608E-02  0.1004550E+00
         21   -1    0    0  501  502  0.00000000000E+00  0.00000000000E+00  0.74355525820E+03  0.74355525820E+03  0.00000000000E+00 0.  1.
          4   -1    0    0  502    0 -0.00000000000E+00 -0.00000000000E+00 -0.47822008833E+03  0.47822008833E+03  0.00000000000E+00 0.  1.
    9000010    2    1    2  501    0  0.28717583663E+02  0.78508853021E+02  0.38997338900E+03  0.10716985780E+04  0.99472119631E+03 0.  0.
        -13    1    3    3    0    0  0.15158618558E+03  0.46071666922E+03  0.45495977304E+03  0.66500122346E+03  0.10566000000E+00 0.  1.
          4    1    3    3  501    0 -0.12286860192E+03 -0.38220781619E+03 -0.64986384042E+02  0.40669735456E+03  0.00000000000E+00 0.  1.
         13    1    1    2    0    0 -0.28717583663E+02 -0.78508853021E+02 -0.12463821913E+03  0.15007676851E+03  0.10566000000E+00 0. -1.
<mgrwt>
<rscale>  1 0.53699354E+03</rscale>
<asrwt>0</asrwt>
<pdfrwt beam="1">  1       21 0.11439312E+00 0.99822773E+03</pdfrwt>
<pdfrwt beam="2">  1        4 0.73572322E-01 0.99822773E+03</pdfrwt>
<totfact> 0.37062535E+01</totfact>
</mgrwt>
</event>
<event>
 6    1  0.1431486E-005  0.9341303E+03  0.7818608E-02  0.1016592E+00
          4   -1    0    0  502    0 -0.00000000000E+00  0.00000000000E+00  0.90530610200E+03  0.90530610200E+03  0.00000000000E+00 0.  1.
         21   -1    0    0  501  502  0.00000000000E+00 -0.00000000000E+00 -0.28391562850E+03  0.28391562850E+03  0.00000000000E+00 0.  1.
    9000010    2    1    2  501    0 -0.42683972811E+02  0.55933406885E+02  0.53042436523E+03  0.10742203759E+04  0.93147675293E+03 0.  0.
        -13    1    3    3    0    0  0.19454892576E+03 -0.16233465478E+03  0.67494641364E+03  0.72094000936E+03  0.10566000000E+00 0.  1.
          4    1    3    3  501    0 -0.23723289857E+03  0.21826806166E+03 -0.14452204841E+03  0.35328036654E+03  0.00000000000E+00 0.  1.
         13    1    1    2    0    0  0.42683972811E+02 -0.55933406885E+02  0.90966108277E+02  0.11500135460E+03  0.10566000000E+00 0. -1.
<mgrwt>
<rscale>  1 0.48936904E+03</rscale>
<asrwt>0</asrwt>
<pdfrwt beam="2">  1       21 0.43679328E-01 0.93413030E+03</pdfrwt>
<pdfrwt beam="1">  1        4 0.13927786E+00 0.93413030E+03</pdfrwt>
<totfact> 0.73375252E+01</totfact>
</mgrwt>
</event>
<event>
 6    1  0.1431486E-005  0.1023185E+04  0.7818608E-02  0.9700462E-01
         21   -1    0    0  501  502  0.00000000000E+00  0.00000000000E+00  0.98529237127E+03  0.98529237127E+03  0.00000000000E+00 0.  1.
          4   -1    0    0  502    0 -0.00000000000E+00 -0.00000000000E+00 -0.48934282107E+03  0.48934282107E+03  0.00000000000E+00 0.  1.
    9000010    2    1    2  501    0  0.10432646267E+03  0.21290060999E+03  0.63067732802E+03  0.12019407373E+04  0.99533761271E+03 0.  0.
        -13    1    3    3    0    0  0.13793600295E+03 -0.30463269365E+03  0.59444885030E+03  0.68205341854E+03  0.10566000000E+00 0.  1.
          4    1    3    3  501    0 -0.33609540284E+02  0.51753330365E+03  0.36228477722E+02  0.51988731873E+03  0.00000000000E+00 0.  1.
         13    1    1    2    0    0 -0.10432646267E+03 -0.21290060999E+03 -0.13472777782E+03  0.27269445507E+03  0.10566000000E+00 0. -1.
<mgrwt>
<rscale>  1 0.70989318E+03</rscale>
<asrwt>0</asrwt>
<pdfrwt beam="1">  1       21 0.15158344E+00 0.10231850E+04</pdfrwt>
<pdfrwt beam="2">  1        4 0.75283511E-01 0.10231850E+04</pdfrwt>
<totfact> 0.16538467E+01</totfact>
</mgrwt>
</event>
<event>
 6    1  0.1431486E-005  0.1079893E+04  0.7818608E-02  0.9484476E-01
         21   -1    0    0  501  502  0.00000000000E+00  0.00000000000E+00  0.46185045646E+03  0.46185045646E+03  0.00000000000E+00 0.  1.
          4   -1    0    0  502    0 -0.00000000000E+00 -0.00000000000E+00 -0.12799277484E+04  0.12799277484E+04  0.00000000000E+00 0.  1.
    9000010    2    1    2  501    0 -0.42121692983E+03 -0.40080301807E+02 -0.41347411954E+03  0.11563434341E+04  0.99354876953E+03 0.  0.
        -13    1    3    3    0    0 -0.71456201115E+03  0.86793345163E+02 -0.13484408286E+03  0.73233523088E+03  0.10566000000E+00 0.  1.
          4    1    3    3  501    0  0.29334508132E+03 -0.12687364697E+03 -0.27863003668E+03  0.42400820319E+03  0.00000000000E+00 0.  1.
         13    1    1    2    0    0  0.42121692983E+03  0.40080301807E+02 -0.40460317238E+03  0.58543477078E+03  0.10566000000E+00 0. -1.
<mgrwt>
<rscale>  1 0.85438058E+03</rscale>
<asrwt>0</asrwt>
<pdfrwt beam="1">  1       21 0.71053916E-01 0.10798932E+04</pdfrwt>
<pdfrwt beam="2">  1        4 0.19691196E+00 0.10798932E+04</pdfrwt>
<totfact> 0.93932288E+00</totfact>
</mgrwt>
</event>
<event>
 6    1  0.1431486E-005  0.1118863E+04  0.7818608E-02  0.9416938E-01
          4   -1    0    0  502    0 -0.00000000000E+00  0.00000000000E+00  0.26739378959E+04  0.26739378959E+04  0.00000000000E+00 0.  1.
         21   -1    0    0  501  502  0.00000000000E+00 -0.00000000000E+00 -0.33644491617E+03  0.33644491617E+03  0.00000000000E+00 0.  1.
    9000010    2    1    2  501    0 -0.23018658497E+03 -0.42468590231E+03  0.73996189563E+03  0.13414161991E+04  0.10092124814E+04 0.  0.
        -13    1    3    3    0    0  0.18518521296E+03 -0.26251064847E+03  0.82689887309E+03  0.88711169597E+03  0.10566000000E+00 0.  1.
          4    1    3    3  501    0 -0.41537179793E+03 -0.16217525384E+03 -0.86936977459E+02  0.45430450308E+03  0.00000000000E+00 0.  1.
         13    1    1    2    0    0  0.23018658497E+03  0.42468590231E+03  0.15975310841E+04  0.16689666130E+04  0.10566000000E+00 0. -1.
<mgrwt>
<rscale>  1 0.90694757E+03</rscale>
<asrwt>0</asrwt>
<pdfrwt beam="2">  1       21 0.51760758E-01 0.11188627E+04</pdfrwt>
<pdfrwt beam="1">  1        4 0.41137505E+00 0.11188627E+04</pdfrwt>
<totfact> 0.79267782E-01</totfact>
</mgrwt>
</event>
<event>
 6    1  0.1431486E-005  0.1193728E+04  0.7818608E-02  0.9294095E-01
         21   -1    0    0  501  502  0.00000000000E+00  0.00000000000E+00  0.44870379832E+04  0.44870379832E+04  0.00000000000E+00 0. -1.
          4   -1    0    0  502    0 -0.00000000000E+00 -0.00000000000E+00 -0.19875285020E+03  0.19875285020E+03  0.00000000000E+00 0.  1.
    9000010    2    1    2  501    0 -0.57202930845E+03  0.23844648421E+03  0.33935706834E+04  0.35974029370E+04  0.10202507791E+04 0.  0.
        -13    1    3    3    0    0 -0.80402531443E+03  0.20323272074E+03  0.31573311934E+04  0.32644295859E+04  0.10566000000E+00 0.  1.
          4    1    3    3  501    0  0.23199600598E+03  0.35213763469E+02  0.23623948998E+03  0.33297335112E+03  0.00000000000E+00 0.  1.
         13    1    1    2    0    0  0.57202930845E+03 -0.23844648421E+03  0.89471444954E+03  0.10883878964E+04  0.10566000000E+00 0. -1.
<mgrwt>
<rscale>  1 0.10132833E+04</rscale>
<asrwt>0</asrwt>
<pdfrwt beam="1">  1       21 0.69031346E+00 0.11937277E+04</pdfrwt>
<pdfrwt beam="2">  1        4 0.30577365E-01 0.11937277E+04</pdfrwt>
<totfact> 0.15517268E-02</totfact>
</mgrwt>
</event>
<event>
 6    1  0.1431486E-005  0.8358835E+03  0.7818608E-02  0.1007634E+00
          4   -1    0    0  502    0 -0.00000000000E+00  0.00000000000E+00  0.21491494635E+03  0.21491494635E+03  0.00000000000E+00 0.  1.
         21   -1    0    0  501  502  0.00000000000E+00 -0.00000000000E+00 -0.10844864707E+04  0.10844864707E+04  0.00000000000E+00 0.  1.
    9000010    2    1    2  501    0 -0.78614399489E+02  0.10271089127E+03 -0.74135646149E+03  0.11172782046E+04  0.82581561657E+03 0.  0.
        -13    1    3    3    0    0  0.25276049490E+03  0.43837037491E+02 -0.73733802188E+03  0.78069003024E+03  0.10566000000E+00 0.  1.
          4    1    3    3  501    0 -0.33137489438E+03  0.58873853776E+02 -0.40184396033E+01  0.33658817440E+03  0.00000000000E+00 0.  1.
         13    1    1    2    0    0  0.78614399489E+02 -0.10271089127E+03 -0.12821506286E+03  0.18212321241E+03  0.10566000000E+00 0. -1.
<mgrwt>
<rscale>  1 0.52425862E+03</rscale>
<asrwt>0</asrwt>
<pdfrwt beam="2">  1       21 0.16684407E+00 0.83588347E+03</pdfrwt>
<pdfrwt beam="1">  1        4 0.33063838E-01 0.83588347E+03</pdfrwt>
<totfact> 0.73153376E+01</totfact>
</mgrwt>
</event>
<event>
 6    1  0.1431486E-005  0.1131753E+04  0.7818608E-02  0.9374399E-01
         21   -1    0    0  501  502  0.00000000000E+00  0.00000000000E+00  0.10408701038E+04  0.10408701038E+04  0.00000000000E+00 0.  1.
          4   -1    0    0  502    0 -0.00000000000E+00 -0.00000000000E+00 -0.10058859361E+04  0.10058859361E+04  0.00000000000E+00 0.  1.
    9000010    2    1    2  501    0  0.35607096356E+03 -0.41059180734E+03  0.58458755462E+03  0.12738161603E+04  0.99271991919E+03 0.  0.
        -13    1    3    3    0    0  0.14471690396E+01 -0.55595893638E+03 -0.21884747553E+02  0.55639139693E+03  0.10566000000E+00 0.  1.
          4    1    3    3  501    0  0.35462379452E+03  0.14536712904E+03  0.60647230217E+03  0.71742476340E+03  0.00000000000E+00 0.  1.
         13    1    1    2    0    0 -0.35607096356E+03  0.41059180734E+03 -0.54960338691E+03  0.77293987955E+03  0.10566000000E+00 0. -1.
<mgrwt>
<rscale>  1 0.94212810E+03</rscale>
<asrwt>0</asrwt>
<pdfrwt beam="1">  1       21 0.16013386E+00 0.11317531E+04</pdfrwt>
<pdfrwt beam="2">  1        4 0.15475168E+00 0.11317531E+04</pdfrwt>
<totfact> 0.23604906E+00</totfact>
</mgrwt>
</event>
<event>
 6    1  0.1431486E-005  0.1016402E+04  0.7818608E-02  0.9766951E-01
          4   -1    0    0  502    0 -0.00000000000E+00  0.00000000000E+00  0.63778350113E+03  0.63778350113E+03  0.00000000000E+00 0.  1.
         21   -1    0    0  501  502  0.00000000000E+00 -0.00000000000E+00 -0.59529210782E+03  0.59529210782E+03  0.00000000000E+00 0.  1.
    9000010    2    1    2  501    0 -0.56716039650E+02  0.18534594963E+03 -0.51403522860E+02  0.10177012914E+04  0.99774935040E+03 0.  0.
        -13    1    3    3    0    0 -0.39549665295E+03 -0.17779366668E+03 -0.22886801632E+03  0.49031497068E+03  0.10566000000E+00 0.  1.
          4    1    3    3  501    0  0.33878061330E+03  0.36313961631E+03  0.17746449346E+03  0.52738632076E+03  0.00000000000E+00 0.  1.
         13    1    1    2    0    0  0.56716039650E+02 -0.18534594963E+03  0.93894916167E+02  0.21537431751E+03  0.10566000000E+00 0. -1.
<mgrwt>
<rscale>  1 0.67166720E+03</rscale>
<asrwt>0</asrwt>
<pdfrwt beam="2">  1       21 0.91583401E-01 0.10164023E+04</pdfrwt>
<pdfrwt beam="1">  1        4 0.98120539E-01 0.10164023E+04</pdfrwt>
<totfact> 0.32962142E+01</totfact>
</mgrwt>
</event>
<event>
 6    1  0.1431486E-005  0.1069037E+04  0.7818608E-02  0.9547842E-01
          4   -1    0    0  502    0 -0.00000000000E+00  0.00000000000E+00  0.10946371163E+04  0.10946371163E+04  0.00000000000E+00 0.  1.
         21   -1    0    0  501  502  0.00000000000E+00 -0.00000000000E+00 -0.54177155727E+03  0.54177155727E+03  0.00000000000E+00 0.  1.
    9000010    2    1    2  501    0 -0.23008177704E+03  0.26332225959E+03  0.11374880415E+03  0.10750711885E+04  0.10102291985E+04 0.  0.
        -13    1    3    3    0    0 -0.26853065391E+03  0.52326592142E+03 -0.23930101584E+03  0.63496529350E+03  0.10566000000E+00 0.  1.
          4    1    3    3  501    0  0.38448876865E+02 -0.25994366183E+03  0.35304981999E+03  0.44010589504E+03  0.00000000000E+00 0.  1.
         13    1    1    2    0    0  0.23008177704E+03 -0.26332225959E+03  0.43911675493E+03  0.56133748507E+03  0.10566000000E+00 0. -1.
<mgrwt>
<rscale>  1 0.80846681E+03</rscale>
<asrwt>0</asrwt>
<pdfrwt beam="2">  1       21 0.83349470E-01 0.10690366E+04</pdfrwt>
<pdfrwt beam="1">  1        4 0.16840571E+00 0.10690366E+04</pdfrwt>
<totfact> 0.10213826E+01</totfact>
</mgrwt>
</event>
<event>
 6    1  0.1431486E-005  0.1055463E+04  0.7818608E-02  0.9597977E-01
         21   -1    0    0  501  502  0.00000000000E+00  0.00000000000E+00  0.24354966013E+04  0.24354966013E+04  0.00000000000E+00 0.  1.
          4   -1    0    0  502    0 -0.00000000000E+00 -0.00000000000E+00 -0.28417160608E+03  0.28417160608E+03  0.00000000000E+00 0.  1.
    9000010    2    1    2  501    0 -0.29584329329E+03  0.77049350754E+02  0.21703301024E+04  0.24133659679E+04  0.10102191272E+04 0.  0.
        -13    1    3    3    0    0 -0.55853236709E+03  0.20318041211E+03  0.19751613122E+04  0.20626446386E+04  0.10566000000E+00 0.  1.
          4    1    3    3  501    0  0.26268907381E+03 -0.12613106136E+03  0.19516879023E+03  0.35072132929E+03  0.00000000000E+00 0.  1.
         13    1    1    2    0    0  0.29584329329E+03 -0.77049350754E+02 -0.19005107195E+02  0.30630223946E+03  0.10566000000E+00 0. -1.
<mgrwt>
<rscale>  1 0.77430215E+03</rscale>
<asrwt>0</asrwt>
<pdfrwt beam="1">  1       21 0.37469177E+00 0.10554632E+04</pdfrwt>
<pdfrwt beam="2">  1        4 0.43718710E-01 0.10554632E+04</pdfrwt>
<totfact> 0.18042597E+00</totfact>
</mgrwt>
</event>
<event>
 6    1  0.1431486E-005  0.1040695E+04  0.7818608E-02  0.9673048E-01
          4   -1    0    0  502    0 -0.00000000000E+00  0.00000000000E+00  0.39693790225E+03  0.39693790225E+03  0.00000000000E+00 0.  1.
         21   -1    0    0  501  502  0.00000000000E+00 -0.00000000000E+00 -0.11217873510E+04  0.11217873510E+04  0.00000000000E+00 0.  1.
    9000010    2    1    2  501    0  0.15751518826E+03  0.19036216548E+03 -0.41010667252E+03  0.11185855090E+04  0.10109388060E+04 0.  0.
        -13    1    3    3    0    0  0.97969787402E+02  0.56177745765E+03 -0.11299142120E+02  0.57036801536E+03  0.10566000000E+00 0.  1.
          4    1    3    3  501    0  0.59545400855E+02 -0.37141529217E+03 -0.39880753040E+03  0.54821749363E+03  0.00000000000E+00 0.  1.
         13    1    1    2    0    0 -0.15751518826E+03 -0.19036216548E+03 -0.31474277620E+03  0.40013974423E+03  0.10566000000E+00 0. -1.
<mgrwt>
<rscale>  1 0.72644425E+03</rscale>
<asrwt>0</asrwt>
<pdfrwt beam="2">  1       21 0.17258267E+00 0.10406950E+04</pdfrwt>
<pdfrwt beam="1">  1        4 0.61067370E-01 0.10406950E+04</pdfrwt>
<totfact> 0.18121243E+01</totfact>
</mgrwt>
</event>
<event>
 6    1  0.1431486E-005  0.1005917E+04  0.7818608E-02  0.9865719E-01
         21   -1    0    0  501  502  0.00000000000E+00  0.00000000000E+00  0.59210639141E+03  0.59210639141E+03  0.00000000000E+00 0.  1.
          4   -1    0    0  502    0 -0.00000000000E+00 -0.00000000000E+00 -0.75362693564E+03  0.75362693564E+03  0.00000000000E+00 0.  1.
    9000010    2    1    2  501    0  0.14240338763E+03  0.25792853718E+02  0.13581911562E+03  0.10150448322E+04  0.99545225058E+03 0.  0.
        -13    1    3    3    0    0  0.48752572193E+03  0.28387178395E+03  0.32133447458E+01  0.56415853801E+03  0.10566000000E+00 0.  1.
          4    1    3    3  501    0 -0.34512233430E+03 -0.25807893023E+03  0.13260577088E+03  0.45088629424E+03  0.00000000000E+00 0.  1.
         13    1    1    2    0    0 -0.14240338763E+03 -0.25792853718E+02 -0.29733965985E+03  0.33068849481E+03  0.10566000000E+00 0. -1.
<mgrwt>
<rscale>  1 0.61951826E+03</rscale>
<asrwt>0</asrwt>
<pdfrwt beam="1">  1       21 0.91093291E-01 0.10059171E+04</pdfrwt>
<pdfrwt beam="2">  1        4 0.11594261E+00 0.10059171E+04</pdfrwt>
<totfact> 0.22220086E+01</totfact>
</mgrwt>
</event>
<event>
 6    1  0.1431486E-005  0.1013894E+04  0.7818608E-02  0.9845893E-01
         21   -1    0    0  501  502  0.00000000000E+00  0.00000000000E+00  0.14179704916E+04  0.14179704916E+04  0.00000000000E+00 0.  1.
          4   -1    0    0  502    0 -0.00000000000E+00 -0.00000000000E+00 -0.31560437257E+03  0.31560437257E+03  0.00000000000E+00 0.  1.
    9000010    2    1    2  501    0 -0.14077804949E+03 -0.53853444633E+02  0.11867106027E+04  0.15608535400E+04  0.10026280797E+04 0.  0.
        -13    1    3    3    0    0 -0.27238366926E+03 -0.29314874463E+03  0.12216607041E+04  0.12855286604E+04  0.10566000000E+00 0.  1.
          4    1    3    3  501    0  0.13160561977E+03  0.23929529999E+03 -0.34950101389E+02  0.27532487963E+03  0.00000000000E+00 0.  1.
         13    1    1    2    0    0  0.14077804949E+03  0.53853444633E+02 -0.84344483645E+02  0.17272132411E+03  0.10566000000E+00 0. -1.
<mgrwt>
<rscale>  1 0.62956760E+03</rscale>
<asrwt>0</asrwt>
<pdfrwt beam="1">  1       21 0.21814930E+00 0.10138943E+04</pdfrwt>
<pdfrwt beam="2">  1        4 0.48554520E-01 0.10138943E+04</pdfrwt>
<totfact> 0.14278449E+01</totfact>
</mgrwt>
</event>
<event>
 6    1  0.1431486E-005  0.1018358E+04  0.7818608E-02  0.9729042E-01
         21   -1    0    0  501  502  0.00000000000E+00  0.00000000000E+00  0.49581850880E+03  0.49581850880E+03  0.00000000000E+00 0.  1.
          4   -1    0    0  502    0 -0.00000000000E+00 -0.00000000000E+00 -0.92513696704E+03  0.92513696704E+03  0.00000000000E+00 0.  1.
    9000010    2    1    2  501    0  0.20772438911E+03 -0.67969985424E+02 -0.96677652006E+02  0.10229363081E+04  0.99462695584E+03 0.  0.
        -13    1    3    3    0    0 -0.35157291605E+03  0.15466905152E+03 -0.16313081364E+03  0.41729810007E+03  0.10566000000E+00 0.  1.
          4    1    3    3  501    0  0.55929730517E+03 -0.22263903694E+03  0.66453161630E+02  0.60563820803E+03  0.00000000000E+00 0.  1.
         13    1    1    2    0    0 -0.20772438911E+03  0.67969985424E+02 -0.33264080623E+03  0.39801916774E+03  0.10566000000E+00 0. -1.
<mgrwt>
<rscale>  1 0.69313669E+03</rscale>
<asrwt>0</asrwt>
<pdfrwt beam="1">  1       21 0.76279771E-01 0.10183576E+04</pdfrwt>
<pdfrwt beam="2">  1        4 0.14232876E+00 0.10183576E+04</pdfrwt>
<totfact> 0.19995154E+01</totfact>
</mgrwt>
</event>
<event>
 6    1  0.1431486E-005  0.8664027E+03  0.7818608E-02  0.9896530E-01
         21   -1    0    0  501  502  0.00000000000E+00  0.00000000000E+00  0.42514126105E+03  0.42514126105E+03  0.00000000000E+00 0.  1.
          4   -1    0    0  502    0 -0.00000000000E+00 -0.00000000000E+00 -0.75585220500E+03  0.75585220500E+03  0.00000000000E+00 0.  1.
    9000010    2    1    2  501    0  0.10935509401E+03 -0.17344697256E+03 -0.99714781365E+02  0.87212192775E+03  0.84179049077E+03 0.  0.
        -13    1    3    3    0    0  0.42867936141E+03 -0.28623616790E+03 -0.13152311633E+03  0.53197319482E+03  0.10566000000E+00 0.  1.
          4    1    3    3  501    0 -0.31932426740E+03  0.11278919535E+03  0.31808334963E+02  0.34014873292E+03  0.00000000000E+00 0.  1.
         13    1    1    2    0    0 -0.10935509401E+03  0.17344697256E+03 -0.23099616259E+03  0.30887153830E+03  0.10566000000E+00 0. -1.
<mgrwt>
<rscale>  1 0.60429748E+03</rscale>
<asrwt>0</asrwt>
<pdfrwt beam="1">  1       21 0.65406349E-01 0.86640269E+03</pdfrwt>
<pdfrwt beam="2">  1        4 0.11628495E+00 0.86640269E+03</pdfrwt>
<totfact> 0.48429987E+01</totfact>
</mgrwt>
</event>
<event>
 6    1  0.1431486E-005  0.9978194E+03  0.7818608E-02  0.9867533E-01
         21   -1    0    0  501  502  0.00000000000E+00  0.00000000000E+00  0.62409726259E+03  0.62409726259E+03  0.00000000000E+00 0.  1.
          4   -1    0    0  502    0 -0.00000000000E+00 -0.00000000000E+00 -0.56028391988E+03  0.56028391988E+03  0.00000000000E+00 0.  1.
    9000010    2    1    2  501    0 -0.12099582564E+03  0.84189501698E+02  0.15684997241E+03  0.10100720099E+04  0.98687166810E+03 0.  0.
        -13    1    3    3    0    0  0.21292486396E+02 -0.38688440416E+03 -0.16599195296E+03  0.42152847089E+03  0.10566000000E+00 0.  1.
          4    1    3    3  501    0 -0.14228831204E+03  0.47107390586E+03  0.32284192537E+03  0.58854353900E+03  0.00000000000E+00 0.  1.
         13    1    1    2    0    0  0.12099582564E+03 -0.84189501698E+02 -0.93036629704E+02  0.17430917259E+03  0.10566000000E+00 0. -1.
<mgrwt>
<rscale>  1 0.61860882E+03</rscale>
<asrwt>0</asrwt>
<pdfrwt beam="1">  1       21 0.96014963E-01 0.99781940E+03</pdfrwt>
<pdfrwt beam="2">  1        4 0.86197527E-01 0.99781940E+03</pdfrwt>
<totfact> 0.39968143E+01</totfact>
</mgrwt>
</event>
<event>
 6    1  0.1431486E-005  0.1077639E+04  0.7818608E-02  0.9500281E-01
         21   -1    0    0  501  502  0.00000000000E+00  0.00000000000E+00  0.41752582616E+03  0.41752582616E+03  0.00000000000E+00 0.  1.
          4   -1    0    0  502    0 -0.00000000000E+00 -0.00000000000E+00 -0.13155918258E+04  0.13155918258E+04  0.00000000000E+00 0.  1.
    9000010    2    1    2  501    0 -0.30401150542E+03  0.26430158336E+03 -0.61508779484E+03  0.12408220111E+04  0.99951385462E+03 0.  0.
        -13    1    3    3    0    0 -0.30700572445E+03 -0.33322377332E+03 -0.40415801862E+03  0.60715262754E+03  0.10566000000E+00 0.  1.
          4    1    3    3  501    0  0.29942190287E+01  0.59752535668E+03 -0.21092977622E+03  0.63366938361E+03  0.00000000000E+00 0.  1.
         13    1    1    2    0    0  0.30401150542E+03 -0.26430158336E+03 -0.28297820477E+03  0.49229564079E+03  0.10566000000E+00 0. -1.
<mgrwt>
<rscale>  1 0.84263134E+03</rscale>
<asrwt>0</asrwt>
<pdfrwt beam="1">  1       21 0.64234743E-01 0.10776392E+04</pdfrwt>
<pdfrwt beam="2">  1        4 0.20239874E+00 0.10776392E+04</pdfrwt>
<totfact> 0.10874217E+01</totfact>
</mgrwt>
</event>
<event>
 6    1  0.1431486E-005  0.1027865E+04  0.7818608E-02  0.9650723E-01
          4   -1    0    0  502    0 -0.00000000000E+00  0.00000000000E+00  0.14852177047E+04  0.14852177047E+04  0.00000000000E+00 0.  1.
         21   -1    0    0  501  502  0.00000000000E+00 -0.00000000000E+00 -0.67690688106E+03  0.67690688106E+03  0.00000000000E+00 0.  1.
    9000010    2    1    2  501    0 -0.30335879599E+01  0.27653563119E+03 -0.25864744403E+03  0.10599081306E+04  0.98996241695E+03 0.  0.
        -13    1    3    3    0    0 -0.43888598305E+03  0.12118550556E+03 -0.36685555266E+03  0.58471346877E+03  0.10566000000E+00 0.  1.
          4    1    3    3  501    0  0.43585239509E+03  0.15535012563E+03  0.10820810864E+03  0.47519466181E+03  0.00000000000E+00 0.  1.
         13    1    1    2    0    0  0.30335879599E+01 -0.27653563119E+03  0.10669582677E+04  0.11022164552E+04  0.10566000000E+00 0. -1.
<mgrwt>
<rscale>  1 0.74028068E+03</rscale>
<asrwt>0</asrwt>
<pdfrwt beam="2">  1       21 0.10413952E+00 0.10278651E+04</pdfrwt>
<pdfrwt beam="1">  1        4 0.22849503E+00 0.10278651E+04</pdfrwt>
<totfact> 0.23621898E+00</totfact>
</mgrwt>
</event>
<event>
 6    1  0.1431486E-005  0.1014398E+04  0.7818608E-02  0.9913654E-01
         21   -1    0    0  501  502  0.00000000000E+00  0.00000000000E+00  0.94713538802E+03  0.94713538802E+03  0.00000000000E+00 0.  1.
          4   -1    0    0  502    0 -0.00000000000E+00 -0.00000000000E+00 -0.44297406771E+03  0.44297406771E+03  0.00000000000E+00 0.  1.
    9000010    2    1    2  501    0 -0.10020231337E+03  0.67674707904E+02  0.64684395935E+03  0.12030834780E+04  0.10071655165E+04 0.  0.
        -13    1    3    3    0    0 -0.14579281621E+03 -0.45870139408E+03  0.25048899817E+03  0.54259309206E+03  0.10566000000E+00 0.  1.
          4    1    3    3  501    0  0.45590502847E+02  0.52637610198E+03  0.39635496118E+03  0.66049038595E+03  0.00000000000E+00 0.  1.
         13    1    1    2    0    0  0.10020231337E+03 -0.67674707904E+02 -0.14268263903E+03  0.18702597771E+03  0.10566000000E+00 0. -1.
<mgrwt>
<rscale>  1 0.59604086E+03</rscale>
<asrwt>0</asrwt>
<pdfrwt beam="1">  1       21 0.14571314E+00 0.10143977E+04</pdfrwt>
<pdfrwt beam="2">  1        4 0.68149857E-01 0.10143977E+04</pdfrwt>
<totfact> 0.23112289E+01</totfact>
</mgrwt>
</event>
<event>
 6    1  0.1431486E-005  0.1042327E+04  0.7818608E-02  0.9717856E-01
         21   -1    0    0  501  502  0.00000000000E+00  0.00000000000E+00  0.16050928146E+04  0.16050928146E+04  0.00000000000E+00 0.  1.
          4   -1    0    0  502    0 -0.00000000000E+00 -0.00000000000E+00 -0.24546634805E+03  0.24546634805E+03  0.00000000000E+00 0.  1.
    9000010    2    1    2  501    0 -0.17891094860E+03 -0.11294627688E+03  0.11627724951E+04  0.15615652419E+04  0.10206273269E+04 0.  0.
        -13    1    3    3    0    0  0.37149006073E+03  0.13740645619E+02  0.14783248329E+03  0.40006015153E+03  0.10566000000E+00 0.  1.
          4    1    3    3  501    0 -0.55040100933E+03 -0.12668692250E+03  0.10149400118E+04  0.11615050904E+04  0.00000000000E+00 0.  1.
         13    1    1    2    0    0  0.17891094860E+03  0.11294627688E+03  0.19685397147E+03  0.28899392076E+03  0.10566000000E+00 0. -1.
<mgrwt>
<rscale>  1 0.69963513E+03</rscale>
<asrwt>0</asrwt>
<pdfrwt beam="1">  1       21 0.24693735E+00 0.10423273E+04</pdfrwt>
<pdfrwt beam="2">  1        4 0.37764055E-01 0.10423273E+04</pdfrwt>
<totfact> 0.15524053E+01</totfact>
</mgrwt>
</event>
<event>
 6    1  0.1431486E-005  0.8919391E+03  0.7818608E-02  0.1016066E+00
          4   -1    0    0  502    0 -0.00000000000E+00  0.00000000000E+00  0.33653349715E+03  0.33653349715E+03  0.00000000000E+00 0.  1.
         21   -1    0    0  501  502  0.00000000000E+00 -0.00000000000E+00 -0.72093794980E+03  0.72093794980E+03  0.00000000000E+00 0.  1.
    9000010    2    1    2  501    0 -0.67314363655E+02  0.47052781850E+02 -0.30343449392E+03  0.94214004093E+03  0.88814986167E+03 0.  0.
        -13    1    3    3    0    0 -0.15567643137E+02  0.12950410678E+03 -0.60829120726E+03  0.62211885454E+03  0.10566000000E+00 0.  1.
          4    1    3    3  501    0 -0.51746720518E+02 -0.82451324928E+02  0.30485671334E+03  0.32002118639E+03  0.00000000000E+00 0.  1.
         13    1    1    2    0    0  0.67314363655E+02 -0.47052781850E+02 -0.80969958732E+02  0.11533140602E+03  0.10566000000E+00 0. -1.
<mgrwt>
<rscale>  1 0.49133285E+03</rscale>
<asrwt>0</asrwt>
<pdfrwt beam="2">  1       21 0.11091353E+00 0.89193910E+03</pdfrwt>
<pdfrwt beam="1">  1        4 0.51774385E-01 0.89193910E+03</pdfrwt>
<totfact> 0.87289371E+01</totfact>
</mgrwt>
</event>
<event>
 6    1  0.1431486E-005  0.8730097E+03  0.7818608E-02  0.1054348E+00
         21   -1    0    0  501  502  0.00000000000E+00  0.00000000000E+00  0.21364974286E+03  0.21364974286E+03  0.00000000000E+00 0.  1.
          4   -1    0    0  502    0 -0.00000000000E+00 -0.00000000000E+00 -0.98801774457E+03  0.98801774457E+03  0.00000000000E+00 0.  1.
    9000010    2    1    2  501    0 -0.17833676413E+02  0.22158511404E+02 -0.69040121412E+03  0.11130138230E+04  0.87254621310E+03 0.  0.
        -13    1    3    3    0    0  0.36555010298E+03  0.23491425446E+03 -0.33951386418E+03  0.55143563529E+03  0.10566000000E+00 0.  1.
          4    1    3    3  501    0 -0.38338377940E+03 -0.21275574305E+03 -0.35088734994E+03  0.56157818766E+03  0.00000000000E+00 0.  1.
         13    1    1    2    0    0  0.17833676413E+02 -0.22158511404E+02 -0.83966787596E+02  0.88653664477E+02  0.10566000000E+00 0. -1.
<mgrwt>
<rscale>  1 0.37090379E+03</rscale>
<asrwt>0</asrwt>
<pdfrwt beam="1">  1       21 0.32869191E-01 0.87300970E+03</pdfrwt>
<pdfrwt beam="2">  1        4 0.15200273E+00 0.87300970E+03</pdfrwt>
<totfact> 0.10542233E+02</totfact>
</mgrwt>
</event>
<event>
 6    1  0.1431486E-005  0.1055642E+04  0.7818608E-02  0.9622419E-01
          4   -1    0    0  502    0 -0.00000000000E+00  0.00000000000E+00  0.67606813987E+03  0.67606813987E+03  0.00000000000E+00 0.  1.
         21   -1    0    0  501  502  0.00000000000E+00 -0.00000000000E+00 -0.14537585748E+04  0.14537585748E+04  0.00000000000E+00 0.  1.
    9000010    2    1    2  501    0 -0.18845683666E+03 -0.20852802106E+03 -0.12152790710E+04  0.16097462012E+04  0.10175360913E+04 0.  0.
        -13    1    3    3    0    0  0.22404077841E+03 -0.50068186104E+03 -0.58754764879E+03  0.80379652097E+03  0.10566000000E+00 0.  1.
          4    1    3    3  501    0 -0.41249761507E+03  0.29215383998E+03 -0.62773142221E+03  0.80594968024E+03  0.00000000000E+00 0.  1.
         13    1    1    2    0    0  0.18845683666E+03  0.20852802106E+03  0.43758863609E+03  0.52008051343E+03  0.10566000000E+00 0. -1.
<mgrwt>
<rscale>  1 0.75829950E+03</rscale>
<asrwt>0</asrwt>
<pdfrwt beam="2">  1       21 0.22365516E+00 0.10556418E+04</pdfrwt>
<pdfrwt beam="1">  1        4 0.10401048E+00 0.10556418E+04</pdfrwt>
<totfact> 0.23444884E+00</totfact>
</mgrwt>
</event>
<event>
 6    1  0.1431486E-005  0.1024279E+04  0.7818608E-02  0.9723954E-01
          4   -1    0    0  502    0 -0.00000000000E+00  0.00000000000E+00  0.11481462681E+04  0.11481462681E+04  0.00000000000E+00 0.  1.
         21   -1    0    0  501  502  0.00000000000E+00 -0.00000000000E+00 -0.35287354458E+03  0.35287354458E+03  0.00000000000E+00 0.  1.
    9000010    2    1    2  501    0 -0.20083009720E+03 -0.86000672154E+02  0.51737784566E+03  0.11475308908E+04  0.10007089820E+04 0.  0.
        -13    1    3    3    0    0  0.84270424002E+02  0.20417050084E+03  0.67579770544E+03  0.71097795157E+03  0.10566000000E+00 0.  1.
          4    1    3    3  501    0 -0.28510052120E+03 -0.29017117299E+03 -0.15841985978E+03  0.43655293928E+03  0.00000000000E+00 0.  1.
         13    1    1    2    0    0  0.20083009720E+03  0.86000672154E+02  0.27789487787E+03  0.35348892184E+03  0.10566000000E+00 0. -1.
<mgrwt>
<rscale>  1 0.69608344E+03</rscale>
<asrwt>0</asrwt>
<pdfrwt beam="2">  1       21 0.54288238E-01 0.10242789E+04</pdfrwt>
<pdfrwt beam="1">  1        4 0.17663789E+00 0.10242789E+04</pdfrwt>
<totfact> 0.23805107E+01</totfact>
</mgrwt>
</event>
<event>
 6    1  0.1431486E-005  0.9853022E+03  0.7818608E-02  0.9829978E-01
         21   -1    0    0  501  502  0.00000000000E+00  0.00000000000E+00  0.66580284165E+03  0.66580284165E+03  0.00000000000E+00 0.  1.
          4   -1    0    0  502    0 -0.00000000000E+00 -0.00000000000E+00 -0.78170924283E+03  0.78170924283E+03  0.00000000000E+00 0.  1.
    9000010    2    1    2  501    0  0.12614533922E+03  0.11835355325E+03  0.27253397840E+03  0.10222990204E+04  0.97000015858E+03 0.  0.
        -13    1    3    3    0    0  0.99487758737E+02 -0.70762154524E+02 -0.35023463453E+03  0.37090350098E+03  0.10566000000E+00 0.  1.
          4    1    3    3  501    0  0.26657580487E+02  0.18911570777E+03  0.62276861293E+03  0.65139551946E+03  0.00000000000E+00 0.  1.
         13    1    1    2    0    0 -0.12614533922E+03 -0.11835355325E+03 -0.38844037958E+03  0.42521306404E+03  0.10566000000E+00 0. -1.
<mgrwt>
<rscale>  1 0.63778266E+03</rscale>
<asrwt>0</asrwt>
<pdfrwt beam="1">  1       21 0.10243121E+00 0.98530225E+03</pdfrwt>
<pdfrwt beam="2">  1        4 0.12026296E+00 0.98530225E+03</pdfrwt>
<totfact> 0.15232700E+01</totfact>
</mgrwt>
</event>
<event>
 6    1  0.1431486E-005  0.9854201E+03  0.7818608E-02  0.1025046E+00
          4   -1    0    0  502    0 -0.00000000000E+00  0.00000000000E+00  0.33299672058E+03  0.33299672058E+03  0.00000000000E+00 0.  1.
         21   -1    0    0  501  502  0.00000000000E+00 -0.00000000000E+00 -0.91360348996E+03  0.91360348996E+03  0.00000000000E+00 0.  1.
    9000010    2    1    2  501    0  0.33119742716E+02  0.32526516449E+02 -0.63713528498E+03  0.11734539470E+04  0.98432611606E+03 0.  0.
        -13    1    3    3    0    0 -0.34157217394E+03 -0.31172574354E+03 -0.40278674883E+03  0.61325497584E+03  0.10566000000E+00 0.  1.
          4    1    3    3  501    0  0.37469191665E+03  0.34425225999E+03 -0.23434853615E+03  0.56019897117E+03  0.00000000000E+00 0.  1.
         13    1    1    2    0    0 -0.33119742716E+02 -0.32526516449E+02  0.56528515597E+02  0.73146263538E+02  0.10566000000E+00 0. -1.
<mgrwt>
<rscale>  1 0.45908650E+03</rscale>
<asrwt>0</asrwt>
<pdfrwt beam="2">  1       21 0.14055438E+00 0.98542011E+03</pdfrwt>
<pdfrwt beam="1">  1        4 0.51230265E-01 0.98542011E+03</pdfrwt>
<totfact> 0.47571214E+01</totfact>
</mgrwt>
</event>
<event>
 6    1  0.1431486E-005  0.1107367E+04  0.7818608E-02  0.9430439E-01
          4   -1    0    0  502    0 -0.00000000000E+00  0.00000000000E+00  0.16548074131E+04  0.16548074131E+04  0.00000000000E+00 0.  1.
         21   -1    0    0  501  502  0.00000000000E+00 -0.00000000000E+00 -0.38025423857E+03  0.38025423857E+03  0.00000000000E+00 0.  1.
    9000010    2    1    2  501    0  0.18925350497E+03  0.43555561026E+03  0.95883010561E+03  0.14647927272E+04  0.10003684239E+04 0.  0.
        -13    1    3    3    0    0  0.25629022993E+03 -0.26741856999E+03  0.50156152845E+03  0.62350729869E+03  0.10566000000E+00 0.  1.
          4    1    3    3  501    0 -0.67036724959E+02  0.70297418025E+03  0.45726857715E+03  0.84128542852E+03  0.00000000000E+00 0.  1.
         13    1    1    2    0    0 -0.18925350497E+03 -0.43555561026E+03  0.31572306889E+03  0.57026892442E+03  0.10566000000E+00 0. -1.
<mgrwt>
<rscale>  1 0.89612446E+03</rscale>
<asrwt>0</asrwt>
<pdfrwt beam="2">  1       21 0.58500653E-01 0.11073674E+04</pdfrwt>
<pdfrwt beam="1">  1        4 0.25458575E+00 0.11073674E+04</pdfrwt>
<totfact> 0.62337891E+00</totfact>
</mgrwt>
</event>
<event>
 6    1  0.1431486E-005  0.1084313E+04  0.7818608E-02  0.9503123E-01
         21   -1    0    0  501  502  0.00000000000E+00  0.00000000000E+00  0.16236342625E+04  0.16236342625E+04  0.00000000000E+00 0.  1.
          4   -1    0    0  502    0 -0.00000000000E+00 -0.00000000000E+00 -0.59341395839E+03  0.59341395839E+03  0.00000000000E+00 0.  1.
    9000010    2    1    2  501    0 -0.29176817262E+02 -0.39044485485E+03  0.13357201282E+04  0.17204310394E+04  0.10111558877E+04 0.  0.
        -13    1    3    3    0    0 -0.51676546026E+02  0.10181592344E+03  0.12052912291E+04  0.12106873692E+04  0.10566000000E+00 0.  1.
          4    1    3    3  501    0  0.22499728764E+02 -0.49226077830E+03  0.13042889904E+03  0.50974367024E+03  0.00000000000E+00 0.  1.
         13    1    1    2    0    0  0.29176817262E+02  0.39044485485E+03 -0.30549982402E+03  0.49661718153E+03  0.10566000000E+00 0. -1.
<mgrwt>
<rscale>  1 0.84053970E+03</rscale>
<asrwt>0</asrwt>
<pdfrwt beam="1">  1       21 0.24978989E+00 0.10843130E+04</pdfrwt>
<pdfrwt beam="2">  1        4 0.91294456E-01 0.10843130E+04</pdfrwt>
<totfact> 0.21625017E+00</totfact>
</mgrwt>
</event>
<event>
 6    1  0.1431486E-005  0.1051017E+04  0.7818608E-02  0.9706891E-01
         21   -1    0    0  501  502  0.00000000000E+00  0.00000000000E+00  0.32904857970E+03  0.32904857970E+03  0.00000000000E+00 0.  1.
          4   -1    0    0  502    0 -0.00000000000E+00 -0.00000000000E+00 -0.20164258016E+04  0.20164258016E+04  0.00000000000E+00 0.  1.
    9000010    2    1    2  501    0 -0.13398984428E+03 -0.16697066229E+03 -0.54635511881E+03  0.11845420270E+04  0.10289817381E+04 0.  0.
        -13    1    3    3    0    0  0.34076079229E+03  0.22129755830E+03 -0.36186172244E+03  0.54409047428E+03  0.10566000000E+00 0.  1.
          4    1    3    3  501    0 -0.47475063656E+03 -0.38826822059E+03 -0.18449339638E+03  0.64045155269E+03  0.00000000000E+00 0.  1.
         13    1    1    2    0    0  0.13398984428E+03  0.16697066229E+03 -0.11410221031E+04  0.11609323544E+04  0.10566000000E+00 0. -1.
<mgrwt>
<rscale>  1 0.70607993E+03</rscale>
<asrwt>0</asrwt>
<pdfrwt beam="1">  1       21 0.50622858E-01 0.10510166E+04</pdfrwt>
<pdfrwt beam="2">  1        4 0.31021936E+00 0.10510166E+04</pdfrwt>
<totfact> 0.39056368E+00</totfact>
</mgrwt>
</event>
<event>
 6    1  0.1431486E-005  0.1017169E+04  0.7818608E-02  0.9684834E-01
          4   -1    0    0  502    0 -0.00000000000E+00  0.00000000000E+00  0.49114825668E+03  0.49114825668E+03  0.00000000000E+00 0.  1.
         21   -1    0    0  501  502  0.00000000000E+00 -0.00000000000E+00 -0.10074745854E+04  0.10074745854E+04  0.00000000000E+00 0. -1.
    9000010    2    1    2  501    0 -0.25090980268E+03 -0.41538168887E+02 -0.11520673410E+03  0.10236722247E+04  0.98486094631E+03 0.  0.
        -13    1    3    3    0    0 -0.19795064724E+03 -0.27326161641E+03 -0.48092784188E+03  0.58749295316E+03  0.10566000000E+00 0.  1.
          4    1    3    3  501    0 -0.52959155440E+02  0.23172344753E+03  0.36572110778E+03  0.43617927158E+03  0.00000000000E+00 0.  1.
         13    1    1    2    0    0  0.25090980268E+03  0.41538168887E+02 -0.40111959464E+03  0.47495061735E+03  0.10566000000E+00 0. -1.
<mgrwt>
<rscale>  1 0.71927014E+03</rscale>
<asrwt>0</asrwt>
<pdfrwt beam="2">  1       21 0.15499609E+00 0.10171687E+04</pdfrwt>
<pdfrwt beam="1">  1        4 0.75561271E-01 0.10171687E+04</pdfrwt>
<totfact> 0.15417958E+01</totfact>
</mgrwt>
</event>
<event>
 6    1  0.1431486E-005  0.1016326E+04  0.7818608E-02  0.9676693E-01
          4   -1    0    0  502    0 -0.00000000000E+00  0.00000000000E+00  0.78369608370E+03  0.78369608370E+03  0.00000000000E+00 0.  1.
         21   -1    0    0  501  502  0.00000000000E+00 -0.00000000000E+00 -0.53153961214E+03  0.53153961214E+03  0.00000000000E+00 0. -1.
    9000010    2    1    2  501    0 -0.63343040253E+02  0.25427187218E+03  0.27303350373E+03  0.10523623663E+04  0.98196371122E+03 0.  0.
        -13    1    3    3    0    0 -0.26809841145E+03  0.31019530096E+03  0.56085862716E+03  0.69473757188E+03  0.10566000000E+00 0.  1.
          4    1    3    3  501    0  0.20475537120E+03 -0.55923428775E+02 -0.28782512343E+03  0.35762479444E+03  0.00000000000E+00 0.  1.
         13    1    1    2    0    0  0.63343040253E+02 -0.25427187218E+03 -0.20877032171E+02  0.26287332951E+03  0.10566000000E+00 0. -1.
<mgrwt>
<rscale>  1 0.72421595E+03</rscale>
<asrwt>0</asrwt>
<pdfrwt beam="2">  1       21 0.81775325E-01 0.10163264E+04</pdfrwt>
<pdfrwt beam="1">  1        4 0.12056863E+00 0.10163264E+04</pdfrwt>
<totfact> 0.26056218E+01</totfact>
</mgrwt>
</event>
<event>
 6    1  0.1431486E-005  0.1023247E+04  0.7818608E-02  0.9747947E-01
          4   -1    0    0  502    0 -0.00000000000E+00  0.00000000000E+00  0.41738713280E+03  0.41738713280E+03  0.00000000000E+00 0.  1.
         21   -1    0    0  501  502  0.00000000000E+00 -0.00000000000E+00 -0.97189291748E+03  0.97189291748E+03  0.00000000000E+00 0.  1.
    9000010    2    1    2  501    0 -0.25415141060E+02  0.20070871576E+03 -0.59398285333E+03  0.11831529825E+04  0.10030480706E+04 0.  0.
        -13    1    3    3    0    0  0.29642286347E+03  0.50128119568E+03 -0.31960593473E+03  0.66430212690E+03  0.10566000000E+00 0.  1.
          4    1    3    3  501    0 -0.32183800453E+03 -0.30057247992E+03 -0.27437691860E+03  0.51885085555E+03  0.00000000000E+00 0.  1.
         13    1    1    2    0    0  0.25415141060E+02 -0.20070871576E+03  0.39477068651E+02  0.20612706783E+03  0.10566000000E+00 0. -1.
<mgrwt>
<rscale>  1 0.68232397E+03</rscale>
<asrwt>0</asrwt>
<pdfrwt beam="2">  1       21 0.14952199E+00 0.10232475E+04</pdfrwt>
<pdfrwt beam="1">  1        4 0.64213406E-01 0.10232475E+04</pdfrwt>
<totfact> 0.24527392E+01</totfact>
</mgrwt>
</event>
<event>
 6    1  0.1431486E-005  0.9891616E+03  0.7818608E-02  0.9809733E-01
          4   -1    0    0  502    0 -0.00000000000E+00  0.00000000000E+00  0.17185598684E+03  0.17185598684E+03  0.00000000000E+00 0.  1.
         21   -1    0    0  501  502  0.00000000000E+00 -0.00000000000E+00 -0.20304948576E+04  0.20304948576E+04  0.00000000000E+00 0.  1.
    9000010    2    1    2  501    0  0.29530912771E+02  0.18025807117E+03 -0.16610319686E+04  0.19332531931E+04  0.97215001964E+03 0.  0.
        -13    1    3    3    0    0  0.45151161843E+03  0.21275519771E+03 -0.54175771824E+03  0.73663352636E+03  0.10566000000E+00 0.  1.
          4    1    3    3  501    0 -0.42198070565E+03 -0.32497126539E+02 -0.11192742504E+04  0.11966196667E+04  0.00000000000E+00 0.  1.
         13    1    1    2    0    0 -0.29530912771E+02 -0.18025807117E+03 -0.19760690210E+03  0.26909765133E+03  0.10566000000E+00 0. -1.
<mgrwt>
<rscale>  1 0.64842825E+03</rscale>
<asrwt>0</asrwt>
<pdfrwt beam="2">  1       21 0.31238381E+00 0.98916162E+03</pdfrwt>
<pdfrwt beam="1">  1        4 0.26439384E-01 0.98916162E+03</pdfrwt>
<totfact> 0.12308897E+01</totfact>
</mgrwt>
</event>
<event>
 6    1  0.1431486E-005  0.1056366E+04  0.7818608E-02  0.9580979E-01
         21   -1    0    0  501  502  0.00000000000E+00  0.00000000000E+00  0.21727538321E+03  0.21727538321E+03  0.00000000000E+00 0. -1.
          4   -1    0    0  502    0 -0.00000000000E+00 -0.00000000000E+00 -0.23282689088E+04  0.23282689088E+04  0.00000000000E+00 0.  1.
    9000010    2    1    2  501    0 -0.11741643970E+03  0.30117160067E+03 -0.18488633921E+04  0.21293674409E+04  0.10056932447E+04 0.  0.
        -13    1    3    3    0    0  0.22359662009E+03  0.55359988857E+03 -0.13388966714E+04  0.14659851954E+04  0.10566000000E+00 0.  1.
          4    1    3    3  501    0 -0.34101305979E+03 -0.25242828790E+03 -0.50996672064E+03  0.66338224550E+03  0.00000000000E+00 0.  1.
         13    1    1    2    0    0  0.11741643970E+03 -0.30117160067E+03 -0.26213013355E+03  0.41617685116E+03  0.10566000000E+00 0. -1.
<mgrwt>
<rscale>  1 0.78568021E+03</rscale>
<asrwt>0</asrwt>
<pdfrwt beam="1">  1       21 0.33426985E-01 0.10563663E+04</pdfrwt>
<pdfrwt beam="2">  1        4 0.35819519E+00 0.10563663E+04</pdfrwt>
<totfact> 0.46223359E+00</totfact>
</mgrwt>
</event>
<event>
 6    1  0.1431486E-005  0.1173768E+04  0.7818608E-02  0.9318560E-01
          4   -1    0    0  502    0 -0.00000000000E+00  0.00000000000E+00  0.13070569713E+04  0.13070569713E+04  0.00000000000E+00 0.  1.
         21   -1    0    0  501  502  0.00000000000E+00 -0.00000000000E+00 -0.61977864801E+03  0.61977864801E+03  0.00000000000E+00 0.  1.
    9000010    2    1    2  501    0  0.41040508751E+03  0.43249012865E+03  0.28586175558E+03  0.12080760495E+04  0.10110641675E+04 0.  0.
        -13    1    3    3    0    0 -0.13594886142E+03  0.58974362244E+03  0.15117826388E+03  0.62380646980E+03  0.10566000000E+00 0.  1.
          4    1    3    3  501    0  0.54635394893E+03 -0.15725349379E+03  0.13468349170E+03  0.58426957969E+03  0.00000000000E+00 0.  1.
         13    1    1    2    0    0 -0.41040508751E+03 -0.43249012865E+03  0.40141656773E+03  0.71875956985E+03  0.10566000000E+00 0. -1.
<mgrwt>
<rscale>  1 0.99091988E+03</rscale>
<asrwt>0</asrwt>
<pdfrwt beam="2">  1       21 0.95350561E-01 0.11737678E+04</pdfrwt>
<pdfrwt beam="1">  1        4 0.20108569E+00 0.11737678E+04</pdfrwt>
<totfact> 0.43366868E+00</totfact>
</mgrwt>
</event>
<event>
 6    1  0.1431486E-005  0.9001738E+03  0.7818608E-02  0.1021048E+00
          4   -1    0    0  502    0 -0.00000000000E+00  0.00000000000E+00  0.97713339607E+03  0.97713339607E+03  0.00000000000E+00 0.  1.
         21   -1    0    0  501  502  0.00000000000E+00 -0.00000000000E+00 -0.36232942102E+03  0.36232942102E+03  0.00000000000E+00 0.  1.
    9000010    2    1    2  501    0 -0.33844930357E+02  0.59763047663E+02  0.20405601570E+03  0.92301234170E+03  0.89754990069E+03 0.  0.
        -13    1    3    3    0    0 -0.40421163788E+03  0.89653851020E+02  0.33128902914E+03  0.53026153282E+03  0.10566000000E+00 0.  1.
          4    1    3    3  501    0  0.37036670752E+03 -0.29890803357E+02 -0.12723301344E+03  0.39275080888E+03  0.00000000000E+00 0.  1.
         13    1    1    2    0    0  0.33844930357E+02 -0.59763047663E+02  0.41074795935E+03  0.41645047539E+03  0.10566000000E+00 0. -1.
<mgrwt>
<rscale>  1 0.47310149E+03</rscale>
<asrwt>0</asrwt>
<pdfrwt beam="2">  1       21 0.55742988E-01 0.90017383E+03</pdfrwt>
<pdfrwt beam="1">  1        4 0.15032821E+00 0.90017383E+03</pdfrwt>
<totfact> 0.35534492E+01</totfact>
</mgrwt>
</event>
<event>
 6    1  0.1431486E-005  0.1009270E+04  0.7818608E-02  0.1006857E+00
         21   -1    0    0  501  502  0.00000000000E+00  0.00000000000E+00  0.43409465062E+03  0.43409465062E+03  0.00000000000E+00 0.  1.
          4   -1    0    0  502    0 -0.00000000000E+00 -0.00000000000E+00 -0.77983302719E+03  0.77983302719E+03  0.00000000000E+00 0.  1.
    9000010    2    1    2  501    0 -0.98681625812E+01 -0.74623841973E+02 -0.17098340158E+03  0.10236504830E+04  0.10064585880E+04 0.  0.
        -13    1    3    3    0    0  0.44572606147E+03  0.14277578600E+03  0.53690759276E+02  0.47110440004E+03  0.10566000000E+00 0.  1.
          4    1    3    3  501    0 -0.45559422405E+03 -0.21739962797E+03 -0.22467416085E+03  0.55254608295E+03  0.00000000000E+00 0.  1.
         13    1    1    2    0    0  0.98681625812E+01  0.74623841973E+02 -0.17475497499E+03  0.19027719483E+03  0.10566000000E+00 0. -1.
<mgrwt>
<rscale>  1 0.52743141E+03</rscale>
<asrwt>0</asrwt>
<pdfrwt beam="1">  1       21 0.66783793E-01 0.10092695E+04</pdfrwt>
<pdfrwt beam="2">  1        4 0.11997431E+00 0.10092695E+04</pdfrwt>
<totfact> 0.42203352E+01</totfact>
</mgrwt>
</event>
<event>
 6    1  0.1431486E-005  0.1093195E+04  0.7818608E-02  0.9365573E-01
          4   -1    0    0  502    0 -0.00000000000E+00  0.00000000000E+00  0.10564989960E+04  0.10564989960E+04  0.00000000000E+00 0.  1.
         21   -1    0    0  501  502  0.00000000000E+00 -0.00000000000E+00 -0.69760118103E+03  0.69760118103E+03  0.00000000000E+00 0. -1.
    9000010    2    1    2  501    0 -0.14470675554E+03  0.60544894159E+03  0.19586026941E+03  0.11106021441E+04  0.89864754564E+03 0.  0.
        -13    1    3    3    0    0 -0.12999045394E+03 -0.88866945871E+02  0.36353739450E+03  0.39617458342E+03  0.10566000000E+00 0.  1.
          4    1    3    3  501    0 -0.14716301606E+02  0.69431588746E+03 -0.16767712510E+03  0.71442756064E+03  0.00000000000E+00 0.  1.
         13    1    1    2    0    0  0.14470675554E+03 -0.60544894159E+03  0.16303754554E+03  0.64349803294E+03  0.10566000000E+00 0. -1.
<mgrwt>
<rscale>  1 0.94963881E+03</rscale>
<asrwt>0</asrwt>
<pdfrwt beam="2">  1       21 0.10732326E+00 0.10931953E+04</pdfrwt>
<pdfrwt beam="1">  1        4 0.16253831E+00 0.10931953E+04</pdfrwt>
<totfact> 0.60540089E+00</totfact>
</mgrwt>
</event>
<event>
 6    1  0.1431486E-005  0.1015386E+04  0.7818608E-02  0.9930183E-01
         21   -1    0    0  501  502  0.00000000000E+00  0.00000000000E+00  0.86984401002E+03  0.86984401002E+03  0.00000000000E+00 0.  1.
          4   -1    0    0  502    0 -0.00000000000E+00 -0.00000000000E+00 -0.46457293183E+03  0.46457293183E+03  0.00000000000E+00 0.  1.
    9000010    2    1    2  501    0 -0.32805111885E+02  0.10953924822E+03  0.54616989871E+03  0.11529575496E+04  0.10089274159E+04 0.  0.
        -13    1    3    3    0    0  0.20027955984E+03 -0.20505118568E+03  0.68099934900E+03  0.73886264985E+03  0.10566000000E+00 0.  1.
          4    1    3    3  501    0 -0.23308467173E+03  0.31459043390E+03 -0.13482945029E+03  0.41409489971E+03  0.00000000000E+00 0.  1.
         13    1    1    2    0    0  0.32805111885E+02 -0.10953924822E+03 -0.14089882051E+03  0.18145939230E+03  0.10566000000E+00 0. -1.
<mgrwt>
<rscale>  1 0.58820520E+03</rscale>
<asrwt>0</asrwt>
<pdfrwt beam="1">  1       21 0.13382216E+00 0.10153864E+04</pdfrwt>
<pdfrwt beam="2">  1        4 0.71472759E-01 0.10153864E+04</pdfrwt>
<totfact> 0.26191144E+01</totfact>
</mgrwt>
</event>
<event>
 6    1  0.1431486E-005  0.1023769E+04  0.7818608E-02  0.9717646E-01
          4   -1    0    0  502    0 -0.00000000000E+00  0.00000000000E+00  0.56403942245E+03  0.56403942245E+03  0.00000000000E+00 0.  1.
         21   -1    0    0  501  502  0.00000000000E+00 -0.00000000000E+00 -0.75647290850E+03  0.75647290850E+03  0.00000000000E+00 0.  1.
    9000010    2    1    2  501    0  0.71945982667E+02 -0.21155313554E+03 -0.30779568336E+03  0.10690378764E+04  0.99908600472E+03 0.  0.
        -13    1    3    3    0    0  0.42655453576E+03 -0.33284424664E+03  0.59468855145E+02  0.54430746862E+03  0.10566000000E+00 0.  1.
          4    1    3    3  501    0 -0.35460855309E+03  0.12129111110E+03 -0.36726453851E+03  0.52473040774E+03  0.00000000000E+00 0.  1.
         13    1    1    2    0    0 -0.71945982667E+02  0.21155313554E+03  0.11536219732E+03  0.25147445460E+03  0.10566000000E+00 0. -1.
<mgrwt>
<rscale>  1 0.69975797E+03</rscale>
<asrwt>0</asrwt>
<pdfrwt beam="2">  1       21 0.11638045E+00 0.10237694E+04</pdfrwt>
<pdfrwt beam="1">  1        4 0.86775296E-01 0.10237694E+04</pdfrwt>
<totfact> 0.24214513E+01</totfact>
</mgrwt>
</event>
<event>
 6    1  0.1431486E-005  0.1075986E+04  0.7818608E-02  0.9674633E-01
         21   -1    0    0  501  502  0.00000000000E+00  0.00000000000E+00  0.11015092503E+04  0.11015092503E+04  0.00000000000E+00 0.  1.
          4   -1    0    0  502    0 -0.00000000000E+00 -0.00000000000E+00 -0.39837866924E+03  0.39837866924E+03  0.00000000000E+00 0.  1.
    9000010    2    1    2  501    0  0.15162661304E+03  0.16265285205E+03  0.68771568704E+03  0.12769883678E+04  0.10527582083E+04 0.  0.
        -13    1    3    3    0    0  0.97975374385E+02  0.58985163092E+03  0.20965790333E+03  0.63362494275E+03  0.10566000000E+00 0.  1.
          4    1    3    3  501    0  0.53651238653E+02 -0.42719877888E+03  0.47805778372E+03  0.64336342502E+03  0.00000000000E+00 0.  1.
         13    1    1    2    0    0 -0.15162661304E+03 -0.16265285205E+03  0.15414894019E+02  0.22289955177E+03  0.10566000000E+00 0. -1.
<mgrwt>
<rscale>  1 0.72547439E+03</rscale>
<asrwt>0</asrwt>
<pdfrwt beam="1">  1       21 0.16946296E+00 0.10759863E+04</pdfrwt>
<pdfrwt beam="2">  1        4 0.61289026E-01 0.10759863E+04</pdfrwt>
<totfact> 0.18895401E+01</totfact>
</mgrwt>
</event>
<event>
 6    1  0.1431486E-005  0.1063179E+04  0.7818608E-02  0.9542355E-01
          4   -1    0    0  502    0 -0.00000000000E+00  0.00000000000E+00  0.17079042170E+04  0.17079042170E+04  0.00000000000E+00 0.  1.
         21   -1    0    0  501  502  0.00000000000E+00 -0.00000000000E+00 -0.30789799471E+03  0.30789799471E+03  0.00000000000E+00 0. -1.
    9000010    2    1    2  501    0 -0.35856110235E+03  0.52025139005E+02  0.86990400437E+03  0.13737110563E+04  0.99953809846E+03 0.  0.
        -13    1    3    3    0    0 -0.17901246040E+03  0.52568209860E+03  0.42087468378E+03  0.69679454675E+03  0.10566000000E+00 0.  1.
          4    1    3    3  501    0 -0.17954864195E+03 -0.47365695959E+03  0.44902932059E+03  0.67691650958E+03  0.00000000000E+00 0.  1.
         13    1    1    2    0    0  0.35856110235E+03 -0.52025139005E+02  0.53010221790E+03  0.64209115536E+03  0.10566000000E+00 0. -1.
<mgrwt>
<rscale>  1 0.81231883E+03</rscale>
<asrwt>0</asrwt>
<pdfrwt beam="2">  1       21 0.47368923E-01 0.10631788E+04</pdfrwt>
<pdfrwt beam="1">  1        4 0.26275449E+00 0.10631788E+04</pdfrwt>
<totfact> 0.88452388E+00</totfact>
</mgrwt>
</event>
<event>
 6    1  0.1431486E-005  0.1012329E+04  0.7818608E-02  0.9765643E-01
          4   -1    0    0  502    0 -0.00000000000E+00  0.00000000000E+00  0.16351475580E+04  0.16351475580E+04  0.00000000000E+00 0.  1.
         21   -1    0    0  501  502  0.00000000000E+00 -0.00000000000E+00 -0.22703936878E+03  0.22703936878E+03  0.00000000000E+00 0.  1.
    9000010    2    1    2  501    0  0.19671556785E+03 -0.11102716640E+02  0.10864935109E+04  0.14850181351E+04  0.99297050680E+03 0.  0.
        -13    1    3    3    0    0  0.73103215301E+02 -0.24273497913E+03 -0.97990921940E+02  0.27178407262E+03  0.10566000000E+00 0.  1.
          4    1    3    3  501    0  0.12361235255E+03  0.23163226249E+03  0.11844844328E+04  0.12132340625E+04  0.00000000000E+00 0.  1.
         13    1    1    2    0    0 -0.19671556785E+03  0.11102716640E+02  0.32161467838E+03  0.37716879174E+03  0.10566000000E+00 0. -1.
<mgrwt>
<rscale>  1 0.67239384E+03</rscale>
<asrwt>0</asrwt>
<pdfrwt beam="2">  1       21 0.34929135E-01 0.10123293E+04</pdfrwt>
<pdfrwt beam="1">  1        4 0.25156116E+00 0.10123293E+04</pdfrwt>
<totfact> 0.19781036E+01</totfact>
</mgrwt>
</event>
<event>
 6    1  0.1431486E-005  0.1077151E+04  0.7818608E-02  0.9549231E-01
         21   -1    0    0  501  502  0.00000000000E+00  0.00000000000E+00  0.47114182610E+03  0.47114182610E+03  0.00000000000E+00 0.  1.
          4   -1    0    0  502    0 -0.00000000000E+00 -0.00000000000E+00 -0.10831945481E+04  0.10831945481E+04  0.00000000000E+00 0.  1.
    9000010    2    1    2  501    0 -0.30865476717E+03 -0.14305941088E+03 -0.37863144710E+03  0.11417600018E+04  0.10220177927E+04 0.  0.
        -13    1    3    3    0    0  0.82997649677E+02 -0.33060337959E+02  0.32059176208E+03  0.33280727888E+03  0.10566000000E+00 0.  1.
          4    1    3    3  501    0 -0.39165241684E+03 -0.10999907292E+03 -0.69922320919E+03  0.80895272292E+03  0.00000000000E+00 0.  1.
         13    1    1    2    0    0  0.30865476717E+03  0.14305941088E+03 -0.23342127494E+03  0.41257637244E+03  0.10566000000E+00 0. -1.
<mgrwt>
<rscale>  1 0.80749517E+03</rscale>
<asrwt>0</asrwt>
<pdfrwt beam="1">  1       21 0.72483358E-01 0.10771509E+04</pdfrwt>
<pdfrwt beam="2">  1        4 0.16664532E+00 0.10771509E+04</pdfrwt>
<totfact> 0.14579202E+01</totfact>
</mgrwt>
</event>
<event>
 6    1  0.1431486E-005  0.1033523E+04  0.7818608E-02  0.9657637E-01
         21   -1    0    0  501  502  0.00000000000E+00  0.00000000000E+00  0.65168125142E+03  0.65168125142E+03  0.00000000000E+00 0.  1.
          4   -1    0    0  502    0 -0.00000000000E+00 -0.00000000000E+00 -0.83423217232E+03  0.83423217232E+03  0.00000000000E+00 0.  1.
    9000010    2    1    2  501    0 -0.24518060382E+03 -0.10248999184E+03  0.16688576754E+03  0.10469103061E+04  0.99877555170E+03 0.  0.
        -13    1    3    3    0    0  0.15510417230E+03 -0.45588898631E+03  0.17644519782E+03  0.51285962124E+03  0.10566000000E+00 0.  1.
          4    1    3    3  501    0 -0.40028477611E+03  0.35339899447E+03 -0.95594302795E+01  0.53405068485E+03  0.00000000000E+00 0.  1.
         13    1    1    2    0    0  0.24518060382E+03  0.10248999184E+03 -0.34943668844E+03  0.43900311765E+03  0.10566000000E+00 0. -1.
<mgrwt>
<rscale>  1 0.73596035E+03</rscale>
<asrwt>0</asrwt>
<pdfrwt beam="1">  1       21 0.10025865E+00 0.10335233E+04</pdfrwt>
<pdfrwt beam="2">  1        4 0.12834341E+00 0.10335233E+04</pdfrwt>
<totfact> 0.13550753E+01</totfact>
</mgrwt>
</event>
<event>
 6    1  0.1431486E-005  0.1059274E+04  0.7818608E-02  0.9601359E-01
         21   -1    0    0  501  502  0.00000000000E+00  0.00000000000E+00  0.37090764582E+03  0.37090764582E+03  0.00000000000E+00 0.  1.
          4   -1    0    0  502    0 -0.00000000000E+00 -0.00000000000E+00 -0.12454066072E+04  0.12454066072E+04  0.00000000000E+00 0.  1.
    9000010    2    1    2  501    0 -0.11467886704E+03 -0.27607003329E+03 -0.70850739535E+03  0.12743798777E+04  0.10162162357E+04 0.  0.
        -13    1    3    3    0    0 -0.32654637624E+03 -0.27256132323E+03 -0.89574874510E+03  0.99160881212E+03  0.10566000000E+00 0.  1.
          4    1    3    3  501    0  0.21186750920E+03 -0.35087100526E+01  0.18724134975E+03  0.28277106563E+03  0.00000000000E+00 0.  1.
         13    1    1    2    0    0  0.11467886704E+03  0.27607003329E+03 -0.16599156600E+03  0.34193437524E+03  0.10566000000E+00 0. -1.
<mgrwt>
<rscale>  1 0.77206305E+03</rscale>
<asrwt>0</asrwt>
<pdfrwt beam="1">  1       21 0.57062715E-01 0.10592740E+04</pdfrwt>
<pdfrwt beam="2">  1        4 0.19160101E+00 0.10592740E+04</pdfrwt>
<totfact> 0.16761743E+01</totfact>
</mgrwt>
</event>
<event>
 6    1  0.1431486E-005  0.1056207E+04  0.7818608E-02  0.9561666E-01
         21   -1    0    0  501  502  0.00000000000E+00  0.00000000000E+00  0.63338441682E+03  0.63338441682E+03  0.00000000000E+00 0.  1.
          4   -1    0    0  502    0 -0.00000000000E+00 -0.00000000000E+00 -0.11202448932E+04  0.11202448932E+04  0.00000000000E+00 0.  1.
    9000010    2    1    2  501    0 -0.28807202499E+03 -0.19102370765E+03  0.11204776583E+03  0.10621333648E+04  0.99804660933E+03 0.  0.
        -13    1    3    3    0    0  0.23338680896E+03  0.19609117108E+03 -0.17565338277E+03  0.35181710023E+03  0.10566000000E+00 0.  1.
          4    1    3    3  501    0 -0.52145883395E+03 -0.38711487872E+03  0.28770114860E+03  0.71031626459E+03  0.00000000000E+00 0.  1.
         13    1    1    2    0    0  0.28807202499E+03  0.19102370765E+03 -0.59890824226E+03  0.69149594524E+03  0.10566000000E+00 0. -1.
<mgrwt>
<rscale>  1 0.79886165E+03</rscale>
<asrwt>0</asrwt>
<pdfrwt beam="1">  1       21 0.97443758E-01 0.10562067E+04</pdfrwt>
<pdfrwt beam="2">  1        4 0.17234536E+00 0.10562067E+04</pdfrwt>
<totfact> 0.65666865E+00</totfact>
</mgrwt>
</event>
<event>
 6    1  0.1431486E-005  0.9550742E+03  0.7818608E-02  0.1024363E+00
          4   -1    0    0  502    0 -0.00000000000E+00  0.00000000000E+00  0.10578221625E+04  0.10578221625E+04  0.00000000000E+00 0.  1.
         21   -1    0    0  501  502  0.00000000000E+00 -0.00000000000E+00 -0.29509743985E+03  0.29509743985E+03  0.00000000000E+00 0.  1.
    9000010    2    1    2  501    0  0.37650650257E+02 -0.35929932305E+02  0.48651684355E+03  0.10718513986E+04  0.95365520509E+03 0.  0.
        -13    1    3    3    0    0  0.18920153546E+03  0.51352208466E+02 -0.24838179099E+03  0.31642976408E+03  0.10566000000E+00 0.  1.
          4    1    3    3  501    0 -0.15155088520E+03 -0.87282140770E+02  0.73489863454E+03  0.75542163455E+03  0.00000000000E+00 0.  1.
         13    1    1    2    0    0 -0.37650650257E+02  0.35929932305E+02  0.27620787910E+03  0.28106820371E+03  0.10566000000E+00 0. -1.
<mgrwt>
<rscale>  1 0.46144485E+03</rscale>
<asrwt>0</asrwt>
<pdfrwt beam="2">  1       21 0.45399607E-01 0.95507423E+03</pdfrwt>
<pdfrwt beam="1">  1        4 0.16274187E+00 0.95507423E+03</pdfrwt>
<totfact> 0.44390499E+01</totfact>
</mgrwt>
</event>
<event>
 6    1  0.1431486E-005  0.1056832E+04  0.7818608E-02  0.9474638E-01
         21   -1    0    0  501  502  0.00000000000E+00  0.00000000000E+00  0.97881935970E+03  0.97881935970E+03  0.00000000000E+00 0.  1.
          4   -1    0    0  502    0 -0.00000000000E+00 -0.00000000000E+00 -0.64157020144E+03  0.64157020144E+03  0.00000000000E+00 0.  1.
    9000010    2    1    2  501    0  0.26301135168E+03 -0.38626514351E+03  0.43519214779E+03  0.11429290156E+04  0.94790231404E+03 0.  0.
        -13    1    3    3    0    0  0.80406406478E+02  0.14632868282E+03  0.54438168029E+03  0.56941083465E+03  0.10566000000E+00 0.  1.
          4    1    3    3  501    0  0.18260494520E+03 -0.53259382633E+03 -0.10918953250E+03  0.57351818094E+03  0.00000000000E+00 0.  1.
         13    1    1    2    0    0 -0.26301135168E+03  0.38626514351E+03 -0.97942989530E+02  0.47746054556E+03  0.10566000000E+00 0. -1.
<mgrwt>
<rscale>  1 0.86179726E+03</rscale>
<asrwt>0</asrwt>
<pdfrwt beam="1">  1       21 0.15058759E+00 0.10568323E+04</pdfrwt>
<pdfrwt beam="2">  1        4 0.98703108E-01 0.10568323E+04</pdfrwt>
<totfact> 0.89169902E+00</totfact>
</mgrwt>
</event>
<event>
 6    1  0.1431486E-005  0.1097556E+04  0.7818608E-02  0.9451989E-01
         21   -1    0    0  501  502  0.00000000000E+00  0.00000000000E+00  0.24095118341E+04  0.24095118341E+04  0.00000000000E+00 0.  1.
          4   -1    0    0  502    0 -0.00000000000E+00 -0.00000000000E+00 -0.26859428494E+03  0.26859428494E+03  0.00000000000E+00 0.  1.
    9000010    2    1    2  501    0 -0.44786495680E+03 -0.60161159145E+02  0.11536635628E+04  0.15923470162E+04  0.10002134869E+04 0.  0.
        -13    1    3    3    0    0 -0.50239613309E+03 -0.35902821720E+03  0.30055258584E+03  0.68675687351E+03  0.10566000000E+00 0.  1.
          4    1    3    3  501    0  0.54531176288E+02  0.29886705806E+03  0.85311097694E+03  0.90559014270E+03  0.00000000000E+00 0.  1.
         13    1    1    2    0    0  0.44786495680E+03  0.60161159145E+02  0.98725398638E+03  0.10857591028E+04  0.10566000000E+00 0. -1.
<mgrwt>
<rscale>  1 0.87917981E+03</rscale>
<asrwt>0</asrwt>
<pdfrwt beam="1">  1       21 0.37069411E+00 0.10975561E+04</pdfrwt>
<pdfrwt beam="2">  1        4 0.41322199E-01 0.10975561E+04</pdfrwt>
<totfact> 0.21327005E+00</totfact>
</mgrwt>
</event>
<event>
 6    1  0.1431486E-005  0.1015723E+04  0.7818608E-02  0.9943420E-01
         21   -1    0    0  501  502  0.00000000000E+00  0.00000000000E+00  0.29174053505E+03  0.29174053505E+03  0.00000000000E+00 0.  1.
          4   -1    0    0  502    0 -0.00000000000E+00 -0.00000000000E+00 -0.15493377311E+04  0.15493377311E+04  0.00000000000E+00 0.  1.
    9000010    2    1    2  501    0 -0.37487965719E+02  0.10288883500E+03 -0.61112528216E+03  0.11853973937E+04  0.10098026592E+04 0.  0.
        -13    1    3    3    0    0  0.12799648706E+03 -0.33806612851E+03  0.59048250443E+02  0.36627655534E+03  0.10566000000E+00 0.  1.
          4    1    3    3  501    0 -0.16548445278E+03  0.44095496351E+03 -0.67017353261E+03  0.81912083832E+03  0.00000000000E+00 0.  1.
         13    1    1    2    0    0  0.37487965719E+02 -0.10288883500E+03 -0.64647191388E+03  0.65568087249E+03  0.10566000000E+00 0. -1.
<mgrwt>
<rscale>  1 0.58202343E+03</rscale>
<asrwt>0</asrwt>
<pdfrwt beam="1">  1       21 0.44883159E-01 0.10157228E+04</pdfrwt>
<pdfrwt beam="2">  1        4 0.23835965E+00 0.10157228E+04</pdfrwt>
<totfact> 0.14137396E+01</totfact>
</mgrwt>
</event>
<event>
 6    1  0.1431486E-005  0.9576080E+03  0.7818608E-02  0.9848655E-01
         21   -1    0    0  501  502  0.00000000000E+00  0.00000000000E+00  0.16318614287E+03  0.16318614287E+03  0.00000000000E+00 0.  1.
          4   -1    0    0  502    0 -0.00000000000E+00 -0.00000000000E+00 -0.20462242891E+04  0.20462242891E+04  0.00000000000E+00 0.  1.
    9000010    2    1    2  501    0 -0.13679489458E+03 -0.11279107688E+03 -0.14118559009E+04  0.17059748455E+04  0.94105176185E+03 0.  0.
        -13    1    3    3    0    0  0.16444328705E+03 -0.46267761566E+03 -0.64149343025E+03  0.80785271114E+03  0.10566000000E+00 0.  1.
          4    1    3    3  501    0 -0.30123818162E+03  0.34988653878E+03 -0.77036247064E+03  0.89812213437E+03  0.00000000000E+00 0.  1.
         13    1    1    2    0    0  0.13679489458E+03  0.11279107688E+03 -0.47118224536E+03  0.50343558646E+03  0.10566000000E+00 0. -1.
<mgrwt>
<rscale>  1 0.62815520E+03</rscale>
<asrwt>0</asrwt>
<pdfrwt beam="1">  1       21 0.25105561E-01 0.95760800E+03</pdfrwt>
<pdfrwt beam="2">  1        4 0.31480373E+00 0.95760800E+03</pdfrwt>
<totfact> 0.15760322E+01</totfact>
</mgrwt>
</event>
<event>
 6    1  0.1431486E-005  0.1037217E+04  0.7818608E-02  0.1006467E+00
         21   -1    0    0  501  502  0.00000000000E+00  0.00000000000E+00  0.10170677655E+04  0.10170677655E+04  0.00000000000E+00 0.  1.
          4   -1    0    0  502    0 -0.00000000000E+00 -0.00000000000E+00 -0.33589359336E+03  0.33589359336E+03  0.00000000000E+00 0.  1.
    9000010    2    1    2  501    0 -0.64822786035E+02 -0.26937049800E+02  0.72921326325E+03  0.12679004179E+04  0.10348390639E+04 0.  0.
        -13    1    3    3    0    0 -0.98702607210E+02 -0.11338695930E+03 -0.24598942072E+03  0.28828738002E+03  0.10566000000E+00 0.  1.
          4    1    3    3  501    0  0.33879821174E+02  0.86449909500E+02  0.97520268397E+03  0.97961303787E+03  0.00000000000E+00 0.  1.
         13    1    1    2    0    0  0.64822786035E+02  0.26937049800E+02 -0.48039091107E+02  0.85060940976E+02  0.10566000000E+00 0. -1.
<mgrwt>
<rscale>  1 0.52903184E+03</rscale>
<asrwt>0</asrwt>
<pdfrwt beam="1">  1       21 0.15647196E+00 0.10372172E+04</pdfrwt>
<pdfrwt beam="2">  1        4 0.51675938E-01 0.10372172E+04</pdfrwt>
<totfact> 0.34493467E+01</totfact>
</mgrwt>
</event>
<event>
 6    1  0.1431486E-005  0.1030628E+04  0.7818608E-02  0.9639161E-01
          4   -1    0    0  502    0 -0.00000000000E+00  0.00000000000E+00  0.12360318566E+04  0.12360318566E+04  0.00000000000E+00 0.  1.
         21   -1    0    0  501  502  0.00000000000E+00 -0.00000000000E+00 -0.35421891837E+03  0.35421891837E+03  0.00000000000E+00 0.  1.
    9000010    2    1    2  501    0 -0.20765418662E+03  0.19565429395E+03  0.75736351863E+03  0.12789815456E+04  0.99035015554E+03 0.  0.
        -13    1    3    3    0    0 -0.18590599901E+03  0.46103378676E+03  0.22777492919E+02  0.49762638429E+03  0.10566000000E+00 0.  1.
          4    1    3    3  501    0 -0.21748187616E+02 -0.26537949280E+03  0.73458602571E+03  0.78135516127E+03  0.00000000000E+00 0.  1.
         13    1    1    2    0    0  0.20765418662E+03 -0.19565429395E+03  0.12444941959E+03  0.31126922939E+03  0.10566000000E+00 0. -1.
<mgrwt>
<rscale>  1 0.74757570E+03</rscale>
<asrwt>0</asrwt>
<pdfrwt beam="2">  1       21 0.54495219E-01 0.10306281E+04</pdfrwt>
<pdfrwt beam="1">  1        4 0.19015874E+00 0.10306281E+04</pdfrwt>
<totfact> 0.19024976E+01</totfact>
</mgrwt>
</event>
<event>
 6    1  0.1431486E-005  0.1122339E+04  0.7818608E-02  0.9396399E-01
         21   -1    0    0  501  502  0.00000000000E+00  0.00000000000E+00  0.30080052280E+03  0.30080052280E+03  0.00000000000E+00 0.  1.
          4   -1    0    0  502    0 -0.00000000000E+00 -0.00000000000E+00 -0.22286956163E+04  0.22286956163E+04  0.00000000000E+00 0.  1.
    9000010    2    1    2  501    0  0.33685702169E+03 -0.38954609049E+03 -0.13022561715E+04  0.17191610963E+04  0.99720856855E+03 0.  0.
        -13    1    3    3    0    0 -0.16214026759E+03 -0.53587490318E+03 -0.43932328994E+03  0.71165746148E+03  0.10566000000E+00 0.  1.
          4    1    3    3  501    0  0.49899728928E+03  0.14632881269E+03 -0.86293288156E+03  0.10075036348E+04  0.00000000000E+00 0.  1.
         13    1    1    2    0    0 -0.33685702169E+03  0.38954609049E+03 -0.62563892197E+03  0.81033504276E+03  0.10566000000E+00 0. -1.
<mgrwt>
<rscale>  1 0.92372658E+03</rscale>
<asrwt>0</asrwt>
<pdfrwt beam="1">  1       21 0.46277004E-01 0.11223385E+04</pdfrwt>
<pdfrwt beam="2">  1        4 0.34287624E+00 0.11223385E+04</pdfrwt>
<totfact> 0.29152130E+00</totfact>
</mgrwt>
</event>
<event>
 6    1  0.1431486E-005  0.1140355E+04  0.7818608E-02  0.9360797E-01
         21   -1    0    0  501  502  0.00000000000E+00  0.00000000000E+00  0.86351669101E+03  0.86351669101E+03  0.00000000000E+00 0.  1.
          4   -1    0    0  502    0 -0.00000000000E+00 -0.00000000000E+00 -0.85942191228E+03  0.85942191228E+03  0.00000000000E+00 0.  1.
    9000010    2    1    2  501    0  0.50208364569E+03 -0.24333188416E+03 -0.13389100007E+03  0.11481878056E+04  0.99454011681E+03 0.  0.
        -13    1    3    3    0    0  0.53995920480E+03 -0.52201136360E+03 -0.31420081680E+03  0.81410931147E+03  0.10566000000E+00 0.  1.
          4    1    3    3  501    0 -0.37875559119E+02  0.27867947944E+03  0.18030981674E+03  0.33407849414E+03  0.00000000000E+00 0.  1.
         13    1    1    2    0    0 -0.50208364569E+03  0.24333188416E+03  0.13798577879E+03  0.57475079768E+03  0.10566000000E+00 0. -1.
<mgrwt>
<rscale>  1 0.95373360E+03</rscale>
<asrwt>0</asrwt>
<pdfrwt beam="1">  1       21 0.13284872E+00 0.11403545E+04</pdfrwt>
<pdfrwt beam="2">  1        4 0.13221876E+00 0.11403545E+04</pdfrwt>
<totfact> 0.60087767E+00</totfact>
</mgrwt>
</event>
<event>
 6    1  0.1431486E-005  0.1034564E+04  0.7818608E-02  0.9843651E-01
          4   -1    0    0  502    0 -0.00000000000E+00  0.00000000000E+00  0.69787473442E+03  0.69787473442E+03  0.00000000000E+00 0.  1.
         21   -1    0    0  501  502  0.00000000000E+00 -0.00000000000E+00 -0.49911268479E+03  0.49911268479E+03  0.00000000000E+00 0.  1.
    9000010    2    1    2  501    0 -0.12646283876E+02 -0.14235009698E+03  0.14682136088E+03  0.10449304400E+04  0.10246461018E+04 0.  0.
        -13    1    3    3    0    0  0.28224231454E+03 -0.37188577972E+03 -0.22457802196E+03  0.51806858271E+03  0.10566000000E+00 0.  1.
          4    1    3    3  501    0 -0.29488859842E+03  0.22953568274E+03  0.37139938284E+03  0.52686185732E+03  0.00000000000E+00 0.  1.
         13    1    1    2    0    0  0.12646283876E+02  0.14235009698E+03  0.51940688742E+02  0.15205697918E+03  0.10566000000E+00 0. -1.
<mgrwt>
<rscale>  1 0.63071670E+03</rscale>
<asrwt>0</asrwt>
<pdfrwt beam="2">  1       21 0.76786567E-01 0.10345642E+04</pdfrwt>
<pdfrwt beam="1">  1        4 0.10736534E+00 0.10345642E+04</pdfrwt>
<totfact> 0.40213506E+01</totfact>
</mgrwt>
</event>
<event>
 6    1  0.1431486E-005  0.1011311E+04  0.7818608E-02  0.1033774E+00
         21   -1    0    0  501  502  0.00000000000E+00  0.00000000000E+00  0.50544374185E+03  0.50544374185E+03  0.00000000000E+00 0.  1.
          4   -1    0    0  502    0 -0.00000000000E+00 -0.00000000000E+00 -0.55026883850E+03  0.55026883850E+03  0.00000000000E+00 0.  1.
    9000010    2    1    2  501    0  0.18894003437E+02 -0.27223385109E+02 -0.15449438724E+02  0.10114289885E+04  0.10107679346E+04 0.  0.
        -13    1    3    3    0    0 -0.45697800689E+03  0.12266907990E+03 -0.14698474655E+03  0.49546052197E+03  0.10566000000E+00 0.  1.
          4    1    3    3  501    0  0.47587201033E+03 -0.14989246500E+03  0.13153530782E+03  0.51596846656E+03  0.00000000000E+00 0.  1.
         13    1    1    2    0    0 -0.18894003437E+02  0.27223385109E+02 -0.29375657921E+02  0.44283591826E+02  0.10566000000E+00 0. -1.
<mgrwt>
<rscale>  1 0.43027304E+03</rscale>
<asrwt>0</asrwt>
<pdfrwt beam="1">  1       21 0.77760576E-01 0.10113110E+04</pdfrwt>
<pdfrwt beam="2">  1        4 0.84656744E-01 0.10113110E+04</pdfrwt>
<totfact> 0.68968469E+01</totfact>
</mgrwt>
</event>
<event>
 6    1  0.1431486E-005  0.1279088E+04  0.7818608E-02  0.9199748E-01
          4   -1    0    0  502    0 -0.00000000000E+00  0.00000000000E+00  0.13831426006E+04  0.13831426006E+04  0.00000000000E+00 0.  1.
         21   -1    0    0  501  502  0.00000000000E+00 -0.00000000000E+00 -0.83449457110E+03  0.83449457110E+03  0.00000000000E+00 0. -1.
    9000010    2    1    2  501    0  0.65939498818E+03 -0.27384050762E+03 -0.58459136280E+02  0.12804234842E+04  0.10612617275E+04 0.  0.
        -13    1    3    3    0    0  0.45516650642E+03  0.36215763594E+03  0.10894943381E+03  0.59178094944E+03  0.10566000000E+00 0.  1.
          4    1    3    3  501    0  0.20422848177E+03 -0.63599814356E+03 -0.16740857009E+03  0.68864253478E+03  0.00000000000E+00 0.  1.
         13    1    1    2    0    0 -0.65939498818E+03  0.27384050762E+03  0.60710716574E+03  0.93721368743E+03  0.10566000000E+00 0. -1.
<mgrwt>
<rscale>  1 0.11056033E+04</rscale>
<asrwt>0</asrwt>
<pdfrwt beam="2">  1       21 0.12838378E+00 0.12790883E+04</pdfrwt>
<pdfrwt beam="1">  1        4 0.21279117E+00 0.12790883E+04</pdfrwt>
<totfact> 0.16781288E+00</totfact>
</mgrwt>
</event>
<event>
 6    1  0.1431486E-005  0.1021990E+04  0.7818608E-02  0.9914909E-01
          4   -1    0    0  502    0 -0.00000000000E+00  0.00000000000E+00  0.48893572313E+03  0.48893572313E+03  0.00000000000E+00 0.  1.
         21   -1    0    0  501  502  0.00000000000E+00 -0.00000000000E+00 -0.76966518772E+03  0.76966518772E+03  0.00000000000E+00 0.  1.
    9000010    2    1    2  501    0  0.84747996534E+02  0.81770274550E+02 -0.39390051141E+03  0.10952721084E+04  0.10151821402E+04 0.  0.
        -13    1    3    3    0    0  0.54834866434E+03  0.57804687999E+02 -0.15275470397E+03  0.57215526772E+03  0.10566000000E+00 0.  1.
          4    1    3    3  501    0 -0.46360066780E+03  0.23965586551E+02 -0.24114580744E+03  0.52311684065E+03  0.00000000000E+00 0.  1.
         13    1    1    2    0    0 -0.84747996534E+02 -0.81770274550E+02  0.11317104682E+03  0.16332880248E+03  0.10566000000E+00 0. -1.
<mgrwt>
<rscale>  1 0.59544147E+03</rscale>
<asrwt>0</asrwt>
<pdfrwt beam="2">  1       21 0.11841003E+00 0.10219899E+04</pdfrwt>
<pdfrwt beam="1">  1        4 0.75220880E-01 0.10219899E+04</pdfrwt>
<totfact> 0.32195170E+01</totfact>
</mgrwt>
</event>
<event>
 6    1  0.1431486E-005  0.1035364E+04  0.7818608E-02  0.9670199E-01
         21   -1    0    0  501  502  0.00000000000E+00  0.00000000000E+00  0.39124262696E+03  0.39124262696E+03  0.00000000000E+00 0.  1.
          4   -1    0    0  502    0 -0.00000000000E+00 -0.00000000000E+00 -0.10629142400E+04  0.10629142400E+04  0.00000000000E+00 0.  1.
    9000010    2    1    2  501    0 -0.23443171115E+03  0.96034900565E+02 -0.51613379813E+03  0.11568809811E+04  0.10038917160E+04 0.  0.
        -13    1    3    3    0    0 -0.17498214028E+03  0.53506656193E+03 -0.42299331082E+03  0.70415788519E+03  0.10566000000E+00 0.  1.
          4    1    3    3  501    0 -0.59449570868E+02 -0.43903166136E+03 -0.93140487314E+02  0.45272309587E+03  0.00000000000E+00 0.  1.
         13    1    1    2    0    0  0.23443171115E+03 -0.96034900565E+02 -0.15553781493E+03  0.29727588593E+03  0.10566000000E+00 0. -1.
<mgrwt>
<rscale>  1 0.72819164E+03</rscale>
<asrwt>0</asrwt>
<pdfrwt beam="1">  1       21 0.60191175E-01 0.10353644E+04</pdfrwt>
<pdfrwt beam="2">  1        4 0.16352526E+00 0.10353644E+04</pdfrwt>
<totfact> 0.23527173E+01</totfact>
</mgrwt>
</event>
<event>
 6    1  0.1431486E-005  0.1008934E+04  0.7818608E-02  0.9877708E-01
          4   -1    0    0  502    0 -0.00000000000E+00  0.00000000000E+00  0.48138909784E+03  0.48138909784E+03  0.00000000000E+00 0.  1.
         21   -1    0    0  501  502  0.00000000000E+00 -0.00000000000E+00 -0.75669114460E+03  0.75669114460E+03  0.00000000000E+00 0.  1.
    9000010    2    1    2  501    0 -0.33025795633E+02  0.13395775484E+03 -0.36566490137E+03  0.10731534711E+04  0.99945593655E+03 0.  0.
        -13    1    3    3    0    0 -0.37424325944E+03 -0.24081597487E+03 -0.34983277053E+03  0.56606830815E+03  0.10566000000E+00 0.  1.
          4    1    3    3  501    0  0.34121746380E+03  0.37477372971E+03 -0.15832130839E+02  0.50708516292E+03  0.00000000000E+00 0.  1.
         13    1    1    2    0    0  0.33025795633E+02 -0.13395775484E+03  0.90362854613E+02  0.16492677138E+03  0.10566000000E+00 0. -1.
<mgrwt>
<rscale>  1 0.61353912E+03</rscale>
<asrwt>0</asrwt>
<pdfrwt beam="2">  1       21 0.11641402E+00 0.10089339E+04</pdfrwt>
<pdfrwt beam="1">  1        4 0.74059862E-01 0.10089339E+04</pdfrwt>
<totfact> 0.34880256E+01</totfact>
</mgrwt>
</event>
<event>
 6    1  0.1431486E-005  0.1258547E+04  0.7818608E-02  0.9461519E-01
         21   -1    0    0  501  502  0.00000000000E+00  0.00000000000E+00  0.61576800542E+03  0.61576800542E+03  0.00000000000E+00 0.  1.
          4   -1    0    0  502    0 -0.00000000000E+00 -0.00000000000E+00 -0.13360009387E+04  0.13360009387E+04  0.00000000000E+00 0.  1.
    9000010    2    1    2  501    0  0.23894566107E+03 -0.16396278256E+03 -0.94381134452E+02  0.12620811102E+04  0.12247294016E+04 0.  0.
        -13    1    3    3    0    0 -0.17537053934E+03 -0.37377054796E+03  0.40624366404E+03  0.57921772618E+03  0.10566000000E+00 0.  1.
          4    1    3    3  501    0  0.41431620041E+03  0.20980776540E+03 -0.50062479849E+03  0.68286338400E+03  0.00000000000E+00 0.  1.
         13    1    1    2    0    0 -0.23894566107E+03  0.16396278256E+03 -0.62585179882E+03  0.68968783392E+03  0.10566000000E+00 0. -1.
<mgrwt>
<rscale>  1 0.87181302E+03</rscale>
<asrwt>0</asrwt>
<pdfrwt beam="1">  1       21 0.94733539E-01 0.12585472E+04</pdfrwt>
<pdfrwt beam="2">  1        4 0.20553861E+00 0.12585472E+04</pdfrwt>
<totfact> 0.40793669E+00</totfact>
</mgrwt>
</event>
<event>
 6    1  0.1431486E-005  0.1082834E+04  0.7818608E-02  0.9500106E-01
         21   -1    0    0  501  502  0.00000000000E+00  0.00000000000E+00  0.27166989287E+04  0.27166989287E+04  0.00000000000E+00 0.  1.
          4   -1    0    0  502    0 -0.00000000000E+00 -0.00000000000E+00 -0.20188835454E+03  0.20188835454E+03  0.00000000000E+00 0.  1.
    9000010    2    1    2  501    0 -0.16839782071E+03 -0.35985866262E+03  0.17907173591E+04  0.20926532191E+04  0.10073096605E+04 0.  0.
        -13    1    3    3    0    0  0.11072020815E+03 -0.59487006146E+03  0.61974445620E+03  0.86614811474E+03  0.10566000000E+00 0.  1.
          4    1    3    3  501    0 -0.27911802886E+03  0.23501139884E+03  0.11709729029E+04  0.12265051044E+04  0.00000000000E+00 0.  1.
         13    1    1    2    0    0  0.16839782071E+03  0.35985866262E+03  0.72409321504E+03  0.82593406415E+03  0.10566000000E+00 0. -1.
<mgrwt>
<rscale>  1 0.84276026E+03</rscale>
<asrwt>0</asrwt>
<pdfrwt beam="1">  1       21 0.41795365E+00 0.10828337E+04</pdfrwt>
<pdfrwt beam="2">  1        4 0.31059749E-01 0.10828337E+04</pdfrwt>
<totfact> 0.18618582E+00</totfact>
</mgrwt>
</event>
<event>
 6    1  0.4281934E-005  0.7469301E+03  0.7818608E-02  0.1000267E+00
         21   -1    0    0  501  502  0.00000000000E+00  0.00000000000E+00  0.96361599165E+03  0.96361599165E+03  0.00000000000E+00 0.  1.
          4   -1    0    0  502    0 -0.00000000000E+00 -0.00000000000E+00 -0.26845946639E+03  0.26845946639E+03  0.00000000000E+00 0.  1.
    9000010    2    1    2  501    0 -0.12234129179E+03 -0.19266668391E+03  0.66831987714E+03  0.10022754154E+04  0.71120792127E+03 0.  0.
        -13    1    3    3    0    0  0.68793087335E+02 -0.22302443057E+03 -0.66270652719E+02  0.24261944702E+03  0.10566000000E+00 0.  1.
          4    1    3    3  501    0 -0.19113437912E+03  0.30357746662E+02  0.73459052986E+03  0.75965596833E+03  0.00000000000E+00 0.  1.
         13    1    1    2    0    0  0.12234129179E+03  0.19266668391E+03  0.26836648120E+02  0.22980004267E+03  0.10566000000E+00 0. -1.
<mgrwt>
<rscale>  1 0.55533113E+03</rscale>
<asrwt>0</asrwt>
<pdfrwt beam="1">  1       21 0.14824861E+00 0.74693008E+03</pdfrwt>
<pdfrwt beam="2">  1        4 0.41301457E-01 0.74693008E+03</pdfrwt>
<totfact> 0.65976346E+01</totfact>
</mgrwt>
</event>
<event>
 6    1  0.1431486E-005  0.1032177E+04  0.7818608E-02  0.9640384E-01
          4   -1    0    0  502    0 -0.00000000000E+00  0.00000000000E+00  0.54485945190E+03  0.54485945190E+03  0.00000000000E+00 0.  1.
         21   -1    0    0  501  502  0.00000000000E+00 -0.00000000000E+00 -0.80028827211E+03  0.80028827211E+03  0.00000000000E+00 0.  1.
    9000010    2    1    2  501    0 -0.26065223014E+03  0.10983634076E+03 -0.25103023513E+03  0.10622644167E+04  0.99266605929E+03 0.  0.
        -13    1    3    3    0    0 -0.16933647119E+03 -0.20169607044E+03 -0.55702494665E+03  0.61614360961E+03  0.10566000000E+00 0.  1.
          4    1    3    3  501    0 -0.91315758944E+02  0.31153241120E+03  0.30599471152E+03  0.44612080711E+03  0.00000000000E+00 0.  1.
         13    1    1    2    0    0  0.26065223014E+03 -0.10983634076E+03 -0.43985850847E+01  0.28288330729E+03  0.10566000000E+00 0. -1.
<mgrwt>
<rscale>  1 0.74680009E+03</rscale>
<asrwt>0</asrwt>
<pdfrwt beam="2">  1       21 0.12312127E+00 0.10321771E+04</pdfrwt>
<pdfrwt beam="1">  1        4 0.83824530E-01 0.10321771E+04</pdfrwt>
<totfact> 0.22656211E+01</totfact>
</mgrwt>
</event>
<event>
 6    1  0.1431486E-005  0.1075511E+04  0.7818608E-02  0.9487164E-01
         21   -1    0    0  501  502  0.00000000000E+00  0.00000000000E+00  0.40760388976E+03  0.40760388976E+03  0.00000000000E+00 0.  1.
          4   -1    0    0  502    0 -0.00000000000E+00 -0.00000000000E+00 -0.13832262202E+04  0.13832262202E+04  0.00000000000E+00 0.  1.
    9000010    2    1    2  501    0 -0.42424296057E+03  0.63968681896E+01 -0.65805795761E+03  0.12608582696E+04  0.98828148366E+03 0.  0.
        -13    1    3    3    0    0  0.28936582272E+03  0.75761747870E+01 -0.41702474528E+03  0.50764123859E+03  0.10566000000E+00 0.  1.
          4    1    3    3  501    0 -0.71360878330E+03 -0.11793065973E+01 -0.24103321233E+03  0.75321703101E+03  0.00000000000E+00 0.  1.
         13    1    1    2    0    0  0.42424296057E+03 -0.63968681896E+01 -0.31756437284E+03  0.52997184037E+03  0.10566000000E+00 0. -1.
<mgrwt>
<rscale>  1 0.85236785E+03</rscale>
<asrwt>0</asrwt>
<pdfrwt beam="1">  1       21 0.62708289E-01 0.10755107E+04</pdfrwt>
<pdfrwt beam="2">  1        4 0.21280404E+00 0.10755107E+04</pdfrwt>
<totfact> 0.98202500E+00</totfact>
</mgrwt>
</event>
<event>
 6    1  0.1431486E-005  0.1033570E+04  0.7818608E-02  0.9671511E-01
          4   -1    0    0  502    0 -0.00000000000E+00  0.00000000000E+00  0.48068750315E+03  0.48068750315E+03  0.00000000000E+00 0.  1.
         21   -1    0    0  501  502  0.00000000000E+00 -0.00000000000E+00 -0.14689076308E+04  0.14689076308E+04  0.00000000000E+00 0.  1.
    9000010    2    1    2  501    0 -0.10246063772E+03  0.23191093890E+03 -0.12249381269E+04  0.16027287501E+04  0.10019906016E+04 0.  0.
        -13    1    3    3    0    0  0.32572258470E+03  0.12168480672E+03 -0.55003410026E+02  0.35203377771E+03  0.10566000000E+00 0.  1.
          4    1    3    3  501    0 -0.42818322242E+03  0.11022613218E+03 -0.11699347169E+04  0.12506949724E+04  0.00000000000E+00 0.  1.
         13    1    1    2    0    0  0.10246063772E+03 -0.23191093890E+03  0.23671799930E+03  0.34686638381E+03  0.10566000000E+00 0. -1.
<mgrwt>
<rscale>  1 0.72738611E+03</rscale>
<asrwt>0</asrwt>
<pdfrwt beam="2">  1       21 0.22598579E+00 0.10335696E+04</pdfrwt>
<pdfrwt beam="1">  1        4 0.73951925E-01 0.10335696E+04</pdfrwt>
<totfact> 0.50533819E+00</totfact>
</mgrwt>
</event>
<event>
 6    1  0.1431486E-005  0.1138951E+04  0.7818608E-02  0.9373965E-01
          4   -1    0    0  502    0 -0.00000000000E+00  0.00000000000E+00  0.39460668590E+03  0.39460668590E+03  0.00000000000E+00 0.  1.
         21   -1    0    0  501  502  0.00000000000E+00 -0.00000000000E+00 -0.18193503257E+04  0.18193503257E+04  0.00000000000E+00 0.  1.
    9000010    2    1    2  501    0  0.29378020464E+03  0.44601402558E+03 -0.79888162038E+03  0.13911942279E+04  0.10059692922E+04 0.  0.
        -13    1    3    3    0    0 -0.36848892271E+03  0.10997469750E+03 -0.18052253659E+03  0.42481398003E+03  0.10566000000E+00 0.  1.
          4    1    3    3  501    0  0.66226912734E+03  0.33603932808E+03 -0.61835908379E+03  0.96638024791E+03  0.00000000000E+00 0.  1.
         13    1    1    2    0    0 -0.29378020464E+03 -0.44601402558E+03 -0.62586201945E+03  0.82276278368E+03  0.10566000000E+00 0. -1.
<mgrwt>
<rscale>  1 0.94249546E+03</rscale>
<asrwt>0</asrwt>
<pdfrwt beam="2">  1       21 0.27990005E+00 0.11389511E+04</pdfrwt>
<pdfrwt beam="1">  1        4 0.60708721E-01 0.11389511E+04</pdfrwt>
<totfact> 0.34965340E+00</totfact>
</mgrwt>
</event>
<event>
 6    1  0.1431486E-005  0.9849959E+03  0.7818608E-02  0.9898826E-01
          4   -1    0    0  502    0 -0.00000000000E+00  0.00000000000E+00  0.41218825091E+03  0.41218825091E+03  0.00000000000E+00 0.  1.
         21   -1    0    0  501  502  0.00000000000E+00 -0.00000000000E+00 -0.11264575267E+04  0.11264575267E+04  0.00000000000E+00 0.  1.
    9000010    2    1    2  501    0 -0.13131791626E+03  0.44062452361E+02 -0.88126423828E+03  0.13216821320E+04  0.97520823699E+03 0.  0.
        -13    1    3    3    0    0 -0.50424313458E+03  0.21425593818E+03 -0.65333353873E+03  0.85264967590E+03  0.10566000000E+00 0.  1.
          4    1    3    3  501    0  0.37292521832E+03 -0.17019348582E+03 -0.22793069956E+03  0.46903245609E+03  0.00000000000E+00 0.  1.
         13    1    1    2    0    0  0.13131791626E+03 -0.44062452361E+02  0.16699496252E+03  0.21696364559E+03  0.10566000000E+00 0. -1.
<mgrwt>
<rscale>  1 0.60318234E+03</rscale>
<asrwt>0</asrwt>
<pdfrwt beam="2">  1       21 0.17330116E+00 0.98499594E+03</pdfrwt>
<pdfrwt beam="1">  1        4 0.63413577E-01 0.98499594E+03</pdfrwt>
<totfact> 0.16588762E+01</totfact>
</mgrwt>
</event>
<event>
 6    1  0.1431486E-005  0.1014728E+04  0.7818608E-02  0.1000178E+00
         21   -1    0    0  501  502  0.00000000000E+00  0.00000000000E+00  0.12604002041E+04  0.12604002041E+04  0.00000000000E+00 0.  1.
          4   -1    0    0  502    0 -0.00000000000E+00 -0.00000000000E+00 -0.41571933122E+03  0.41571933122E+03  0.00000000000E+00 0.  1.
    9000010    2    1    2  501    0  0.20183456881E+02 -0.89022155849E+02  0.10446177998E+04  0.14563307685E+04  0.10106139933E+04 0.  0.
        -13    1    3    3    0    0  0.48824409881E+03 -0.15285237343E+03  0.71957753149E+03  0.88291448231E+03  0.10566000000E+00 0.  1.
          4    1    3    3  501    0 -0.46806064193E+03  0.63830217580E+02  0.32504026829E+03  0.57341628614E+03  0.00000000000E+00 0.  1.
         13    1    1    2    0    0 -0.20183456881E+02  0.89022155849E+02 -0.19993692687E+03  0.21978876690E+03  0.10566000000E+00 0. -1.
<mgrwt>
<rscale>  1 0.55572256E+03</rscale>
<asrwt>0</asrwt>
<pdfrwt beam="1">  1       21 0.19390772E+00 0.10147280E+04</pdfrwt>
<pdfrwt beam="2">  1        4 0.63956821E-01 0.10147280E+04</pdfrwt>
<totfact> 0.11535211E+01</totfact>
</mgrwt>
</event>
<event>
 6    1  0.1431486E-005  0.1157552E+04  0.7818608E-02  0.9374351E-01
          4   -1    0    0  502    0 -0.00000000000E+00  0.00000000000E+00  0.55204264821E+03  0.55204264821E+03  0.00000000000E+00 0.  1.
         21   -1    0    0  501  502  0.00000000000E+00 -0.00000000000E+00 -0.12738445787E+04  0.12738445787E+04  0.00000000000E+00 0. -1.
    9000010    2    1    2  501    0 -0.86330719932E+01  0.50796177327E+03 -0.59841088512E+03  0.13030822401E+04  0.10401096307E+04 0.  0.
        -13    1    3    3    0    0 -0.51504140973E+03  0.31847793819E+03 -0.22512840161E+03  0.64604849603E+03  0.10566000000E+00 0.  1.
          4    1    3    3  501    0  0.50640833774E+03  0.18948383508E+03 -0.37328248351E+03  0.65703374402E+03  0.00000000000E+00 0.  1.
         13    1    1    2    0    0  0.86330719932E+01 -0.50796177327E+03 -0.12339104537E+03  0.52280498685E+03  0.10566000000E+00 0. -1.
<mgrwt>
<rscale>  1 0.94216931E+03</rscale>
<asrwt>0</asrwt>
<pdfrwt beam="2">  1       21 0.19597609E+00 0.11575525E+04</pdfrwt>
<pdfrwt beam="1">  1        4 0.84929639E-01 0.11575525E+04</pdfrwt>
<totfact> 0.57653257E+00</totfact>
</mgrwt>
</event>
<event>
 6    1  0.1431486E-005  0.1019530E+04  0.7818608E-02  0.9738353E-01
         21   -1    0    0  501  502  0.00000000000E+00  0.00000000000E+00  0.21611877778E+04  0.21611877778E+04  0.00000000000E+00 0.  1.
          4   -1    0    0  502    0 -0.00000000000E+00 -0.00000000000E+00 -0.19221300026E+03  0.19221300026E+03  0.00000000000E+00 0.  1.
    9000010    2    1    2  501    0  0.18522996931E+03 -0.10138066922E+03  0.18465735577E+04  0.21093306008E+04  0.99742342970E+03 0.  0.
        -13    1    3    3    0    0  0.46630654556E+02 -0.23358421780E+03 -0.14303130928E+02  0.23862228619E+03  0.10566000000E+00 0.  1.
          4    1    3    3  501    0  0.13859931475E+03  0.13220354858E+03  0.18608766886E+04  0.18707083147E+04  0.00000000000E+00 0.  1.
         13    1    1    2    0    0 -0.18522996931E+03  0.10138066922E+03  0.12240121989E+03  0.24407017723E+03  0.10566000000E+00 0. -1.
<mgrwt>
<rscale>  1 0.68778473E+03</rscale>
<asrwt>0</asrwt>
<pdfrwt beam="1">  1       21 0.33249041E+00 0.10195301E+04</pdfrwt>
<pdfrwt beam="2">  1        4 0.29571232E-01 0.10195301E+04</pdfrwt>
<totfact> 0.73809089E+00</totfact>
</mgrwt>
</event>
<event>
 6    1  0.1431486E-005  0.1253712E+04  0.7818608E-02  0.9257916E-01
         21   -1    0    0  501  502  0.00000000000E+00  0.00000000000E+00  0.15349348531E+04  0.15349348531E+04  0.00000000000E+00 0.  1.
          4   -1    0    0  502    0 -0.00000000000E+00 -0.00000000000E+00 -0.14101491483E+04  0.14101491483E+04  0.00000000000E+00 0.  1.
    9000010    2    1    2  501    0  0.32223207106E+03 -0.51912397419E+03  0.11826143776E+04  0.17234765684E+04  0.10947472346E+04 0.  0.
        -13    1    3    3    0    0  0.24078785117E+03 -0.50834353450E+03  0.13904921920E+04  0.14999534945E+04  0.10566000000E+00 0.  1.
          4    1    3    3  501    0  0.81444219895E+02 -0.10780439689E+02 -0.20787781448E+03  0.22352307395E+03  0.00000000000E+00 0.  1.
         13    1    1    2    0    0 -0.32223207106E+03  0.51912397419E+03 -0.10578286727E+04  0.12216074330E+04  0.10566000000E+00 0. -1.
<mgrwt>
<rscale>  1 0.10475121E+04</rscale>
<asrwt>0</asrwt>
<pdfrwt beam="1">  1       21 0.23614382E+00 0.12537124E+04</pdfrwt>
<pdfrwt beam="2">  1        4 0.21694602E+00 0.12537124E+04</pdfrwt>
<totfact> 0.25111382E-01</totfact>
</mgrwt>
</event>
<event>
 6    1  0.1431486E-005  0.1055883E+04  0.7818608E-02  0.9539660E-01
         21   -1    0    0  501  502  0.00000000000E+00  0.00000000000E+00  0.82594606219E+03  0.82594606219E+03  0.00000000000E+00 0.  1.
          4   -1    0    0  502    0 -0.00000000000E+00 -0.00000000000E+00 -0.79381239845E+03  0.79381239845E+03  0.00000000000E+00 0.  1.
    9000010    2    1    2  501    0 -0.32652978270E+03 -0.18102455466E+03  0.36738950450E+03  0.11179735682E+04  0.98767315583E+03 0.  0.
        -13    1    3    3    0    0  0.34711719848E+03 -0.12737734018E+03  0.20571173989E+03  0.42312252051E+03  0.10566000000E+00 0.  1.
          4    1    3    3  501    0 -0.67364698118E+03 -0.53647214480E+02  0.16167776460E+03  0.69485104766E+03  0.00000000000E+00 0.  1.
         13    1    1    2    0    0  0.32652978270E+03  0.18102455466E+03 -0.33525584076E+03  0.50178489246E+03  0.10566000000E+00 0. -1.
<mgrwt>
<rscale>  1 0.81421962E+03</rscale>
<asrwt>0</asrwt>
<pdfrwt beam="1">  1       21 0.12706863E+00 0.10558834E+04</pdfrwt>
<pdfrwt beam="2">  1        4 0.12212498E+00 0.10558834E+04</pdfrwt>
<totfact> 0.83672693E+00</totfact>
</mgrwt>
</event>
<event>
 6    1  0.1431486E-005  0.1014718E+04  0.7818608E-02  0.9814042E-01
         21   -1    0    0  501  502  0.00000000000E+00  0.00000000000E+00  0.61184977369E+03  0.61184977369E+03  0.00000000000E+00 0.  1.
          4   -1    0    0  502    0 -0.00000000000E+00 -0.00000000000E+00 -0.62156397418E+03  0.62156397418E+03  0.00000000000E+00 0.  1.
    9000010    2    1    2  501    0 -0.16669080613E+03 -0.68771546399E+01  0.12040776951E+03  0.10218366736E+04  0.10009091050E+04 0.  0.
        -13    1    3    3    0    0 -0.21535318352E+02 -0.93204229970E+02  0.55103470460E+03  0.55927636751E+03  0.10566000000E+00 0.  1.
          4    1    3    3  501    0 -0.14515548778E+03  0.86327075330E+02 -0.43062693509E+03  0.46256030612E+03  0.00000000000E+00 0.  1.
         13    1    1    2    0    0  0.16669080613E+03  0.68771546399E+01 -0.13012197000E+03  0.21157707425E+03  0.10566000000E+00 0. -1.
<mgrwt>
<rscale>  1 0.64614384E+03</rscale>
<asrwt>0</asrwt>
<pdfrwt beam="1">  1       21 0.94130734E-01 0.10147178E+04</pdfrwt>
<pdfrwt beam="2">  1        4 0.95625227E-01 0.10147178E+04</pdfrwt>
<totfact> 0.32798136E+01</totfact>
</mgrwt>
</event>
<event>
 6    1  0.1431486E-005  0.1075479E+04  0.7818608E-02  0.9487214E-01
         21   -1    0    0  501  502  0.00000000000E+00  0.00000000000E+00  0.14526279020E+04  0.14526279020E+04  0.00000000000E+00 0.  1.
          4   -1    0    0  502    0 -0.00000000000E+00 -0.00000000000E+00 -0.59753121689E+03  0.59753121689E+03  0.00000000000E+00 0.  1.
    9000010    2    1    2  501    0 -0.37899896012E+03 -0.19066197201E+03  0.11177870187E+04  0.15511617022E+04  0.98826241852E+03 0.  0.
        -13    1    3    3    0    0 -0.37774026525E+03 -0.57160939561E+03  0.81364978063E+03  0.10636968487E+04  0.10566000000E+00 0.  1.
          4    1    3    3  501    0 -0.12586948646E+01  0.38094742360E+03  0.30413723804E+03  0.48746485353E+03  0.00000000000E+00 0.  1.
         13    1    1    2    0    0  0.37899896012E+03  0.19066197201E+03 -0.26269033358E+03  0.49899741669E+03  0.10566000000E+00 0. -1.
<mgrwt>
<rscale>  1 0.85233069E+03</rscale>
<asrwt>0</asrwt>
<pdfrwt beam="1">  1       21 0.22348121E+00 0.10754789E+04</pdfrwt>
<pdfrwt beam="2">  1        4 0.91927880E-01 0.10754789E+04</pdfrwt>
<totfact> 0.31527133E+00</totfact>
</mgrwt>
</event>
<event>
 6    1  0.1431486E-005  0.9999529E+03  0.7818608E-02  0.1005692E+00
          4   -1    0    0  502    0 -0.00000000000E+00  0.00000000000E+00  0.18956039689E+03  0.18956039689E+03  0.00000000000E+00 0.  1.
         21   -1    0    0  501  502  0.00000000000E+00 -0.00000000000E+00 -0.23030336776E+04  0.23030336776E+04  0.00000000000E+00 0.  1.
    9000010    2    1    2  501    0  0.50368128739E+02 -0.62478917549E+02 -0.21734240190E+04  0.23924208959E+04  0.99672725102E+03 0.  0.
        -13    1    3    3    0    0  0.42549535753E+03  0.26513083781E+03 -0.10499330740E+04  0.11634861973E+04  0.10566000000E+00 0.  1.
          4    1    3    3  501    0 -0.37512722879E+03 -0.32760975536E+03 -0.11234909451E+04  0.12289346985E+04  0.00000000000E+00 0.  1.
         13    1    1    2    0    0 -0.50368128739E+02  0.62478917549E+02  0.59950738313E+02  0.10017317864E+03  0.10566000000E+00 0. -1.
<mgrwt>
<rscale>  1 0.53223108E+03</rscale>
<asrwt>0</asrwt>
<pdfrwt beam="2">  1       21 0.35431285E+00 0.99995289E+03</pdfrwt>
<pdfrwt beam="1">  1        4 0.29163140E-01 0.99995289E+03</pdfrwt>
<totfact> 0.55476105E+00</totfact>
</mgrwt>
</event>
<event>
 6    1  0.1431486E-005  0.1107123E+04  0.7818608E-02  0.9428170E-01
          4   -1    0    0  502    0 -0.00000000000E+00  0.00000000000E+00  0.19654536172E+04  0.19654536172E+04  0.00000000000E+00 0.  1.
         21   -1    0    0  501  502  0.00000000000E+00 -0.00000000000E+00 -0.34868604474E+03  0.34868604474E+03  0.00000000000E+00 0.  1.
    9000010    2    1    2  501    0 -0.44394152155E+03 -0.18002705322E+03  0.14091101545E+04  0.17920137874E+04  0.99811230443E+03 0.  0.
        -13    1    3    3    0    0 -0.20984091401E+03 -0.70446635356E+02 -0.11271338385E+03  0.24839536165E+03  0.10566000000E+00 0.  1.
          4    1    3    3  501    0 -0.23410060754E+03 -0.10958041787E+03  0.15218235384E+04  0.15436184258E+04  0.00000000000E+00 0.  1.
         13    1    1    2    0    0  0.44394152155E+03  0.18002705322E+03  0.20765741790E+03  0.52212587450E+03  0.10566000000E+00 0. -1.
<mgrwt>
<rscale>  1 0.89793194E+03</rscale>
<asrwt>0</asrwt>
<pdfrwt beam="2">  1       21 0.53644008E-01 0.11071233E+04</pdfrwt>
<pdfrwt beam="1">  1        4 0.30237747E+00 0.11071233E+04</pdfrwt>
<totfact> 0.38227815E+00</totfact>
</mgrwt>
</event>
<event>
 6    1  0.1431486E-005  0.1199340E+04  0.7818608E-02  0.9270026E-01
         21   -1    0    0  501  502  0.00000000000E+00  0.00000000000E+00  0.36778065214E+03  0.36778065214E+03  0.00000000000E+00 0.  1.
          4   -1    0    0  502    0 -0.00000000000E+00 -0.00000000000E+00 -0.25660137444E+04  0.25660137444E+04  0.00000000000E+00 0.  1.
    9000010    2    1    2  501    0 -0.62707092985E+03  0.22872936652E+03 -0.99723161775E+03  0.15597712428E+04  0.99643381927E+03 0.  0.
        -13    1    3    3    0    0 -0.45272652240E+03 -0.26340128258E+03 -0.88092115179E+03  0.10248724928E+04  0.10566000000E+00 0.  1.
          4    1    3    3  501    0 -0.17434440745E+03  0.49213064910E+03 -0.11631046596E+03  0.53489874994E+03  0.00000000000E+00 0.  1.
         13    1    1    2    0    0  0.62707092985E+03 -0.22872936652E+03 -0.12010014745E+04  0.13740231538E+04  0.10566000000E+00 0. -1.
<mgrwt>
<rscale>  1 0.10358977E+04</rscale>
<asrwt>0</asrwt>
<pdfrwt beam="1">  1       21 0.56581638E-01 0.11993396E+04</pdfrwt>
<pdfrwt beam="2">  1        4 0.39477135E+00 0.11993396E+04</pdfrwt>
<totfact> 0.84026365E-01</totfact>
</mgrwt>
</event>
<event>
 6    1  0.1431486E-005  0.1065170E+04  0.7818608E-02  0.9561344E-01
          4   -1    0    0  502    0 -0.00000000000E+00  0.00000000000E+00  0.84471948559E+03  0.84471948559E+03  0.00000000000E+00 0.  1.
         21   -1    0    0  501  502  0.00000000000E+00 -0.00000000000E+00 -0.60154751594E+03  0.60154751594E+03  0.00000000000E+00 0. -1.
    9000010    2    1    2  501    0  0.49803263733E+02 -0.33367894500E+03  0.29420504646E+03  0.11050538870E+04  0.10103293921E+04 0.  0.
        -13    1    3    3    0    0  0.47854772042E+03 -0.17547550848E+03  0.38544163699E+03  0.63903430384E+03  0.10566000000E+00 0.  1.
          4    1    3    3  501    0 -0.42874445668E+03 -0.15820343652E+03 -0.91236590529E+02  0.46601958319E+03  0.00000000000E+00 0.  1.
         13    1    1    2    0    0 -0.49803263733E+02  0.33367894500E+03 -0.51033076811E+02  0.34121311450E+03  0.10566000000E+00 0. -1.
<mgrwt>
<rscale>  1 0.79908427E+03</rscale>
<asrwt>0</asrwt>
<pdfrwt beam="2">  1       21 0.92545771E-01 0.10651702E+04</pdfrwt>
<pdfrwt beam="1">  1        4 0.12995684E+00 0.10651702E+04</pdfrwt>
<totfact> 0.15922971E+01</totfact>
</mgrwt>
</event>
<event>
 6    1  0.1431486E-005  0.1029811E+04  0.7818608E-02  0.9647591E-01
          4   -1    0    0  502    0 -0.00000000000E+00  0.00000000000E+00  0.11449101853E+04  0.11449101853E+04  0.00000000000E+00 0.  1.
         21   -1    0    0  501  502  0.00000000000E+00 -0.00000000000E+00 -0.57909218567E+03  0.57909218567E+03  0.00000000000E+00 0.  1.
    9000010    2    1    2  501    0  0.74811034647E+02 -0.26766507524E+03 -0.67872769562E+02  0.10320447960E+04  0.99159894350E+03 0.  0.
        -13    1    3    3    0    0 -0.11241497004E+03 -0.19351754689E+01  0.42611545141E+03  0.44069860391E+03  0.10566000000E+00 0.  1.
          4    1    3    3  501    0  0.18722600469E+03 -0.26572989977E+03 -0.49398822097E+03  0.59134619211E+03  0.00000000000E+00 0.  1.
         13    1    1    2    0    0 -0.74811034647E+02  0.26766507524E+03  0.63369076921E+03  0.69195757496E+03  0.10566000000E+00 0. -1.
<mgrwt>
<rscale>  1 0.74224827E+03</rscale>
<asrwt>0</asrwt>
<pdfrwt beam="2">  1       21 0.89091106E-01 0.10298105E+04</pdfrwt>
<pdfrwt beam="1">  1        4 0.17614003E+00 0.10298105E+04</pdfrwt>
<totfact> 0.77002021E+00</totfact>
</mgrwt>
</event>
<event>
 6    1  0.1431486E-005  0.1013178E+04  0.7818608E-02  0.9852913E-01
         21   -1    0    0  501  502  0.00000000000E+00  0.00000000000E+00  0.14413438707E+04  0.14413438707E+04  0.00000000000E+00 0.  1.
          4   -1    0    0  502    0 -0.00000000000E+00 -0.00000000000E+00 -0.29681074079E+03  0.29681074079E+03  0.00000000000E+00 0.  1.
    9000010    2    1    2  501    0  0.14754042341E+03 -0.53921910428E+01  0.12086980515E+04  0.15771751079E+04  0.10023637508E+04 0.  0.
        -13    1    3    3    0    0  0.38495975705E+03 -0.45393831795E+02  0.12707385038E+04  0.13285446814E+04  0.10566000000E+00 0.  1.
          4    1    3    3  501    0 -0.23741933364E+03  0.40001640752E+02 -0.62040452225E+02  0.24863042646E+03  0.00000000000E+00 0.  1.
         13    1    1    2    0    0 -0.14754042341E+03  0.53921910428E+01 -0.64164921579E+02  0.16097950363E+03  0.10566000000E+00 0. -1.
<mgrwt>
<rscale>  1 0.62598607E+03</rscale>
<asrwt>0</asrwt>
<pdfrwt beam="1">  1       21 0.22174521E+00 0.10131783E+04</pdfrwt>
<pdfrwt beam="2">  1        4 0.45663192E-01 0.10131783E+04</pdfrwt>
<totfact> 0.15371270E+01</totfact>
</mgrwt>
</event>
<event>
 6    1  0.1431486E-005  0.1005317E+04  0.7818608E-02  0.9821326E-01
          4   -1    0    0  502    0 -0.00000000000E+00  0.00000000000E+00  0.96981977539E+03  0.96981977539E+03  0.00000000000E+00 0.  1.
         21   -1    0    0  501  502  0.00000000000E+00 -0.00000000000E+00 -0.38005101214E+03  0.38005101214E+03  0.00000000000E+00 0.  1.
    9000010    2    1    2  501    0 -0.25114082306E+02  0.16562310014E+03  0.36496099027E+03  0.10695133828E+04  0.99126213644E+03 0.  0.
        -13    1    3    3    0    0 -0.13408701829E+03 -0.20885301172E+03 -0.24291216373E+03  0.34728265064E+03  0.10566000000E+00 0.  1.
          4    1    3    3  501    0  0.10897293599E+03  0.37447611186E+03  0.60787315400E+03  0.72223073217E+03  0.00000000000E+00 0.  1.
         13    1    1    2    0    0  0.25114082306E+02 -0.16562310014E+03  0.22480777297E+03  0.28035740472E+03  0.10566000000E+00 0. -1.
<mgrwt>
<rscale>  1 0.64230545E+03</rscale>
<asrwt>0</asrwt>
<pdfrwt beam="2">  1       21 0.58469387E-01 0.10053170E+04</pdfrwt>
<pdfrwt beam="1">  1        4 0.14920304E+00 0.10053170E+04</pdfrwt>
<totfact> 0.32315919E+01</totfact>
</mgrwt>
</event>
<event>
 6    1  0.1431486E-005  0.1252712E+04  0.7818608E-02  0.9205745E-01
          4   -1    0    0  502    0 -0.00000000000E+00  0.00000000000E+00  0.20094971665E+04  0.20094971665E+04  0.00000000000E+00 0.  1.
         21   -1    0    0  501  502  0.00000000000E+00 -0.00000000000E+00 -0.49859597578E+03  0.49859597578E+03  0.00000000000E+00 0. -1.
    9000010    2    1    2  501    0 -0.63577494965E+03  0.38493419498E+03  0.10408723236E+04  0.16287119575E+04  0.10084162461E+04 0.  0.
        -13    1    3    3    0    0  0.28650830148E+01  0.13719960242E+03  0.92360070448E+03  0.93373990601E+03  0.10566000000E+00 0.  1.
          4    1    3    3  501    0 -0.63864003267E+03  0.24773459256E+03  0.11727161916E+03  0.69497205148E+03  0.00000000000E+00 0.  1.
         13    1    1    2    0    0  0.63577494965E+03 -0.38493419498E+03  0.47002886704E+03  0.87938118475E+03  0.10566000000E+00 0. -1.
<mgrwt>
<rscale>  1 0.10994327E+04</rscale>
<asrwt>0</asrwt>
<pdfrwt beam="2">  1       21 0.76707074E-01 0.12527120E+04</pdfrwt>
<pdfrwt beam="1">  1        4 0.30915341E+00 0.12527120E+04</pdfrwt>
<totfact> 0.15138468E+00</totfact>
</mgrwt>
</event>
<event>
 6    1  0.1431486E-005  0.1032799E+04  0.7818608E-02  0.9716476E-01
          4   -1    0    0  502    0 -0.00000000000E+00  0.00000000000E+00  0.36623085761E+03  0.36623085761E+03  0.00000000000E+00 0.  1.
         21   -1    0    0  501  502  0.00000000000E+00 -0.00000000000E+00 -0.13789550323E+04  0.13789550323E+04  0.00000000000E+00 0.  1.
    9000010    2    1    2  501    0  0.23458094920E+02  0.21723273656E+03 -0.11009434865E+04  0.15095526957E+04  0.10094218328E+04 0.  0.
        -13    1    3    3    0    0 -0.34310985926E+03  0.19680796383E+03 -0.52905904847E+02  0.39906991378E+03  0.10566000000E+00 0.  1.
          4    1    3    3  501    0  0.36656795418E+03  0.20424772733E+02 -0.10480375817E+04  0.11104827819E+04  0.00000000000E+00 0.  1.
         13    1    1    2    0    0 -0.23458094920E+02 -0.21723273656E+03  0.88219311851E+02  0.23563319418E+03  0.10566000000E+00 0. -1.
<mgrwt>
<rscale>  1 0.70044237E+03</rscale>
<asrwt>0</asrwt>
<pdfrwt beam="2">  1       21 0.21214693E+00 0.10327985E+04</pdfrwt>
<pdfrwt beam="1">  1        4 0.56343208E-01 0.10327985E+04</pdfrwt>
<totfact> 0.11380549E+01</totfact>
</mgrwt>
</event>
<event>
 6    1  0.1431486E-005  0.1009435E+04  0.7818608E-02  0.9851260E-01
          4   -1    0    0  502    0 -0.00000000000E+00  0.00000000000E+00  0.52477392061E+03  0.52477392061E+03  0.00000000000E+00 0.  1.
         21   -1    0    0  501  502  0.00000000000E+00 -0.00000000000E+00 -0.72250935173E+03  0.72250935173E+03  0.00000000000E+00 0.  1.
    9000010    2    1    2  501    0 -0.14821631143E+03 -0.23652805369E+02 -0.31431146388E+03  0.10572371917E+04  0.99821403171E+03 0.  0.
        -13    1    3    3    0    0  0.48429217835E+02  0.14417603493E+02 -0.65773409593E+03  0.65967219779E+03  0.10566000000E+00 0.  1.
          4    1    3    3  501    0 -0.19664552926E+03 -0.38070408863E+02  0.34342263205E+03  0.39756499395E+03  0.00000000000E+00 0.  1.
         13    1    1    2    0    0  0.14821631143E+03  0.23652805369E+02  0.11657603276E+03  0.19004608061E+03  0.10566000000E+00 0. -1.
<mgrwt>
<rscale>  1 0.62682738E+03</rscale>
<asrwt>0</asrwt>
<pdfrwt beam="2">  1       21 0.11115528E+00 0.10094349E+04</pdfrwt>
<pdfrwt beam="1">  1        4 0.80734450E-01 0.10094349E+04</pdfrwt>
<totfact> 0.32225147E+01</totfact>
</mgrwt>
</event>
<event>
 6    1  0.1431486E-005  0.1059419E+04  0.7818608E-02  0.9541623E-01
          4   -1    0    0  502    0 -0.00000000000E+00  0.00000000000E+00  0.12089920263E+04  0.12089920263E+04  0.00000000000E+00 0.  1.
         21   -1    0    0  501  502  0.00000000000E+00 -0.00000000000E+00 -0.42081780609E+03  0.42081780609E+03  0.00000000000E+00 0. -1.
    9000010    2    1    2  501    0  0.26144419903E+03 -0.25772582119E+03  0.58896102123E+03  0.12121238524E+04  0.99377737990E+03 0.  0.
        -13    1    3    3    0    0  0.39630329317E+03  0.20582334305E+03  0.57645860604E+03  0.72919413352E+03  0.10566000000E+00 0.  1.
          4    1    3    3  501    0 -0.13485909413E+03 -0.46354916425E+03  0.12502415190E+02  0.48292971883E+03  0.00000000000E+00 0.  1.
         13    1    1    2    0    0 -0.26144419903E+03  0.25772582119E+03  0.19921319901E+03  0.41768598006E+03  0.10566000000E+00 0. -1.
<mgrwt>
<rscale>  1 0.81283499E+03</rscale>
<asrwt>0</asrwt>
<pdfrwt beam="2">  1       21 0.64741202E-01 0.10594193E+04</pdfrwt>
<pdfrwt beam="1">  1        4 0.18599877E+00 0.10594193E+04</pdfrwt>
<totfact> 0.13797327E+01</totfact>
</mgrwt>
</event>
<event>
 6    1  0.1431486E-005  0.1119799E+04  0.7818608E-02  0.9418333E-01
         21   -1    0    0  501  502  0.00000000000E+00  0.00000000000E+00  0.20654359052E+04  0.20654359052E+04  0.00000000000E+00 0.  1.
          4   -1    0    0  502    0 -0.00000000000E+00 -0.00000000000E+00 -0.32984682988E+03  0.32984682988E+03  0.00000000000E+00 0.  1.
    9000010    2    1    2  501    0 -0.57576063924E+02 -0.47598924163E+03  0.92024092861E+03  0.14494109823E+04  0.10119624832E+04 0.  0.
        -13    1    3    3    0    0 -0.42649558590E+02  0.52031063176E+02 -0.19992656864E+03  0.21094278939E+03  0.10566000000E+00 0.  1.
          4    1    3    3  501    0 -0.14926505334E+02 -0.52802030481E+03  0.11201674972E+04  0.12384681929E+04  0.00000000000E+00 0.  1.
         13    1    1    2    0    0  0.57576063924E+02  0.47598924163E+03  0.81534814668E+03  0.94587175280E+03  0.10566000000E+00 0. -1.
<mgrwt>
<rscale>  1 0.90582190E+03</rscale>
<asrwt>0</asrwt>
<pdfrwt beam="1">  1       21 0.31775936E+00 0.11197986E+04</pdfrwt>
<pdfrwt beam="2">  1        4 0.50745667E-01 0.11197986E+04</pdfrwt>
<totfact> 0.29920442E+00</totfact>
</mgrwt>
</event>
<event>
 6    1  0.1431486E-005  0.1019213E+04  0.7818608E-02  0.9650662E-01
          4   -1    0    0  502    0 -0.00000000000E+00  0.00000000000E+00  0.33980273322E+03  0.33980273322E+03  0.00000000000E+00 0.  1.
         21   -1    0    0  501  502  0.00000000000E+00 -0.00000000000E+00 -0.14996597967E+04  0.14996597967E+04  0.00000000000E+00 0.  1.
    9000010    2    1    2  501    0  0.27929948639E+03  0.49854407106E+02 -0.11748714559E+04  0.15553514458E+04  0.97892875998E+03 0.  0.
        -13    1    3    3    0    0  0.33198850551E+03  0.25507062800E+03 -0.62882013839E+02  0.42335747530E+03  0.10566000000E+00 0.  1.
          4    1    3    3  501    0 -0.52689019126E+02 -0.20521622090E+03 -0.11119894420E+04  0.11319939705E+04  0.00000000000E+00 0.  1.
         13    1    1    2    0    0 -0.27929948639E+03 -0.49854407106E+02  0.15014392348E+02  0.28411108417E+03  0.10566000000E+00 0. -1.
<mgrwt>
<rscale>  1 0.74031908E+03</rscale>
<asrwt>0</asrwt>
<pdfrwt beam="2">  1       21 0.23071689E+00 0.10192130E+04</pdfrwt>
<pdfrwt beam="1">  1        4 0.52277344E-01 0.10192130E+04</pdfrwt>
<totfact> 0.10093524E+01</totfact>
</mgrwt>
</event>
<event>
 6    1  0.1431486E-005  0.1017388E+04  0.7818608E-02  0.9742004E-01
         21   -1    0    0  501  502  0.00000000000E+00  0.00000000000E+00  0.39548844935E+03  0.39548844935E+03  0.00000000000E+00 0.  1.
          4   -1    0    0  502    0 -0.00000000000E+00 -0.00000000000E+00 -0.16300398885E+04  0.16300398885E+04  0.00000000000E+00 0.  1.
    9000010    2    1    2  501    0 -0.86384491355E+02  0.19133409947E+03 -0.28997666255E+03  0.10579062330E+04  0.99549390510E+03 0.  0.
        -13    1    3    3    0    0 -0.33594286659E+03 -0.11097901233E+03  0.21852261932E+03  0.41584383741E+03  0.10566000000E+00 0.  1.
          4    1    3    3  501    0  0.24955837524E+03  0.30231311180E+03 -0.50849928187E+03  0.64206239563E+03  0.00000000000E+00 0.  1.
         13    1    1    2    0    0  0.86384491355E+02 -0.19133409947E+03 -0.94457477660E+03  0.96762210481E+03  0.10566000000E+00 0. -1.
<mgrwt>
<rscale>  1 0.68570013E+03</rscale>
<asrwt>0</asrwt>
<pdfrwt beam="1">  1       21 0.60844376E-01 0.10173884E+04</pdfrwt>
<pdfrwt beam="2">  1        4 0.25077537E+00 0.10173884E+04</pdfrwt>
<totfact> 0.60975534E+00</totfact>
</mgrwt>
</event>
<event>
 6    1  0.1431486E-005  0.1110083E+04  0.7818608E-02  0.9420892E-01
          4   -1    0    0  502    0 -0.00000000000E+00  0.00000000000E+00  0.68101824578E+03  0.68101824578E+03  0.00000000000E+00 0.  1.
         21   -1    0    0  501  502  0.00000000000E+00 -0.00000000000E+00 -0.99875972678E+03  0.99875972678E+03  0.00000000000E+00 0.  1.
    9000010    2    1    2  501    0 -0.41145870323E+03  0.26181822200E+03 -0.41010234142E+03  0.11834136048E+04  0.99721451246E+03 0.  0.
        -13    1    3    3    0    0 -0.72016527950E+03  0.78718406316E+02 -0.14913313909E+03  0.73964540263E+03  0.10566000000E+00 0.  1.
          4    1    3    3  501    0  0.30870657627E+03  0.18309981569E+03 -0.26096920233E+03  0.44376820222E+03  0.00000000000E+00 0.  1.
         13    1    1    2    0    0  0.41145870323E+03 -0.26181822200E+03  0.92360860417E+02  0.49636436772E+03  0.10566000000E+00 0. -1.
<mgrwt>
<rscale>  1 0.90376133E+03</rscale>
<asrwt>0</asrwt>
<pdfrwt beam="2">  1       21 0.15365534E+00 0.11100828E+04</pdfrwt>
<pdfrwt beam="1">  1        4 0.10477204E+00 0.11100828E+04</pdfrwt>
<totfact> 0.72460851E+00</totfact>
</mgrwt>
</event>
<event>
 6    1  0.1431486E-005  0.1465051E+04  0.7818608E-02  0.8986005E-01
         21   -1    0    0  501  502  0.00000000000E+00  0.00000000000E+00  0.90865609010E+03  0.90865609010E+03  0.00000000000E+00 0. -1.
          4   -1    0    0  502    0 -0.00000000000E+00 -0.00000000000E+00 -0.19321580786E+04  0.19321580786E+04  0.00000000000E+00 0.  1.
    9000010    2    1    2  501    0  0.51403569523E+03 -0.94574874237E+03 -0.18568421304E+03  0.14767716416E+04  0.99383221665E+03 0.  0.
        -13    1    3    3    0    0  0.60030040255E+03 -0.76594340297E+03 -0.50798490639E+03  0.10977606962E+04  0.10566000000E+00 0.  1.
          4    1    3    3  501    0 -0.86264707317E+02 -0.17980533940E+03  0.32230069335E+03  0.37901094541E+03  0.00000000000E+00 0.  1.
         13    1    1    2    0    0 -0.51403569523E+03  0.94574874237E+03 -0.83781777548E+03  0.13640425271E+04  0.10566000000E+00 0. -1.
<mgrwt>
<rscale>  1 0.13563907E+04</rscale>
<asrwt>0</asrwt>
<pdfrwt beam="1">  1       21 0.13979324E+00 0.14650515E+04</pdfrwt>
<pdfrwt beam="2">  1        4 0.29725509E+00 0.14650515E+04</pdfrwt>
<totfact> 0.38406249E-01</totfact>
</mgrwt>
</event>
<event>
 6    1  0.1431486E-005  0.1104552E+04  0.7818608E-02  0.9441180E-01
         21   -1    0    0  501  502  0.00000000000E+00  0.00000000000E+00  0.14023639080E+04  0.14023639080E+04  0.00000000000E+00 0.  1.
          4   -1    0    0  502    0 -0.00000000000E+00 -0.00000000000E+00 -0.47083987361E+03  0.47083987361E+03  0.00000000000E+00 0.  1.
    9000010    2    1    2  501    0  0.93943092690E+02  0.45096386884E+03  0.87493795983E+03  0.14090963472E+04  0.10039135255E+04 0.  0.
        -13    1    3    3    0    0 -0.24480268012E+03 -0.37646407490E+02 -0.10005319634E+03  0.26712592059E+03  0.10566000000E+00 0.  1.
          4    1    3    3  501    0  0.33874577281E+03  0.48861027633E+03  0.97499115617E+03  0.11419704266E+04  0.00000000000E+00 0.  1.
         13    1    1    2    0    0 -0.93943092690E+02 -0.45096386884E+03  0.56586074592E+02  0.46410743440E+03  0.10566000000E+00 0. -1.
<mgrwt>
<rscale>  1 0.88762867E+03</rscale>
<asrwt>0</asrwt>
<pdfrwt beam="1">  1       21 0.21574829E+00 0.11045524E+04</pdfrwt>
<pdfrwt beam="2">  1        4 0.72436904E-01 0.11045524E+04</pdfrwt>
<totfact> 0.61279287E+00</totfact>
</mgrwt>
</event>
<event>
 6    1  0.1780899E-005  0.8680090E+03  0.7818608E-02  0.9967447E-01
         21   -1    0    0  501  502  0.00000000000E+00  0.00000000000E+00  0.66889939759E+03  0.66889939759E+03  0.00000000000E+00 0.  1.
          4   -1    0    0  502    0 -0.00000000000E+00 -0.00000000000E+00 -0.40284367036E+03  0.40284367036E+03  0.00000000000E+00 0.  1.
    9000010    2    1    2  501    0 -0.11240695238E+03  0.11742585089E+03  0.17517756933E+03  0.88550933270E+03  0.85265200644E+03 0.  0.
        -13    1    3    3    0    0  0.15481960794E+03 -0.31022949737E+03  0.15778185954E+03  0.38092857389E+03  0.10566000000E+00 0.  1.
          4    1    3    3  501    0 -0.26722656032E+03  0.42765534826E+03  0.17395709795E+02  0.50458075880E+03  0.00000000000E+00 0.  1.
         13    1    1    2    0    0  0.11240695238E+03 -0.11742585089E+03  0.90878157896E+02  0.18623373525E+03  0.10566000000E+00 0. -1.
<mgrwt>
<rscale>  1 0.57100956E+03</rscale>
<asrwt>0</asrwt>
<pdfrwt beam="1">  1       21 0.10290760E+00 0.86800898E+03</pdfrwt>
<pdfrwt beam="2">  1        4 0.61975950E-01 0.86800898E+03</pdfrwt>
<totfact> 0.71701942E+01</totfact>
</mgrwt>
</event>
<event>
 6    1  0.1431486E-005  0.1029357E+04  0.7818608E-02  0.9813648E-01
          4   -1    0    0  502    0 -0.00000000000E+00  0.00000000000E+00  0.76196797717E+03  0.76196797717E+03  0.00000000000E+00 0.  1.
         21   -1    0    0  501  502  0.00000000000E+00 -0.00000000000E+00 -0.52929445093E+03  0.52929445093E+03  0.00000000000E+00 0.  1.
    9000010    2    1    2  501    0  0.42871739834E+02  0.15417200441E+03  0.25746451621E+02  0.10296791366E+04  0.10168427861E+04 0.  0.
        -13    1    3    3    0    0 -0.14721494755E+03  0.33726172920E+03 -0.39065490123E+03  0.53668331238E+03  0.10566000000E+00 0.  1.
          4    1    3    3  501    0  0.19008668739E+03 -0.18308972480E+03  0.41640135285E+03  0.49299582423E+03  0.00000000000E+00 0.  1.
         13    1    1    2    0    0 -0.42871739834E+02 -0.15417200441E+03  0.20692707461E+03  0.26158329150E+03  0.10566000000E+00 0. -1.
<mgrwt>
<rscale>  1 0.64635249E+03</rscale>
<asrwt>0</asrwt>
<pdfrwt beam="2">  1       21 0.81429916E-01 0.10293572E+04</pdfrwt>
<pdfrwt beam="1">  1        4 0.11722584E+00 0.10293572E+04</pdfrwt>
<totfact> 0.28210505E+01</totfact>
</mgrwt>
</event>
<event>
 6    1  0.1740873E-005  0.7690917E+03  0.7818608E-02  0.9938801E-01
          4   -1    0    0  502    0 -0.00000000000E+00  0.00000000000E+00  0.84984264485E+03  0.84984264485E+03  0.00000000000E+00 0.  1.
         21   -1    0    0  501  502  0.00000000000E+00 -0.00000000000E+00 -0.34878202686E+03  0.34878202686E+03  0.00000000000E+00 0.  1.
    9000010    2    1    2  501    0  0.13466788804E+03  0.21770698566E+03  0.18340450266E+03  0.79065752787E+03  0.72523812855E+03 0.  0.
        -13    1    3    3    0    0  0.26146319025E+02  0.84764674064E+02  0.45818350134E+03  0.46669134557E+03  0.10566000000E+00 0.  1.
          4    1    3    3  501    0  0.10852156901E+03  0.13294231160E+03 -0.27477899868E+03  0.32396618230E+03  0.00000000000E+00 0.  1.
         13    1    1    2    0    0 -0.13466788804E+03 -0.21770698566E+03  0.31765611533E+03  0.40796714383E+03  0.10566000000E+00 0. -1.
<mgrwt>
<rscale>  1 0.58417116E+03</rscale>
<asrwt>0</asrwt>
<pdfrwt beam="2">  1       21 0.53658774E-01 0.76909175E+03</pdfrwt>
<pdfrwt beam="1">  1        4 0.13074502E+00 0.76909175E+03</pdfrwt>
<totfact> 0.56373801E+01</totfact>
</mgrwt>
</event>
<event>
 6    1  0.1431486E-005  0.9912798E+03  0.7818608E-02  0.9876599E-01
          4   -1    0    0  502    0 -0.00000000000E+00  0.00000000000E+00  0.51669746653E+03  0.51669746653E+03  0.00000000000E+00 0.  1.
         21   -1    0    0  501  502  0.00000000000E+00 -0.00000000000E+00 -0.79846301225E+03  0.79846301225E+03  0.00000000000E+00 0.  1.
    9000010    2    1    2  501    0 -0.11944800686E+03  0.83943799031E+02 -0.45321578901E+03  0.10899725909E+04  0.98046994337E+03 0.  0.
        -13    1    3    3    0    0 -0.43269875453E+03  0.69981768350E+02 -0.60057088251E+03  0.74351264694E+03  0.10566000000E+00 0.  1.
          4    1    3    3  501    0  0.31325074767E+03  0.13962030680E+02  0.14735509350E+03  0.34645994400E+03  0.00000000000E+00 0.  1.
         13    1    1    2    0    0  0.11944800686E+03 -0.83943799031E+02  0.17145024329E+03  0.22518788784E+03  0.10566000000E+00 0. -1.
<mgrwt>
<rscale>  1 0.61408903E+03</rscale>
<asrwt>0</asrwt>
<pdfrwt beam="2">  1       21 0.12284046E+00 0.99127983E+03</pdfrwt>
<pdfrwt beam="1">  1        4 0.79491919E-01 0.99127983E+03</pdfrwt>
<totfact> 0.25865627E+01</totfact>
</mgrwt>
</event>
<event>
 6    1  0.1431486E-005  0.8891203E+03  0.7818608E-02  0.9604745E-01
          4   -1    0    0  502    0 -0.00000000000E+00  0.00000000000E+00  0.58968928742E+03  0.58968928742E+03  0.00000000000E+00 0.  1.
         21   -1    0    0  501  502  0.00000000000E+00 -0.00000000000E+00 -0.10329135959E+04  0.10329135959E+04  0.00000000000E+00 0.  1.
    9000010    2    1    2  501    0  0.20677249784E+03  0.45489452379E+03 -0.62941552565E+03  0.10893570919E+04  0.73542577875E+03 0.  0.
        -13    1    3    3    0    0  0.26515308883E+03  0.33627798889E+03 -0.77947617341E+03  0.88936615767E+03  0.10566000000E+00 0.  1.
          4    1    3    3  501    0 -0.58380590988E+02  0.11861653490E+03  0.15006064776E+03  0.19999093420E+03  0.00000000000E+00 0.  1.
         13    1    1    2    0    0 -0.20677249784E+03 -0.45489452379E+03  0.18619121713E+03  0.53324579149E+03  0.10566000000E+00 0. -1.
<mgrwt>
<rscale>  1 0.76982893E+03</rscale>
<asrwt>0</asrwt>
<pdfrwt beam="2">  1       21 0.15890978E+00 0.88912033E+03</pdfrwt>
<pdfrwt beam="1">  1        4 0.90721430E-01 0.88912033E+03</pdfrwt>
<totfact> 0.95656756E+00</totfact>
</mgrwt>
</event>
<event>
 6    1  0.1431486E-005  0.1056432E+04  0.7818608E-02  0.9588225E-01
         21   -1    0    0  501  502  0.00000000000E+00  0.00000000000E+00  0.39381004352E+03  0.39381004352E+03  0.00000000000E+00 0.  1.
          4   -1    0    0  502    0 -0.00000000000E+00 -0.00000000000E+00 -0.19145170268E+04  0.19145170268E+04  0.00000000000E+00 0.  1.
    9000010    2    1    2  501    0  0.24807813110E+03 -0.19451199550E+03 -0.37654686416E+03  0.11215330423E+04  0.10083011200E+04 0.  0.
        -13    1    3    3    0    0 -0.11441636218E+03 -0.53230907868E+03 -0.29541274894E+03  0.61944552834E+03  0.10566000000E+00 0.  1.
          4    1    3    3  501    0  0.36249449328E+03  0.33779708318E+03 -0.81134115218E+02  0.50208751400E+03  0.00000000000E+00 0.  1.
         13    1    1    2    0    0 -0.24807813110E+03  0.19451199550E+03 -0.11441601191E+04  0.11867940280E+04  0.10566000000E+00 0. -1.
<mgrwt>
<rscale>  1 0.78080450E+03</rscale>
<asrwt>0</asrwt>
<pdfrwt beam="1">  1       21 0.60586162E-01 0.10564321E+04</pdfrwt>
<pdfrwt beam="2">  1        4 0.29454107E+00 0.10564321E+04</pdfrwt>
<totfact> 0.32888048E+00</totfact>
</mgrwt>
</event>
<event>
 6    1  0.1431486E-005  0.1056313E+04  0.7818608E-02  0.9643786E-01
         21   -1    0    0  501  502  0.00000000000E+00  0.00000000000E+00  0.60430662284E+03  0.60430662284E+03  0.00000000000E+00 0.  1.
          4   -1    0    0  502    0 -0.00000000000E+00 -0.00000000000E+00 -0.76307187048E+03  0.76307187048E+03  0.00000000000E+00 0.  1.
    9000010    2    1    2  501    0 -0.11903897900E+03 -0.23212689749E+03  0.10573195683E+02  0.10563661228E+04  0.10235938735E+04 0.  0.
        -13    1    3    3    0    0 -0.17436487577E+03 -0.34951782439E+03 -0.43948352399E+03  0.58797244705E+03  0.10566000000E+00 0.  1.
          4    1    3    3  501    0  0.55325896767E+02  0.11739092690E+03  0.45005671967E+03  0.46839367576E+03  0.00000000000E+00 0.  1.
         13    1    1    2    0    0  0.11903897900E+03  0.23212689749E+03 -0.16933844332E+03  0.31101237051E+03  0.10566000000E+00 0. -1.
<mgrwt>
<rscale>  1 0.74464725E+03</rscale>
<asrwt>0</asrwt>
<pdfrwt beam="1">  1       21 0.92970249E-01 0.10563132E+04</pdfrwt>
<pdfrwt beam="2">  1        4 0.11739567E+00 0.10563132E+04</pdfrwt>
<totfact> 0.20403757E+01</totfact>
</mgrwt>
</event>
<event>
 6    1  0.1431486E-005  0.9904716E+03  0.7818608E-02  0.9852110E-01
         21   -1    0    0  501  502  0.00000000000E+00  0.00000000000E+00  0.14422622932E+04  0.14422622932E+04  0.00000000000E+00 0.  1.
          4   -1    0    0  502    0 -0.00000000000E+00 -0.00000000000E+00 -0.26864895330E+03  0.26864895330E+03  0.00000000000E+00 0.  1.
    9000010    2    1    2  501    0  0.11342433386E+03  0.11062645320E+03  0.11937995260E+04  0.15511902869E+04  0.97771708901E+03 0.  0.
        -13    1    3    3    0    0  0.24014876681E+03  0.47102561619E+03  0.97969229994E+03  0.11132535987E+04  0.10566000000E+00 0.  1.
          4    1    3    3  501    0 -0.12672443295E+03 -0.36039916299E+03  0.21410722609E+03  0.43793668818E+03  0.00000000000E+00 0.  1.
         13    1    1    2    0    0 -0.11342433386E+03 -0.11062645320E+03 -0.20186186136E+02  0.15972095959E+03  0.10566000000E+00 0. -1.
<mgrwt>
<rscale>  1 0.62639442E+03</rscale>
<asrwt>0</asrwt>
<pdfrwt beam="1">  1       21 0.22188650E+00 0.99047160E+03</pdfrwt>
<pdfrwt beam="2">  1        4 0.41330609E-01 0.99047160E+03</pdfrwt>
<totfact> 0.18901638E+01</totfact>
</mgrwt>
</event>
<event>
 6    1  0.1431486E-005  0.1048734E+04  0.7818608E-02  0.9705733E-01
         21   -1    0    0  501  502  0.00000000000E+00  0.00000000000E+00  0.91323458991E+03  0.91323458991E+03  0.00000000000E+00 0.  1.
          4   -1    0    0  502    0 -0.00000000000E+00 -0.00000000000E+00 -0.46386346622E+03  0.46386346622E+03  0.00000000000E+00 0.  1.
    9000010    2    1    2  501    0 -0.93514690791E+02  0.19506625251E+03  0.48906459769E+03  0.11571630128E+04  0.10261804018E+04 0.  0.
        -13    1    3    3    0    0 -0.29881451474E+03 -0.35306301714E+03  0.19242020598E+03  0.50096821768E+03  0.10566000000E+00 0.  1.
          4    1    3    3  501    0  0.20529982395E+03  0.54812926965E+03  0.29664439171E+03  0.65619479508E+03  0.00000000000E+00 0.  1.
         13    1    1    2    0    0  0.93514690791E+02 -0.19506625251E+03 -0.39693474002E+02  0.21993504338E+03  0.10566000000E+00 0. -1.
<mgrwt>
<rscale>  1 0.70676460E+03</rscale>
<asrwt>0</asrwt>
<pdfrwt beam="1">  1       21 0.14049763E+00 0.10487335E+04</pdfrwt>
<pdfrwt beam="2">  1        4 0.71363610E-01 0.10487335E+04</pdfrwt>
<totfact> 0.22961714E+01</totfact>
</mgrwt>
</event>
<event>
 6    1  0.1431486E-005  0.1030843E+04  0.7818608E-02  0.9729000E-01
         21   -1    0    0  501  502  0.00000000000E+00  0.00000000000E+00  0.96085107269E+03  0.96085107269E+03  0.00000000000E+00 0.  1.
          4   -1    0    0  502    0 -0.00000000000E+00 -0.00000000000E+00 -0.51923221539E+03  0.51923221539E+03  0.00000000000E+00 0.  1.
    9000010    2    1    2  501    0  0.90701987182E+01 -0.21055067375E+03  0.62090341122E+03  0.12033942620E+04  0.10090702894E+04 0.  0.
        -13    1    3    3    0    0  0.15620385339E+03 -0.59503482412E+03  0.31978002639E+03  0.69334361046E+03  0.10566000000E+00 0.  1.
          4    1    3    3  501    0 -0.14713365467E+03  0.38448415036E+03  0.30112338483E+03  0.51005065152E+03  0.00000000000E+00 0.  1.
         13    1    1    2    0    0 -0.90701987182E+01  0.21055067375E+03 -0.17928455392E+03  0.27668902610E+03  0.10566000000E+00 0. -1.
<mgrwt>
<rscale>  1 0.69316101E+03</rscale>
<asrwt>0</asrwt>
<pdfrwt beam="1">  1       21 0.14782324E+00 0.10308427E+04</pdfrwt>
<pdfrwt beam="2">  1        4 0.79881879E-01 0.10308427E+04</pdfrwt>
<totfact> 0.15476976E+01</totfact>
</mgrwt>
</event>
<event>
 6    1  0.1431486E-005  0.1051969E+04  0.7818608E-02  0.9544893E-01
          4   -1    0    0  502    0 -0.00000000000E+00  0.00000000000E+00  0.38061220059E+03  0.38061220059E+03  0.00000000000E+00 0.  1.
         21   -1    0    0  501  502  0.00000000000E+00 -0.00000000000E+00 -0.13321726945E+04  0.13321726945E+04  0.00000000000E+00 0.  1.
    9000010    2    1    2  501    0 -0.28183822902E+03 -0.24087335532E+03 -0.66954519047E+03  0.12469679749E+04  0.98447224826E+03 0.  0.
        -13    1    3    3    0    0 -0.37089156700E+03  0.28771362736E+03 -0.49751468189E+03  0.68400333018E+03  0.10566000000E+00 0.  1.
          4    1    3    3  501    0  0.89053337983E+02 -0.52858698268E+03 -0.17203050857E+03  0.56296464467E+03  0.00000000000E+00 0.  1.
         13    1    1    2    0    0  0.28183822902E+03  0.24087335532E+03 -0.28201530344E+03  0.46581692024E+03  0.10566000000E+00 0. -1.
<mgrwt>
<rscale>  1 0.81053428E+03</rscale>
<asrwt>0</asrwt>
<pdfrwt beam="2">  1       21 0.20494964E+00 0.10519688E+04</pdfrwt>
<pdfrwt beam="1">  1        4 0.58555724E-01 0.10519688E+04</pdfrwt>
<totfact> 0.11682699E+01</totfact>
</mgrwt>
</event>
<event>
 6    1  0.1431486E-005  0.1021369E+04  0.7818608E-02  0.9890785E-01
          4   -1    0    0  502    0 -0.00000000000E+00  0.00000000000E+00  0.31079599589E+03  0.31079599589E+03  0.00000000000E+00 0.  1.
         21   -1    0    0  501  502  0.00000000000E+00 -0.00000000000E+00 -0.10621614894E+04  0.10621614894E+04  0.00000000000E+00 0.  1.
    9000010    2    1    2  501    0 -0.96242039567E+02  0.83620276274E+02 -0.65885873490E+03  0.12154379870E+04  0.10133803762E+04 0.  0.
        -13    1    3    3    0    0  0.39542257658E+03 -0.16109644192E+03 -0.46923678845E+03  0.63442434731E+03  0.10566000000E+00 0.  1.
          4    1    3    3  501    0 -0.49166461615E+03  0.24471671819E+03 -0.18962194645E+03  0.58101363970E+03  0.00000000000E+00 0.  1.
         13    1    1    2    0    0  0.96242039567E+02 -0.83620276274E+02 -0.92506758592E+02  0.15751949826E+03  0.10566000000E+00 0. -1.
<mgrwt>
<rscale>  1 0.60709978E+03</rscale>
<asrwt>0</asrwt>
<pdfrwt beam="2">  1       21 0.16340946E+00 0.10213690E+04</pdfrwt>
<pdfrwt beam="1">  1        4 0.47814769E-01 0.10213690E+04</pdfrwt>
<totfact> 0.35945192E+01</totfact>
</mgrwt>
</event>
<event>
 6    1  0.1431486E-005  0.1071875E+04  0.7818608E-02  0.9535106E-01
          4   -1    0    0  502    0 -0.00000000000E+00  0.00000000000E+00  0.46726048021E+03  0.46726048021E+03  0.00000000000E+00 0.  1.
         21   -1    0    0  501  502  0.00000000000E+00 -0.00000000000E+00 -0.11770223170E+04  0.11770223170E+04  0.00000000000E+00 0.  1.
    9000010    2    1    2  501    0  0.13315555709E+03 -0.33723915673E+03 -0.70262230271E+03  0.12816374672E+04  0.10086901635E+04 0.  0.
        -13    1    3    3    0    0  0.50322524465E+03  0.81595693550E+02 -0.38448488476E+03  0.63853123794E+03  0.10566000000E+00 0.  1.
          4    1    3    3  501    0 -0.37006968756E+03 -0.41883485028E+03 -0.31813741796E+03  0.64310622930E+03  0.00000000000E+00 0.  1.
         13    1    1    2    0    0 -0.13315555709E+03  0.33723915673E+03 -0.71395340498E+01  0.36264532994E+03  0.10566000000E+00 0. -1.
<mgrwt>
<rscale>  1 0.81744332E+03</rscale>
<asrwt>0</asrwt>
<pdfrwt beam="2">  1       21 0.18108036E+00 0.10718752E+04</pdfrwt>
<pdfrwt beam="1">  1        4 0.71886228E-01 0.10718752E+04</pdfrwt>
<totfact> 0.10890466E+01</totfact>
</mgrwt>
</event>
<event>
 6    1  0.1431486E-005  0.1042555E+04  0.7818608E-02  0.9622964E-01
         21   -1    0    0  501  502  0.00000000000E+00  0.00000000000E+00  0.87012174309E+03  0.87012174309E+03  0.00000000000E+00 0. -1.
          4   -1    0    0  502    0 -0.00000000000E+00 -0.00000000000E+00 -0.51589476598E+03  0.51589476598E+03  0.00000000000E+00 0.  1.
    9000010    2    1    2  501    0  0.21639044052E+03 -0.19493297700E+03  0.33103808234E+03  0.10938497343E+04  0.10010481212E+04 0.  0.
        -13    1    3    3    0    0 -0.18963165345E+03  0.12210607304E+03 -0.23689563467E+03  0.32709266264E+03  0.10566000000E+00 0.  1.
          4    1    3    3  501    0  0.40602209397E+03 -0.31703905004E+03  0.56793371700E+03  0.76675707167E+03  0.00000000000E+00 0.  1.
         13    1    1    2    0    0 -0.21639044052E+03  0.19493297700E+03  0.23188894777E+02  0.29216677476E+03  0.10566000000E+00 0. -1.
<mgrwt>
<rscale>  1 0.75794710E+03</rscale>
<asrwt>0</asrwt>
<pdfrwt beam="1">  1       21 0.13386488E+00 0.10425550E+04</pdfrwt>
<pdfrwt beam="2">  1        4 0.79368425E-01 0.10425550E+04</pdfrwt>
<totfact> 0.20568664E+01</totfact>
</mgrwt>
</event>
<event>
 6    1  0.1431486E-005  0.9163792E+03  0.7818608E-02  0.9851696E-01
         21   -1    0    0  501  502  0.00000000000E+00  0.00000000000E+00  0.70888210568E+03  0.70888210568E+03  0.00000000000E+00 0.  1.
          4   -1    0    0  502    0 -0.00000000000E+00 -0.00000000000E+00 -0.49458907663E+03  0.49458907663E+03  0.00000000000E+00 0.  1.
    9000010    2    1    2  501    0  0.19137789500E+03 -0.59223902969E+02  0.32776801053E+03  0.97323314904E+03  0.89421357867E+03 0.  0.
        -13    1    3    3    0    0  0.41416046530E+03 -0.53396430900E+02  0.52831702142E+03  0.67342331125E+03  0.10566000000E+00 0.  1.
          4    1    3    3  501    0 -0.22278257030E+03 -0.58274720693E+01 -0.20054901090E+03  0.29980983778E+03  0.00000000000E+00 0.  1.
         13    1    1    2    0    0 -0.19137789500E+03  0.59223902969E+02 -0.11347498148E+03  0.23023803327E+03  0.10566000000E+00 0. -1.
<mgrwt>
<rscale>  1 0.62660536E+03</rscale>
<asrwt>0</asrwt>
<pdfrwt beam="1">  1       21 0.10905879E+00 0.91637923E+03</pdfrwt>
<pdfrwt beam="2">  1        4 0.76090627E-01 0.91637923E+03</pdfrwt>
<totfact> 0.39065225E+01</totfact>
</mgrwt>
</event>
<event>
 6    1  0.1431486E-005  0.1058930E+04  0.7818608E-02  0.9571603E-01
          4   -1    0    0  502    0 -0.00000000000E+00  0.00000000000E+00  0.62195272328E+03  0.62195272328E+03  0.00000000000E+00 0.  1.
         21   -1    0    0  501  502  0.00000000000E+00 -0.00000000000E+00 -0.95886776114E+03  0.95886776114E+03  0.00000000000E+00 0. -1.
    9000010    2    1    2  501    0  0.32902310247E+03  0.39910801508E+02  0.63739217535E+02  0.10608465259E+04  0.10057254047E+04 0.  0.
        -13    1    3    3    0    0  0.17954802768E+03  0.23787811349E+03  0.48658840070E+03  0.57060649662E+03  0.10566000000E+00 0.  1.
          4    1    3    3  501    0  0.14947507478E+03 -0.19796731198E+03 -0.42284918316E+03  0.49024002927E+03  0.00000000000E+00 0.  1.
         13    1    1    2    0    0 -0.32902310247E+03 -0.39910801508E+02 -0.40065425540E+03  0.51997395854E+03  0.10566000000E+00 0. -1.
<mgrwt>
<rscale>  1 0.79204533E+03</rscale>
<asrwt>0</asrwt>
<pdfrwt beam="2">  1       21 0.14751812E+00 0.10589300E+04</pdfrwt>
<pdfrwt beam="1">  1        4 0.95685034E-01 0.10589300E+04</pdfrwt>
<totfact> 0.10169664E+01</totfact>
</mgrwt>
</event>
<event>
 6    1  0.1431486E-005  0.8621235E+03  0.7818608E-02  0.1028539E+00
          4   -1    0    0  502    0 -0.00000000000E+00  0.00000000000E+00  0.50462020569E+03  0.50462020569E+03  0.00000000000E+00 0.  1.
         21   -1    0    0  501  502  0.00000000000E+00 -0.00000000000E+00 -0.73220252765E+03  0.73220252765E+03  0.00000000000E+00 0.  1.
    9000010    2    1    2  501    0  0.31628297716E+01  0.62376483768E+02 -0.47315715708E+03  0.98343007356E+03  0.85985823545E+03 0.  0.
        -13    1    3    3    0    0 -0.90571661390E+02 -0.35803091689E+03 -0.40369106486E+03  0.54713421599E+03  0.10566000000E+00 0.  1.
          4    1    3    3  501    0  0.93734491162E+02  0.42040740066E+03 -0.69466092216E+02  0.43629585757E+03  0.00000000000E+00 0.  1.
         13    1    1    2    0    0 -0.31628297716E+01 -0.62376483768E+02  0.24557483512E+03  0.25339265978E+03  0.10566000000E+00 0. -1.
<mgrwt>
<rscale>  1 0.44727220E+03</rscale>
<asrwt>0</asrwt>
<pdfrwt beam="2">  1       21 0.11264654E+00 0.86212355E+03</pdfrwt>
<pdfrwt beam="1">  1        4 0.77633878E-01 0.86212355E+03</pdfrwt>
<totfact> 0.34576313E+01</totfact>
</mgrwt>
</event>
<event>
 6    1  0.1431486E-005  0.1114170E+04  0.7818608E-02  0.9411110E-01
          4   -1    0    0  502    0 -0.00000000000E+00  0.00000000000E+00  0.67330514286E+03  0.67330514286E+03  0.00000000000E+00 0.  1.
         21   -1    0    0  501  502  0.00000000000E+00 -0.00000000000E+00 -0.14893672415E+04  0.14893672415E+04  0.00000000000E+00 0.  1.
    9000010    2    1    2  501    0 -0.49921518185E+03  0.15459951162E+02 -0.11185381910E+04  0.15787660516E+04  0.99595168198E+03 0.  0.
        -13    1    3    3    0    0 -0.25623582992E+03  0.12694621795E+03 -0.12489851631E+04  0.12813024981E+04  0.10566000000E+00 0.  1.
          4    1    3    3  501    0 -0.24297935193E+03 -0.11148626678E+03  0.13044697203E+03  0.29746355349E+03  0.00000000000E+00 0.  1.
         13    1    1    2    0    0  0.49921518185E+03 -0.15459951162E+02  0.30247609239E+03  0.58390633282E+03  0.10566000000E+00 0. -1.
<mgrwt>
<rscale>  1 0.91166977E+03</rscale>
<asrwt>0</asrwt>
<pdfrwt beam="2">  1       21 0.22913342E+00 0.11141699E+04</pdfrwt>
<pdfrwt beam="1">  1        4 0.10358541E+00 0.11141699E+04</pdfrwt>
<totfact> 0.21607778E+00</totfact>
</mgrwt>
</event>
<event>
 6    1  0.1431486E-005  0.1003629E+04  0.7818608E-02  0.9810995E-01
         21   -1    0    0  501  502  0.00000000000E+00  0.00000000000E+00  0.15105201582E+04  0.15105201582E+04  0.00000000000E+00 0.  1.
          4   -1    0    0  502    0 -0.00000000000E+00 -0.00000000000E+00 -0.23610830053E+03  0.23610830053E+03  0.00000000000E+00 0.  1.
    9000010    2    1    2  501    0 -0.17116945994E+03 -0.32101115526E+02  0.11780165732E+04  0.15475768884E+04  0.98840361846E+03 0.  0.
        -13    1    3    3    0    0 -0.46459587885E+03  0.17700694333E+03  0.10559685164E+04  0.11671547915E+04  0.10566000000E+00 0.  1.
          4    1    3    3  501    0  0.29342641890E+03 -0.20910805886E+03  0.12204805684E+03  0.38042209684E+03  0.00000000000E+00 0.  1.
         13    1    1    2    0    0  0.17116945994E+03  0.32101115526E+02  0.96395284447E+02  0.19905157036E+03  0.10566000000E+00 0. -1.
<mgrwt>
<rscale>  1 0.64775835E+03</rscale>
<asrwt>0</asrwt>
<pdfrwt beam="1">  1       21 0.23238771E+00 0.10036290E+04</pdfrwt>
<pdfrwt beam="2">  1        4 0.36324355E-01 0.10036290E+04</pdfrwt>
<totfact> 0.20936797E+01</totfact>
</mgrwt>
</event>
<event>
 6    1  0.1431486E-005  0.1038825E+04  0.7818608E-02  0.9720374E-01
          4   -1    0    0  502    0 -0.00000000000E+00  0.00000000000E+00  0.19975008277E+03  0.19975008277E+03  0.00000000000E+00 0.  1.
         21   -1    0    0  501  502  0.00000000000E+00 -0.00000000000E+00 -0.29019050150E+04  0.29019050150E+04  0.00000000000E+00 0.  1.
    9000010    2    1    2  501    0  0.15371062272E+02 -0.21137903232E+03 -0.26964550317E+04  0.28896412659E+04  0.10169756845E+04 0.  0.
        -13    1    3    3    0    0  0.38905251042E+03  0.27920273949E+02 -0.43165090767E+03  0.58177651621E+03  0.10566000000E+00 0.  1.
          4    1    3    3  501    0 -0.37368144815E+03 -0.23929930627E+03 -0.22648041240E+04  0.23078647497E+04  0.00000000000E+00 0.  1.
         13    1    1    2    0    0 -0.15371062272E+02  0.21137903232E+03 -0.56999005164E+01  0.21201383184E+03  0.10566000000E+00 0. -1.
<mgrwt>
<rscale>  1 0.69816572E+03</rscale>
<asrwt>0</asrwt>
<pdfrwt beam="2">  1       21 0.44644689E+00 0.10388248E+04</pdfrwt>
<pdfrwt beam="1">  1        4 0.30730784E-01 0.10388248E+04</pdfrwt>
<totfact> 0.12311165E+00</totfact>
</mgrwt>
</event>
<event>
 6    1  0.1431486E-005  0.1280065E+04  0.7818608E-02  0.9189289E-01
          4   -1    0    0  502    0 -0.00000000000E+00  0.00000000000E+00  0.10079071412E+04  0.10079071412E+04  0.00000000000E+00 0.  1.
         21   -1    0    0  501  502  0.00000000000E+00 -0.00000000000E+00 -0.11194126104E+04  0.11194126104E+04  0.00000000000E+00 0. -1.
    9000010    2    1    2  501    0  0.59977480668E+03  0.43476452054E+03  0.24807736601E+03  0.13038819377E+04  0.10439423934E+04 0.  0.
        -13    1    3    3    0    0  0.85040240599E+03  0.11460846788E+03  0.72964021177E+02  0.86118703693E+03  0.10566000000E+00 0.  1.
          4    1    3    3  501    0 -0.25062759931E+03  0.32015605266E+03  0.17511334483E+03  0.44269490072E+03  0.00000000000E+00 0.  1.
         13    1    1    2    0    0 -0.59977480668E+03 -0.43476452054E+03 -0.35958283521E+03  0.82343781404E+03  0.10566000000E+00 0. -1.
<mgrwt>
<rscale>  1 0.11164668E+04</rscale>
<asrwt>0</asrwt>
<pdfrwt beam="2">  1       21 0.17221732E+00 0.12800647E+04</pdfrwt>
<pdfrwt beam="1">  1        4 0.15506264E+00 0.12800647E+04</pdfrwt>
<totfact> 0.18628908E+00</totfact>
</mgrwt>
</event>
<event>
 6    1  0.1431486E-005  0.1212079E+04  0.7818608E-02  0.9250269E-01
         21   -1    0    0  501  502  0.00000000000E+00  0.00000000000E+00  0.46850422399E+03  0.46850422399E+03  0.00000000000E+00 0.  1.
          4   -1    0    0  502    0 -0.00000000000E+00 -0.00000000000E+00 -0.21617014037E+04  0.21617014037E+04  0.00000000000E+00 0.  1.
    9000010    2    1    2  501    0 -0.30332226318E+03  0.62587892673E+03 -0.64709414134E+03  0.13739968854E+04  0.99267708091E+03 0.  0.
        -13    1    3    3    0    0 -0.60588504368E+03  0.64670522521E+03 -0.59205530249E+03  0.10657644331E+04  0.10566000000E+00 0.  1.
          4    1    3    3  501    0  0.30256278050E+03 -0.20826298481E+02 -0.55038838853E+02  0.30823245227E+03  0.00000000000E+00 0.  1.
         13    1    1    2    0    0  0.30332226318E+03 -0.62587892673E+03 -0.10461030384E+04  0.12562087423E+04  0.10566000000E+00 0. -1.
<mgrwt>
<rscale>  1 0.10549298E+04</rscale>
<asrwt>0</asrwt>
<pdfrwt beam="1">  1       21 0.72077573E-01 0.12120795E+04</pdfrwt>
<pdfrwt beam="2">  1        4 0.33256945E+00 0.12120795E+04</pdfrwt>
<totfact> 0.12516851E+00</totfact>
</mgrwt>
</event>
<event>
 6    1  0.1431486E-005  0.1077151E+04  0.7818608E-02  0.9519847E-01
          4   -1    0    0  502    0 -0.00000000000E+00  0.00000000000E+00  0.60409318902E+03  0.60409318902E+03  0.00000000000E+00 0.  1.
         21   -1    0    0  501  502  0.00000000000E+00 -0.00000000000E+00 -0.88859621354E+03  0.88859621354E+03  0.00000000000E+00 0.  1.
    9000010    2    1    2  501    0 -0.37552724894E+03  0.30322589452E+02 -0.29141969498E+03  0.11158764176E+04  0.10091157350E+04 0.  0.
        -13    1    3    3    0    0  0.24403506242E+03 -0.60859335816E+02  0.19879611588E+03  0.32058832995E+03  0.10566000000E+00 0.  1.
          4    1    3    3  501    0 -0.61956231137E+03  0.91181925268E+02 -0.49021581086E+03  0.79528808766E+03  0.00000000000E+00 0.  1.
         13    1    1    2    0    0  0.37552724894E+03 -0.30322589452E+02  0.69166704651E+01  0.37681298495E+03  0.10566000000E+00 0. -1.
<mgrwt>
<rscale>  1 0.82836297E+03</rscale>
<asrwt>0</asrwt>
<pdfrwt beam="2">  1       21 0.13670711E+00 0.10771512E+04</pdfrwt>
<pdfrwt beam="1">  1        4 0.92937414E-01 0.10771512E+04</pdfrwt>
<totfact> 0.13405380E+01</totfact>
</mgrwt>
</event>
<event>
 6    1  0.1431486E-005  0.1307101E+04  0.7818608E-02  0.9125746E-01
         21   -1    0    0  501  502  0.00000000000E+00  0.00000000000E+00  0.15209081776E+04  0.15209081776E+04  0.00000000000E+00 0. -1.
          4   -1    0    0  502    0 -0.00000000000E+00 -0.00000000000E+00 -0.96627296093E+03  0.96627296093E+03  0.00000000000E+00 0.  1.
    9000010    2    1    2  501    0 -0.59700321451E+02 -0.88209943883E+03  0.84517895650E+03  0.15565473630E+04  0.96272980440E+03 0.  0.
        -13    1    3    3    0    0  0.25696353075E+02 -0.10641839125E+04  0.83891859502E+03  0.13553346902E+04  0.10566000000E+00 0.  1.
          4    1    3    3  501    0 -0.85396674526E+02  0.18208447365E+03  0.62603614800E+01  0.20121267279E+03  0.00000000000E+00 0.  1.
         13    1    1    2    0    0  0.59700321451E+02  0.88209943883E+03 -0.29054373980E+03  0.93063377559E+03  0.10566000000E+00 0. -1.
<mgrwt>
<rscale>  1 0.11853846E+04</rscale>
<asrwt>0</asrwt>
<pdfrwt beam="1">  1       21 0.23398587E+00 0.13071007E+04</pdfrwt>
<pdfrwt beam="2">  1        4 0.14865738E+00 0.13071007E+04</pdfrwt>
<totfact> 0.77638211E-01</totfact>
</mgrwt>
</event>
<event>
 6    1  0.1431486E-005  0.1023362E+04  0.7818608E-02  0.9618848E-01
         21   -1    0    0  501  502  0.00000000000E+00  0.00000000000E+00  0.73721840094E+03  0.73721840094E+03  0.00000000000E+00 0.  1.
          4   -1    0    0  502    0 -0.00000000000E+00 -0.00000000000E+00 -0.69280829576E+03  0.69280829576E+03  0.00000000000E+00 0.  1.
    9000010    2    1    2  501    0  0.26248180019E+03 -0.16920566043E+03  0.25338378688E+03  0.10542644557E+04  0.97454756075E+03 0.  0.
        -13    1    3    3    0    0 -0.59715803016E+01 -0.32837303863E+03 -0.28310337762E+03  0.43360355840E+03  0.10566000000E+00 0.  1.
          4    1    3    3  501    0  0.26845338049E+03  0.15916737820E+03  0.53648716450E+03  0.62066089731E+03  0.00000000000E+00 0.  1.
         13    1    1    2    0    0 -0.26248180019E+03  0.16920566043E+03 -0.20897368170E+03  0.37576224100E+03  0.10566000000E+00 0. -1.
<mgrwt>
<rscale>  1 0.76061132E+03</rscale>
<asrwt>0</asrwt>
<pdfrwt beam="1">  1       21 0.11341822E+00 0.10233622E+04</pdfrwt>
<pdfrwt beam="2">  1        4 0.10658589E+00 0.10233622E+04</pdfrwt>
<totfact> 0.15819038E+01</totfact>
</mgrwt>
</event>
<event>
 6    1  0.1431486E-005  0.9882021E+03  0.7818608E-02  0.9875944E-01
         21   -1    0    0  501  502  0.00000000000E+00  0.00000000000E+00  0.24470580620E+03  0.24470580620E+03  0.00000000000E+00 0. -1.
          4   -1    0    0  502    0 -0.00000000000E+00 -0.00000000000E+00 -0.13799453983E+04  0.13799453983E+04  0.00000000000E+00 0.  1.
    9000010    2    1    2  501    0 -0.95886077431E+02  0.11231120381E+03 -0.10875686172E+04  0.14694723420E+04  0.97710568543E+03 0.  0.
        -13    1    3    3    0    0 -0.11431242901E+03  0.51058319620E+03 -0.34526871434E+03  0.62687560802E+03  0.10566000000E+00 0.  1.
          4    1    3    3  501    0  0.18426351581E+02 -0.39827199239E+03 -0.74229990288E+03  0.84259673401E+03  0.00000000000E+00 0.  1.
         13    1    1    2    0    0  0.95886077431E+02 -0.11231120381E+03 -0.47670974864E+02  0.15517886246E+03  0.10566000000E+00 0. -1.
<mgrwt>
<rscale>  1 0.61441424E+03</rscale>
<asrwt>0</asrwt>
<pdfrwt beam="1">  1       21 0.37647046E-01 0.98820214E+03</pdfrwt>
<pdfrwt beam="2">  1        4 0.21229930E+00 0.98820214E+03</pdfrwt>
<totfact> 0.30012681E+01</totfact>
</mgrwt>
</event>
<event>
 6    1  0.1431486E-005  0.9948786E+03  0.7818608E-02  0.9761098E-01
          4   -1    0    0  502    0 -0.00000000000E+00  0.00000000000E+00  0.84110501855E+03  0.84110501855E+03  0.00000000000E+00 0.  1.
         21   -1    0    0  501  502  0.00000000000E+00 -0.00000000000E+00 -0.91020248819E+03  0.91020248819E+03  0.00000000000E+00 0.  1.
    9000010    2    1    2  501    0 -0.58212972269E+02  0.20252484321E+03 -0.61261716511E+03  0.11683677733E+04  0.97230571350E+03 0.  0.
        -13    1    3    3    0    0  0.18350918446E+03  0.53584954777E+03 -0.45851320784E+03  0.72872816026E+03  0.10566000000E+00 0.  1.
          4    1    3    3  501    0 -0.24172215673E+03 -0.33332470457E+03 -0.15410395727E+03  0.43963961306E+03  0.00000000000E+00 0.  1.
         13    1    1    2    0    0  0.58212972269E+02 -0.20252484321E+03  0.54351969548E+03  0.58293973342E+03  0.10566000000E+00 0. -1.
<mgrwt>
<rscale>  1 0.67492676E+03</rscale>
<asrwt>0</asrwt>
<pdfrwt beam="2">  1       21 0.14003115E+00 0.99487862E+03</pdfrwt>
<pdfrwt beam="1">  1        4 0.12940077E+00 0.99487862E+03</pdfrwt>
<totfact> 0.56066155E+00</totfact>
</mgrwt>
</event>
<event>
 6    1  0.1431486E-005  0.1023205E+04  0.7818608E-02  0.9791977E-01
         21   -1    0    0  501  502  0.00000000000E+00  0.00000000000E+00  0.12402150366E+04  0.12402150366E+04  0.00000000000E+00 0.  1.
          4   -1    0    0  502    0 -0.00000000000E+00 -0.00000000000E+00 -0.32365988006E+03  0.32365988006E+03  0.00000000000E+00 0.  1.
    9000010    2    1    2  501    0 -0.13448435696E+03  0.11187882156E+03  0.93742086495E+03  0.13876980114E+04  0.10081393653E+04 0.  0.
        -13    1    3    3    0    0  0.10185069059E+03  0.39443698174E+03  0.93437592984E+03  0.10193196187E+04  0.10566000000E+00 0.  1.
          4    1    3    3  501    0 -0.23633504754E+03 -0.28255816018E+03  0.30449351150E+01  0.36837839270E+03  0.00000000000E+00 0.  1.
         13    1    1    2    0    0  0.13448435696E+03 -0.11187882156E+03 -0.20865708407E+02  0.17617690521E+03  0.10566000000E+00 0. -1.
<mgrwt>
<rscale>  1 0.65794905E+03</rscale>
<asrwt>0</asrwt>
<pdfrwt beam="1">  1       21 0.19080231E+00 0.10232047E+04</pdfrwt>
<pdfrwt beam="2">  1        4 0.49793828E-01 0.10232047E+04</pdfrwt>
<totfact> 0.20782320E+01</totfact>
</mgrwt>
</event>
<event>
 6    1  0.1431486E-005  0.1060639E+04  0.7818608E-02  0.9538775E-01
         21   -1    0    0  501  502  0.00000000000E+00  0.00000000000E+00  0.26712133749E+03  0.26712133749E+03  0.00000000000E+00 0. -1.
          4   -1    0    0  502    0 -0.00000000000E+00 -0.00000000000E+00 -0.19219085058E+04  0.19219085058E+04  0.00000000000E+00 0.  1.
    9000010    2    1    2  501    0 -0.10645612599E+03  0.35381631437E+03 -0.12865176228E+04  0.16673581454E+04  0.99420153900E+03 0.  0.
        -13    1    3    3    0    0  0.21624809542E+03  0.32344676684E+02 -0.11793115211E+04  0.11994103101E+04  0.10566000000E+00 0.  1.
          4    1    3    3  501    0 -0.32270422140E+03  0.32147163768E+03 -0.10720610168E+03  0.46794783532E+03  0.00000000000E+00 0.  1.
         13    1    1    2    0    0  0.10645612599E+03 -0.35381631437E+03 -0.36826954549E+03  0.52167169788E+03  0.10566000000E+00 0. -1.
<mgrwt>
<rscale>  1 0.81484484E+03</rscale>
<asrwt>0</asrwt>
<pdfrwt beam="1">  1       21 0.41095590E-01 0.10606392E+04</pdfrwt>
<pdfrwt beam="2">  1        4 0.29567824E+00 0.10606392E+04</pdfrwt>
<totfact> 0.74970276E+00</totfact>
</mgrwt>
</event>
<event>
 6    1  0.1431486E-005  0.1010326E+04  0.7818608E-02  0.9878104E-01
          4   -1    0    0  502    0 -0.00000000000E+00  0.00000000000E+00  0.60879735468E+03  0.60879735468E+03  0.00000000000E+00 0.  1.
         21   -1    0    0  501  502  0.00000000000E+00 -0.00000000000E+00 -0.88582652019E+03  0.88582652019E+03  0.00000000000E+00 0.  1.
    9000010    2    1    2  501    0  0.45978640834E+02  0.12929136673E+03 -0.57790732620E+03  0.11639307064E+04  0.10009632954E+04 0.  0.
        -13    1    3    3    0    0  0.20063814216E+03  0.30648233952E+03  0.15234965586E+03  0.39673355962E+03  0.10566000000E+00 0.  1.
          4    1    3    3  501    0 -0.15465950132E+03 -0.17719097279E+03 -0.73025698206E+03  0.76719714679E+03  0.00000000000E+00 0.  1.
         13    1    1    2    0    0 -0.45978640834E+02 -0.12929136673E+03  0.30087816069E+03  0.33069316847E+03  0.10566000000E+00 0. -1.
<mgrwt>
<rscale>  1 0.61334268E+03</rscale>
<asrwt>0</asrwt>
<pdfrwt beam="2">  1       21 0.13628100E+00 0.10103256E+04</pdfrwt>
<pdfrwt beam="1">  1        4 0.93661133E-01 0.10103256E+04</pdfrwt>
<totfact> 0.13368182E+01</totfact>
</mgrwt>
</event>
<event>
 6    1  0.1431486E-005  0.1228032E+04  0.7818608E-02  0.9238998E-01
          4   -1    0    0  502    0 -0.00000000000E+00  0.00000000000E+00  0.11257751151E+04  0.11257751151E+04  0.00000000000E+00 0.  1.
         21   -1    0    0  501  502  0.00000000000E+00 -0.00000000000E+00 -0.82682450336E+03  0.82682450336E+03  0.00000000000E+00 0. -1.
    9000010    2    1    2  501    0  0.59968223657E+03  0.35566187909E+03  0.12767390444E+03  0.12346512368E+04  0.10109148794E+04 0.  0.
        -13    1    3    3    0    0  0.60318598478E+03 -0.21921910413E+03 -0.16343762616E+02  0.64199492022E+03  0.10566000000E+00 0.  1.
          4    1    3    3  501    0 -0.35037482014E+01  0.57488098322E+03  0.14401766705E+03  0.59265631655E+03  0.00000000000E+00 0.  1.
         13    1    1    2    0    0 -0.59968223657E+03 -0.35566187909E+03  0.17127670728E+03  0.71794838166E+03  0.10566000000E+00 0. -1.
<mgrwt>
<rscale>  1 0.10659813E+04</rscale>
<asrwt>0</asrwt>
<pdfrwt beam="2">  1       21 0.12720377E+00 0.12280322E+04</pdfrwt>
<pdfrwt beam="1">  1        4 0.17319617E+00 0.12280322E+04</pdfrwt>
<totfact> 0.32133110E+00</totfact>
</mgrwt>
</event>
<event>
 6    1  0.1431486E-005  0.1082540E+04  0.7818608E-02  0.9608073E-01
         21   -1    0    0  501  502  0.00000000000E+00  0.00000000000E+00  0.41780066921E+03  0.41780066921E+03  0.00000000000E+00 0.  1.
          4   -1    0    0  502    0 -0.00000000000E+00 -0.00000000000E+00 -0.13418153026E+04  0.13418153026E+04  0.00000000000E+00 0.  1.
    9000010    2    1    2  501    0  0.26039699053E+03 -0.84346033385E+02 -0.37412000456E+03  0.11453644272E+04  0.10473648110E+04 0.  0.
        -13    1    3    3    0    0 -0.11130724412E+03  0.11437837134E+03  0.30606213728E+03  0.34517496645E+03  0.10566000000E+00 0.  1.
          4    1    3    3  501    0  0.37170423464E+03 -0.19872440473E+03 -0.68018214184E+03  0.80018946079E+03  0.00000000000E+00 0.  1.
         13    1    1    2    0    0 -0.26039699053E+03  0.84346033385E+02 -0.54989462888E+03  0.61425154461E+03  0.10566000000E+00 0. -1.
<mgrwt>
<rscale>  1 0.76764151E+03</rscale>
<asrwt>0</asrwt>
<pdfrwt beam="1">  1       21 0.64277027E-01 0.10825405E+04</pdfrwt>
<pdfrwt beam="2">  1        4 0.20643312E+00 0.10825405E+04</pdfrwt>
<totfact> 0.10210070E+01</totfact>
</mgrwt>
</event>
<event>
 6    1  0.1431486E-005  0.1019874E+04  0.7818608E-02  0.9750187E-01
         21   -1    0    0  501  502  0.00000000000E+00  0.00000000000E+00  0.20872329579E+03  0.20872329579E+03  0.00000000000E+00 0.  1.
          4   -1    0    0  502    0 -0.00000000000E+00 -0.00000000000E+00 -0.18308798604E+04  0.18308798604E+04  0.00000000000E+00 0.  1.
    9000010    2    1    2  501    0 -0.11007072322E+03  0.17034472602E+03 -0.12276397738E+04  0.15960082969E+04  0.99950496735E+03 0.  0.
        -13    1    3    3    0    0  0.29065578923E+03 -0.28245917500E+03 -0.38611088180E+03  0.55977280888E+03  0.10566000000E+00 0.  1.
          4    1    3    3  501    0 -0.40072651244E+03  0.45280390102E+03 -0.84152889196E+03  0.10362354880E+04  0.00000000000E+00 0.  1.
         13    1    1    2    0    0  0.11007072322E+03 -0.17034472602E+03 -0.39451679083E+03  0.44359485931E+03  0.10566000000E+00 0. -1.
<mgrwt>
<rscale>  1 0.68105717E+03</rscale>
<asrwt>0</asrwt>
<pdfrwt beam="1">  1       21 0.32111275E-01 0.10198740E+04</pdfrwt>
<pdfrwt beam="2">  1        4 0.28167383E+00 0.10198740E+04</pdfrwt>
<totfact> 0.15312754E+01</totfact>
</mgrwt>
</event>
<event>
 6    1  0.1431486E-005  0.1092937E+04  0.7818608E-02  0.9494567E-01
          4   -1    0    0  502    0 -0.00000000000E+00  0.00000000000E+00  0.39338938187E+03  0.39338938187E+03  0.00000000000E+00 0.  1.
         21   -1    0    0  501  502  0.00000000000E+00 -0.00000000000E+00 -0.20949958502E+04  0.20949958502E+04  0.00000000000E+00 0.  1.
    9000010    2    1    2  501    0  0.24186095229E+03  0.31097807337E+03 -0.17780314853E+04  0.20870812616E+04  0.10194646378E+04 0.  0.
        -13    1    3    3    0    0  0.50060078146E+03  0.54752942167E+03 -0.12360450933E+04  0.14415953294E+04  0.10566000000E+00 0.  1.
          4    1    3    3  501    0 -0.25873982917E+03 -0.23655134829E+03 -0.54198639195E+03  0.64548593218E+03  0.00000000000E+00 0.  1.
         13    1    1    2    0    0 -0.24186095229E+03 -0.31097807337E+03  0.76425016887E+02  0.40130397049E+03  0.10566000000E+00 0. -1.
<mgrwt>
<rscale>  1 0.84685562E+03</rscale>
<asrwt>0</asrwt>
<pdfrwt beam="2">  1       21 0.32230705E+00 0.10929374E+04</pdfrwt>
<pdfrwt beam="1">  1        4 0.60521444E-01 0.10929374E+04</pdfrwt>
<totfact> 0.19273072E+00</totfact>
</mgrwt>
</event>
<event>
 6    1  0.1431486E-005  0.1032370E+04  0.7818608E-02  0.9816997E-01
          4   -1    0    0  502    0 -0.00000000000E+00  0.00000000000E+00  0.10126793727E+04  0.10126793727E+04  0.00000000000E+00 0.  1.
         21   -1    0    0  501  502  0.00000000000E+00 -0.00000000000E+00 -0.36909040292E+03  0.36909040292E+03  0.00000000000E+00 0.  1.
    9000010    2    1    2  501    0 -0.13920533188E+03 -0.72373437216E+02  0.65796686330E+03  0.12242173278E+04  0.10203781816E+04 0.  0.
        -13    1    3    3    0    0 -0.64785275716E+01 -0.51027806999E+03  0.13209344567E+03  0.52713790376E+03  0.10566000000E+00 0.  1.
          4    1    3    3  501    0 -0.13272680431E+03  0.43790463277E+03  0.52587341763E+03  0.69707942399E+03  0.00000000000E+00 0.  1.
         13    1    1    2    0    0  0.13920533188E+03  0.72373437216E+02 -0.14377893523E+02  0.15755244786E+03  0.10566000000E+00 0. -1.
<mgrwt>
<rscale>  1 0.64458302E+03</rscale>
<asrwt>0</asrwt>
<pdfrwt beam="2">  1       21 0.56783139E-01 0.10323699E+04</pdfrwt>
<pdfrwt beam="1">  1        4 0.15579683E+00 0.10323699E+04</pdfrwt>
<totfact> 0.30606968E+01</totfact>
</mgrwt>
</event>
<event>
 6    1  0.1431486E-005  0.1038869E+04  0.7818608E-02  0.1010608E+00
          4   -1    0    0  502    0 -0.00000000000E+00  0.00000000000E+00  0.10618653855E+04  0.10618653855E+04  0.00000000000E+00 0.  1.
         21   -1    0    0  501  502  0.00000000000E+00 -0.00000000000E+00 -0.34857714484E+03  0.34857714484E+03  0.00000000000E+00 0.  1.
    9000010    2    1    2  501    0 -0.47179183152E+02  0.39378106866E+02  0.43638342354E+03  0.11268005032E+04  0.10370498402E+04 0.  0.
        -13    1    3    3    0    0 -0.53677756024E+03 -0.56881590969E+02  0.21840031038E+03  0.58229234179E+03  0.10566000000E+00 0.  1.
          4    1    3    3  501    0  0.48959837709E+03  0.96259697834E+02  0.21798311316E+03  0.54450816146E+03  0.00000000000E+00 0.  1.
         13    1    1    2    0    0  0.47179183152E+02 -0.39378106866E+02  0.27690481716E+03  0.28364202713E+03  0.10566000000E+00 0. -1.
<mgrwt>
<rscale>  1 0.51233863E+03</rscale>
<asrwt>0</asrwt>
<pdfrwt beam="2">  1       21 0.53627253E-01 0.10388690E+04</pdfrwt>
<pdfrwt beam="1">  1        4 0.16336390E+00 0.10388690E+04</pdfrwt>
<totfact> 0.30437475E+01</totfact>
</mgrwt>
</event>
<event>
 6    1  0.1431486E-005  0.1078971E+04  0.7818608E-02  0.9592158E-01
         21   -1    0    0  501  502  0.00000000000E+00  0.00000000000E+00  0.45955713560E+03  0.45955713560E+03  0.00000000000E+00 0.  1.
          4   -1    0    0  502    0 -0.00000000000E+00 -0.00000000000E+00 -0.11199663107E+04  0.11199663107E+04  0.00000000000E+00 0.  1.
    9000010    2    1    2  501    0  0.26709827849E+02  0.29070427510E+03 -0.30833412899E+03  0.11221622764E+04  0.10387279957E+04 0.  0.
        -13    1    3    3    0    0 -0.85032753190E+02 -0.35167864069E+03  0.69707109345E+02  0.36846645396E+03  0.10566000000E+00 0.  1.
          4    1    3    3  501    0  0.11174258104E+03  0.64238291579E+03 -0.37804123834E+03  0.75369582247E+03  0.00000000000E+00 0.  1.
         13    1    1    2    0    0 -0.26709827849E+02 -0.29070427510E+03 -0.35207504615E+03  0.45736116992E+03  0.10566000000E+00 0. -1.
<mgrwt>
<rscale>  1 0.77817366E+03</rscale>
<asrwt>0</asrwt>
<pdfrwt beam="1">  1       21 0.70701098E-01 0.10789709E+04</pdfrwt>
<pdfrwt beam="2">  1        4 0.17230251E+00 0.10789709E+04</pdfrwt>
<totfact> 0.14051879E+01</totfact>
</mgrwt>
</event>
<event>
 6    1  0.1431486E-005  0.1057062E+04  0.7818608E-02  0.9582447E-01
         21   -1    0    0  501  502  0.00000000000E+00  0.00000000000E+00  0.91971754762E+03  0.91971754762E+03  0.00000000000E+00 0.  1.
          4   -1    0    0  502    0 -0.00000000000E+00 -0.00000000000E+00 -0.58426037767E+03  0.58426037767E+03  0.00000000000E+00 0.  1.
    9000010    2    1    2  501    0 -0.97455445292E+02 -0.30583646786E+03  0.24911950994E+02  0.10573552064E+04  0.10071474163E+04 0.  0.
        -13    1    3    3    0    0  0.88090116339E+02 -0.58717822975E+03 -0.22797287477E+03  0.63601083708E+03  0.10566000000E+00 0.  1.
          4    1    3    3  501    0 -0.18554556163E+03  0.28134176189E+03  0.25288482577E+03  0.42134436929E+03  0.00000000000E+00 0.  1.
         13    1    1    2    0    0  0.97455445292E+02  0.30583646786E+03  0.31054521896E+03  0.44662271893E+03  0.10566000000E+00 0. -1.
<mgrwt>
<rscale>  1 0.78468911E+03</rscale>
<asrwt>0</asrwt>
<pdfrwt beam="1">  1       21 0.14149501E+00 0.10570617E+04</pdfrwt>
<pdfrwt beam="2">  1        4 0.89886212E-01 0.10570617E+04</pdfrwt>
<totfact> 0.13233638E+01</totfact>
</mgrwt>
</event>
<event>
 6    1  0.1431486E-005  0.1007328E+04  0.7818608E-02  0.1011058E+00
          4   -1    0    0  502    0 -0.00000000000E+00  0.00000000000E+00  0.52890659609E+03  0.52890659609E+03  0.00000000000E+00 0.  1.
         21   -1    0    0  501  502  0.00000000000E+00 -0.00000000000E+00 -0.55742717247E+03  0.55742717247E+03  0.00000000000E+00 0.  1.
    9000010    2    1    2  501    0 -0.28820159996E+02  0.59907812456E+02 -0.66942570646E+02  0.10095496008E+04  0.10051316038E+04 0.  0.
        -13    1    3    3    0    0  0.46895963074E+03  0.85482175110E+02  0.93814194552E+02  0.48583068222E+03  0.10566000000E+00 0.  1.
          4    1    3    3  501    0 -0.49777979074E+03 -0.25574362654E+02 -0.16075676520E+03  0.52371891855E+03  0.00000000000E+00 0.  1.
         13    1    1    2    0    0  0.28820159996E+02 -0.59907812456E+02  0.38421994261E+02  0.76784167785E+02  0.10566000000E+00 0. -1.
<mgrwt>
<rscale>  1 0.51056430E+03</rscale>
<asrwt>0</asrwt>
<pdfrwt beam="2">  1       21 0.85758026E-01 0.10073277E+04</pdfrwt>
<pdfrwt beam="1">  1        4 0.81370246E-01 0.10073277E+04</pdfrwt>
<totfact> 0.59991607E+01</totfact>
</mgrwt>
</event>
<event>
 6    1  0.1431486E-005  0.1050760E+04  0.7818608E-02  0.9578696E-01
          4   -1    0    0  502    0 -0.00000000000E+00  0.00000000000E+00  0.71061342664E+03  0.71061342664E+03  0.00000000000E+00 0.  1.
         21   -1    0    0  501  502  0.00000000000E+00 -0.00000000000E+00 -0.69059708998E+03  0.69059708998E+03  0.00000000000E+00 0.  1.
    9000010    2    1    2  501    0 -0.21014501505E+02  0.33037442777E+03 -0.84260888005E+02  0.10541332593E+04  0.99725029924E+03 0.  0.
        -13    1    3    3    0    0  0.30395938495E+03  0.20522289527E+03 -0.42880573899E+03  0.56425359316E+03  0.10566000000E+00 0.  1.
          4    1    3    3  501    0 -0.32497388645E+03  0.12515153250E+03  0.34454485098E+03  0.48987966614E+03  0.00000000000E+00 0.  1.
         13    1    1    2    0    0  0.21014501505E+02 -0.33037442777E+03  0.10427722466E+03  0.34707725731E+03  0.10566000000E+00 0. -1.
<mgrwt>
<rscale>  1 0.78722437E+03</rscale>
<asrwt>0</asrwt>
<pdfrwt beam="2">  1       21 0.10624571E+00 0.10507602E+04</pdfrwt>
<pdfrwt beam="1">  1        4 0.10932514E+00 0.10507602E+04</pdfrwt>
<totfact> 0.17492059E+01</totfact>
</mgrwt>
</event>
<event>
 6    1  0.1431486E-005  0.1016657E+04  0.7818608E-02  0.9770170E-01
          4   -1    0    0  502    0 -0.00000000000E+00  0.00000000000E+00  0.15250212636E+04  0.15250212636E+04  0.00000000000E+00 0.  1.
         21   -1    0    0  501  502  0.00000000000E+00 -0.00000000000E+00 -0.42106701811E+03  0.42106701811E+03  0.00000000000E+00 0.  1.
    9000010    2    1    2  501    0 -0.15979028243E+03 -0.10578505757E+03  0.21815844922E+03  0.10398004595E+04  0.99843300923E+03 0.  0.
        -13    1    3    3    0    0 -0.20743548771E+03  0.20345711006E+02 -0.37634033190E+03  0.43020400521E+03  0.10566000000E+00 0.  1.
          4    1    3    3  501    0  0.47645205273E+02 -0.12613076858E+03  0.59449878112E+03  0.60959645433E+03  0.00000000000E+00 0.  1.
         13    1    1    2    0    0  0.15979028243E+03  0.10578505757E+03  0.88579579625E+03  0.90628782215E+03  0.10566000000E+00 0. -1.
<mgrwt>
<rscale>  1 0.66988277E+03</rscale>
<asrwt>0</asrwt>
<pdfrwt beam="2">  1       21 0.64779542E-01 0.10166572E+04</pdfrwt>
<pdfrwt beam="1">  1        4 0.23461865E+00 0.10166572E+04</pdfrwt>
<totfact> 0.66772013E+00</totfact>
</mgrwt>
</event>
<event>
 6    1  0.1431486E-005  0.1374434E+04  0.7818608E-02  0.9072412E-01
          4   -1    0    0  502    0 -0.00000000000E+00  0.00000000000E+00  0.18772328986E+04  0.18772328986E+04  0.00000000000E+00 0.  1.
         21   -1    0    0  501  502  0.00000000000E+00 -0.00000000000E+00 -0.70885891032E+03  0.70885891032E+03  0.00000000000E+00 0. -1.
    9000010    2    1    2  501    0 -0.92724999264E+03  0.96727564028E+02  0.67255724302E+03  0.15301642420E+04  0.10099111802E+04 0.  0.
        -13    1    3    3    0    0 -0.22581319560E+03 -0.77891813823E+02 -0.25815893948E+03  0.35171690771E+03  0.10566000000E+00 0.  1.
          4    1    3    3  501    0 -0.70143679704E+03  0.17461937785E+03  0.93071618251E+03  0.11784473343E+04  0.00000000000E+00 0.  1.
         13    1    1    2    0    0  0.92724999264E+03 -0.96727564028E+02  0.49581674527E+03  0.10559275669E+04  0.10566000000E+00 0. -1.
<mgrwt>
<rscale>  1 0.12473253E+04</rscale>
<asrwt>0</asrwt>
<pdfrwt beam="2">  1       21 0.10905522E+00 0.13744342E+04</pdfrwt>
<pdfrwt beam="1">  1        4 0.28880506E+00 0.13744342E+04</pdfrwt>
<totfact> 0.84534259E-01</totfact>
</mgrwt>
</event>
<event>
 6    1  0.1431486E-005  0.1016223E+04  0.7818608E-02  0.9767714E-01
         21   -1    0    0  501  502  0.00000000000E+00  0.00000000000E+00  0.20538145021E+04  0.20538145021E+04  0.00000000000E+00 0.  1.
          4   -1    0    0  502    0 -0.00000000000E+00 -0.00000000000E+00 -0.19101794491E+03  0.19101794491E+03  0.00000000000E+00 0.  1.
    9000010    2    1    2  501    0 -0.12736051168E+03 -0.14560067511E+03  0.17420676561E+04  0.20168067133E+04  0.99764189155E+03 0.  0.
        -13    1    3    3    0    0  0.37302430802E+03 -0.14550999279E+03  0.33053294088E+03  0.51920355213E+03  0.10566000000E+00 0.  1.
          4    1    3    3  501    0 -0.50038481970E+03 -0.90682325513E-01  0.14115347152E+04  0.14976031611E+04  0.00000000000E+00 0.  1.
         13    1    1    2    0    0  0.12736051168E+03  0.14560067511E+03  0.12072890114E+03  0.22802573377E+03  0.10566000000E+00 0. -1.
<mgrwt>
<rscale>  1 0.67124365E+03</rscale>
<asrwt>0</asrwt>
<pdfrwt beam="1">  1       21 0.31597145E+00 0.10162232E+04</pdfrwt>
<pdfrwt beam="2">  1        4 0.29387378E-01 0.10162232E+04</pdfrwt>
<totfact> 0.94804801E+00</totfact>
</mgrwt>
</event>
<event>
 6    1  0.1431486E-005  0.1027085E+04  0.7818608E-02  0.9618183E-01
          4   -1    0    0  502    0 -0.00000000000E+00  0.00000000000E+00  0.24285540317E+03  0.24285540317E+03  0.00000000000E+00 0.  1.
         21   -1    0    0  501  502  0.00000000000E+00 -0.00000000000E+00 -0.18566367278E+04  0.18566367278E+04  0.00000000000E+00 0.  1.
    9000010    2    1    2  501    0  0.29825173368E+02  0.30817303765E+03 -0.13216375439E+04  0.16738066111E+04  0.97930721001E+03 0.  0.
        -13    1    3    3    0    0  0.21268390795E+03  0.50087659510E+03 -0.12975834390E+04  0.14070659546E+04  0.10566000000E+00 0.  1.
          4    1    3    3  501    0 -0.18285873458E+03 -0.19270355745E+03 -0.24054104972E+02  0.26674065651E+03  0.00000000000E+00 0.  1.
         13    1    1    2    0    0 -0.29825173368E+02 -0.30817303765E+03 -0.29214378067E+03  0.42568551989E+03  0.10566000000E+00 0. -1.
<mgrwt>
<rscale>  1 0.76104343E+03</rscale>
<asrwt>0</asrwt>
<pdfrwt beam="2">  1       21 0.28563643E+00 0.10270846E+04</pdfrwt>
<pdfrwt beam="1">  1        4 0.37362369E-01 0.10270846E+04</pdfrwt>
<totfact> 0.90756100E+00</totfact>
</mgrwt>
</event>
<event>
 6    1  0.1431486E-005  0.1142644E+04  0.7818608E-02  0.9390213E-01
          4   -1    0    0  502    0 -0.00000000000E+00  0.00000000000E+00  0.99598151930E+03  0.99598151930E+03  0.00000000000E+00 0.  1.
         21   -1    0    0  501  502  0.00000000000E+00 -0.00000000000E+00 -0.69999616129E+03  0.69999616129E+03  0.00000000000E+00 0.  1.
    9000010    2    1    2  501    0 -0.43293374910E+02 -0.49706946987E+03  0.60491582541E+02  0.11442443178E+04  0.10279510947E+04 0.  0.
        -13    1    3    3    0    0 -0.14113818271E+03  0.18471344170E+03 -0.28980287956E+03  0.37151683989E+03  0.10566000000E+00 0.  1.
          4    1    3    3  501    0  0.97844807795E+02 -0.68178291156E+03  0.35029446210E+03  0.77272747789E+03  0.00000000000E+00 0.  1.
         13    1    1    2    0    0  0.43293374910E+02  0.49706946987E+03  0.23549377547E+03  0.55173336281E+03  0.10566000000E+00 0. -1.
<mgrwt>
<rscale>  1 0.92885475E+03</rscale>
<asrwt>0</asrwt>
<pdfrwt beam="2">  1       21 0.10769172E+00 0.11426442E+04</pdfrwt>
<pdfrwt beam="1">  1        4 0.15322793E+00 0.11426442E+04</pdfrwt>
<totfact> 0.70188553E+00</totfact>
</mgrwt>
</event>
<event>
 6    1  0.1431486E-005  0.1181770E+04  0.7818608E-02  0.9733574E-01
         21   -1    0    0  501  502  0.00000000000E+00  0.00000000000E+00  0.11096855125E+04  0.11096855125E+04  0.00000000000E+00 0.  1.
          4   -1    0    0  502    0 -0.00000000000E+00 -0.00000000000E+00 -0.40182740403E+03  0.40182740403E+03  0.00000000000E+00 0.  1.
    9000010    2    1    2  501    0 -0.52465265346E+02 -0.12737701164E+03  0.70000376157E+03  0.13735302760E+04  0.11737131871E+04 0.  0.
        -13    1    3    3    0    0 -0.93286173837E+02  0.19493066303E+03 -0.27273501318E+03  0.34797222906E+03  0.10566000000E+00 0.  1.
          4    1    3    3  501    0  0.40820908491E+02 -0.32230767467E+03  0.97273877475E+03  0.10255580469E+04  0.00000000000E+00 0.  1.
         13    1    1    2    0    0  0.52465265346E+02  0.12737701164E+03  0.78543468971E+01  0.13798264054E+03  0.10566000000E+00 0. -1.
<mgrwt>
<rscale>  1 0.69052535E+03</rscale>
<asrwt>0</asrwt>
<pdfrwt beam="1">  1       21 0.17072085E+00 0.11817699E+04</pdfrwt>
<pdfrwt beam="2">  1        4 0.61819601E-01 0.11817699E+04</pdfrwt>
<totfact> 0.17948067E+01</totfact>
</mgrwt>
</event>
<event>
 6    1  0.1431486E-005  0.1001025E+04  0.7818608E-02  0.9946521E-01
         21   -1    0    0  501  502  0.00000000000E+00  0.00000000000E+00  0.41826452704E+03  0.41826452704E+03  0.00000000000E+00 0.  1.
          4   -1    0    0  502    0 -0.00000000000E+00 -0.00000000000E+00 -0.87259403130E+03  0.87259403130E+03  0.00000000000E+00 0.  1.
    9000010    2    1    2  501    0 -0.88517643909E+02 -0.70681221524E+02 -0.21180897547E+03  0.10231881894E+04  0.99459530487E+03 0.  0.
        -13    1    3    3    0    0 -0.86769974503E+01  0.29844690121E+03  0.27577702830E+03  0.40644658152E+03  0.10566000000E+00 0.  1.
          4    1    3    3  501    0 -0.79840646459E+02 -0.36912812273E+03 -0.48758600377E+03  0.61674160788E+03  0.00000000000E+00 0.  1.
         13    1    1    2    0    0  0.88517643909E+02  0.70681221524E+02 -0.24252052880E+03  0.26767036894E+03  0.10566000000E+00 0. -1.
<mgrwt>
<rscale>  1 0.58058683E+03</rscale>
<asrwt>0</asrwt>
<pdfrwt beam="1">  1       21 0.64348389E-01 0.10010250E+04</pdfrwt>
<pdfrwt beam="2">  1        4 0.13424524E+00 0.10010250E+04</pdfrwt>
<totfact> 0.34473377E+01</totfact>
</mgrwt>
</event>
<event>
 6    1  0.1431486E-005  0.1109740E+04  0.7818608E-02  0.9423063E-01
          4   -1    0    0  502    0 -0.00000000000E+00  0.00000000000E+00  0.14831332931E+04  0.14831332931E+04  0.00000000000E+00 0.  1.
         21   -1    0    0  501  502  0.00000000000E+00 -0.00000000000E+00 -0.10175353203E+04  0.10175353203E+04  0.00000000000E+00 0.  1.
    9000010    2    1    2  501    0  0.10371866750E+03  0.47315724182E+03 -0.64884643397E+03  0.12855053797E+04  0.99844231122E+03 0.  0.
        -13    1    3    3    0    0 -0.15775327502E+03 -0.16339842631E+03 -0.54385778311E+03  0.58937801191E+03  0.10566000000E+00 0.  1.
          4    1    3    3  501    0  0.26147194252E+03  0.63655566813E+03 -0.10498865086E+03  0.69612736777E+03  0.00000000000E+00 0.  1.
         13    1    1    2    0    0 -0.10371866750E+03 -0.47315724182E+03  0.11144444068E+04  0.12151632336E+04  0.10566000000E+00 0. -1.
<mgrwt>
<rscale>  1 0.90201767E+03</rscale>
<asrwt>0</asrwt>
<pdfrwt beam="2">  1       21 0.15654390E+00 0.11097398E+04</pdfrwt>
<pdfrwt beam="1">  1        4 0.22817435E+00 0.11097398E+04</pdfrwt>
<totfact> 0.79418780E-01</totfact>
</mgrwt>
</event>
<event>
 6    1  0.1431486E-005  0.1234285E+04  0.7818608E-02  0.9582752E-01
         21   -1    0    0  501  502  0.00000000000E+00  0.00000000000E+00  0.96990086400E+03  0.96990086400E+03  0.00000000000E+00 0. -1.
          4   -1    0    0  502    0 -0.00000000000E+00 -0.00000000000E+00 -0.53342516692E+03  0.53342516692E+03  0.00000000000E+00 0.  1.
    9000010    2    1    2  501    0  0.13978239284E+03  0.14501112055E+03  0.34158791474E+03  0.12806804722E+04  0.12177408697E+04 0.  0.
        -13    1    3    3    0    0 -0.67053870806E+02  0.43084468128E+03 -0.31321886045E+03  0.53687002774E+03  0.10566000000E+00 0.  1.
          4    1    3    3  501    0  0.20683626365E+03 -0.28583356072E+03  0.65480677519E+03  0.74381044442E+03  0.00000000000E+00 0.  1.
         13    1    1    2    0    0 -0.13978239284E+03 -0.14501112055E+03  0.94887782350E+02  0.22264555876E+03  0.10566000000E+00 0. -1.
<mgrwt>
<rscale>  1 0.78448348E+03</rscale>
<asrwt>0</asrwt>
<pdfrwt beam="1">  1       21 0.14921552E+00 0.12342853E+04</pdfrwt>
<pdfrwt beam="2">  1        4 0.82065410E-01 0.12342853E+04</pdfrwt>
<totfact> 0.13881278E+01</totfact>
</mgrwt>
</event>
<event>
 6    1  0.1431486E-005  0.1253008E+04  0.7818608E-02  0.9261949E-01
          4   -1    0    0  502    0 -0.00000000000E+00  0.00000000000E+00  0.12777309946E+04  0.12777309946E+04  0.00000000000E+00 0.  1.
         21   -1    0    0  501  502  0.00000000000E+00 -0.00000000000E+00 -0.69273161114E+03  0.69273161114E+03  0.00000000000E+00 0.  1.
    9000010    2    1    2  501    0 -0.49506038773E+03 -0.34427911191E+03  0.54419356803E+03  0.13660802597E+04  0.10983695836E+04 0.  0.
        -13    1    3    3    0    0 -0.78435496763E+03  0.12758344312E+02  0.26313828797E+03  0.82741601408E+03  0.10566000000E+00 0.  1.
          4    1    3    3  501    0  0.28929457990E+03 -0.35703745622E+03  0.28105528006E+03  0.53866424567E+03  0.00000000000E+00 0.  1.
         13    1    1    2    0    0  0.49506038773E+03  0.34427911191E+03  0.40805815405E+02  0.60438234597E+03  0.10566000000E+00 0. -1.
<mgrwt>
<rscale>  1 0.10436270E+04</rscale>
<asrwt>0</asrwt>
<pdfrwt beam="2">  1       21 0.10657409E+00 0.12530078E+04</pdfrwt>
<pdfrwt beam="1">  1        4 0.19657400E+00 0.12530078E+04</pdfrwt>
<totfact> 0.34895657E+00</totfact>
</mgrwt>
</event>
<event>
 6    1  0.1431486E-005  0.1022748E+04  0.7818608E-02  0.9725107E-01
          4   -1    0    0  502    0 -0.00000000000E+00  0.00000000000E+00  0.10245409842E+04  0.10245409842E+04  0.00000000000E+00 0.  1.
         21   -1    0    0  501  502  0.00000000000E+00 -0.00000000000E+00 -0.62746449427E+03  0.62746449427E+03  0.00000000000E+00 0.  1.
    9000010    2    1    2  501    0 -0.21859709925E+03  0.22967445174E+01 -0.17678540697E+03  0.10379147240E+04  0.99911156903E+03 0.  0.
        -13    1    3    3    0    0 -0.55673311820E+03 -0.35470244265E+02  0.13769092368E+03  0.57460308453E+03  0.10566000000E+00 0.  1.
          4    1    3    3  501    0  0.33813601894E+03  0.37766988782E+02 -0.31447633064E+03  0.46331163949E+03  0.00000000000E+00 0.  1.
         13    1    1    2    0    0  0.21859709925E+03 -0.22967445174E+01  0.57386189690E+03  0.61409075446E+03  0.10566000000E+00 0. -1.
<mgrwt>
<rscale>  1 0.69541435E+03</rscale>
<asrwt>0</asrwt>
<pdfrwt beam="2">  1       21 0.96532999E-01 0.10227482E+04</pdfrwt>
<pdfrwt beam="1">  1        4 0.15762169E+00 0.10227482E+04</pdfrwt>
<totfact> 0.86523489E+00</totfact>
</mgrwt>
</event>
<event>
 6    1  0.1431486E-005  0.1076228E+04  0.7818608E-02  0.9488209E-01
          4   -1    0    0  502    0 -0.00000000000E+00  0.00000000000E+00  0.23579694029E+04  0.23579694029E+04  0.00000000000E+00 0.  1.
         21   -1    0    0  501  502  0.00000000000E+00 -0.00000000000E+00 -0.32641012927E+03  0.32641012927E+03  0.00000000000E+00 0.  1.
    9000010    2    1    2  501    0  0.96175584574E+02  0.41078564517E+03  0.69091457576E+03  0.12789177552E+04  0.99008741244E+03 0.  0.
        -13    1    3    3    0    0  0.13700636443E+03  0.60562432122E+03  0.67613203326E+02  0.62459836597E+03  0.10566000000E+00 0.  1.
          4    1    3    3  501    0 -0.40830779858E+02 -0.19483867605E+03  0.62330137244E+03  0.65431938925E+03  0.00000000000E+00 0.  1.
         13    1    1    2    0    0 -0.96175584574E+02 -0.41078564517E+03  0.13406446979E+04  0.14054617769E+04  0.10566000000E+00 0. -1.
<mgrwt>
<rscale>  1 0.85158736E+03</rscale>
<asrwt>0</asrwt>
<pdfrwt beam="2">  1       21 0.50216944E-01 0.10762284E+04</pdfrwt>
<pdfrwt beam="1">  1        4 0.36276451E+00 0.10762284E+04</pdfrwt>
<totfact> 0.18267604E+00</totfact>
</mgrwt>
</event>
<event>
 6    1  0.1431486E-005  0.1216372E+04  0.7818608E-02  0.9244096E-01
          4   -1    0    0  502    0 -0.00000000000E+00  0.00000000000E+00  0.81334857703E+03  0.81334857703E+03  0.00000000000E+00 0.  1.
         21   -1    0    0  501  502  0.00000000000E+00 -0.00000000000E+00 -0.14729982922E+04  0.14729982922E+04  0.00000000000E+00 0.  1.
    9000010    2    1    2  501    0 -0.78717576152E+02  0.69963659033E+03 -0.93104510833E+03  0.15317984706E+04  0.99190410097E+03 0.  0.
        -13    1    3    3    0    0 -0.35660122648E+03 -0.10530384761E+02 -0.60515086501E+03  0.70248338366E+03  0.10566000000E+00 0.  1.
          4    1    3    3  501    0  0.27788365033E+03  0.71016697509E+03 -0.32589424332E+03  0.82931508695E+03  0.00000000000E+00 0.  1.
         13    1    1    2    0    0  0.78717576152E+02 -0.69963659033E+03  0.27139539312E+03  0.75454839864E+03  0.10566000000E+00 0. -1.
<mgrwt>
<rscale>  1 0.10609647E+04</rscale>
<asrwt>0</asrwt>
<pdfrwt beam="2">  1       21 0.22661512E+00 0.12163723E+04</pdfrwt>
<pdfrwt beam="1">  1        4 0.12513055E+00 0.12163723E+04</pdfrwt>
<totfact> 0.13809055E+00</totfact>
</mgrwt>
</event>
<event>
 6    1  0.1431486E-005  0.1051261E+04  0.7818608E-02  0.9591439E-01
         21   -1    0    0  501  502  0.00000000000E+00  0.00000000000E+00  0.88436266948E+03  0.88436266948E+03  0.00000000000E+00 0.  1.
          4   -1    0    0  502    0 -0.00000000000E+00 -0.00000000000E+00 -0.62115410709E+03  0.62115410709E+03  0.00000000000E+00 0.  1.
    9000010    2    1    2  501    0 -0.30607483044E+02 -0.31492350270E+03  0.44391339866E+03  0.11411435070E+04  0.10025147218E+04 0.  0.
        -13    1    3    3    0    0  0.24356993213E+03  0.23665810184E+02 -0.23185134415E+03  0.33710745966E+03  0.10566000000E+00 0.  1.
          4    1    3    3  501    0 -0.27417741517E+03 -0.33858931288E+03  0.67576474281E+03  0.80403604733E+03  0.00000000000E+00 0.  1.
         13    1    1    2    0    0  0.30607483044E+02  0.31492350270E+03 -0.18070483626E+03  0.36437326958E+03  0.10566000000E+00 0. -1.
<mgrwt>
<rscale>  1 0.77865402E+03</rscale>
<asrwt>0</asrwt>
<pdfrwt beam="1">  1       21 0.13605579E+00 0.10512609E+04</pdfrwt>
<pdfrwt beam="2">  1        4 0.95562171E-01 0.10512609E+04</pdfrwt>
<totfact> 0.12743166E+01</totfact>
</mgrwt>
</event>
<event>
 6    1  0.1431486E-005  0.1024464E+04  0.7818608E-02  0.9726972E-01
          4   -1    0    0  502    0 -0.00000000000E+00  0.00000000000E+00  0.14643772083E+04  0.14643772083E+04  0.00000000000E+00 0.  1.
         21   -1    0    0  501  502  0.00000000000E+00 -0.00000000000E+00 -0.34627963265E+03  0.34627963265E+03  0.00000000000E+00 0.  1.
    9000010    2    1    2  501    0  0.18534438361E+03  0.11123895200E+03  0.46938142790E+03  0.11268737639E+04  0.10013984771E+04 0.  0.
        -13    1    3    3    0    0  0.40715025385E+03  0.65646871014E+02 -0.17188983001E+03  0.44679633582E+03  0.10566000000E+00 0.  1.
          4    1    3    3  501    0 -0.22180587024E+03  0.45592080983E+02  0.64127125790E+03  0.68007742804E+03  0.00000000000E+00 0.  1.
         13    1    1    2    0    0 -0.18534438361E+03 -0.11123895200E+03  0.64871614779E+03  0.68378307712E+03  0.10566000000E+00 0. -1.
<mgrwt>
<rscale>  1 0.69433326E+03</rscale>
<asrwt>0</asrwt>
<pdfrwt beam="2">  1       21 0.53273790E-01 0.10244635E+04</pdfrwt>
<pdfrwt beam="1">  1        4 0.22528880E+00 0.10244635E+04</pdfrwt>
<totfact> 0.11793737E+01</totfact>
</mgrwt>
</event>
<event>
 6    1  0.1431486E-005  0.1028446E+04  0.7818608E-02  0.9794463E-01
          4   -1    0    0  502    0 -0.00000000000E+00  0.00000000000E+00  0.55237399553E+03  0.55237399553E+03  0.00000000000E+00 0.  1.
         21   -1    0    0  501  502  0.00000000000E+00 -0.00000000000E+00 -0.83310718571E+03  0.83310718571E+03  0.00000000000E+00 0.  1.
    9000010    2    1    2  501    0  0.97866632400E+02  0.14007043565E+03 -0.46977476987E+03  0.11306590184E+04  0.10141518016E+04 0.  0.
        -13    1    3    3    0    0  0.78912838512E+02  0.57937110587E+03 -0.31729125729E+03  0.66526075153E+03  0.10566000000E+00 0.  1.
          4    1    3    3  501    0  0.18953793889E+02 -0.43930067023E+03 -0.15248351258E+03  0.46539826684E+03  0.00000000000E+00 0.  1.
         13    1    1    2    0    0 -0.97866632400E+02 -0.14007043565E+03  0.18904157969E+03  0.25482216288E+03  0.10566000000E+00 0. -1.
<mgrwt>
<rscale>  1 0.65660561E+03</rscale>
<asrwt>0</asrwt>
<pdfrwt beam="2">  1       21 0.12817034E+00 0.10284461E+04</pdfrwt>
<pdfrwt beam="1">  1        4 0.84980615E-01 0.10284461E+04</pdfrwt>
<totfact> 0.19748249E+01</totfact>
</mgrwt>
</event>
<event>
 6    1  0.1431486E-005  0.1018083E+04  0.7818608E-02  0.9741096E-01
          4   -1    0    0  502    0 -0.00000000000E+00  0.00000000000E+00  0.22769309925E+04  0.22769309925E+04  0.00000000000E+00 0.  1.
         21   -1    0    0  501  502  0.00000000000E+00 -0.00000000000E+00 -0.16567955900E+03  0.16567955900E+03  0.00000000000E+00 0. -1.
    9000010    2    1    2  501    0  0.10023645717E+03 -0.18468748582E+03  0.17656115711E+04  0.20381062370E+04  0.99616062899E+03 0.  0.
        -13    1    3    3    0    0  0.30712187665E+03 -0.23607071002E+03  0.17826536345E+04  0.18242552505E+04  0.10566000000E+00 0.  1.
          4    1    3    3  501    0 -0.20688541948E+03  0.51383224201E+02 -0.17042063402E+02  0.21385098655E+03  0.00000000000E+00 0.  1.
         13    1    1    2    0    0 -0.10023645717E+03  0.18468748582E+03  0.34563986243E+03  0.40450431448E+03  0.10566000000E+00 0. -1.
<mgrwt>
<rscale>  1 0.68621806E+03</rscale>
<asrwt>0</asrwt>
<pdfrwt beam="2">  1       21 0.25489165E-01 0.10180829E+04</pdfrwt>
<pdfrwt beam="1">  1        4 0.35029705E+00 0.10180829E+04</pdfrwt>
<totfact> 0.90289646E+00</totfact>
</mgrwt>
</event>
<event>
 6    1  0.1431486E-005  0.1049406E+04  0.7818608E-02  0.9631789E-01
         21   -1    0    0  501  502  0.00000000000E+00  0.00000000000E+00  0.57848114026E+03  0.57848114026E+03  0.00000000000E+00 0.  1.
          4   -1    0    0  502    0 -0.00000000000E+00 -0.00000000000E+00 -0.78314441945E+03  0.78314441945E+03  0.00000000000E+00 0.  1.
    9000010    2    1    2  501    0  0.27577355570E+03 -0.27323799781E+02 -0.65309223726E+02  0.10514365722E+04  0.10121541022E+04 0.  0.
        -13    1    3    3    0    0  0.80919421709E+02  0.13350325247E+03 -0.51362709680E+03  0.53682760451E+03  0.10566000000E+00 0.  1.
          4    1    3    3  501    0  0.19485413399E+03 -0.16082705225E+03  0.44831787307E+03  0.51460896765E+03  0.00000000000E+00 0.  1.
         13    1    1    2    0    0 -0.27577355570E+03  0.27323799781E+02 -0.13935405546E+03  0.31018898755E+03  0.10566000000E+00 0. -1.
<mgrwt>
<rscale>  1 0.75227433E+03</rscale>
<asrwt>0</asrwt>
<pdfrwt beam="1">  1       21 0.88997099E-01 0.10494063E+04</pdfrwt>
<pdfrwt beam="2">  1        4 0.12048376E+00 0.10494063E+04</pdfrwt>
<totfact> 0.21261884E+01</totfact>
</mgrwt>
</event>
<event>
 6    1  0.1431486E-005  0.1010279E+04  0.7818608E-02  0.9801289E-01
          4   -1    0    0  502    0 -0.00000000000E+00  0.00000000000E+00  0.65516099868E+03  0.65516099868E+03  0.00000000000E+00 0.  1.
         21   -1    0    0  501  502  0.00000000000E+00 -0.00000000000E+00 -0.53996099573E+03  0.53996099573E+03  0.00000000000E+00 0.  1.
    9000010    2    1    2  501    0  0.11893983739E+03 -0.13008019443E+03  0.67551734813E+02  0.10125352739E+04  0.99478485213E+03 0.  0.
        -13    1    3    3    0    0 -0.21414092973E+03 -0.39184520666E+02 -0.38561979383E+03  0.44282547465E+03  0.10566000000E+00 0.  1.
          4    1    3    3  501    0  0.33308076712E+03 -0.90895673759E+02  0.45317152864E+03  0.56970979920E+03  0.00000000000E+00 0.  1.
         13    1    1    2    0    0 -0.11893983739E+03  0.13008019443E+03  0.47648268138E+02  0.18258672055E+03  0.10566000000E+00 0. -1.
<mgrwt>
<rscale>  1 0.65293433E+03</rscale>
<asrwt>0</asrwt>
<pdfrwt beam="2">  1       21 0.83070923E-01 0.10102794E+04</pdfrwt>
<pdfrwt beam="1">  1        4 0.10079400E+00 0.10102794E+04</pdfrwt>
<totfact> 0.39061647E+01</totfact>
</mgrwt>
</event>
<event>
 6    1  0.1431486E-005  0.9762224E+03  0.7818608E-02  0.1018571E+00
          4   -1    0    0  502    0 -0.00000000000E+00  0.00000000000E+00  0.65926611751E+03  0.65926611751E+03  0.00000000000E+00 0.  1.
         21   -1    0    0  501  502  0.00000000000E+00 -0.00000000000E+00 -0.45180192682E+03  0.45180192682E+03  0.00000000000E+00 0.  1.
    9000010    2    1    2  501    0  0.55527814469E+02 -0.16899194953E+02  0.90393204215E+02  0.98039843040E+03  0.97449537197E+03 0.  0.
        -13    1    3    3    0    0 -0.23334845787E+03 -0.14626937410E+03  0.43350496762E+03  0.51358816255E+03  0.10566000000E+00 0.  1.
          4    1    3    3  501    0  0.28887627234E+03  0.12937017915E+03 -0.34311176341E+03  0.46681026785E+03  0.00000000000E+00 0.  1.
         13    1    1    2    0    0 -0.55527814469E+02  0.16899194953E+02  0.11707098647E+03  0.13066961394E+03  0.10566000000E+00 0. -1.
<mgrwt>
<rscale>  1 0.48205668E+03</rscale>
<asrwt>0</asrwt>
<pdfrwt beam="2">  1       21 0.69507989E-01 0.97622239E+03</pdfrwt>
<pdfrwt beam="1">  1        4 0.10142556E+00 0.97622239E+03</pdfrwt>
<totfact> 0.58428049E+01</totfact>
</mgrwt>
</event>
<event>
 6    1  0.1431486E-005  0.9982027E+03  0.7818608E-02  0.9855397E-01
          4   -1    0    0  502    0 -0.00000000000E+00  0.00000000000E+00  0.16790087775E+04  0.16790087775E+04  0.00000000000E+00 0.  1.
         21   -1    0    0  501  502  0.00000000000E+00 -0.00000000000E+00 -0.19760540630E+03  0.19760540630E+03  0.00000000000E+00 0.  1.
    9000010    2    1    2  501    0  0.12286295789E+03  0.91420323215E+02  0.12621065275E+04  0.16091368974E+04  0.98638516104E+03 0.  0.
        -13    1    3    3    0    0 -0.25298570077E+03  0.26931578425E+03  0.11190323956E+03  0.38607655022E+03  0.10566000000E+00 0.  1.
          4    1    3    3  501    0  0.37584865866E+03 -0.17789546104E+03  0.11502032879E+04  0.12230603472E+04  0.00000000000E+00 0.  1.
         13    1    1    2    0    0 -0.12286295789E+03 -0.91420323215E+02  0.21929684367E+03  0.26747728637E+03  0.10566000000E+00 0. -1.
<mgrwt>
<rscale>  1 0.62472494E+03</rscale>
<asrwt>0</asrwt>
<pdfrwt beam="2">  1       21 0.30400833E-01 0.99820272E+03</pdfrwt>
<pdfrwt beam="1">  1        4 0.25830903E+00 0.99820272E+03</pdfrwt>
<totfact> 0.23886477E+01</totfact>
</mgrwt>
</event>
<event>
 6    1  0.1431486E-005  0.1006863E+04  0.7818608E-02  0.9849234E-01
          4   -1    0    0  502    0 -0.00000000000E+00  0.00000000000E+00  0.22743695932E+03  0.22743695932E+03  0.00000000000E+00 0.  1.
         21   -1    0    0  501  502  0.00000000000E+00 -0.00000000000E+00 -0.14948312697E+04  0.14948312697E+04  0.00000000000E+00 0.  1.
    9000010    2    1    2  501    0 -0.55718215841E+02  0.14168169075E+03 -0.10309730464E+04  0.14410685735E+04  0.99528638589E+03 0.  0.
        -13    1    3    3    0    0 -0.13000690286E+03 -0.37074634268E+03 -0.15266878102E+03  0.42150019367E+03  0.10566000000E+00 0.  1.
          4    1    3    3  501    0  0.74288687019E+02  0.51242803343E+03 -0.87830426543E+03  0.10195683798E+04  0.00000000000E+00 0.  1.
         13    1    1    2    0    0  0.55718215841E+02 -0.14168169075E+03 -0.23642126397E+03  0.28119965557E+03  0.10566000000E+00 0. -1.
<mgrwt>
<rscale>  1 0.62786012E+03</rscale>
<asrwt>0</asrwt>
<pdfrwt beam="2">  1       21 0.22997404E+00 0.10068631E+04</pdfrwt>
<pdfrwt beam="1">  1        4 0.34990302E-01 0.10068631E+04</pdfrwt>
<totfact> 0.23387546E+01</totfact>
</mgrwt>
</event>
<event>
 6    1  0.1431486E-005  0.1019451E+04  0.7818608E-02  0.9776317E-01
          4   -1    0    0  502    0 -0.00000000000E+00  0.00000000000E+00  0.81192148342E+03  0.81192148342E+03  0.00000000000E+00 0.  1.
         21   -1    0    0  501  502  0.00000000000E+00 -0.00000000000E+00 -0.44898536638E+03  0.44898536638E+03  0.00000000000E+00 0.  1.
    9000010    2    1    2  501    0  0.76759386634E+02  0.16968899040E+03  0.28123267695E+03  0.10575307937E+04  0.10022939709E+04 0.  0.
        -13    1    3    3    0    0 -0.11036442131E+02  0.48013188684E+03 -0.16418585555E+03  0.50754845891E+03  0.10566000000E+00 0.  1.
          4    1    3    3  501    0  0.87795828765E+02 -0.31044289644E+03  0.44541853250E+03  0.54998233480E+03  0.00000000000E+00 0.  1.
         13    1    1    2    0    0 -0.76759386634E+02 -0.16968899040E+03  0.81703440091E+02  0.20337605608E+03  0.10566000000E+00 0. -1.
<mgrwt>
<rscale>  1 0.66649132E+03</rscale>
<asrwt>0</asrwt>
<pdfrwt beam="2">  1       21 0.69074672E-01 0.10194506E+04</pdfrwt>
<pdfrwt beam="1">  1        4 0.12491100E+00 0.10194506E+04</pdfrwt>
<totfact> 0.35252329E+01</totfact>
</mgrwt>
</event>
<event>
 6    1  0.1431486E-005  0.1019083E+04  0.7818608E-02  0.9808923E-01
          4   -1    0    0  502    0 -0.00000000000E+00  0.00000000000E+00  0.58435879853E+03  0.58435879853E+03  0.00000000000E+00 0.  1.
         21   -1    0    0  501  502  0.00000000000E+00 -0.00000000000E+00 -0.79095146722E+03  0.79095146722E+03  0.00000000000E+00 0.  1.
    9000010    2    1    2  501    0 -0.12783226943E+03 -0.10821114261E+03 -0.42153103719E+03  0.11028231029E+04  0.10052261639E+04 0.  0.
        -13    1    3    3    0    0  0.37934493688E+03 -0.27199098974E+03 -0.30402508623E+03  0.55705739727E+03  0.10566000000E+00 0.  1.
          4    1    3    3  501    0 -0.50717720632E+03  0.16377984712E+03 -0.11750595096E+03  0.54576570563E+03  0.00000000000E+00 0.  1.
         13    1    1    2    0    0  0.12783226943E+03  0.10821114261E+03  0.21493836850E+03  0.27248716284E+03  0.10566000000E+00 0. -1.
<mgrwt>
<rscale>  1 0.64885890E+03</rscale>
<asrwt>0</asrwt>
<pdfrwt beam="2">  1       21 0.12168484E+00 0.10190831E+04</pdfrwt>
<pdfrwt beam="1">  1        4 0.89901354E-01 0.10190831E+04</pdfrwt>
<totfact> 0.19865548E+01</totfact>
</mgrwt>
</event>
<event>
 6    1  0.1431486E-005  0.1005705E+04  0.7818608E-02  0.9977740E-01
          4   -1    0    0  502    0 -0.00000000000E+00  0.00000000000E+00  0.13449165638E+04  0.13449165638E+04  0.00000000000E+00 0.  1.
         21   -1    0    0  501  502  0.00000000000E+00 -0.00000000000E+00 -0.33111385248E+03  0.33111385248E+03  0.00000000000E+00 0.  1.
    9000010    2    1    2  501    0 -0.16884082442E+02  0.99737534364E+02  0.44751353815E+03  0.11007773530E+04  0.10006047002E+04 0.  0.
        -13    1    3    3    0    0  0.40421483405E+03  0.13164577052E+03 -0.72112759583E+02  0.43118499768E+03  0.10566000000E+00 0.  1.
          4    1    3    3  501    0 -0.42109891649E+03 -0.31908236158E+02  0.51962629773E+03  0.66959235532E+03  0.00000000000E+00 0.  1.
         13    1    1    2    0    0  0.16884082442E+02 -0.99737534364E+02  0.56628917314E+03  0.57525306326E+03  0.10566000000E+00 0. -1.
<mgrwt>
<rscale>  1 0.56637164E+03</rscale>
<asrwt>0</asrwt>
<pdfrwt beam="2">  1       21 0.50940593E-01 0.10057049E+04</pdfrwt>
<pdfrwt beam="1">  1        4 0.20691024E+00 0.10057049E+04</pdfrwt>
<totfact> 0.17097794E+01</totfact>
</mgrwt>
</event>
<event>
 6    1  0.1431486E-005  0.9993697E+03  0.7818608E-02  0.1004270E+00
          4   -1    0    0  502    0 -0.00000000000E+00  0.00000000000E+00  0.76843467653E+03  0.76843467653E+03  0.00000000000E+00 0.  1.
         21   -1    0    0  501  502  0.00000000000E+00 -0.00000000000E+00 -0.40893995638E+03  0.40893995638E+03  0.00000000000E+00 0.  1.
    9000010    2    1    2  501    0  0.37168341881E+02  0.75377328227E+02  0.23410250237E+03  0.10264228304E+04  0.99582961284E+03 0.  0.
        -13    1    3    3    0    0 -0.41431163147E+03 -0.20062080514E+03  0.37247388459E+02  0.46183353553E+03  0.10566000000E+00 0.  1.
          4    1    3    3  501    0  0.45147997335E+03  0.27599813336E+03  0.19685511391E+03  0.56458929483E+03  0.00000000000E+00 0.  1.
         13    1    1    2    0    0 -0.37168341881E+02 -0.75377328227E+02  0.12539221778E+03  0.15095180255E+03  0.10566000000E+00 0. -1.
<mgrwt>
<rscale>  1 0.53817079E+03</rscale>
<asrwt>0</asrwt>
<pdfrwt beam="2">  1       21 0.62913840E-01 0.99936972E+03</pdfrwt>
<pdfrwt beam="1">  1        4 0.11822072E+00 0.99936972E+03</pdfrwt>
<totfact> 0.50162171E+01</totfact>
</mgrwt>
</event>
<event>
 6    1  0.1431486E-005  0.9133259E+03  0.7818608E-02  0.9903469E-01
         21   -1    0    0  501  502  0.00000000000E+00  0.00000000000E+00  0.19455682805E+03  0.19455682805E+03  0.00000000000E+00 0.  1.
          4   -1    0    0  502    0 -0.00000000000E+00 -0.00000000000E+00 -0.16762606051E+04  0.16762606051E+04  0.00000000000E+00 0.  1.
    9000010    2    1    2  501    0 -0.16709511979E+03 -0.37132653818E+02 -0.97489634590E+03  0.13358843565E+04  0.89714241662E+03 0.  0.
        -13    1    3    3    0    0  0.19853927366E+03  0.30442306900E+03 -0.20381464569E+03  0.41669133551E+03  0.10566000000E+00 0.  1.
          4    1    3    3  501    0 -0.36563439345E+03 -0.34155572282E+03 -0.77108170022E+03  0.91919302101E+03  0.00000000000E+00 0.  1.
         13    1    1    2    0    0  0.16709511979E+03  0.37132653818E+02 -0.50680743111E+03  0.53493307659E+03  0.10566000000E+00 0. -1.
<mgrwt>
<rscale>  1 0.60093441E+03</rscale>
<asrwt>0</asrwt>
<pdfrwt beam="1">  1       21 0.29931819E-01 0.91332586E+03</pdfrwt>
<pdfrwt beam="2">  1        4 0.25788625E+00 0.91332586E+03</pdfrwt>
<totfact> 0.25032109E+01</totfact>
</mgrwt>
</event>
<event>
 6    1  0.1431486E-005  0.1015611E+04  0.7818608E-02  0.9791083E-01
          4   -1    0    0  502    0 -0.00000000000E+00  0.00000000000E+00  0.58135607219E+03  0.58135607219E+03  0.00000000000E+00 0.  1.
         21   -1    0    0  501  502  0.00000000000E+00 -0.00000000000E+00 -0.77711773900E+03  0.77711773900E+03  0.00000000000E+00 0.  1.
    9000010    2    1    2  501    0  0.10855946195E+03  0.14284657942E+03 -0.39557573418E+03  0.10899296347E+04  0.99963800706E+03 0.  0.
        -13    1    3    3    0    0 -0.21349170549E+03  0.58314550623E+02  0.26796191983E+03  0.34753833856E+03  0.10566000000E+00 0.  1.
          4    1    3    3  501    0  0.32205116744E+03  0.84532028794E+02 -0.66353765401E+03  0.74239129617E+03  0.00000000000E+00 0.  1.
         13    1    1    2    0    0 -0.10855946195E+03 -0.14284657942E+03  0.19981406736E+03  0.26854417646E+03  0.10566000000E+00 0. -1.
<mgrwt>
<rscale>  1 0.65843258E+03</rscale>
<asrwt>0</asrwt>
<pdfrwt beam="2">  1       21 0.11955658E+00 0.10156114E+04</pdfrwt>
<pdfrwt beam="1">  1        4 0.89439396E-01 0.10156114E+04</pdfrwt>
<totfact> 0.21062315E+01</totfact>
</mgrwt>
</event>
<event>
 6    1  0.1431486E-005  0.1038421E+04  0.7818608E-02  0.9655735E-01
          4   -1    0    0  502    0 -0.00000000000E+00  0.00000000000E+00  0.30199006136E+03  0.30199006136E+03  0.00000000000E+00 0.  1.
         21   -1    0    0  501  502  0.00000000000E+00 -0.00000000000E+00 -0.16231325590E+04  0.16231325590E+04  0.00000000000E+00 0.  1.
    9000010    2    1    2  501    0  0.25801290891E+03 -0.54421985181E+02 -0.12953188022E+04  0.16601711379E+04  0.10043828923E+04 0.  0.
        -13    1    3    3    0    0  0.13226292364E+03 -0.48452659327E+03 -0.34450012071E+03  0.60904831080E+03  0.10566000000E+00 0.  1.
          4    1    3    3  501    0  0.12574998526E+03  0.43010460809E+03 -0.95081868147E+03  0.10511228271E+04  0.00000000000E+00 0.  1.
         13    1    1    2    0    0 -0.25801290891E+03  0.54421985181E+02 -0.25823695466E+02  0.26495148244E+03  0.10566000000E+00 0. -1.
<mgrwt>
<rscale>  1 0.73714581E+03</rscale>
<asrwt>0</asrwt>
<pdfrwt beam="2">  1       21 0.24971270E+00 0.10384206E+04</pdfrwt>
<pdfrwt beam="1">  1        4 0.46460009E-01 0.10384206E+04</pdfrwt>
<totfact> 0.97419570E+00</totfact>
</mgrwt>
</event>
<event>
 6    1  0.1431486E-005  0.1040378E+04  0.7818608E-02  0.9812220E-01
          4   -1    0    0  502    0 -0.00000000000E+00  0.00000000000E+00  0.13287158585E+04  0.13287158585E+04  0.00000000000E+00 0.  1.
         21   -1    0    0  501  502  0.00000000000E+00 -0.00000000000E+00 -0.28917488007E+03  0.28917488007E+03  0.00000000000E+00 0.  1.
    9000010    2    1    2  501    0  0.10480050751E+03 -0.11517196823E+03  0.72859225511E+03  0.12701309819E+04  0.10286584994E+04 0.  0.
        -13    1    3    3    0    0  0.30613054508E+02  0.31943618310E+03  0.76316062777E+03  0.82788331854E+03  0.10566000000E+00 0.  1.
          4    1    3    3  501    0  0.74187452998E+02 -0.43460815133E+03 -0.34568372657E+02  0.44224766339E+03  0.00000000000E+00 0.  1.
         13    1    1    2    0    0 -0.10480050751E+03  0.11517196823E+03  0.31094872327E+03  0.34775975659E+03  0.10566000000E+00 0. -1.
<mgrwt>
<rscale>  1 0.64710868E+03</rscale>
<asrwt>0</asrwt>
<pdfrwt beam="2">  1       21 0.44488444E-01 0.10403778E+04</pdfrwt>
<pdfrwt beam="1">  1        4 0.20441782E+00 0.10403778E+04</pdfrwt>
<totfact> 0.23661443E+01</totfact>
</mgrwt>
</event>
<event>
 6    1  0.1431486E-005  0.1137669E+04  0.7818608E-02  0.9380115E-01
         21   -1    0    0  501  502  0.00000000000E+00  0.00000000000E+00  0.12507664429E+04  0.12507664429E+04  0.00000000000E+00 0.  1.
          4   -1    0    0  502    0 -0.00000000000E+00 -0.00000000000E+00 -0.59777641293E+03  0.59777641293E+03  0.00000000000E+00 0.  1.
    9000010    2    1    2  501    0  0.41937228557E+03 -0.31445575374E+03  0.67692251534E+03  0.13238254938E+04  0.10097199173E+04 0.  0.
        -13    1    3    3    0    0 -0.10168971325E+03  0.29169603144E+03  0.61371476121E+02  0.31495053863E+03  0.10566000000E+00 0.  1.
          4    1    3    3  501    0  0.52106199883E+03 -0.60615178517E+03  0.61555103922E+03  0.10088749552E+04  0.00000000000E+00 0.  1.
         13    1    1    2    0    0 -0.41937228557E+03  0.31445575374E+03 -0.23932485399E+02  0.52471736200E+03  0.10566000000E+00 0. -1.
<mgrwt>
<rscale>  1 0.93730328E+03</rscale>
<asrwt>0</asrwt>
<pdfrwt beam="1">  1       21 0.19242561E+00 0.11376686E+04</pdfrwt>
<pdfrwt beam="2">  1        4 0.91965602E-01 0.11376686E+04</pdfrwt>
<totfact> 0.50768928E+00</totfact>
</mgrwt>
</event>
<event>
 6    1  0.1431486E-005  0.1103119E+04  0.7818608E-02  0.9446897E-01
         21   -1    0    0  501  502  0.00000000000E+00  0.00000000000E+00  0.34228549966E+03  0.34228549966E+03  0.00000000000E+00 0.  1.
          4   -1    0    0  502    0 -0.00000000000E+00 -0.00000000000E+00 -0.18873589270E+04  0.18873589270E+04  0.00000000000E+00 0.  1.
    9000010    2    1    2  501    0 -0.16257891004E+03 -0.42300687888E+03 -0.81962822846E+03  0.13742863325E+04  0.10057364312E+04 0.  0.
        -13    1    3    3    0    0  0.12711749655E+03 -0.59065056030E+03 -0.14521016323E+03  0.62137987172E+03  0.10566000000E+00 0.  1.
          4    1    3    3  501    0 -0.28969640659E+03  0.16764368142E+03 -0.67441806524E+03  0.75290646074E+03  0.00000000000E+00 0.  1.
         13    1    1    2    0    0  0.16257891004E+03  0.42300687888E+03 -0.72544519888E+03  0.85535809420E+03  0.10566000000E+00 0. -1.
<mgrwt>
<rscale>  1 0.88314734E+03</rscale>
<asrwt>0</asrwt>
<pdfrwt beam="1">  1       21 0.52659307E-01 0.11031194E+04</pdfrwt>
<pdfrwt beam="2">  1        4 0.29036292E+00 0.11031194E+04</pdfrwt>
<totfact> 0.47281104E+00</totfact>
</mgrwt>
</event>
<event>
 6    1  0.1431486E-005  0.1105447E+04  0.7818608E-02  0.9407644E-01
          4   -1    0    0  502    0 -0.00000000000E+00  0.00000000000E+00  0.63108933950E+03  0.63108933950E+03  0.00000000000E+00 0.  1.
         21   -1    0    0  501  502  0.00000000000E+00 -0.00000000000E+00 -0.10801211304E+04  0.10801211304E+04  0.00000000000E+00 0.  1.
    9000010    2    1    2  501    0  0.47259542530E+03  0.21142888196E+03 -0.44985632642E+03  0.11934756931E+04  0.97671127125E+03 0.  0.
        -13    1    3    3    0    0  0.47133957531E+03 -0.32274422316E+03 -0.22853110252E+03  0.61526523128E+03  0.10566000000E+00 0.  1.
          4    1    3    3  501    0  0.12558499940E+01  0.53417310512E+03 -0.22132522390E+03  0.57821046179E+03  0.00000000000E+00 0.  1.
         13    1    1    2    0    0 -0.47259542530E+03 -0.21142888196E+03  0.82453549528E+00  0.51773477686E+03  0.10566000000E+00 0. -1.
<mgrwt>
<rscale>  1 0.91449261E+03</rscale>
<asrwt>0</asrwt>
<pdfrwt beam="2">  1       21 0.16617248E+00 0.11054472E+04</pdfrwt>
<pdfrwt beam="1">  1        4 0.97090668E-01 0.11054472E+04</pdfrwt>
<totfact> 0.69646947E+00</totfact>
</mgrwt>
</event>
<event>
 6    1  0.1431486E-005  0.1065311E+04  0.7818608E-02  0.9559588E-01
         21   -1    0    0  501  502  0.00000000000E+00  0.00000000000E+00  0.23429121006E+04  0.23429121006E+04  0.00000000000E+00 0. -1.
          4   -1    0    0  502    0 -0.00000000000E+00 -0.00000000000E+00 -0.26026191259E+03  0.26026191259E+03  0.00000000000E+00 0.  1.
    9000010    2    1    2  501    0 -0.33271127145E+03  0.66508303437E+02  0.19805001001E+04  0.22488368910E+04  0.10098349226E+04 0.  0.
        -13    1    3    3    0    0 -0.31513930761E+03  0.24666253677E+03  0.17923166964E+03  0.43849651403E+03  0.10566000000E+00 0.  1.
          4    1    3    3  501    0 -0.17571963834E+02 -0.18015423333E+03  0.18012684305E+04  0.18103403770E+04  0.00000000000E+00 0.  1.
         13    1    1    2    0    0  0.33271127145E+03 -0.66508303437E+02  0.10215008788E+03  0.35433712223E+03  0.10566000000E+00 0. -1.
<mgrwt>
<rscale>  1 0.80029686E+03</rscale>
<asrwt>0</asrwt>
<pdfrwt beam="1">  1       21 0.36044800E+00 0.10653106E+04</pdfrwt>
<pdfrwt beam="2">  1        4 0.40040296E-01 0.10653106E+04</pdfrwt>
<totfact> 0.26613423E+00</totfact>
</mgrwt>
</event>
<event>
 6    1  0.1431486E-005  0.1047194E+04  0.7818608E-02  0.9594887E-01
          4   -1    0    0  502    0 -0.00000000000E+00  0.00000000000E+00  0.42344501901E+03  0.42344501901E+03  0.00000000000E+00 0.  1.
         21   -1    0    0  501  502  0.00000000000E+00 -0.00000000000E+00 -0.11035476304E+04  0.11035476304E+04  0.00000000000E+00 0.  1.
    9000010    2    1    2  501    0  0.31619969218E+03 -0.95706052026E+01 -0.56838135565E+03  0.11914997404E+04  0.99826871342E+03 0.  0.
        -13    1    3    3    0    0  0.17468666448E+03 -0.29672026065E+03 -0.74870059351E+03  0.82408187319E+03  0.10566000000E+00 0.  1.
          4    1    3    3  501    0  0.14151302770E+03  0.28714965545E+03  0.18031923786E+03  0.36741786725E+03  0.00000000000E+00 0.  1.
         13    1    1    2    0    0 -0.31619969218E+03  0.95706052026E+01 -0.11172125571E+03  0.33549290896E+03  0.10566000000E+00 0. -1.
<mgrwt>
<rscale>  1 0.77635488E+03</rscale>
<asrwt>0</asrwt>
<pdfrwt beam="2">  1       21 0.16977655E+00 0.10471935E+04</pdfrwt>
<pdfrwt beam="1">  1        4 0.65145390E-01 0.10471935E+04</pdfrwt>
<totfact> 0.16483784E+01</totfact>
</mgrwt>
</event>
<event>
 6    1  0.1431486E-005  0.1055136E+04  0.7818608E-02  0.9683804E-01
          4   -1    0    0  502    0 -0.00000000000E+00  0.00000000000E+00  0.77109014148E+03  0.77109014148E+03  0.00000000000E+00 0.  1.
         21   -1    0    0  501  502  0.00000000000E+00 -0.00000000000E+00 -0.53753277257E+03  0.53753277257E+03  0.00000000000E+00 0.  1.
    9000010    2    1    2  501    0 -0.14300038924E+00  0.22863761987E+03  0.23022604856E+03  0.10799609572E+04  0.10300662376E+04 0.  0.
        -13    1    3    3    0    0 -0.10674206184E+03  0.62557438038E+03  0.21001269993E+03  0.66846280259E+03  0.10566000000E+00 0.  1.
          4    1    3    3  501    0  0.10659906145E+03 -0.39693676050E+03  0.20213348629E+02  0.41149815456E+03  0.00000000000E+00 0.  1.
         13    1    1    2    0    0  0.14300038924E+00 -0.22863761987E+03  0.33313203449E+01  0.22866195689E+03  0.10566000000E+00 0. -1.
<mgrwt>
<rscale>  1 0.71989356E+03</rscale>
<asrwt>0</asrwt>
<pdfrwt beam="2">  1       21 0.82697349E-01 0.10551358E+04</pdfrwt>
<pdfrwt beam="1">  1        4 0.11862925E+00 0.10551358E+04</pdfrwt>
<totfact> 0.26341412E+01</totfact>
</mgrwt>
</event>
<event>
 6    1  0.1431486E-005  0.1195087E+04  0.7818608E-02  0.9279252E-01
         21   -1    0    0  501  502  0.00000000000E+00  0.00000000000E+00  0.65106487272E+03  0.65106487272E+03  0.00000000000E+00 0. -1.
          4   -1    0    0  502    0 -0.00000000000E+00 -0.00000000000E+00 -0.17479258370E+04  0.17479258370E+04  0.00000000000E+00 0.  1.
    9000010    2    1    2  501    0 -0.65204247260E+03 -0.11807428834E+02 -0.12497146097E+04  0.17291675618E+04  0.10014664496E+04 0.  0.
        -13    1    3    3    0    0 -0.95697482035E+02  0.44443696929E+03 -0.64602027109E+03  0.78995216916E+03  0.10566000000E+00 0.  1.
          4    1    3    3  501    0 -0.55634499056E+03 -0.45624439812E+03 -0.60369433859E+03  0.93921539265E+03  0.00000000000E+00 0.  1.
         13    1    1    2    0    0  0.65204247260E+03  0.11807428834E+02  0.15285364537E+03  0.66982314794E+03  0.10566000000E+00 0. -1.
<mgrwt>
<rscale>  1 0.10271564E+04</rscale>
<asrwt>0</asrwt>
<pdfrwt beam="1">  1       21 0.10016383E+00 0.11950874E+04</pdfrwt>
<pdfrwt beam="2">  1        4 0.26891166E+00 0.11950874E+04</pdfrwt>
<totfact> 0.14249813E+00</totfact>
</mgrwt>
</event>
<event>
 6    1  0.1431486E-005  0.1038071E+04  0.7818608E-02  0.9671834E-01
         21   -1    0    0  501  502  0.00000000000E+00  0.00000000000E+00  0.16560983789E+03  0.16560983789E+03  0.00000000000E+00 0.  1.
          4   -1    0    0  502    0 -0.00000000000E+00 -0.00000000000E+00 -0.26270112914E+04  0.26270112914E+04  0.00000000000E+00 0.  1.
    9000010    2    1    2  501    0  0.13315908934E+03 -0.21156302423E+03 -0.17067692437E+04  0.19976619859E+04  0.10075226562E+04 0.  0.
        -13    1    3    3    0    0  0.17176912362E+03 -0.22310886116E+03  0.87136990435E+01  0.28170576045E+03  0.10566000000E+00 0.  1.
          4    1    3    3  501    0 -0.38610034281E+02  0.11545836923E+02 -0.17154829427E+04  0.17159562255E+04  0.00000000000E+00 0.  1.
         13    1    1    2    0    0 -0.13315908934E+03  0.21156302423E+03 -0.75463220990E+03  0.79495914341E+03  0.10566000000E+00 0. -1.
<mgrwt>
<rscale>  1 0.72718842E+03</rscale>
<asrwt>0</asrwt>
<pdfrwt beam="1">  1       21 0.25478438E-01 0.10380714E+04</pdfrwt>
<pdfrwt beam="2">  1        4 0.40415555E+00 0.10380714E+04</pdfrwt>
<totfact> 0.39203550E+00</totfact>
</mgrwt>
</event>
<event>
 6    1  0.1431486E-005  0.1224143E+04  0.7818608E-02  0.9254548E-01
          4   -1    0    0  502    0 -0.00000000000E+00  0.00000000000E+00  0.10789376735E+04  0.10789376735E+04  0.00000000000E+00 0.  1.
         21   -1    0    0  501  502  0.00000000000E+00 -0.00000000000E+00 -0.10401962656E+04  0.10401962656E+04  0.00000000000E+00 0. -1.
    9000010    2    1    2  501    0  0.35218470086E+03  0.56356840547E+03  0.48707116211E+03  0.13174837718E+04  0.10280475479E+04 0.  0.
        -13    1    3    3    0    0  0.52754222217E+03 -0.23361611855E+02 -0.10706531213E+02  0.52816777832E+03  0.10566000000E+00 0.  1.
          4    1    3    3  501    0 -0.17535752131E+03  0.58693001732E+03  0.49777769332E+03  0.78931599343E+03  0.00000000000E+00 0.  1.
         13    1    1    2    0    0 -0.35218470086E+03 -0.56356840547E+03 -0.44832975415E+03  0.80165016733E+03  0.10566000000E+00 0. -1.
<mgrwt>
<rscale>  1 0.10507709E+04</rscale>
<asrwt>0</asrwt>
<pdfrwt beam="2">  1       21 0.16003019E+00 0.12241426E+04</pdfrwt>
<pdfrwt beam="1">  1        4 0.16599041E+00 0.12241426E+04</pdfrwt>
<totfact> 0.19246587E+00</totfact>
</mgrwt>
</event>
<event>
 6    1  0.1431486E-005  0.1038149E+04  0.7818608E-02  0.9620304E-01
         21   -1    0    0  501  502  0.00000000000E+00  0.00000000000E+00  0.97558032482E+03  0.97558032482E+03  0.00000000000E+00 0. -1.
          4   -1    0    0  502    0 -0.00000000000E+00 -0.00000000000E+00 -0.46083781519E+03  0.46083781519E+03  0.00000000000E+00 0.  1.
    9000010    2    1    2  501    0 -0.15180294068E+03  0.25603801007E+03  0.45169053803E+03  0.11321564801E+04  0.99456239517E+03 0.  0.
        -13    1    3    3    0    0 -0.44534429299E+03  0.10183080529E+03 -0.11904296048E+03  0.47209351807E+03  0.10566000000E+00 0.  1.
          4    1    3    3  501    0  0.29354135231E+03  0.15420720478E+03  0.57073349851E+03  0.66006296203E+03  0.00000000000E+00 0.  1.
         13    1    1    2    0    0  0.15180294068E+03 -0.25603801007E+03  0.63051971594E+02  0.30426165990E+03  0.10566000000E+00 0. -1.
<mgrwt>
<rscale>  1 0.75966800E+03</rscale>
<asrwt>0</asrwt>
<pdfrwt beam="1">  1       21 0.15008928E+00 0.10381493E+04</pdfrwt>
<pdfrwt beam="2">  1        4 0.70898126E-01 0.10381493E+04</pdfrwt>
<totfact> 0.19438914E+01</totfact>
</mgrwt>
</event>
<event>
 6    1  0.1431486E-005  0.1022016E+04  0.7818608E-02  0.1000110E+00
          4   -1    0    0  502    0 -0.00000000000E+00  0.00000000000E+00  0.56702919710E+03  0.56702919710E+03  0.00000000000E+00 0.  1.
         21   -1    0    0  501  502  0.00000000000E+00 -0.00000000000E+00 -0.55425914609E+03  0.55425914609E+03  0.00000000000E+00 0.  1.
    9000010    2    1    2  501    0 -0.86187030571E+02 -0.24247813341E+02  0.52439717642E+02  0.10233605417E+04  0.10180867908E+04 0.  0.
        -13    1    3    3    0    0 -0.22755159368E+03 -0.15723203498E+03  0.47990106773E+03  0.55390133289E+03  0.10566000000E+00 0.  1.
          4    1    3    3  501    0  0.14136456311E+03  0.13298422164E+03 -0.42746135009E+03  0.46945920880E+03  0.00000000000E+00 0.  1.
         13    1    1    2    0    0  0.86187030571E+02  0.24247813341E+02 -0.39669666634E+02  0.97927801493E+02  0.10566000000E+00 0. -1.
<mgrwt>
<rscale>  1 0.55601848E+03</rscale>
<asrwt>0</asrwt>
<pdfrwt beam="2">  1       21 0.85270638E-01 0.10220161E+04</pdfrwt>
<pdfrwt beam="1">  1        4 0.87235261E-01 0.10220161E+04</pdfrwt>
<totfact> 0.51680740E+01</totfact>
</mgrwt>
</event>
<event>
 6    1  0.1431486E-005  0.1058955E+04  0.7818608E-02  0.9418336E-01
          4   -1    0    0  502    0 -0.00000000000E+00  0.00000000000E+00  0.35744825510E+03  0.35744825510E+03  0.00000000000E+00 0.  1.
         21   -1    0    0  501  502  0.00000000000E+00 -0.00000000000E+00 -0.20533755566E+04  0.20533755566E+04  0.00000000000E+00 0. -1.
    9000010    2    1    2  501    0  0.23477007611E+03 -0.51604186171E+03 -0.71463747708E+03  0.12775339448E+04  0.89441045661E+03 0.  0.
        -13    1    3    3    0    0  0.55374502364E+03 -0.27665852853E+03 -0.60118559001E+03  0.86290069962E+03  0.10566000000E+00 0.  1.
          4    1    3    3  501    0 -0.31897494753E+03 -0.23938333318E+03 -0.11345188707E+03  0.41463324521E+03  0.00000000000E+00 0.  1.
         13    1    1    2    0    0 -0.23477007611E+03  0.51604186171E+03 -0.98128982446E+03  0.11332898669E+04  0.10566000000E+00 0. -1.
<mgrwt>
<rscale>  1 0.90581965E+03</rscale>
<asrwt>0</asrwt>
<pdfrwt beam="2">  1       21 0.31590393E+00 0.10589553E+04</pdfrwt>
<pdfrwt beam="1">  1        4 0.54992040E-01 0.10589553E+04</pdfrwt>
<totfact> 0.26162104E+00</totfact>
</mgrwt>
</event>
<event>
 6    1  0.1431486E-005  0.1038915E+04  0.7818608E-02  0.9618252E-01
         21   -1    0    0  501  502  0.00000000000E+00  0.00000000000E+00  0.77484642487E+03  0.77484642487E+03  0.00000000000E+00 0.  1.
          4   -1    0    0  502    0 -0.00000000000E+00 -0.00000000000E+00 -0.80167702242E+03  0.80167702242E+03  0.00000000000E+00 0.  1.
    9000010    2    1    2  501    0 -0.31837258289E+02 -0.29738510042E+03  0.34922039283E+03  0.10960384137E+04  0.99493407448E+03 0.  0.
        -13    1    3    3    0    0  0.74663997046E+02 -0.65481333463E+03  0.16175161466E+03  0.67861536356E+03  0.10566000000E+00 0.  1.
          4    1    3    3  501    0 -0.10650125534E+03  0.35742823420E+03  0.18746877818E+03  0.41742305014E+03  0.00000000000E+00 0.  1.
         13    1    1    2    0    0  0.31837258289E+02  0.29738510042E+03 -0.37605099038E+03  0.48048503359E+03  0.10566000000E+00 0. -1.
<mgrwt>
<rscale>  1 0.76099818E+03</rscale>
<asrwt>0</asrwt>
<pdfrwt beam="1">  1       21 0.11920714E+00 0.10389155E+04</pdfrwt>
<pdfrwt beam="2">  1        4 0.12333493E+00 0.10389155E+04</pdfrwt>
<totfact> 0.96676000E+00</totfact>
</mgrwt>
</event>
<event>
 6    1  0.1431486E-005  0.1005638E+04  0.7818608E-02  0.9859377E-01
          4   -1    0    0  502    0 -0.00000000000E+00  0.00000000000E+00  0.29186487055E+03  0.29186487055E+03  0.00000000000E+00 0.  1.
         21   -1    0    0  501  502  0.00000000000E+00 -0.00000000000E+00 -0.11539181504E+04  0.11539181504E+04  0.00000000000E+00 0.  1.
    9000010    2    1    2  501    0  0.14067246903E+03  0.45506599158E+02 -0.80169224146E+03  0.12860862451E+04  0.99470990026E+03 0.  0.
        -13    1    3    3    0    0  0.53266167180E+03 -0.26855468809E+02 -0.21117508260E+03  0.57362409249E+03  0.10566000000E+00 0.  1.
          4    1    3    3  501    0 -0.39198920278E+03  0.72362067967E+02 -0.59051715887E+03  0.71246215260E+03  0.00000000000E+00 0.  1.
         13    1    1    2    0    0 -0.14067246903E+03 -0.45506599158E+02 -0.60361038415E+02  0.15969677589E+03  0.10566000000E+00 0. -1.
<mgrwt>
<rscale>  1 0.62271092E+03</rscale>
<asrwt>0</asrwt>
<pdfrwt beam="2">  1       21 0.17752587E+00 0.10056378E+04</pdfrwt>
<pdfrwt beam="1">  1        4 0.44902288E-01 0.10056378E+04</pdfrwt>
<totfact> 0.32190428E+01</totfact>
</mgrwt>
</event>
<event>
 6    1  0.1431486E-005  0.1026761E+04  0.7818608E-02  0.9705419E-01
         21   -1    0    0  501  502  0.00000000000E+00  0.00000000000E+00  0.48712087527E+03  0.48712087527E+03  0.00000000000E+00 0.  1.
          4   -1    0    0  502    0 -0.00000000000E+00 -0.00000000000E+00 -0.84832810998E+03  0.84832810998E+03  0.00000000000E+00 0.  1.
    9000010    2    1    2  501    0 -0.14331498663E+03 -0.18085342831E+03 -0.18083388796E+03  0.10425638485E+04  0.10004955449E+04 0.  0.
        -13    1    3    3    0    0 -0.21085588612E+03  0.38966877665E+03 -0.14798056819E+03  0.46711906398E+03  0.10566000000E+00 0.  1.
          4    1    3    3  501    0  0.67540899496E+02 -0.57052220496E+03 -0.32853319773E+02  0.57544478456E+03  0.00000000000E+00 0.  1.
         13    1    1    2    0    0  0.14331498663E+03  0.18085342831E+03 -0.18037334675E+03  0.29288513671E+03  0.10566000000E+00 0. -1.
<mgrwt>
<rscale>  1 0.70695070E+03</rscale>
<asrwt>0</asrwt>
<pdfrwt beam="1">  1       21 0.74941673E-01 0.10267612E+04</pdfrwt>
<pdfrwt beam="2">  1        4 0.13051202E+00 0.10267612E+04</pdfrwt>
<totfact> 0.26095697E+01</totfact>
</mgrwt>
</event>
<event>
 6    1  0.1431486E-005  0.1012625E+04  0.7818608E-02  0.9545643E-01
         21   -1    0    0  501  502  0.00000000000E+00  0.00000000000E+00  0.23912494001E+03  0.23912494001E+03  0.00000000000E+00 0.  1.
          4   -1    0    0  502    0 -0.00000000000E+00 -0.00000000000E+00 -0.21358678202E+04  0.21358678202E+04  0.00000000000E+00 0.  1.
    9000010    2    1    2  501    0 -0.39203400175E+03 -0.13486498987E+03 -0.14032111468E+04  0.17304364732E+04  0.92386667949E+03 0.  0.
        -13    1    3    3    0    0  0.88334191452E+02 -0.14390069676E+03  0.68553136819E+02  0.18223579132E+03  0.10566000000E+00 0.  1.
          4    1    3    3  501    0 -0.48036819321E+03  0.90357068919E+01 -0.14717642836E+04  0.15482006819E+04  0.00000000000E+00 0.  1.
         13    1    1    2    0    0  0.39203400175E+03  0.13486498987E+03 -0.49353173342E+03  0.64455628698E+03  0.10566000000E+00 0. -1.
<mgrwt>
<rscale>  1 0.81000814E+03</rscale>
<asrwt>0</asrwt>
<pdfrwt beam="1">  1       21 0.36788450E-01 0.10126247E+04</pdfrwt>
<pdfrwt beam="2">  1        4 0.32859507E+00 0.10126247E+04</pdfrwt>
<totfact> 0.59192385E+00</totfact>
</mgrwt>
</event>
<event>
 6    1  0.1431486E-005  0.9856847E+03  0.7818608E-02  0.1016724E+00
          4   -1    0    0  502    0 -0.00000000000E+00  0.00000000000E+00  0.10231957330E+03  0.10231957330E+03  0.00000000000E+00 0.  1.
         21   -1    0    0  501  502  0.00000000000E+00 -0.00000000000E+00 -0.27406621262E+04  0.27406621262E+04  0.00000000000E+00 0.  1.
    9000010    2    1    2  501    0 -0.35364577912E+02 -0.48031634512E+02 -0.25684803130E+04  0.27511207447E+04  0.98387831690E+03 0.  0.
        -13    1    3    3    0    0 -0.30491822348E+03 -0.16900314763E+02 -0.19533757463E+03  0.36251554846E+03  0.10566000000E+00 0.  1.
          4    1    3    3  501    0  0.26955364557E+03 -0.31131319749E+02 -0.23731427384E+04  0.23886051963E+04  0.00000000000E+00 0.  1.
         13    1    1    2    0    0  0.35364577912E+02  0.48031634512E+02 -0.69862239898E+02  0.91860954776E+02  0.10566000000E+00 0. -1.
<mgrwt>
<rscale>  1 0.48887710E+03</rscale>
<asrwt>0</asrwt>
<pdfrwt beam="2">  1       21 0.42164022E+00 0.98568465E+03</pdfrwt>
<pdfrwt beam="1">  1        4 0.15741477E-01 0.98568465E+03</pdfrwt>
<totfact> 0.64735514E+00</totfact>
</mgrwt>
</event>
<event>
 6    1  0.1431486E-005  0.1037874E+04  0.7818608E-02  0.9654893E-01
         21   -1    0    0  501  502  0.00000000000E+00  0.00000000000E+00  0.36387648978E+03  0.36387648978E+03  0.00000000000E+00 0.  1.
          4   -1    0    0  502    0 -0.00000000000E+00 -0.00000000000E+00 -0.12126240200E+04  0.12126240200E+04  0.00000000000E+00 0.  1.
    9000010    2    1    2  501    0  0.15795419635E+03 -0.21260739672E+03 -0.79221179768E+03  0.13056726429E+04  0.10035088862E+04 0.  0.
        -13    1    3    3    0    0  0.34912841688E+03 -0.53092461698E+03 -0.64735128706E+03  0.90710269562E+03  0.10566000000E+00 0.  1.
          4    1    3    3  501    0 -0.19117422053E+03  0.31831722026E+03 -0.14486051062E+03  0.39856994724E+03  0.00000000000E+00 0.  1.
         13    1    1    2    0    0 -0.15795419635E+03  0.21260739672E+03 -0.56535732544E+02  0.27082786692E+03  0.10566000000E+00 0. -1.
<mgrwt>
<rscale>  1 0.73767143E+03</rscale>
<asrwt>0</asrwt>
<pdfrwt beam="1">  1       21 0.55980998E-01 0.10378736E+04</pdfrwt>
<pdfrwt beam="2">  1        4 0.18655754E+00 0.10378736E+04</pdfrwt>
<totfact> 0.18961099E+01</totfact>
</mgrwt>
</event>
<event>
 6    1  0.1431486E-005  0.1100575E+04  0.7818608E-02  0.9425296E-01
          4   -1    0    0  502    0 -0.00000000000E+00  0.00000000000E+00  0.51115347845E+03  0.51115347845E+03  0.00000000000E+00 0.  1.
         21   -1    0    0  501  502  0.00000000000E+00 -0.00000000000E+00 -0.13846091435E+04  0.13846091435E+04  0.00000000000E+00 0.  1.
    9000010    2    1    2  501    0  0.34582166776E+03  0.35089278784E+03 -0.87028122245E+03  0.14030878178E+04  0.98414818181E+03 0.  0.
        -13    1    3    3    0    0  0.46180835784E+03  0.63987547785E+03 -0.61704844406E+03  0.10017266993E+04  0.10566000000E+00 0.  1.
          4    1    3    3  501    0 -0.11598669008E+03 -0.28898269001E+03 -0.25323277839E+03  0.40136111851E+03  0.00000000000E+00 0.  1.
         13    1    1    2    0    0 -0.34582166776E+03 -0.35089278784E+03 -0.31744426209E+01  0.49267480420E+03  0.10566000000E+00 0. -1.
<mgrwt>
<rscale>  1 0.90022830E+03</rscale>
<asrwt>0</asrwt>
<pdfrwt beam="2">  1       21 0.21301679E+00 0.11005753E+04</pdfrwt>
<pdfrwt beam="1">  1        4 0.78638998E-01 0.11005753E+04</pdfrwt>
<totfact> 0.53048631E+00</totfact>
</mgrwt>
</event>
<event>
 6    1  0.1431486E-005  0.8193390E+03  0.7818608E-02  0.1028195E+00
          4   -1    0    0  502    0 -0.00000000000E+00  0.00000000000E+00  0.66824407699E+03  0.66824407699E+03  0.00000000000E+00 0.  1.
         21   -1    0    0  501  502  0.00000000000E+00 -0.00000000000E+00 -0.31219913225E+03  0.31219913225E+03  0.00000000000E+00 0.  1.
    9000010    2    1    2  501    0  0.54398359731E+02  0.49441770362E+02  0.26021746812E+03  0.85966826715E+03  0.81603475945E+03 0.  0.
        -13    1    3    3    0    0  0.25907965602E+03  0.14068874100E+03  0.46861952197E+03  0.55364235526E+03  0.10566000000E+00 0.  1.
          4    1    3    3  501    0 -0.20468129629E+03 -0.91246970637E+02 -0.20840205385E+03  0.30602591189E+03  0.00000000000E+00 0.  1.
         13    1    1    2    0    0 -0.54398359731E+02 -0.49441770362E+02  0.95827476613E+02  0.12077494209E+03  0.10566000000E+00 0. -1.
<mgrwt>
<rscale>  1 0.44841893E+03</rscale>
<asrwt>0</asrwt>
<pdfrwt beam="2">  1       21 0.48030636E-01 0.81933900E+03</pdfrwt>
<pdfrwt beam="1">  1        4 0.10280678E+00 0.81933900E+03</pdfrwt>
<totfact> 0.12954779E+02</totfact>
</mgrwt>
</event>
<event>
 6    1  0.1431486E-005  0.1117431E+04  0.7818608E-02  0.9454985E-01
          4   -1    0    0  502    0 -0.00000000000E+00  0.00000000000E+00  0.40052675704E+03  0.40052675704E+03  0.00000000000E+00 0.  1.
         21   -1    0    0  501  502  0.00000000000E+00 -0.00000000000E+00 -0.21560450501E+04  0.21560450501E+04  0.00000000000E+00 0.  1.
    9000010    2    1    2  501    0 -0.40043872382E+03  0.13842763437E+03 -0.18122893692E+04  0.21290950853E+04  0.10339921388E+04 0.  0.
        -13    1    3    3    0    0 -0.18670642474E+03 -0.25535927145E+03 -0.16041790409E+04  0.16350712685E+04  0.10566000000E+00 0.  1.
          4    1    3    3  501    0 -0.21373229907E+03  0.39378690582E+03 -0.20811032828E+03  0.49402381683E+03  0.00000000000E+00 0.  1.
         13    1    1    2    0    0  0.40043872382E+03 -0.13842763437E+03  0.56771076093E+02  0.42747672186E+03  0.10566000000E+00 0. -1.
<mgrwt>
<rscale>  1 0.87685500E+03</rscale>
<asrwt>0</asrwt>
<pdfrwt beam="2">  1       21 0.33169925E+00 0.11174315E+04</pdfrwt>
<pdfrwt beam="1">  1        4 0.61619500E-01 0.11174315E+04</pdfrwt>
<totfact> 0.16108993E+00</totfact>
</mgrwt>
</event>
<event>
 6    1  0.1431486E-005  0.1164456E+04  0.7818608E-02  0.9328003E-01
         21   -1    0    0  501  502  0.00000000000E+00  0.00000000000E+00  0.27476916817E+04  0.27476916817E+04  0.00000000000E+00 0.  1.
          4   -1    0    0  502    0 -0.00000000000E+00 -0.00000000000E+00 -0.42467248915E+03  0.42467248915E+03  0.00000000000E+00 0.  1.
    9000010    2    1    2  501    0  0.40897797750E+03 -0.42529577667E+03  0.23045571492E+04  0.25820419352E+04  0.10039010993E+04 0.  0.
        -13    1    3    3    0    0  0.61967316453E+03 -0.36253046228E+03  0.85741068313E+03  0.11182916693E+04  0.10566000000E+00 0.  1.
          4    1    3    3  501    0 -0.21069518703E+03 -0.62765314396E+02  0.14471464661E+04  0.14637502659E+04  0.00000000000E+00 0.  1.
         13    1    1    2    0    0 -0.40897797750E+03  0.42529577667E+03  0.18462043340E+02  0.59032223568E+03  0.10566000000E+00 0. -1.
<mgrwt>
<rscale>  1 0.98245206E+03</rscale>
<asrwt>0</asrwt>
<pdfrwt beam="1">  1       21 0.42272179E+00 0.11644556E+04</pdfrwt>
<pdfrwt beam="2">  1        4 0.65334231E-01 0.11644556E+04</pdfrwt>
<totfact> 0.36127284E-01</totfact>
</mgrwt>
</event>
<event>
 6    1  0.1431486E-005  0.1023175E+04  0.7818608E-02  0.9744634E-01
          4   -1    0    0  502    0 -0.00000000000E+00  0.00000000000E+00  0.77646604614E+03  0.77646604614E+03  0.00000000000E+00 0.  1.
         21   -1    0    0  501  502  0.00000000000E+00 -0.00000000000E+00 -0.49088284756E+03  0.49088284756E+03  0.00000000000E+00 0. -1.
    9000010    2    1    2  501    0 -0.74096887374E+02  0.19070418135E+03  0.28730858445E+03  0.10627482543E+04  0.10025114443E+04 0.  0.
        -13    1    3    3    0    0  0.93605570933E+02 -0.12788230816E+03 -0.31979960959E+03  0.35691412008E+03  0.10566000000E+00 0.  1.
          4    1    3    3  501    0 -0.16770245831E+03  0.31858648951E+03  0.60710819405E+03  0.70583413427E+03  0.00000000000E+00 0.  1.
         13    1    1    2    0    0  0.74096887374E+02 -0.19070418135E+03 -0.17253858658E+01  0.20460063935E+03  0.10566000000E+00 0. -1.
<mgrwt>
<rscale>  1 0.68420377E+03</rscale>
<asrwt>0</asrwt>
<pdfrwt beam="2">  1       21 0.75520438E-01 0.10231753E+04</pdfrwt>
<pdfrwt beam="1">  1        4 0.11945631E+00 0.10231753E+04</pdfrwt>
<totfact> 0.32124824E+01</totfact>
</mgrwt>
</event>
<event>
 6    1  0.1431486E-005  0.9755654E+03  0.7818608E-02  0.9769471E-01
          4   -1    0    0  502    0 -0.00000000000E+00  0.00000000000E+00  0.23162052203E+03  0.23162052203E+03  0.00000000000E+00 0.  1.
         21   -1    0    0  501  502  0.00000000000E+00 -0.00000000000E+00 -0.17843322461E+04  0.17843322461E+04  0.00000000000E+00 0.  1.
    9000010    2    1    2  501    0  0.94132369237E+02  0.19594695772E+03 -0.15047803738E+04  0.17933465268E+04  0.95103715947E+03 0.  0.
        -13    1    3    3    0    0  0.33972708977E+03 -0.51940961738E+02 -0.13809579064E+04  0.14230801487E+04  0.10566000000E+00 0.  1.
          4    1    3    3  501    0 -0.24559472054E+03  0.24788791946E+03 -0.12382246739E+03  0.37026637817E+03  0.00000000000E+00 0.  1.
         13    1    1    2    0    0 -0.94132369237E+02 -0.19594695772E+03 -0.47931350295E+02  0.22260624134E+03  0.10566000000E+00 0. -1.
<mgrwt>
<rscale>  1 0.67026963E+03</rscale>
<asrwt>0</asrwt>
<pdfrwt beam="2">  1       21 0.27451266E+00 0.97556537E+03</pdfrwt>
<pdfrwt beam="1">  1        4 0.35633926E-01 0.97556537E+03</pdfrwt>
<totfact> 0.11810398E+01</totfact>
</mgrwt>
</event>
<event>
 6    1  0.1431486E-005  0.9320263E+03  0.7818608E-02  0.1036871E+00
          4   -1    0    0  502    0 -0.00000000000E+00  0.00000000000E+00  0.26731585062E+03  0.26731585062E+03  0.00000000000E+00 0.  1.
         21   -1    0    0  501  502  0.00000000000E+00 -0.00000000000E+00 -0.11991517725E+04  0.11991517725E+04  0.00000000000E+00 0.  1.
    9000010    2    1    2  501    0  0.38554464860E+02  0.27773532798E+01 -0.10130221655E+04  0.13765488944E+04  0.93122435017E+03 0.  0.
        -13    1    3    3    0    0  0.31768589688E+03  0.31650331786E+03 -0.77083630905E+03  0.89178882355E+03  0.10566000000E+00 0.  1.
          4    1    3    3  501    0 -0.27913143202E+03 -0.31372596458E+03 -0.24218585645E+03  0.48476007082E+03  0.00000000000E+00 0.  1.
         13    1    1    2    0    0 -0.38554464860E+02 -0.27773532798E+01  0.81186243653E+02  0.89918728718E+02  0.10566000000E+00 0. -1.
<mgrwt>
<rscale>  1 0.42060184E+03</rscale>
<asrwt>0</asrwt>
<pdfrwt beam="2">  1       21 0.18448488E+00 0.93202626E+03</pdfrwt>
<pdfrwt beam="1">  1        4 0.41125517E-01 0.93202626E+03</pdfrwt>
<totfact> 0.34649123E+01</totfact>
</mgrwt>
</event>
<event>
 6    1  0.1431486E-005  0.1020275E+04  0.7818608E-02  0.9605421E-01
          4   -1    0    0  502    0 -0.00000000000E+00  0.00000000000E+00  0.73813314641E+03  0.73813314641E+03  0.00000000000E+00 0.  1.
         21   -1    0    0  501  502  0.00000000000E+00 -0.00000000000E+00 -0.14854759570E+04  0.14854759570E+04  0.00000000000E+00 0.  1.
    9000010    2    1    2  501    0  0.11658618165E+02 -0.32972351585E+03 -0.12554696358E+04  0.16177655577E+04  0.96545733865E+03 0.  0.
        -13    1    3    3    0    0  0.25604554181E+03 -0.49951322797E+03 -0.11860903163E+04  0.13122054085E+04  0.10566000000E+00 0.  1.
          4    1    3    3  501    0 -0.24438692365E+03  0.16978971213E+03 -0.69379319524E+02  0.30556014919E+03  0.00000000000E+00 0.  1.
         13    1    1    2    0    0 -0.11658618165E+02  0.32972351585E+03  0.50812682522E+03  0.60584354577E+03  0.10566000000E+00 0. -1.
<mgrwt>
<rscale>  1 0.76938426E+03</rscale>
<asrwt>0</asrwt>
<pdfrwt beam="2">  1       21 0.22853476E+00 0.10202752E+04</pdfrwt>
<pdfrwt beam="1">  1        4 0.11355895E+00 0.10202752E+04</pdfrwt>
<totfact> 0.17655884E+00</totfact>
</mgrwt>
</event>
<event>
 6    1  0.1431486E-005  0.9926274E+03  0.7818608E-02  0.1001308E+00
         21   -1    0    0  501  502  0.00000000000E+00  0.00000000000E+00  0.98731592586E+03  0.98731592586E+03  0.00000000000E+00 0.  1.
          4   -1    0    0  502    0 -0.00000000000E+00 -0.00000000000E+00 -0.30655453459E+03  0.30655453459E+03  0.00000000000E+00 0.  1.
    9000010    2    1    2  501    0  0.10232079729E+01  0.94101884122E+02  0.67336947341E+03  0.11994730920E+04  0.98815638401E+03 0.  0.
        -13    1    3    3    0    0  0.48799617025E+03  0.27880220944E+02  0.24136665813E+03  0.54513800429E+03  0.10566000000E+00 0.  1.
          4    1    3    3  501    0 -0.48697296227E+03  0.66221663178E+02  0.43200281528E+03  0.65433508776E+03  0.00000000000E+00 0.  1.
         13    1    1    2    0    0 -0.10232079729E+01 -0.94101884122E+02  0.73919178566E+01  0.94397368414E+02  0.10566000000E+00 0. -1.
<mgrwt>
<rscale>  1 0.55080234E+03</rscale>
<asrwt>0</asrwt>
<pdfrwt beam="1">  1       21 0.15189476E+00 0.99262745E+03</pdfrwt>
<pdfrwt beam="2">  1        4 0.47162237E-01 0.99262745E+03</pdfrwt>
<totfact> 0.45666746E+01</totfact>
</mgrwt>
</event>
<event>
 6    1  0.1431486E-005  0.1002060E+04  0.7818608E-02  0.9792072E-01
          4   -1    0    0  502    0 -0.00000000000E+00  0.00000000000E+00  0.24436105874E+03  0.24436105874E+03  0.00000000000E+00 0.  1.
         21   -1    0    0  501  502  0.00000000000E+00 -0.00000000000E+00 -0.14538453663E+04  0.14538453663E+04  0.00000000000E+00 0.  1.
    9000010    2    1    2  501    0  0.62464752961E+02 -0.17539735204E+03 -0.96771076763E+03  0.13930498550E+04  0.98461042665E+03 0.  0.
        -13    1    3    3    0    0 -0.53152796889E+01 -0.58510520452E+03 -0.60515712926E+03  0.84177878021E+03  0.10566000000E+00 0.  1.
          4    1    3    3  501    0  0.67780032650E+02  0.40970785248E+03 -0.36255363836E+03  0.55127107479E+03  0.00000000000E+00 0.  1.
         13    1    1    2    0    0 -0.62464752961E+02  0.17539735204E+03 -0.24177353992E+03  0.30515657003E+03  0.10566000000E+00 0. -1.
<mgrwt>
<rscale>  1 0.65789771E+03</rscale>
<asrwt>0</asrwt>
<pdfrwt beam="2">  1       21 0.22366852E+00 0.10020598E+04</pdfrwt>
<pdfrwt beam="1">  1        4 0.37594009E-01 0.10020598E+04</pdfrwt>
<totfact> 0.22275220E+01</totfact>
</mgrwt>
</event>
<event>
 6    1  0.1431486E-005  0.1020357E+04  0.7818608E-02  0.9744544E-01
         21   -1    0    0  501  502  0.00000000000E+00  0.00000000000E+00  0.30321993849E+03  0.30321993849E+03  0.00000000000E+00 0.  1.
          4   -1    0    0  502    0 -0.00000000000E+00 -0.00000000000E+00 -0.16946771681E+04  0.16946771681E+04  0.00000000000E+00 0.  1.
    9000010    2    1    2  501    0  0.20466824686E+03 -0.26333225070E+02 -0.60810597095E+03  0.11878219646E+04  0.99927254428E+03 0.  0.
        -13    1    3    3    0    0 -0.21411560203E+02 -0.49594750993E+03 -0.25314626972E+03  0.55723014325E+03  0.10566000000E+00 0.  1.
          4    1    3    3  501    0  0.22607980706E+03  0.46961428486E+03 -0.35495970123E+03  0.63059182139E+03  0.00000000000E+00 0.  1.
         13    1    1    2    0    0 -0.20466824686E+03  0.26333225070E+02 -0.78335125867E+03  0.81007514197E+03  0.10566000000E+00 0. -1.
<mgrwt>
<rscale>  1 0.68425506E+03</rscale>
<asrwt>0</asrwt>
<pdfrwt beam="1">  1       21 0.46649222E-01 0.10203569E+04</pdfrwt>
<pdfrwt beam="2">  1        4 0.26071956E+00 0.10203569E+04</pdfrwt>
<totfact> 0.94570169E+00</totfact>
</mgrwt>
</event>
<event>
 6    1  0.1431486E-005  0.1063920E+04  0.7818608E-02  0.9481046E-01
         21   -1    0    0  501  502  0.00000000000E+00  0.00000000000E+00  0.55494746662E+03  0.55494746662E+03  0.00000000000E+00 0. -1.
          4   -1    0    0  502    0 -0.00000000000E+00 -0.00000000000E+00 -0.12311910434E+04  0.12311910434E+04  0.00000000000E+00 0.  1.
    9000010    2    1    2  501    0 -0.10677527159E+03  0.43491170640E+03 -0.11796511653E+03  0.10704402486E+04  0.96507896372E+03 0.  0.
        -13    1    3    3    0    0 -0.38154078585E+03 -0.11995923188E+03 -0.19770578334E+03  0.44615151743E+03  0.10566000000E+00 0.  1.
          4    1    3    3  501    0  0.27476551426E+03  0.55487093829E+03  0.79740666804E+02  0.62428873122E+03  0.00000000000E+00 0.  1.
         13    1    1    2    0    0  0.10677527159E+03 -0.43491170640E+03 -0.55827846023E+03  0.71569826136E+03  0.10566000000E+00 0. -1.
<mgrwt>
<rscale>  1 0.85695783E+03</rscale>
<asrwt>0</asrwt>
<pdfrwt beam="1">  1       21 0.85376533E-01 0.10639204E+04</pdfrwt>
<pdfrwt beam="2">  1        4 0.18941401E+00 0.10639204E+04</pdfrwt>
<totfact> 0.68739851E+00</totfact>
</mgrwt>
</event>
<event>
 6    1  0.1431486E-005  0.1104989E+04  0.7818608E-02  0.9391503E-01
          4   -1    0    0  502    0 -0.00000000000E+00  0.00000000000E+00  0.11216871094E+04  0.11216871094E+04  0.00000000000E+00 0.  1.
         21   -1    0    0  501  502  0.00000000000E+00 -0.00000000000E+00 -0.98744782357E+03  0.98744782357E+03  0.00000000000E+00 0. -1.
    9000010    2    1    2  501    0  0.27433684639E+02 -0.54849124459E+03 -0.54792812223E+03  0.12333794670E+04  0.95885579207E+03 0.  0.
        -13    1    3    3    0    0  0.44583955012E+02 -0.82351122371E+03 -0.45893321039E+03  0.94381045098E+03  0.10566000000E+00 0.  1.
          4    1    3    3  501    0 -0.17150270373E+02  0.27501997912E+03 -0.88994911836E+02  0.28956901599E+03  0.00000000000E+00 0.  1.
         13    1    1    2    0    0 -0.27433684639E+02  0.54849124459E+03  0.68216740809E+03  0.87575546602E+03  0.10566000000E+00 0. -1.
<mgrwt>
<rscale>  1 0.92778297E+03</rscale>
<asrwt>0</asrwt>
<pdfrwt beam="2">  1       21 0.15191505E+00 0.11049885E+04</pdfrwt>
<pdfrwt beam="1">  1        4 0.17256725E+00 0.11049885E+04</pdfrwt>
<totfact> 0.20317045E+00</totfact>
</mgrwt>
</event>
<event>
 6    1  0.1431486E-005  0.1007747E+04  0.7818608E-02  0.1000404E+00
          4   -1    0    0  502    0 -0.00000000000E+00  0.00000000000E+00  0.64224087167E+03  0.64224087167E+03  0.00000000000E+00 0.  1.
         21   -1    0    0  501  502  0.00000000000E+00 -0.00000000000E+00 -0.48563393970E+03  0.48563393970E+03  0.00000000000E+00 0.  1.
    9000010    2    1    2  501    0  0.96968364030E+01 -0.92019926029E+02  0.85860541785E+02  0.10113983832E+04  0.10034903894E+04 0.  0.
        -13    1    3    3    0    0  0.58283086858E+02  0.11458132370E+03 -0.43253747998E+03  0.45123661277E+03  0.10566000000E+00 0.  1.
          4    1    3    3  501    0 -0.48586250455E+02 -0.20660124973E+03  0.51839802176E+03  0.56016177047E+03  0.00000000000E+00 0.  1.
         13    1    1    2    0    0 -0.96968364030E+01  0.92019926029E+02  0.70746390190E+02  0.11647642814E+03  0.10566000000E+00 0. -1.
<mgrwt>
<rscale>  1 0.55473272E+03</rscale>
<asrwt>0</asrwt>
<pdfrwt beam="2">  1       21 0.74712914E-01 0.10077473E+04</pdfrwt>
<pdfrwt beam="1">  1        4 0.98806288E-01 0.10077473E+04</pdfrwt>
<totfact> 0.52567721E+01</totfact>
</mgrwt>
</event>
<event>
 6    1  0.1431486E-005  0.1030359E+04  0.7818608E-02  0.9683645E-01
          4   -1    0    0  502    0 -0.00000000000E+00  0.00000000000E+00  0.53018429481E+03  0.53018429481E+03  0.00000000000E+00 0.  1.
         21   -1    0    0  501  502  0.00000000000E+00 -0.00000000000E+00 -0.80840151408E+03  0.80840151408E+03  0.00000000000E+00 0.  1.
    9000010    2    1    2  501    0  0.18967959932E+03  0.15611460723E+03 -0.10023061571E+03  0.10352223912E+04  0.10006443434E+04 0.  0.
        -13    1    3    3    0    0 -0.35771597037E+03  0.14208561711E+03  0.17447932591E+03  0.42260156694E+03  0.10566000000E+00 0.  1.
          4    1    3    3  501    0  0.54739556969E+03  0.14028990119E+02 -0.27470994161E+03  0.61262082425E+03  0.00000000000E+00 0.  1.
         13    1    1    2    0    0 -0.18967959932E+03 -0.15611460723E+03 -0.17798660356E+03  0.30336341771E+03  0.10566000000E+00 0. -1.
<mgrwt>
<rscale>  1 0.71998955E+03</rscale>
<asrwt>0</asrwt>
<pdfrwt beam="2">  1       21 0.12436946E+00 0.10303588E+04</pdfrwt>
<pdfrwt beam="1">  1        4 0.81566815E-01 0.10303588E+04</pdfrwt>
<totfact> 0.23506814E+01</totfact>
</mgrwt>
</event>
<event>
 6    1  0.1431486E-005  0.1043342E+04  0.7818608E-02  0.9692154E-01
         21   -1    0    0  501  502  0.00000000000E+00  0.00000000000E+00  0.38452079154E+03  0.38452079154E+03  0.00000000000E+00 0.  1.
          4   -1    0    0  502    0 -0.00000000000E+00 -0.00000000000E+00 -0.10541064418E+04  0.10541064418E+04  0.00000000000E+00 0.  1.
    9000010    2    1    2  501    0  0.18817066099E+03 -0.13213857698E+03 -0.54489682604E+03  0.11770624895E+04  0.10176908921E+04 0.  0.
        -13    1    3    3    0    0  0.35585855737E+03  0.15233196062E+03 -0.70940051085E+03  0.80813948983E+03  0.10566000000E+00 0.  1.
          4    1    3    3  501    0 -0.16768789637E+03 -0.28447053760E+03  0.16450368481E+03  0.36892299965E+03  0.00000000000E+00 0.  1.
         13    1    1    2    0    0 -0.18817066099E+03  0.13213857698E+03 -0.12468882426E+03  0.26156474389E+03  0.10566000000E+00 0. -1.
<mgrwt>
<rscale>  1 0.71485855E+03</rscale>
<asrwt>0</asrwt>
<pdfrwt beam="1">  1       21 0.59157045E-01 0.10433425E+04</pdfrwt>
<pdfrwt beam="2">  1        4 0.16217022E+00 0.10433425E+04</pdfrwt>
<totfact> 0.25006509E+01</totfact>
</mgrwt>
</event>
<event>
 6    1  0.1431486E-005  0.1190633E+04  0.7818608E-02  0.9295046E-01
          4   -1    0    0  502    0 -0.00000000000E+00  0.00000000000E+00  0.77457971615E+03  0.77457971615E+03  0.00000000000E+00 0.  1.
         21   -1    0    0  501  502  0.00000000000E+00 -0.00000000000E+00 -0.14202783640E+04  0.14202783640E+04  0.00000000000E+00 0. -1.
    9000010    2    1    2  501    0  0.24562173015E+03  0.57189788960E+03 -0.92979828280E+03  0.15106725467E+04  0.10149923478E+04 0.  0.
        -13    1    3    3    0    0 -0.18469948139E+03  0.61785656746E+03 -0.85589038998E+03  0.10716384685E+04  0.10566000000E+00 0.  1.
          4    1    3    3  501    0  0.43032121154E+03 -0.45958677860E+02 -0.73907892823E+02  0.43903407816E+03  0.00000000000E+00 0.  1.
         13    1    1    2    0    0 -0.24562173015E+03 -0.57189788960E+03  0.28409963496E+03  0.68418553346E+03  0.10566000000E+00 0. -1.
<mgrwt>
<rscale>  1 0.10124020E+04</rscale>
<asrwt>0</asrwt>
<pdfrwt beam="2">  1       21 0.21850436E+00 0.11906329E+04</pdfrwt>
<pdfrwt beam="1">  1        4 0.11916611E+00 0.11906329E+04</pdfrwt>
<totfact> 0.17758728E+00</totfact>
</mgrwt>
</event>
<event>
 6    1  0.1431486E-005  0.1044834E+04  0.7818608E-02  0.9597714E-01
          4   -1    0    0  502    0 -0.00000000000E+00  0.00000000000E+00  0.16486618527E+03  0.16486618527E+03  0.00000000000E+00 0.  1.
         21   -1    0    0  501  502  0.00000000000E+00 -0.00000000000E+00 -0.29737543829E+04  0.29737543829E+04  0.00000000000E+00 0.  1.
    9000010    2    1    2  501    0  0.13987645433E+03  0.28271061610E+03 -0.17965938934E+04  0.20783232115E+04  0.99608585917E+03 0.  0.
        -13    1    3    3    0    0 -0.31261060189E+02  0.19634632384E+03 -0.18644140485E+04  0.18749850368E+04  0.10566000000E+00 0.  1.
          4    1    3    3  501    0  0.17113751452E+03  0.86364292260E+02  0.67820155130E+02  0.20333817471E+03  0.00000000000E+00 0.  1.
         13    1    1    2    0    0 -0.13987645433E+03 -0.28271061610E+03 -0.10122943042E+04  0.10602973566E+04  0.10566000000E+00 0. -1.
<mgrwt>
<rscale>  1 0.77447660E+03</rscale>
<asrwt>0</asrwt>
<pdfrwt beam="2">  1       21 0.45750063E+00 0.10448338E+04</pdfrwt>
<pdfrwt beam="1">  1        4 0.25364031E-01 0.10448338E+04</pdfrwt>
<totfact> 0.14973623E+00</totfact>
</mgrwt>
</event>
<event>
 6    1  0.1431486E-005  0.1023268E+04  0.7818608E-02  0.9737726E-01
         21   -1    0    0  501  502  0.00000000000E+00  0.00000000000E+00  0.92998485119E+03  0.92998485119E+03  0.00000000000E+00 0.  1.
          4   -1    0    0  502    0 -0.00000000000E+00 -0.00000000000E+00 -0.45685465087E+03  0.45685465087E+03  0.00000000000E+00 0.  1.
    9000010    2    1    2  501    0  0.11922931537E+02 -0.20894981803E+03  0.55262856640E+03  0.11629596590E+04  0.10016359884E+04 0.  0.
        -13    1    3    3    0    0  0.29305509217E+03 -0.64124521756E+02 -0.19048349676E+03  0.35535505489E+03  0.10566000000E+00 0.  1.
          4    1    3    3  501    0 -0.28113216063E+03 -0.14482529628E+03  0.74311206316E+03  0.80760460412E+03  0.00000000000E+00 0.  1.
         13    1    1    2    0    0 -0.11922931537E+02  0.20894981803E+03 -0.79498366082E+02  0.22387984305E+03  0.10566000000E+00 0. -1.
<mgrwt>
<rscale>  1 0.68814339E+03</rscale>
<asrwt>0</asrwt>
<pdfrwt beam="1">  1       21 0.14307459E+00 0.10232677E+04</pdfrwt>
<pdfrwt beam="2">  1        4 0.70285331E-01 0.10232677E+04</pdfrwt>
<totfact> 0.22664576E+01</totfact>
</mgrwt>
</event>
<event>
 6    1  0.1431486E-005  0.1011808E+04  0.7818608E-02  0.9991667E-01
          4   -1    0    0  502    0 -0.00000000000E+00  0.00000000000E+00  0.68343794409E+03  0.68343794409E+03  0.00000000000E+00 0.  1.
         21   -1    0    0  501  502  0.00000000000E+00 -0.00000000000E+00 -0.50319723930E+03  0.50319723930E+03  0.00000000000E+00 0.  1.
    9000010    2    1    2  501    0 -0.79663328753E+02  0.51862990343E+02  0.34204149168E+02  0.10123862165E+04  0.10073330690E+04 0.  0.
        -13    1    3    3    0    0 -0.43660472496E+03  0.30191993537E+03  0.16752112063E+03  0.55663513207E+03  0.10566000000E+00 0.  1.
          4    1    3    3  501    0  0.35694139621E+03 -0.25005694503E+03 -0.13331697146E+03  0.45575108444E+03  0.00000000000E+00 0.  1.
         13    1    1    2    0    0  0.79663328753E+02 -0.51862990343E+02  0.14603655562E+03  0.17424896687E+03  0.10566000000E+00 0. -1.
<mgrwt>
<rscale>  1 0.56017129E+03</rscale>
<asrwt>0</asrwt>
<pdfrwt beam="2">  1       21 0.77414960E-01 0.10118082E+04</pdfrwt>
<pdfrwt beam="1">  1        4 0.10514430E+00 0.10118082E+04</pdfrwt>
<totfact> 0.41604363E+01</totfact>
</mgrwt>
</event>
<event>
 6    1  0.1431486E-005  0.1012526E+04  0.7818608E-02  0.9885383E-01
         21   -1    0    0  501  502  0.00000000000E+00  0.00000000000E+00  0.39550921568E+03  0.39550921568E+03  0.00000000000E+00 0.  1.
          4   -1    0    0  502    0 -0.00000000000E+00 -0.00000000000E+00 -0.10986543669E+04  0.10986543669E+04  0.00000000000E+00 0.  1.
    9000010    2    1    2  501    0  0.13252554137E+03 -0.13024631757E+02 -0.27995431453E+03  0.10505160248E+04  0.10037314581E+04 0.  0.
        -13    1    3    3    0    0 -0.54035907386E+02  0.38265747376E+03 -0.43916258939E+03  0.58498753200E+03  0.10566000000E+00 0.  1.
          4    1    3    3  501    0  0.18656144875E+03 -0.39568210551E+03  0.15920827486E+03  0.46552849276E+03  0.00000000000E+00 0.  1.
         13    1    1    2    0    0 -0.13252554137E+03  0.13024631757E+02 -0.42319083664E+03  0.44364755779E+03  0.10566000000E+00 0. -1.
<mgrwt>
<rscale>  1 0.60974957E+03</rscale>
<asrwt>0</asrwt>
<pdfrwt beam="1">  1       21 0.60847572E-01 0.10125263E+04</pdfrwt>
<pdfrwt beam="2">  1        4 0.16902375E+00 0.10125263E+04</pdfrwt>
<totfact> 0.20982830E+01</totfact>
</mgrwt>
</event>
<event>
 6    1  0.1431486E-005  0.1138620E+04  0.7818608E-02  0.9372435E-01
          4   -1    0    0  502    0 -0.00000000000E+00  0.00000000000E+00  0.13971130130E+04  0.13971130130E+04  0.00000000000E+00 0.  1.
         21   -1    0    0  501  502  0.00000000000E+00 -0.00000000000E+00 -0.61441536925E+03  0.61441536925E+03  0.00000000000E+00 0.  1.
    9000010    2    1    2  501    0  0.53596085544E+03  0.40523136723E+02  0.10052413907E+03  0.11430487539E+04  0.10037724783E+04 0.  0.
        -13    1    3    3    0    0 -0.42588984408E+02  0.28570404675E+03 -0.28504860241E+03  0.40582427332E+03  0.10566000000E+00 0.  1.
          4    1    3    3  501    0  0.57854983985E+03 -0.24518091002E+03  0.38557274148E+03  0.73722448060E+03  0.00000000000E+00 0.  1.
         13    1    1    2    0    0 -0.53596085544E+03 -0.40523136723E+02  0.68217350468E+03  0.86847962833E+03  0.10566000000E+00 0. -1.
<mgrwt>
<rscale>  1 0.94379313E+03</rscale>
<asrwt>0</asrwt>
<pdfrwt beam="2">  1       21 0.94525441E-01 0.11386199E+04</pdfrwt>
<pdfrwt beam="1">  1        4 0.21494046E+00 0.11386199E+04</pdfrwt>
<totfact> 0.36110840E+00</totfact>
</mgrwt>
</event>
<event>
 6    1  0.1431486E-005  0.1275406E+04  0.7818608E-02  0.9176210E-01
         21   -1    0    0  501  502  0.00000000000E+00  0.00000000000E+00  0.19446840338E+04  0.19446840338E+04  0.00000000000E+00 0. -1.
          4   -1    0    0  502    0 -0.00000000000E+00 -0.00000000000E+00 -0.55992317817E+03  0.55992317817E+03  0.00000000000E+00 0.  1.
    9000010    2    1    2  501    0  0.34394163336E+03  0.70738399341E+03  0.66470279350E+03  0.14382247359E+04  0.10039783991E+04 0.  0.
        -13    1    3    3    0    0  0.12401649591E+03 -0.10878946699E+03  0.56320412603E+03  0.58686807557E+03  0.10566000000E+00 0.  1.
          4    1    3    3  501    0  0.21992513744E+03  0.81617346041E+03  0.10149866747E+03  0.85135666031E+03  0.00000000000E+00 0.  1.
         13    1    1    2    0    0 -0.34394163336E+03 -0.70738399341E+03  0.72005806209E+03  0.10663824761E+04  0.10566000000E+00 0. -1.
<mgrwt>
<rscale>  1 0.11302392E+04</rscale>
<asrwt>0</asrwt>
<pdfrwt beam="1">  1       21 0.29918215E+00 0.12754060E+04</pdfrwt>
<pdfrwt beam="2">  1        4 0.86142029E-01 0.12754060E+04</pdfrwt>
<totfact> 0.11747313E+00</totfact>
</mgrwt>
</event>
<event>
 6    1  0.1431486E-005  0.1130351E+04  0.7818608E-02  0.9385866E-01
         21   -1    0    0  501  502  0.00000000000E+00  0.00000000000E+00  0.80351665780E+03  0.80351665780E+03  0.00000000000E+00 0.  1.
          4   -1    0    0  502    0 -0.00000000000E+00 -0.00000000000E+00 -0.96136072593E+03  0.96136072593E+03  0.00000000000E+00 0.  1.
    9000010    2    1    2  501    0  0.42218040578E+03 -0.30954663853E+03 -0.38513510261E+03  0.11941614807E+04  0.10018169385E+04 0.  0.
        -13    1    3    3    0    0 -0.31188503295E+03  0.82579768189E+01 -0.20771417097E+03  0.37481416188E+03  0.10566000000E+00 0.  1.
          4    1    3    3  501    0  0.73406543873E+03 -0.31780461535E+03 -0.17742093164E+03  0.81934731882E+03  0.00000000000E+00 0.  1.
         13    1    1    2    0    0 -0.42218040578E+03  0.30954663853E+03  0.22729103448E+03  0.57071590303E+03  0.10566000000E+00 0. -1.
<mgrwt>
<rscale>  1 0.93248047E+03</rscale>
<asrwt>0</asrwt>
<pdfrwt beam="1">  1       21 0.12361795E+00 0.11303507E+04</pdfrwt>
<pdfrwt beam="2">  1        4 0.14790165E+00 0.11303507E+04</pdfrwt>
<totfact> 0.54209166E+00</totfact>
</mgrwt>
</event>
<event>
 6    1  0.1431486E-005  0.1223895E+04  0.7818608E-02  0.9884890E-01
          4   -1    0    0  502    0 -0.00000000000E+00  0.00000000000E+00  0.47421152385E+03  0.47421152385E+03  0.00000000000E+00 0.  1.
         21   -1    0    0  501  502  0.00000000000E+00 -0.00000000000E+00 -0.89028637704E+03  0.89028637704E+03  0.00000000000E+00 0.  1.
    9000010    2    1    2  501    0  0.17867398882E+02 -0.73376252898E+02 -0.39580490298E+03  0.12863045477E+04  0.12215623397E+04 0.  0.
        -13    1    3    3    0    0 -0.13641452110E+03 -0.95242489678E+02 -0.81879428291E+03  0.83552626668E+03  0.10566000000E+00 0.  1.
          4    1    3    3  501    0  0.15428191998E+03  0.21866236780E+02  0.42298937993E+03  0.45077828106E+03  0.00000000000E+00 0.  1.
         13    1    1    2    0    0 -0.17867398882E+02  0.73376252898E+02 -0.20269950204E+02  0.78193353154E+02  0.10566000000E+00 0. -1.
<mgrwt>
<rscale>  1 0.60999189E+03</rscale>
<asrwt>0</asrwt>
<pdfrwt beam="2">  1       21 0.13696713E+00 0.12238945E+04</pdfrwt>
<pdfrwt beam="1">  1        4 0.72955620E-01 0.12238945E+04</pdfrwt>
<totfact> 0.23045325E+01</totfact>
</mgrwt>
</event>
<event>
 6    1  0.1431486E-005  0.1006136E+04  0.7818608E-02  0.9852796E-01
         21   -1    0    0  501  502  0.00000000000E+00  0.00000000000E+00  0.68612708524E+03  0.68612708524E+03  0.00000000000E+00 0.  1.
          4   -1    0    0  502    0 -0.00000000000E+00 -0.00000000000E+00 -0.58555375786E+03  0.58555375786E+03  0.00000000000E+00 0.  1.
    9000010    2    1    2  501    0  0.13624779364E+03  0.64673592393E+02  0.27308487641E+03  0.10425381353E+04  0.99476845498E+03 0.  0.
        -13    1    3    3    0    0  0.18522367817E+03 -0.26217332102E+02  0.63718720212E+03  0.66408034240E+03  0.10566000000E+00 0.  1.
          4    1    3    3  501    0 -0.48975884532E+02  0.90890924495E+02 -0.36410232571E+03  0.37845779291E+03  0.00000000000E+00 0.  1.
         13    1    1    2    0    0 -0.13624779364E+03 -0.64673592393E+02 -0.17251154902E+03  0.22914270779E+03  0.10566000000E+00 0. -1.
<mgrwt>
<rscale>  1 0.62604582E+03</rscale>
<asrwt>0</asrwt>
<pdfrwt beam="1">  1       21 0.10555801E+00 0.10061364E+04</pdfrwt>
<pdfrwt beam="2">  1        4 0.90085194E-01 0.10061364E+04</pdfrwt>
<totfact> 0.28462596E+01</totfact>
</mgrwt>
</event>
<event>
 6    1  0.1431486E-005  0.9944482E+03  0.7818608E-02  0.1016695E+00
         21   -1    0    0  501  502  0.00000000000E+00  0.00000000000E+00  0.27617313816E+03  0.27617313816E+03  0.00000000000E+00 0.  1.
          4   -1    0    0  502    0 -0.00000000000E+00 -0.00000000000E+00 -0.10225541785E+04  0.10225541785E+04  0.00000000000E+00 0.  1.
    9000010    2    1    2  501    0  0.25169663690E+02  0.52403101867E+02 -0.65622155339E+03  0.11914503792E+04  0.99274754190E+03 0.  0.
        -13    1    3    3    0    0 -0.35911357371E+03  0.14924654435E+03 -0.69174131036E+03  0.79356357115E+03  0.10566000000E+00 0.  1.
          4    1    3    3  501    0  0.38428323740E+03 -0.96843442482E+02  0.35519756975E+02  0.39788680807E+03  0.00000000000E+00 0.  1.
         13    1    1    2    0    0 -0.25169663690E+02 -0.52403101867E+02 -0.90159486978E+02  0.10727693746E+03  0.10566000000E+00 0. -1.
<mgrwt>
<rscale>  1 0.48898431E+03</rscale>
<asrwt>0</asrwt>
<pdfrwt beam="1">  1       21 0.42488175E-01 0.99444823E+03</pdfrwt>
<pdfrwt beam="2">  1        4 0.15731603E+00 0.99444823E+03</pdfrwt>
<totfact> 0.55905837E+01</totfact>
</mgrwt>
</event>
<event>
 6    1  0.1431486E-005  0.1135757E+04  0.7818608E-02  0.9381042E-01
         21   -1    0    0  501  502  0.00000000000E+00  0.00000000000E+00  0.58485054616E+03  0.58485054616E+03  0.00000000000E+00 0.  1.
          4   -1    0    0  502    0 -0.00000000000E+00 -0.00000000000E+00 -0.16086021725E+04  0.16086021725E+04  0.00000000000E+00 0.  1.
    9000010    2    1    2  501    0  0.34740072110E+03  0.39371822667E+03 -0.11193482818E+03  0.11412592062E+04  0.10070957586E+04 0.  0.
        -13    1    3    3    0    0 -0.17107095211E+01 -0.32926487143E+03 -0.74126108940E+02  0.33750996026E+03  0.10566000000E+00 0.  1.
          4    1    3    3  501    0  0.34911143062E+03  0.72298309811E+03 -0.37808719240E+02  0.80374924596E+03  0.00000000000E+00 0.  1.
         13    1    1    2    0    0 -0.34740072110E+03 -0.39371822667E+03 -0.91181679814E+03  0.10521935124E+04  0.10566000000E+00 0. -1.
<mgrwt>
<rscale>  1 0.93652381E+03</rscale>
<asrwt>0</asrwt>
<pdfrwt beam="1">  1       21 0.89977007E-01 0.11357567E+04</pdfrwt>
<pdfrwt beam="2">  1        4 0.24747726E+00 0.11357567E+04</pdfrwt>
<totfact> 0.25371838E+00</totfact>
</mgrwt>
</event>
<event>
 6    1  0.1431486E-005  0.1184169E+04  0.7818608E-02  0.9285417E-01
          4   -1    0    0  502    0 -0.00000000000E+00  0.00000000000E+00  0.55053526265E+03  0.55053526265E+03  0.00000000000E+00 0.  1.
         21   -1    0    0  501  502  0.00000000000E+00 -0.00000000000E+00 -0.15374319513E+04  0.15374319513E+04  0.00000000000E+00 0. -1.
    9000010    2    1    2  501    0 -0.32330191121E+03 -0.57006949983E+03 -0.61245127355E+03  0.13331740366E+04  0.98628245908E+03 0.  0.
        -13    1    3    3    0    0 -0.60951127520E+03 -0.64427910237E+03 -0.42898290930E+03  0.98520348354E+03  0.10566000000E+00 0.  1.
          4    1    3    3  501    0  0.28620936399E+03  0.74209602546E+02 -0.18346836425E+03  0.34797055310E+03  0.00000000000E+00 0.  1.
         13    1    1    2    0    0  0.32330191121E+03  0.57006949983E+03 -0.37444541505E+03  0.75479317726E+03  0.10566000000E+00 0. -1.
<mgrwt>
<rscale>  1 0.10213655E+04</rscale>
<asrwt>0</asrwt>
<pdfrwt beam="2">  1       21 0.23652799E+00 0.11841691E+04</pdfrwt>
<pdfrwt beam="1">  1        4 0.84697734E-01 0.11841691E+04</pdfrwt>
<totfact> 0.30916423E+00</totfact>
</mgrwt>
</event>
<event>
 6    1  0.1431486E-005  0.1041099E+04  0.7818608E-02  0.9632111E-01
         21   -1    0    0  501  502  0.00000000000E+00  0.00000000000E+00  0.14440015943E+04  0.14440015943E+04  0.00000000000E+00 0.  1.
          4   -1    0    0  502    0 -0.00000000000E+00 -0.00000000000E+00 -0.30482791764E+03  0.30482791764E+03  0.00000000000E+00 0.  1.
    9000010    2    1    2  501    0 -0.48993849636E+02  0.27923358017E+03  0.85187941131E+03  0.13452086556E+04  0.10017564605E+04 0.  0.
        -13    1    3    3    0    0  0.22792623260E+03  0.48551774620E+03  0.14050393591E+03  0.55445398055E+03  0.10566000000E+00 0.  1.
          4    1    3    3  501    0 -0.27692008224E+03 -0.20628416603E+03  0.71137547541E+03  0.79075467505E+03  0.00000000000E+00 0.  1.
         13    1    1    2    0    0  0.48993849636E+02 -0.27923358017E+03  0.28729426531E+03  0.40362085630E+03  0.10566000000E+00 0. -1.
<mgrwt>
<rscale>  1 0.75206805E+03</rscale>
<asrwt>0</asrwt>
<pdfrwt beam="1">  1       21 0.22215409E+00 0.10410993E+04</pdfrwt>
<pdfrwt beam="2">  1        4 0.46896604E-01 0.10410993E+04</pdfrwt>
<totfact> 0.14396029E+01</totfact>
</mgrwt>
</event>
<event>
 6    1  0.1431486E-005  0.1148159E+04  0.7818608E-02  0.9335759E-01
          4   -1    0    0  502    0 -0.00000000000E+00  0.00000000000E+00  0.82123552522E+03  0.82123552522E+03  0.00000000000E+00 0.  1.
         21   -1    0    0  501  502  0.00000000000E+00 -0.00000000000E+00 -0.97467949088E+03  0.97467949088E+03  0.00000000000E+00 0.  1.
    9000010    2    1    2  501    0 -0.50092031201E+03  0.32741834327E+03 -0.28541317133E+03  0.11831019835E+04  0.97987024372E+03 0.  0.
        -13    1    3    3    0    0 -0.34246032418E+03  0.28517134921E+02 -0.61899826081E+03  0.70799093121E+03  0.10566000000E+00 0.  1.
          4    1    3    3  501    0 -0.15845998784E+03  0.29890120835E+03  0.33358508948E+03  0.47511105231E+03  0.00000000000E+00 0.  1.
         13    1    1    2    0    0  0.50092031201E+03 -0.32741834327E+03  0.13196920567E+03  0.61281303259E+03  0.10566000000E+00 0. -1.
<mgrwt>
<rscale>  1 0.97556399E+03</rscale>
<asrwt>0</asrwt>
<pdfrwt beam="2">  1       21 0.14995069E+00 0.11481592E+04</pdfrwt>
<pdfrwt beam="1">  1        4 0.12634393E+00 0.11481592E+04</pdfrwt>
<totfact> 0.48419786E+00</totfact>
</mgrwt>
</event>
<event>
 6    1  0.1431486E-005  0.1041533E+04  0.7818608E-02  0.9639497E-01
         21   -1    0    0  501  502  0.00000000000E+00  0.00000000000E+00  0.13459714790E+04  0.13459714790E+04  0.00000000000E+00 0.  1.
          4   -1    0    0  502    0 -0.00000000000E+00 -0.00000000000E+00 -0.33360078694E+03  0.33360078694E+03  0.00000000000E+00 0.  1.
    9000010    2    1    2  501    0 -0.16029089797E+03  0.22483761858E+03  0.91625594943E+03  0.13871971959E+04  0.10042638939E+04 0.  0.
        -13    1    3    3    0    0  0.15863548233E+03  0.45260840407E+03  0.11195961517E+03  0.49249827440E+03  0.10566000000E+00 0.  1.
          4    1    3    3  501    0 -0.31892638029E+03 -0.22777078550E+03  0.80429633426E+03  0.89469892147E+03  0.00000000000E+00 0.  1.
         13    1    1    2    0    0  0.16029089797E+03 -0.22483761858E+03  0.96114742650E+02  0.29237507010E+03  0.10566000000E+00 0. -1.
<mgrwt>
<rscale>  1 0.74736251E+03</rscale>
<asrwt>0</asrwt>
<pdfrwt beam="1">  1       21 0.20707253E+00 0.10415331E+04</pdfrwt>
<pdfrwt beam="2">  1        4 0.51323199E-01 0.10415331E+04</pdfrwt>
<totfact> 0.15015218E+01</totfact>
</mgrwt>
</event>
<event>
 6    1  0.1431486E-005  0.1023775E+04  0.7818608E-02  0.9709714E-01
         21   -1    0    0  501  502  0.00000000000E+00  0.00000000000E+00  0.27650751654E+03  0.27650751654E+03  0.00000000000E+00 0.  1.
          4   -1    0    0  502    0 -0.00000000000E+00 -0.00000000000E+00 -0.14327707403E+04  0.14327707403E+04  0.00000000000E+00 0.  1.
    9000010    2    1    2  501    0 -0.19428751644E+03  0.12207305695E+03 -0.10038484385E+04  0.14338154677E+04  0.99773024294E+03 0.  0.
        -13    1    3    3    0    0  0.20418559740E+03  0.33764363761E+03 -0.87958526468E+03  0.96403590868E+03  0.10566000000E+00 0.  1.
          4    1    3    3  501    0 -0.39847311384E+03 -0.21557058067E+03 -0.12426317378E+03  0.46977955901E+03  0.00000000000E+00 0.  1.
         13    1    1    2    0    0  0.19428751644E+03 -0.12207305695E+03 -0.15241478535E+03  0.27546278920E+03  0.10566000000E+00 0. -1.
<mgrwt>
<rscale>  1 0.70441352E+03</rscale>
<asrwt>0</asrwt>
<pdfrwt beam="1">  1       21 0.42539618E-01 0.10237749E+04</pdfrwt>
<pdfrwt beam="2">  1        4 0.22042627E+00 0.10237749E+04</pdfrwt>
<totfact> 0.20534558E+01</totfact>
</mgrwt>
</event>
<event>
 6    1  0.1431486E-005  0.1000568E+04  0.7818608E-02  0.1000455E+00
          4   -1    0    0  502    0 -0.00000000000E+00  0.00000000000E+00  0.46801502192E+03  0.46801502192E+03  0.00000000000E+00 0.  1.
         21   -1    0    0  501  502  0.00000000000E+00 -0.00000000000E+00 -0.73109719850E+03  0.73109719850E+03  0.00000000000E+00 0.  1.
    9000010    2    1    2  501    0 -0.59486707291E+02  0.73280097460E+02 -0.36044298152E+03  0.10635106772E+04  0.99610600666E+03 0.  0.
        -13    1    3    3    0    0 -0.49802686942E+03 -0.10372164860E+03 -0.28945943295E+03  0.58529968182E+03  0.10566000000E+00 0.  1.
          4    1    3    3  501    0  0.43854016213E+03  0.17700174606E+03 -0.70983548578E+02  0.47821099535E+03  0.00000000000E+00 0.  1.
         13    1    1    2    0    0  0.59486707291E+02 -0.73280097460E+02  0.97360804942E+02  0.13560154325E+03  0.10566000000E+00 0. -1.
<mgrwt>
<rscale>  1 0.55451254E+03</rscale>
<asrwt>0</asrwt>
<pdfrwt beam="2">  1       21 0.11247649E+00 0.10005677E+04</pdfrwt>
<pdfrwt beam="1">  1        4 0.72002311E-01 0.10005677E+04</pdfrwt>
<totfact> 0.40613471E+01</totfact>
</mgrwt>
</event>
<event>
 6    1  0.1431486E-005  0.1061942E+04  0.7818608E-02  0.9665513E-01
          4   -1    0    0  502    0 -0.00000000000E+00  0.00000000000E+00  0.76773415281E+03  0.76773415281E+03  0.00000000000E+00 0.  1.
         21   -1    0    0  501  502  0.00000000000E+00 -0.00000000000E+00 -0.55796290742E+03  0.55796290742E+03  0.00000000000E+00 0.  1.
    9000010    2    1    2  501    0 -0.12474705622E+03  0.20331466881E+03  0.11174326762E+03  0.10678052648E+04  0.10348057030E+04 0.  0.
        -13    1    3    3    0    0  0.14391577785E+03 -0.34768307476E+03 -0.14492165478E+03  0.40323388843E+03  0.10566000000E+00 0.  1.
          4    1    3    3  501    0 -0.26866283407E+03  0.55099774357E+03  0.25666492241E+03  0.66457137632E+03  0.00000000000E+00 0.  1.
         13    1    1    2    0    0  0.12474705622E+03 -0.20331466881E+03  0.98027977762E+02  0.25789179548E+03  0.10566000000E+00 0. -1.
<mgrwt>
<rscale>  1 0.73107762E+03</rscale>
<asrwt>0</asrwt>
<pdfrwt beam="2">  1       21 0.85840447E-01 0.10619423E+04</pdfrwt>
<pdfrwt beam="1">  1        4 0.11811295E+00 0.10619423E+04</pdfrwt>
<totfact> 0.24351664E+01</totfact>
</mgrwt>
</event>
<event>
 6    1  0.1431486E-005  0.1022328E+04  0.7818608E-02  0.9816505E-01
          4   -1    0    0  502    0 -0.00000000000E+00  0.00000000000E+00  0.19544496668E+03  0.19544496668E+03  0.00000000000E+00 0.  1.
         21   -1    0    0  501  502  0.00000000000E+00 -0.00000000000E+00 -0.18034048701E+04  0.18034048701E+04  0.00000000000E+00 0.  1.
    9000010    2    1    2  501    0 -0.28982228049E+02 -0.15920771141E+03 -0.13343259920E+04  0.16809464024E+04  0.10094393940E+04 0.  0.
        -13    1    3    3    0    0 -0.29473492280E+03  0.33126629812E+03 -0.76275730655E+03  0.88227249466E+03  0.10566000000E+00 0.  1.
          4    1    3    3  501    0  0.26575269475E+03 -0.49047400953E+03 -0.57156868545E+03  0.79867390778E+03  0.00000000000E+00 0.  1.
         13    1    1    2    0    0  0.28982228049E+02  0.15920771141E+03 -0.27363391140E+03  0.31790343431E+03  0.10566000000E+00 0. -1.
<mgrwt>
<rscale>  1 0.64484255E+03</rscale>
<asrwt>0</asrwt>
<pdfrwt beam="2">  1       21 0.27744692E+00 0.10223282E+04</pdfrwt>
<pdfrwt beam="1">  1        4 0.30068455E-01 0.10223282E+04</pdfrwt>
<totfact> 0.15733164E+01</totfact>
</mgrwt>
</event>
<event>
 6    1  0.1431486E-005  0.1255365E+04  0.7818608E-02  0.9198727E-01
          4   -1    0    0  502    0 -0.00000000000E+00  0.00000000000E+00  0.69810740896E+03  0.69810740896E+03  0.00000000000E+00 0.  1.
         21   -1    0    0  501  502  0.00000000000E+00 -0.00000000000E+00 -0.15031047558E+04  0.15031047558E+04  0.00000000000E+00 0.  1.
    9000010    2    1    2  501    0  0.16931892313E+03 -0.73897811364E+03 -0.30132042394E+03  0.12910209739E+04  0.10005916284E+04 0.  0.
        -13    1    3    3    0    0  0.61410038255E+02  0.15632569417E+03  0.19847134035E+03  0.25999961454E+03  0.10566000000E+00 0.  1.
          4    1    3    3  501    0  0.10790888487E+03 -0.89530380781E+03 -0.49979176430E+03  0.10310213593E+04  0.00000000000E+00 0.  1.
         13    1    1    2    0    0 -0.16931892313E+03  0.73897811364E+03 -0.50367692291E+03  0.91019119091E+03  0.10566000000E+00 0. -1.
<mgrwt>
<rscale>  1 0.11066573E+04</rscale>
<asrwt>0</asrwt>
<pdfrwt beam="2">  1       21 0.23124689E+00 0.12553649E+04</pdfrwt>
<pdfrwt beam="1">  1        4 0.10740114E+00 0.12553649E+04</pdfrwt>
<totfact> 0.18768998E+00</totfact>
</mgrwt>
</event>
<event>
 6    1  0.1431486E-005  0.1113111E+04  0.7818608E-02  0.9415761E-01
         21   -1    0    0  501  502  0.00000000000E+00  0.00000000000E+00  0.62139970614E+03  0.62139970614E+03  0.00000000000E+00 0.  1.
          4   -1    0    0  502    0 -0.00000000000E+00 -0.00000000000E+00 -0.12841508404E+04  0.12841508404E+04  0.00000000000E+00 0.  1.
    9000010    2    1    2  501    0 -0.19496717306E+03  0.45242483625E+03 -0.43123834312E+02  0.11139455737E+04  0.99815562166E+03 0.  0.
        -13    1    3    3    0    0 -0.58231130474E+03  0.11039876433E+03 -0.68232593630E+02  0.59659872678E+03  0.10566000000E+00 0.  1.
          4    1    3    3  501    0  0.38734413169E+03  0.34202607192E+03  0.25108759318E+02  0.51734684692E+03  0.00000000000E+00 0.  1.
         13    1    1    2    0    0  0.19496717306E+03 -0.45242483625E+03 -0.61962729993E+03  0.79160497282E+03  0.10566000000E+00 0. -1.
<mgrwt>
<rscale>  1 0.90789901E+03</rscale>
<asrwt>0</asrwt>
<pdfrwt beam="1">  1       21 0.95599955E-01 0.11131105E+04</pdfrwt>
<pdfrwt beam="2">  1        4 0.19756167E+00 0.11131105E+04</pdfrwt>
<totfact> 0.45802019E+00</totfact>
</mgrwt>
</event>
<event>
 6    1  0.1431486E-005  0.1154120E+04  0.7818608E-02  0.9379030E-01
         21   -1    0    0  501  502  0.00000000000E+00  0.00000000000E+00  0.52970022187E+03  0.52970022187E+03  0.00000000000E+00 0.  1.
          4   -1    0    0  502    0 -0.00000000000E+00 -0.00000000000E+00 -0.13247209685E+04  0.13247209685E+04  0.00000000000E+00 0.  1.
    9000010    2    1    2  501    0 -0.47423511452E+03  0.17074009909E+03 -0.42802747401E+03  0.12309348645E+04  0.10382398551E+04 0.  0.
        -13    1    3    3    0    0 -0.64981227730E+03 -0.20734396335E+03 -0.44382234792E+03  0.81377257422E+03  0.10566000000E+00 0.  1.
          4    1    3    3  501    0  0.17557716278E+03  0.37808406243E+03  0.15794873912E+02  0.41716229024E+03  0.00000000000E+00 0.  1.
         13    1    1    2    0    0  0.47423511452E+03 -0.17074009909E+03 -0.36699327258E+03  0.62348632588E+03  0.10566000000E+00 0. -1.
<mgrwt>
<rscale>  1 0.93821719E+03</rscale>
<asrwt>0</asrwt>
<pdfrwt beam="1">  1       21 0.81492341E-01 0.11541201E+04</pdfrwt>
<pdfrwt beam="2">  1        4 0.20380323E+00 0.11541201E+04</pdfrwt>
<totfact> 0.60901788E+00</totfact>
</mgrwt>
</event>
<event>
 6    1  0.1431486E-005  0.9995416E+03  0.7818608E-02  0.9871081E-01
          4   -1    0    0  502    0 -0.00000000000E+00  0.00000000000E+00  0.32148850774E+03  0.32148850774E+03  0.00000000000E+00 0.  1.
         21   -1    0    0  501  502  0.00000000000E+00 -0.00000000000E+00 -0.12090059870E+04  0.12090059870E+04  0.00000000000E+00 0.  1.
    9000010    2    1    2  501    0 -0.50162400081E+02  0.13601321242E+03 -0.94405598082E+03  0.13748909161E+04  0.98897293997E+03 0.  0.
        -13    1    3    3    0    0  0.66862637332E+02  0.20202468840E+03  0.15776726871E+03  0.26490584976E+03  0.10566000000E+00 0.  1.
          4    1    3    3  501    0 -0.11702503741E+03 -0.66011475988E+02 -0.11018232495E+04  0.11099850664E+04  0.00000000000E+00 0.  1.
         13    1    1    2    0    0  0.50162400081E+02 -0.13601321242E+03  0.56538501606E+02  0.15560357856E+03  0.10566000000E+00 0. -1.
<mgrwt>
<rscale>  1 0.61683509E+03</rscale>
<asrwt>0</asrwt>
<pdfrwt beam="2">  1       21 0.18600092E+00 0.99954156E+03</pdfrwt>
<pdfrwt beam="1">  1        4 0.49459771E-01 0.99954156E+03</pdfrwt>
<totfact> 0.22858924E+01</totfact>
</mgrwt>
</event>
<event>
 6    1  0.1431486E-005  0.1140730E+04  0.7818608E-02  0.9349284E-01
         21   -1    0    0  501  502  0.00000000000E+00  0.00000000000E+00  0.10950062385E+04  0.10950062385E+04  0.00000000000E+00 0.  1.
          4   -1    0    0  502    0 -0.00000000000E+00 -0.00000000000E+00 -0.93132996429E+03  0.93132996429E+03  0.00000000000E+00 0.  1.
    9000010    2    1    2  501    0 -0.36187790642E+03 -0.45459864998E+03  0.61006484235E+03  0.12936163950E+04  0.98165610770E+03 0.  0.
        -13    1    3    3    0    0  0.20655474518E+03 -0.42594542091E+03  0.54323108088E+03  0.72055144351E+03  0.10566000000E+00 0.  1.
          4    1    3    3  501    0 -0.56843265159E+03 -0.28653229066E+02  0.66833761471E+02  0.57306495147E+03  0.00000000000E+00 0.  1.
         13    1    1    2    0    0  0.36187790642E+03  0.45459864998E+03 -0.44638856818E+03  0.73271980776E+03  0.10566000000E+00 0. -1.
<mgrwt>
<rscale>  1 0.96369559E+03</rscale>
<asrwt>0</asrwt>
<pdfrwt beam="1">  1       21 0.16846250E+00 0.11407297E+04</pdfrwt>
<pdfrwt beam="2">  1        4 0.14328153E+00 0.11407297E+04</pdfrwt>
<totfact> 0.25029704E+00</totfact>
</mgrwt>
</event>
<event>
 6    1  0.1431486E-005  0.8306178E+03  0.7818608E-02  0.9952858E-01
          4   -1    0    0  502    0 -0.00000000000E+00  0.00000000000E+00  0.82007098387E+03  0.82007098387E+03  0.00000000000E+00 0.  1.
         21   -1    0    0  501  502  0.00000000000E+00 -0.00000000000E+00 -0.51368134985E+03  0.51368134985E+03  0.00000000000E+00 0.  1.
    9000010    2    1    2  501    0 -0.94029944379E+02 -0.17004698801E+03 -0.14420758430E+03  0.84304318066E+03  0.80756942025E+03 0.  0.
        -13    1    3    3    0    0  0.16120251390E+03  0.20884558552E+03 -0.26141860891E+03  0.37140601681E+03  0.10566000000E+00 0.  1.
          4    1    3    3  501    0 -0.25523245828E+03 -0.37889257353E+03  0.11721102461E+03  0.47163716385E+03  0.00000000000E+00 0.  1.
         13    1    1    2    0    0  0.94029944379E+02  0.17004698801E+03  0.45059721833E+03  0.49070915306E+03  0.10566000000E+00 0. -1.
<mgrwt>
<rscale>  1 0.57766561E+03</rscale>
<asrwt>0</asrwt>
<pdfrwt beam="2">  1       21 0.79027900E-01 0.83061783E+03</pdfrwt>
<pdfrwt beam="1">  1        4 0.12616477E+00 0.83061783E+03</pdfrwt>
<totfact> 0.25644210E+01</totfact>
</mgrwt>
</event>
<event>
 6    1  0.1431486E-005  0.1062356E+04  0.7818608E-02  0.9555822E-01
          4   -1    0    0  502    0 -0.00000000000E+00  0.00000000000E+00  0.16504464462E+04  0.16504464462E+04  0.00000000000E+00 0.  1.
         21   -1    0    0  501  502  0.00000000000E+00 -0.00000000000E+00 -0.41377067610E+03  0.41377067610E+03  0.00000000000E+00 0.  1.
    9000010    2    1    2  501    0  0.33178327748E+03 -0.10030363594E+03  0.36030847170E+03  0.11217943852E+04  0.10042208349E+04 0.  0.
        -13    1    3    3    0    0  0.50193295575E+03  0.31124858204E+03  0.32730721588E+03  0.67523506768E+03  0.10566000000E+00 0.  1.
          4    1    3    3  501    0 -0.17014967827E+03 -0.41155221798E+03  0.33001255814E+02  0.44655931748E+03  0.00000000000E+00 0.  1.
         13    1    1    2    0    0 -0.33178327748E+03  0.10030363594E+03  0.87636729845E+03  0.94242273718E+03  0.10566000000E+00 0. -1.
<mgrwt>
<rscale>  1 0.80290465E+03</rscale>
<asrwt>0</asrwt>
<pdfrwt beam="2">  1       21 0.63657028E-01 0.10623561E+04</pdfrwt>
<pdfrwt beam="1">  1        4 0.25391484E+00 0.10623561E+04</pdfrwt>
<totfact> 0.52376951E+00</totfact>
</mgrwt>
</event>
<event>
 6    1  0.1431486E-005  0.1027180E+04  0.7818608E-02  0.9754096E-01
          4   -1    0    0  502    0 -0.00000000000E+00  0.00000000000E+00  0.90975096786E+03  0.90975096786E+03  0.00000000000E+00 0.  1.
         21   -1    0    0  501  502  0.00000000000E+00 -0.00000000000E+00 -0.46447761103E+03  0.46447761103E+03  0.00000000000E+00 0.  1.
    9000010    2    1    2  501    0  0.18553596708E+02  0.19507745341E+03  0.17748580120E+03  0.10424008602E+04  0.10083148789E+04 0.  0.
        -13    1    3    3    0    0  0.12249749771E+03 -0.39728527303E+03  0.14158321446E+01  0.41574420123E+03  0.10566000000E+00 0.  1.
          4    1    3    3  501    0 -0.10394390100E+03  0.59236272644E+03  0.17606996905E+03  0.62665665897E+03  0.00000000000E+00 0.  1.
         13    1    1    2    0    0 -0.18553596708E+02 -0.19507745341E+03  0.26778755563E+03  0.33182771870E+03  0.10566000000E+00 0. -1.
<mgrwt>
<rscale>  1 0.67885261E+03</rscale>
<asrwt>0</asrwt>
<pdfrwt beam="2">  1       21 0.71458094E-01 0.10271798E+04</pdfrwt>
<pdfrwt beam="1">  1        4 0.13996169E+00 0.10271798E+04</pdfrwt>
<totfact> 0.24292375E+01</totfact>
</mgrwt>
</event>
<event>
 6    1  0.1431486E-005  0.1024488E+04  0.7818608E-02  0.9773790E-01
         21   -1    0    0  501  502  0.00000000000E+00  0.00000000000E+00  0.16451397621E+04  0.16451397621E+04  0.00000000000E+00 0.  1.
          4   -1    0    0  502    0 -0.00000000000E+00 -0.00000000000E+00 -0.24465517609E+03  0.24465517609E+03  0.00000000000E+00 0.  1.
    9000010    2    1    2  501    0  0.16108915085E+03  0.91063268824E+02  0.13559525324E+04  0.16994653598E+04  0.10076373383E+04 0.  0.
        -13    1    3    3    0    0 -0.40293082405E+03  0.19505363362E+03  0.52730072530E+03  0.69169735797E+03  0.10566000000E+00 0.  1.
          4    1    3    3  501    0  0.56401997490E+03 -0.10399036479E+03  0.82865180709E+03  0.10077680018E+04  0.00000000000E+00 0.  1.
         13    1    1    2    0    0 -0.16108915085E+03 -0.91063268824E+02  0.44532053595E+02  0.19032957840E+03  0.10566000000E+00 0. -1.
<mgrwt>
<rscale>  1 0.66788297E+03</rscale>
<asrwt>0</asrwt>
<pdfrwt beam="1">  1       21 0.25309842E+00 0.10244878E+04</pdfrwt>
<pdfrwt beam="2">  1        4 0.37639259E-01 0.10244878E+04</pdfrwt>
<totfact> 0.14315279E+01</totfact>
</mgrwt>
</event>
<event>
 6    1  0.1431486E-005  0.1000975E+04  0.7818608E-02  0.9970437E-01
          4   -1    0    0  502    0 -0.00000000000E+00  0.00000000000E+00  0.23597047901E+03  0.23597047901E+03  0.00000000000E+00 0.  1.
         21   -1    0    0  501  502  0.00000000000E+00 -0.00000000000E+00 -0.13323433733E+04  0.13323433733E+04  0.00000000000E+00 0.  1.
    9000010    2    1    2  501    0 -0.21515523674E+02  0.10277079552E+03 -0.10581279597E+04  0.14565666360E+04  0.99545307864E+03 0.  0.
        -13    1    3    3    0    0  0.48525916299E+03  0.17800462244E+02 -0.47376842390E+03  0.67841715955E+03  0.10566000000E+00 0.  1.
          4    1    3    3  501    0 -0.50677468667E+03  0.84970333277E+02 -0.58435953580E+03  0.77814947643E+03  0.00000000000E+00 0.  1.
         13    1    1    2    0    0  0.21515523674E+02 -0.10277079552E+03 -0.38244934593E+02  0.11174721633E+03  0.10566000000E+00 0. -1.
<mgrwt>
<rscale>  1 0.56965734E+03</rscale>
<asrwt>0</asrwt>
<pdfrwt beam="2">  1       21 0.20497591E+00 0.10009753E+04</pdfrwt>
<pdfrwt beam="1">  1        4 0.36303150E-01 0.10009753E+04</pdfrwt>
<totfact> 0.31862687E+01</totfact>
</mgrwt>
</event>
<event>
 6    1  0.1431486E-005  0.1052702E+04  0.7818608E-02  0.9569674E-01
          4   -1    0    0  502    0 -0.00000000000E+00  0.00000000000E+00  0.15698837278E+04  0.15698837278E+04  0.00000000000E+00 0.  1.
         21   -1    0    0  501  502  0.00000000000E+00 -0.00000000000E+00 -0.30982636553E+03  0.30982636553E+03  0.00000000000E+00 0.  1.
    9000010    2    1    2  501    0 -0.28133328074E+03 -0.19021406354E+03  0.10001803411E+04  0.14520818879E+04  0.99641923384E+03 0.  0.
        -13    1    3    3    0    0  0.24620665826E+02 -0.21741962898E+03 -0.14758298646E+03  0.26392843974E+03  0.10566000000E+00 0.  1.
          4    1    3    3  501    0 -0.30595394656E+03  0.27205565437E+02  0.11477633276E+04  0.11881534482E+04  0.00000000000E+00 0.  1.
         13    1    1    2    0    0  0.28133328074E+03  0.19021406354E+03  0.25987702118E+03  0.42762820548E+03  0.10566000000E+00 0. -1.
<mgrwt>
<rscale>  1 0.79336270E+03</rscale>
<asrwt>0</asrwt>
<pdfrwt beam="2">  1       21 0.47665596E-01 0.10527018E+04</pdfrwt>
<pdfrwt beam="1">  1        4 0.24152057E+00 0.10527018E+04</pdfrwt>
<totfact> 0.11829629E+01</totfact>
</mgrwt>
</event>
<event>
 6    1  0.1431486E-005  0.1006907E+04  0.7818608E-02  0.9853625E-01
          4   -1    0    0  502    0 -0.00000000000E+00  0.00000000000E+00  0.47989296717E+03  0.47989296717E+03  0.00000000000E+00 0.  1.
         21   -1    0    0  501  502  0.00000000000E+00 -0.00000000000E+00 -0.73703101208E+03  0.73703101208E+03  0.00000000000E+00 0.  1.
    9000010    2    1    2  501    0 -0.10685808998E+03 -0.10536363048E+03 -0.12071877283E+03  0.10141177294E+04  0.99566138869E+03 0.  0.
        -13    1    3    3    0    0  0.23716690988E+03 -0.40436282408E+03  0.13971610818E+03  0.48916054490E+03  0.10566000000E+00 0.  1.
          4    1    3    3  501    0 -0.34402499987E+03  0.29899919359E+03 -0.26043488100E+03  0.52495718449E+03  0.00000000000E+00 0.  1.
         13    1    1    2    0    0  0.10685808998E+03  0.10536363048E+03 -0.13641927209E+03  0.20280624987E+03  0.10566000000E+00 0. -1.
<mgrwt>
<rscale>  1 0.62562415E+03</rscale>
<asrwt>0</asrwt>
<pdfrwt beam="2">  1       21 0.11338939E+00 0.10069070E+04</pdfrwt>
<pdfrwt beam="1">  1        4 0.73829688E-01 0.10069070E+04</pdfrwt>
<totfact> 0.37576856E+01</totfact>
</mgrwt>
</event>
<event>
 6    1  0.1431486E-005  0.1018064E+04  0.7818608E-02  0.9953519E-01
          4   -1    0    0  502    0 -0.00000000000E+00  0.00000000000E+00  0.15312998301E+03  0.15312998301E+03  0.00000000000E+00 0.  1.
         21   -1    0    0  501  502  0.00000000000E+00 -0.00000000000E+00 -0.20666197688E+04  0.20666197688E+04  0.00000000000E+00 0.  1.
    9000010    2    1    2  501    0  0.14552205378E+02  0.10429892875E+03 -0.17676475607E+04  0.20398609000E+04  0.10126028636E+04 0.  0.
        -13    1    3    3    0    0  0.67698095835E+02  0.54378018671E+03 -0.12065610424E+04  0.13251677191E+04  0.10566000000E+00 0.  1.
          4    1    3    3  501    0 -0.53145890457E+02 -0.43948125796E+03 -0.56108651831E+03  0.71469318088E+03  0.00000000000E+00 0.  1.
         13    1    1    2    0    0 -0.14552205378E+02 -0.10429892875E+03 -0.14584222508E+03  0.17988885179E+03  0.10566000000E+00 0. -1.
<mgrwt>
<rscale>  1 0.57736176E+03</rscale>
<asrwt>0</asrwt>
<pdfrwt beam="2">  1       21 0.31794149E+00 0.10180641E+04</pdfrwt>
<pdfrwt beam="1">  1        4 0.23558460E-01 0.10180641E+04</pdfrwt>
<totfact> 0.14101265E+01</totfact>
</mgrwt>
</event>
<event>
 6    1  0.1431486E-005  0.1006943E+04  0.7818608E-02  0.1026232E+00
          4   -1    0    0  502    0 -0.00000000000E+00  0.00000000000E+00  0.39451647458E+03  0.39451647458E+03  0.00000000000E+00 0.  1.
         21   -1    0    0  501  502  0.00000000000E+00 -0.00000000000E+00 -0.69726110295E+03  0.69726110295E+03  0.00000000000E+00 0.  1.
    9000010    2    1    2  501    0 -0.22123820193E+02 -0.35689928470E+02 -0.29222365309E+03  0.10484885893E+04  0.10060668090E+04 0.  0.
        -13    1    3    3    0    0 -0.30816327521E+03 -0.23845013176E+02  0.27461516751E+03  0.41345699926E+03  0.10566000000E+00 0.  1.
          4    1    3    3  501    0  0.28603945502E+03 -0.11844915294E+02 -0.56683882061E+03  0.63503159007E+03  0.00000000000E+00 0.  1.
         13    1    1    2    0    0  0.22123820193E+02  0.35689928470E+02 -0.10520975281E+02  0.43288988196E+02  0.10566000000E+00 0. -1.
<mgrwt>
<rscale>  1 0.45503277E+03</rscale>
<asrwt>0</asrwt>
<pdfrwt beam="2">  1       21 0.10727094E+00 0.10069427E+04</pdfrwt>
<pdfrwt beam="1">  1        4 0.60694842E-01 0.10069427E+04</pdfrwt>
<totfact> 0.66835716E+01</totfact>
</mgrwt>
</event>
<event>
 6    1  0.1431486E-005  0.1038129E+04  0.7818608E-02  0.9673632E-01
         21   -1    0    0  501  502  0.00000000000E+00  0.00000000000E+00  0.14625587700E+03  0.14625587700E+03  0.00000000000E+00 0.  1.
          4   -1    0    0  502    0 -0.00000000000E+00 -0.00000000000E+00 -0.28360717325E+04  0.28360717325E+04  0.00000000000E+00 0.  1.
    9000010    2    1    2  501    0 -0.22571648290E+03 -0.10376970883E+03 -0.22258877724E+04  0.24560716256E+04  0.10079659576E+04 0.  0.
        -13    1    3    3    0    0  0.19896587971E+03 -0.23814924773E+03 -0.18422423571E+04  0.18681968309E+04  0.10566000000E+00 0.  1.
          4    1    3    3  501    0 -0.42468236260E+03  0.13437953890E+03 -0.38364541526E+03  0.58787479469E+03  0.00000000000E+00 0.  1.
         13    1    1    2    0    0  0.22571648290E+03  0.10376970883E+03 -0.46392808308E+03  0.52625598387E+03  0.10566000000E+00 0. -1.
<mgrwt>
<rscale>  1 0.72608639E+03</rscale>
<asrwt>0</asrwt>
<pdfrwt beam="1">  1       21 0.22500901E-01 0.10381288E+04</pdfrwt>
<pdfrwt beam="2">  1        4 0.43631880E+00 0.10381288E+04</pdfrwt>
<totfact> 0.29516640E+00</totfact>
</mgrwt>
</event>
<event>
 6    1  0.1431486E-005  0.1031161E+04  0.7818608E-02  0.9720191E-01
         21   -1    0    0  501  502  0.00000000000E+00  0.00000000000E+00  0.62488121961E+03  0.62488121961E+03  0.00000000000E+00 0.  1.
          4   -1    0    0  502    0 -0.00000000000E+00 -0.00000000000E+00 -0.79127148438E+03  0.79127148438E+03  0.00000000000E+00 0.  1.
    9000010    2    1    2  501    0 -0.16839951750E+03 -0.13659071588E+03  0.14018646550E+03  0.10406467468E+04  0.10081061380E+04 0.  0.
        -13    1    3    3    0    0  0.99654421745E+02 -0.23181196738E+03 -0.37509091141E+03  0.45206304314E+03  0.10566000000E+00 0.  1.
          4    1    3    3  501    0 -0.26805393924E+03  0.95221251491E+02  0.51527737691E+03  0.58858370368E+03  0.00000000000E+00 0.  1.
         13    1    1    2    0    0  0.16839951750E+03  0.13659071588E+03 -0.30657673027E+03  0.37550595717E+03  0.10566000000E+00 0. -1.
<mgrwt>
<rscale>  1 0.69827256E+03</rscale>
<asrwt>0</asrwt>
<pdfrwt beam="1">  1       21 0.96135572E-01 0.10311612E+04</pdfrwt>
<pdfrwt beam="2">  1        4 0.12173407E+00 0.10311612E+04</pdfrwt>
<totfact> 0.17200466E+01</totfact>
</mgrwt>
</event>
<event>
 6    1  0.1431486E-005  0.9416182E+03  0.7818608E-02  0.1014204E+00
          4   -1    0    0  502    0 -0.00000000000E+00  0.00000000000E+00  0.23937479671E+03  0.23937479671E+03  0.00000000000E+00 0.  1.
         21   -1    0    0  501  502  0.00000000000E+00 -0.00000000000E+00 -0.11270415567E+04  0.11270415567E+04  0.00000000000E+00 0.  1.
    9000010    2    1    2  501    0  0.24009629380E+02 -0.69883692766E+02 -0.88536939197E+03  0.12924874559E+04  0.93871437115E+03 0.  0.
        -13    1    3    3    0    0 -0.12331090294E+03  0.30451316193E+03 -0.95470851916E+01  0.32867157250E+03  0.10566000000E+00 0.  1.
          4    1    3    3  501    0  0.14732053232E+03 -0.37439685469E+03 -0.87582230678E+03  0.96381588340E+03  0.00000000000E+00 0.  1.
         13    1    1    2    0    0 -0.24009629380E+02  0.69883692766E+02 -0.22973679790E+01  0.73928897471E+02  0.10566000000E+00 0. -1.
<mgrwt>
<rscale>  1 0.49837615E+03</rscale>
<asrwt>0</asrwt>
<pdfrwt beam="2">  1       21 0.17339101E+00 0.94161822E+03</pdfrwt>
<pdfrwt beam="1">  1        4 0.36826892E-01 0.94161822E+03</pdfrwt>
<totfact> 0.52129940E+01</totfact>
</mgrwt>
</event>
<event>
 6    1  0.1431486E-005  0.1048654E+04  0.7818608E-02  0.9776095E-01
          4   -1    0    0  502    0 -0.00000000000E+00  0.00000000000E+00  0.76074526120E+03  0.76074526120E+03  0.00000000000E+00 0.  1.
         21   -1    0    0  501  502  0.00000000000E+00 -0.00000000000E+00 -0.49073859907E+03  0.49073859907E+03  0.00000000000E+00 0.  1.
    9000010    2    1    2  501    0 -0.16548711585E+03  0.44004227763E+02  0.25740316059E+03  0.10797829081E+04  0.10345783604E+04 0.  0.
        -13    1    3    3    0    0  0.31167757509E+03  0.21649801049E+03 -0.17051487119E+03  0.41604042090E+03  0.10566000000E+00 0.  1.
          4    1    3    3  501    0 -0.47716469094E+03 -0.17249378273E+03  0.42791803177E+03  0.66374248717E+03  0.00000000000E+00 0.  1.
         13    1    1    2    0    0  0.16548711585E+03 -0.44004227763E+02  0.12603501537E+02  0.17170095220E+03  0.10566000000E+00 0. -1.
<mgrwt>
<rscale>  1 0.66661338E+03</rscale>
<asrwt>0</asrwt>
<pdfrwt beam="2">  1       21 0.75498246E-01 0.10486538E+04</pdfrwt>
<pdfrwt beam="1">  1        4 0.11703773E+00 0.10486538E+04</pdfrwt>
<totfact> 0.33762978E+01</totfact>
</mgrwt>
</event>
<event>
 6    1  0.1431486E-005  0.1056627E+04  0.7818608E-02  0.9554617E-01
         21   -1    0    0  501  502  0.00000000000E+00  0.00000000000E+00  0.11407298506E+04  0.11407298506E+04  0.00000000000E+00 0.  1.
          4   -1    0    0  502    0 -0.00000000000E+00 -0.00000000000E+00 -0.61056108732E+03  0.61056108732E+03  0.00000000000E+00 0.  1.
    9000010    2    1    2  501    0  0.32020416190E+03  0.15037045593E+03  0.78414684070E+03  0.13158063178E+04  0.99564954621E+03 0.  0.
        -13    1    3    3    0    0  0.45978840499E+03  0.49809820463E+03  0.55932849234E+03  0.87883762569E+03  0.10566000000E+00 0.  1.
          4    1    3    3  501    0 -0.13958424309E+03 -0.34772774870E+03  0.22481834836E+03  0.43696869212E+03  0.00000000000E+00 0.  1.
         13    1    1    2    0    0 -0.32020416190E+03 -0.15037045593E+03 -0.25397807747E+03  0.43548462007E+03  0.10566000000E+00 0. -1.
<mgrwt>
<rscale>  1 0.80374183E+03</rscale>
<asrwt>0</asrwt>
<pdfrwt beam="1">  1       21 0.17549690E+00 0.10566267E+04</pdfrwt>
<pdfrwt beam="2">  1        4 0.93932475E-01 0.10566267E+04</pdfrwt>
<totfact> 0.64565041E+00</totfact>
</mgrwt>
</event>
<event>
 6    1  0.1431486E-005  0.1009224E+04  0.7818608E-02  0.1020036E+00
         21   -1    0    0  501  502  0.00000000000E+00  0.00000000000E+00  0.18041248350E+03  0.18041248350E+03  0.00000000000E+00 0.  1.
          4   -1    0    0  502    0 -0.00000000000E+00 -0.00000000000E+00 -0.15865161342E+04  0.15865161342E+04  0.00000000000E+00 0.  1.
    9000010    2    1    2  501    0  0.47246275966E+02 -0.17116501654E+02 -0.13817915583E+04  0.17111050185E+04  0.10079718690E+04 0.  0.
        -13    1    3    3    0    0 -0.46334063506E+03 -0.67372183464E+01 -0.43608403520E+03  0.63631692664E+03  0.10566000000E+00 0.  1.
          4    1    3    3  501    0  0.51058691103E+03 -0.10379283307E+02 -0.94570752311E+03  0.10747880919E+04  0.00000000000E+00 0.  1.
         13    1    1    2    0    0 -0.47246275966E+02  0.17116501654E+02 -0.24312092385E+02  0.55823599147E+02  0.10566000000E+00 0. -1.
<mgrwt>
<rscale>  1 0.47673554E+03</rscale>
<asrwt>0</asrwt>
<pdfrwt beam="1">  1       21 0.27755766E-01 0.10092237E+04</pdfrwt>
<pdfrwt beam="2">  1        4 0.24407941E+00 0.10092237E+04</pdfrwt>
<totfact> 0.35094137E+01</totfact>
</mgrwt>
</event>
<event>
 6    1  0.1431486E-005  0.1001607E+04  0.7818608E-02  0.9790835E-01
          4   -1    0    0  502    0 -0.00000000000E+00  0.00000000000E+00  0.42356298169E+03  0.42356298169E+03  0.00000000000E+00 0.  1.
         21   -1    0    0  501  502  0.00000000000E+00 -0.00000000000E+00 -0.12678097093E+04  0.12678097093E+04  0.00000000000E+00 0.  1.
    9000010    2    1    2  501    0  0.75177957997E+02  0.17144222254E+03 -0.10235988279E+04  0.14321211759E+04  0.98395748938E+03 0.  0.
        -13    1    3    3    0    0  0.71899475311E+01  0.68994983367E+02  0.19518793592E+03  0.20714812229E+03  0.10566000000E+00 0.  1.
          4    1    3    3  501    0  0.67988010466E+02  0.10244723917E+03 -0.12187867638E+04  0.12249730536E+04  0.00000000000E+00 0.  1.
         13    1    1    2    0    0 -0.75177957997E+02 -0.17144222254E+03  0.17935210030E+03  0.25925151510E+03  0.10566000000E+00 0. -1.
<mgrwt>
<rscale>  1 0.65856702E+03</rscale>
<asrwt>0</asrwt>
<pdfrwt beam="2">  1       21 0.19504764E+00 0.10016070E+04</pdfrwt>
<pdfrwt beam="1">  1        4 0.65163537E-01 0.10016070E+04</pdfrwt>
<totfact> 0.10886897E+01</totfact>
</mgrwt>
</event>
<event>
 6    1  0.1431486E-005  0.1707528E+04  0.7818608E-02  0.8803624E-01
          4   -1    0    0  502    0 -0.00000000000E+00  0.00000000000E+00  0.14617547930E+04  0.14617547930E+04  0.00000000000E+00 0.  1.
         21   -1    0    0  501  502  0.00000000000E+00 -0.00000000000E+00 -0.17229996964E+04  0.17229996964E+04  0.00000000000E+00 0. -1.
    9000010    2    1    2  501    0  0.14070751354E+04 -0.96937947300E+02 -0.43934373733E+03  0.17631439211E+04  0.96249476087E+03 0.  0.
        -13    1    3    3    0    0  0.86777366475E+03 -0.52916392997E+03 -0.25911216818E+03  0.10488969086E+04  0.10566000000E+00 0.  1.
          4    1    3    3  501    0  0.53930147061E+03  0.43222598267E+03 -0.18023156915E+03  0.71424701246E+03  0.00000000000E+00 0.  1.
         13    1    1    2    0    0 -0.14070751354E+04  0.96937947300E+02  0.17809883401E+03  0.14216105683E+04  0.10566000000E+00 0. -1.
<mgrwt>
<rscale>  1 0.16278424E+04</rscale>
<asrwt>0</asrwt>
<pdfrwt beam="2">  1       21 0.26507688E+00 0.17075285E+04</pdfrwt>
<pdfrwt beam="1">  1        4 0.22488535E+00 0.17075285E+04</pdfrwt>
<totfact> 0.13564457E-01</totfact>
</mgrwt>
</event>
<event>
 6    1  0.1431486E-005  0.1017079E+04  0.7818608E-02  0.9762759E-01
          4   -1    0    0  502    0 -0.00000000000E+00  0.00000000000E+00  0.74191617644E+03  0.74191617644E+03  0.00000000000E+00 0.  1.
         21   -1    0    0  501  502  0.00000000000E+00 -0.00000000000E+00 -0.12125217078E+04  0.12125217078E+04  0.00000000000E+00 0.  1.
    9000010    2    1    2  501    0  0.16368782222E+03 -0.10806909178E+03 -0.97765963024E+03  0.14107684054E+04  0.99798622709E+03 0.  0.
        -13    1    3    3    0    0  0.39221964308E+03 -0.33185008238E+03 -0.96192300290E+03  0.10905304215E+04  0.10566000000E+00 0.  1.
          4    1    3    3  501    0 -0.22853182086E+03  0.22378099061E+03 -0.15736627336E+02  0.32023798392E+03  0.00000000000E+00 0.  1.
         13    1    1    2    0    0 -0.16368782222E+03  0.10806909178E+03  0.50705409891E+03  0.54366947875E+03  0.10566000000E+00 0. -1.
<mgrwt>
<rscale>  1 0.67400005E+03</rscale>
<asrwt>0</asrwt>
<pdfrwt beam="2">  1       21 0.18654180E+00 0.10170787E+04</pdfrwt>
<pdfrwt beam="1">  1        4 0.11414095E+00 0.10170787E+04</pdfrwt>
<totfact> 0.33619407E+00</totfact>
</mgrwt>
</event>
<event>
 6    1  0.1431486E-005  0.1060329E+04  0.7818608E-02  0.9708659E-01
         21   -1    0    0  501  502  0.00000000000E+00  0.00000000000E+00  0.42065899420E+03  0.42065899420E+03  0.00000000000E+00 0.  1.
          4   -1    0    0  502    0 -0.00000000000E+00 -0.00000000000E+00 -0.95518178379E+03  0.95518178379E+03  0.00000000000E+00 0.  1.
    9000010    2    1    2  501    0 -0.15330984487E+03 -0.13947837244E+03 -0.43872556673E+03  0.11475093435E+04  0.10398747259E+04 0.  0.
        -13    1    3    3    0    0  0.18056885753E+03 -0.36904777677E+03  0.14607870780E+03  0.43605088452E+03  0.10566000000E+00 0.  1.
          4    1    3    3  501    0 -0.33387870240E+03  0.22956940433E+03 -0.58480427454E+03  0.71145845897E+03  0.00000000000E+00 0.  1.
         13    1    1    2    0    0  0.15330984487E+03  0.13947837244E+03 -0.95797222856E+02  0.22833143451E+03  0.10566000000E+00 0. -1.
<mgrwt>
<rscale>  1 0.70503578E+03</rscale>
<asrwt>0</asrwt>
<pdfrwt beam="1">  1       21 0.64716770E-01 0.10603290E+04</pdfrwt>
<pdfrwt beam="2">  1        4 0.14695104E+00 0.10603290E+04</pdfrwt>
<totfact> 0.26681933E+01</totfact>
</mgrwt>
</event>
<event>
 6    1  0.1431486E-005  0.9933851E+03  0.7818608E-02  0.9939617E-01
          4   -1    0    0  502    0 -0.00000000000E+00  0.00000000000E+00  0.39172790295E+03  0.39172790295E+03  0.00000000000E+00 0.  1.
         21   -1    0    0  501  502  0.00000000000E+00 -0.00000000000E+00 -0.16925882298E+04  0.16925882298E+04  0.00000000000E+00 0.  1.
    9000010    2    1    2  501    0  0.11844307758E+03 -0.32831915095E+01 -0.15312454040E+04  0.18252469588E+04  0.98629327856E+03 0.  0.
        -13    1    3    3    0    0  0.41028214755E+03 -0.17845062677E+03 -0.27832583739E+03  0.52691683377E+03  0.10566000000E+00 0.  1.
          4    1    3    3  501    0 -0.29183906997E+03  0.17516743526E+03 -0.12529195666E+04  0.12983301250E+04  0.00000000000E+00 0.  1.
         13    1    1    2    0    0 -0.11844307758E+03  0.32831915095E+01  0.23038507714E+03  0.25906917397E+03  0.10566000000E+00 0. -1.
<mgrwt>
<rscale>  1 0.58379100E+03</rscale>
<asrwt>0</asrwt>
<pdfrwt beam="2">  1       21 0.26039819E+00 0.99338511E+03</pdfrwt>
<pdfrwt beam="1">  1        4 0.60265832E-01 0.99338511E+03</pdfrwt>
<totfact> 0.48215586E+00</totfact>
</mgrwt>
</event>
<event>
 6    1  0.1431486E-005  0.1010729E+04  0.7818608E-02  0.9894989E-01
         21   -1    0    0  501  502  0.00000000000E+00  0.00000000000E+00  0.13331915768E+04  0.13331915768E+04  0.00000000000E+00 0.  1.
          4   -1    0    0  502    0 -0.00000000000E+00 -0.00000000000E+00 -0.26167676455E+03  0.26167676455E+03  0.00000000000E+00 0.  1.
    9000010    2    1    2  501    0  0.78470999229E+02  0.10338616175E+03  0.10598798200E+04  0.14645541811E+04  0.10023608734E+04 0.  0.
        -13    1    3    3    0    0  0.37009877976E+03  0.51339154130E+02  0.10101522972E+02  0.37377916937E+03  0.10566000000E+00 0.  1.
          4    1    3    3  501    0 -0.29162778053E+03  0.52047007622E+02  0.10497782970E+04  0.10907750117E+04  0.00000000000E+00 0.  1.
         13    1    1    2    0    0 -0.78470999229E+02 -0.10338616175E+03  0.11634992325E+02  0.13031416029E+03  0.10566000000E+00 0. -1.
<mgrwt>
<rscale>  1 0.60504762E+03</rscale>
<asrwt>0</asrwt>
<pdfrwt beam="1">  1       21 0.20510639E+00 0.10107293E+04</pdfrwt>
<pdfrwt beam="2">  1        4 0.40257965E-01 0.10107293E+04</pdfrwt>
<totfact> 0.25760200E+01</totfact>
</mgrwt>
</event>
<event>
 6    1  0.1431486E-005  0.1147181E+04  0.7818608E-02  0.9362404E-01
         21   -1    0    0  501  502  0.00000000000E+00  0.00000000000E+00  0.91253336217E+03  0.91253336217E+03  0.00000000000E+00 0.  1.
          4   -1    0    0  502    0 -0.00000000000E+00 -0.00000000000E+00 -0.83262761601E+03  0.83262761601E+03  0.00000000000E+00 0.  1.
    9000010    2    1    2  501    0  0.53507932437E+03 -0.10285308440E+03  0.25048530508E+03  0.11742091086E+04  0.10095224129E+04 0.  0.
        -13    1    3    3    0    0 -0.13869715034E+03  0.17417565514E+03  0.37404764701E+03  0.43529956554E+03  0.10566000000E+00 0.  1.
          4    1    3    3  501    0  0.67377647472E+03 -0.27702873955E+03 -0.12356234193E+03  0.73890954302E+03  0.00000000000E+00 0.  1.
         13    1    1    2    0    0 -0.53507932437E+03  0.10285308440E+03 -0.17057955892E+03  0.57095186962E+03  0.10566000000E+00 0. -1.
<mgrwt>
<rscale>  1 0.95235342E+03</rscale>
<asrwt>0</asrwt>
<pdfrwt beam="1">  1       21 0.14038975E+00 0.11471810E+04</pdfrwt>
<pdfrwt beam="2">  1        4 0.12809656E+00 0.11471810E+04</pdfrwt>
<totfact> 0.56097291E+00</totfact>
</mgrwt>
</event>
<event>
 6    1  0.1431486E-005  0.1162025E+04  0.7818608E-02  0.9332671E-01
          4   -1    0    0  502    0 -0.00000000000E+00  0.00000000000E+00  0.79912500719E+03  0.79912500719E+03  0.00000000000E+00 0.  1.
         21   -1    0    0  501  502  0.00000000000E+00 -0.00000000000E+00 -0.96266878772E+03  0.96266878772E+03  0.00000000000E+00 0. -1.
    9000010    2    1    2  501    0  0.28155383615E+03 -0.51138416443E+03 -0.18985117530E+03  0.11774322489E+04  0.10047471850E+04 0.  0.
        -13    1    3    3    0    0  0.56929854702E+03 -0.42330423792E+03 -0.39619119223E+03  0.81256063493E+03  0.10566000000E+00 0.  1.
          4    1    3    3  501    0 -0.28774471088E+03 -0.88079926502E+02  0.20634001692E+03  0.36487161396E+03  0.00000000000E+00 0.  1.
         13    1    1    2    0    0 -0.28155383615E+03  0.51138416443E+03  0.26307394779E+02  0.58436154601E+03  0.10566000000E+00 0. -1.
<mgrwt>
<rscale>  1 0.97829991E+03</rscale>
<asrwt>0</asrwt>
<pdfrwt beam="2">  1       21 0.14810289E+00 0.11620255E+04</pdfrwt>
<pdfrwt beam="1">  1        4 0.12294231E+00 0.11620255E+04</pdfrwt>
<totfact> 0.53654783E+00</totfact>
</mgrwt>
</event>
<event>
 6    1  0.1431486E-005  0.9926558E+03  0.7818608E-02  0.9811602E-01
          4   -1    0    0  502    0 -0.00000000000E+00  0.00000000000E+00  0.98239433630E+03  0.98239433630E+03  0.00000000000E+00 0.  1.
         21   -1    0    0  501  502  0.00000000000E+00 -0.00000000000E+00 -0.35082388671E+03  0.35082388671E+03  0.00000000000E+00 0. -1.
    9000010    2    1    2  501    0  0.17736689768E+03 -0.28458377728E+02  0.50717444339E+03  0.11147158817E+04  0.97626670799E+03 0.  0.
        -13    1    3    3    0    0 -0.20220972422E+03  0.33758788454E+03  0.15631646445E+02  0.39382573798E+03  0.10566000000E+00 0.  1.
          4    1    3    3  501    0  0.37957662190E+03 -0.36604626227E+03  0.49154279695E+03  0.72089014367E+03  0.00000000000E+00 0.  1.
         13    1    1    2    0    0 -0.17736689768E+03  0.28458377728E+02  0.12439600620E+03  0.21850234135E+03  0.10566000000E+00 0. -1.
<mgrwt>
<rscale>  1 0.64743631E+03</rscale>
<asrwt>0</asrwt>
<pdfrwt beam="2">  1       21 0.53972906E-01 0.99265582E+03</pdfrwt>
<pdfrwt beam="1">  1        4 0.15113759E+00 0.99265582E+03</pdfrwt>
<totfact> 0.37276453E+01</totfact>
</mgrwt>
</event>
<event>
 6    1  0.1431486E-005  0.1030079E+04  0.7818608E-02  0.9687294E-01
         21   -1    0    0  501  502  0.00000000000E+00  0.00000000000E+00  0.61059668882E+03  0.61059668882E+03  0.00000000000E+00 0.  1.
          4   -1    0    0  502    0 -0.00000000000E+00 -0.00000000000E+00 -0.10405904901E+04  0.10405904901E+04  0.00000000000E+00 0.  1.
    9000010    2    1    2  501    0  0.31282904512E+02  0.24084112061E+03  0.13243986324E+03  0.10385578427E+04  0.10010389651E+04 0.  0.
        -13    1    3    3    0    0  0.21704514815E+03  0.43843540171E+03  0.41891764923E+03  0.64407003176E+03  0.10566000000E+00 0.  1.
          4    1    3    3  501    0 -0.18576224364E+03 -0.19759428110E+03 -0.28647778599E+03  0.39448781090E+03  0.00000000000E+00 0.  1.
         13    1    1    2    0    0 -0.31282904512E+02 -0.24084112061E+03 -0.56243366455E+03  0.61262933628E+03  0.10566000000E+00 0. -1.
<mgrwt>
<rscale>  1 0.71778392E+03</rscale>
<asrwt>0</asrwt>
<pdfrwt beam="1">  1       21 0.93937952E-01 0.10300787E+04</pdfrwt>
<pdfrwt beam="2">  1        4 0.16009084E+00 0.10300787E+04</pdfrwt>
<totfact> 0.88545937E+00</totfact>
</mgrwt>
</event>
<event>
 6    1  0.1431486E-005  0.9539490E+03  0.7818608E-02  0.9732217E-01
         21   -1    0    0  501  502  0.00000000000E+00  0.00000000000E+00  0.21101232873E+03  0.21101232873E+03  0.00000000000E+00 0.  1.
          4   -1    0    0  502    0 -0.00000000000E+00 -0.00000000000E+00 -0.17733003713E+04  0.17733003713E+04  0.00000000000E+00 0.  1.
    9000010    2    1    2  501    0 -0.24111415035E+03 -0.10526509302E+03 -0.11364459925E+04  0.14837547753E+04  0.91695254287E+03 0.  0.
        -13    1    3    3    0    0 -0.23877203070E+03 -0.18115152952E+03  0.42196976322E+02  0.30266905238E+03  0.10566000000E+00 0.  1.
          4    1    3    3  501    0 -0.23421196556E+01  0.75886436505E+02 -0.11786429689E+04  0.11810857229E+04  0.00000000000E+00 0.  1.
         13    1    1    2    0    0  0.24111415035E+03  0.10526509302E+03 -0.42584205002E+03  0.50055792476E+03  0.10566000000E+00 0. -1.
<mgrwt>
<rscale>  1 0.69130596E+03</rscale>
<asrwt>0</asrwt>
<pdfrwt beam="1">  1       21 0.32463436E-01 0.95394902E+03</pdfrwt>
<pdfrwt beam="2">  1        4 0.27281544E+00 0.95394902E+03</pdfrwt>
<totfact> 0.17111118E+01</totfact>
</mgrwt>
</event>
<event>
 6    1  0.1431486E-005  0.1018247E+04  0.7818608E-02  0.9795038E-01
          4   -1    0    0  502    0 -0.00000000000E+00  0.00000000000E+00  0.53437733462E+03  0.53437733462E+03  0.00000000000E+00 0.  1.
         21   -1    0    0  501  502  0.00000000000E+00 -0.00000000000E+00 -0.70497264750E+03  0.70497264750E+03  0.00000000000E+00 0.  1.
    9000010    2    1    2  501    0  0.89910648314E+02  0.15098322578E+03 -0.24692890194E+03  0.10477600890E+04  0.10029693228E+04 0.  0.
        -13    1    3    3    0    0 -0.35682677551E+03 -0.19308264324E+03 -0.26326608934E+03  0.48364790892E+03  0.10566000000E+00 0.  1.
          4    1    3    3  501    0  0.44673742382E+03  0.34406586903E+03  0.16337187397E+02  0.56411218012E+03  0.00000000000E+00 0.  1.
         13    1    1    2    0    0 -0.89910648314E+02 -0.15098322578E+03  0.76333589056E+02  0.19158989308E+03  0.10566000000E+00 0. -1.
<mgrwt>
<rscale>  1 0.65629538E+03</rscale>
<asrwt>0</asrwt>
<pdfrwt beam="2">  1       21 0.10845733E+00 0.10182472E+04</pdfrwt>
<pdfrwt beam="1">  1        4 0.82211898E-01 0.10182472E+04</pdfrwt>
<totfact> 0.32863723E+01</totfact>
</mgrwt>
</event>
<event>
 6    1  0.1431486E-005  0.1038833E+04  0.7818608E-02  0.9671150E-01
         21   -1    0    0  501  502  0.00000000000E+00  0.00000000000E+00  0.56363404475E+03  0.56363404475E+03  0.00000000000E+00 0.  1.
          4   -1    0    0  502    0 -0.00000000000E+00 -0.00000000000E+00 -0.78060673959E+03  0.78060673959E+03  0.00000000000E+00 0.  1.
    9000010    2    1    2  501    0  0.76948808669E+02 -0.23787035508E+03 -0.43119712510E+02  0.10397275734E+04  0.10083008938E+04 0.  0.
        -13    1    3    3    0    0  0.23032638874E+03 -0.44011518387E+03  0.32424682334E+03  0.59320117501E+03  0.10566000000E+00 0.  1.
          4    1    3    3  501    0 -0.15337758007E+03  0.20224482879E+03 -0.36736653585E+03  0.44652639843E+03  0.00000000000E+00 0.  1.
         13    1    1    2    0    0 -0.76948808669E+02  0.23787035508E+03 -0.17385298233E+03  0.30451321090E+03  0.10566000000E+00 0. -1.
<mgrwt>
<rscale>  1 0.72760773E+03</rscale>
<asrwt>0</asrwt>
<pdfrwt beam="1">  1       21 0.86712930E-01 0.10388331E+04</pdfrwt>
<pdfrwt beam="2">  1        4 0.12009334E+00 0.10388331E+04</pdfrwt>
<totfact> 0.22841916E+01</totfact>
</mgrwt>
</event>
<event>
 6    1  0.1431486E-005  0.1086326E+04  0.7818608E-02  0.9645619E-01
          4   -1    0    0  502    0 -0.00000000000E+00  0.00000000000E+00  0.27487510534E+03  0.27487510534E+03  0.00000000000E+00 0.  1.
         21   -1    0    0  501  502  0.00000000000E+00 -0.00000000000E+00 -0.17849323956E+04  0.17849323956E+04  0.00000000000E+00 0.  1.
    9000010    2    1    2  501    0 -0.13549182702E+03  0.19609748203E+03 -0.14539170812E+04  0.18149320390E+04  0.10598543151E+04 0.  0.
        -13    1    3    3    0    0 -0.22952125090E+03 -0.28183970547E+03 -0.10136669013E+03  0.37734445965E+03  0.10566000000E+00 0.  1.
          4    1    3    3  501    0  0.94029423879E+02  0.47793718750E+03 -0.13525503911E+04  0.14375875793E+04  0.00000000000E+00 0.  1.
         13    1    1    2    0    0  0.13549182702E+03 -0.19609748203E+03 -0.56140209043E+02  0.24487546199E+03  0.10566000000E+00 0. -1.
<mgrwt>
<rscale>  1 0.74349028E+03</rscale>
<asrwt>0</asrwt>
<pdfrwt beam="2">  1       21 0.27460498E+00 0.10863257E+04</pdfrwt>
<pdfrwt beam="1">  1        4 0.42288479E-01 0.10863257E+04</pdfrwt>
<totfact> 0.81885055E+00</totfact>
</mgrwt>
</event>
<event>
 6    1  0.1431486E-005  0.1014280E+04  0.7818608E-02  0.9906930E-01
          4   -1    0    0  502    0 -0.00000000000E+00  0.00000000000E+00  0.70205879541E+03  0.70205879541E+03  0.00000000000E+00 0.  1.
         21   -1    0    0  501  502  0.00000000000E+00 -0.00000000000E+00 -0.61257802840E+03  0.61257802840E+03  0.00000000000E+00 0.  1.
    9000010    2    1    2  501    0  0.29146102090E+02 -0.12011008594E+03 -0.16887138969E+03  0.10282423824E+04  0.10067218696E+04 0.  0.
        -13    1    3    3    0    0 -0.21524137852E+03 -0.31663603235E+03  0.28448504425E+03  0.47698949629E+03  0.10566000000E+00 0.  1.
          4    1    3    3  501    0  0.24438748061E+03  0.19652594640E+03 -0.45335643394E+03  0.55125288615E+03  0.00000000000E+00 0.  1.
         13    1    1    2    0    0 -0.29146102090E+02  0.12011008594E+03  0.25835215670E+03  0.28639444137E+03  0.10566000000E+00 0. -1.
<mgrwt>
<rscale>  1 0.59926586E+03</rscale>
<asrwt>0</asrwt>
<pdfrwt beam="2">  1       21 0.94242774E-01 0.10142805E+04</pdfrwt>
<pdfrwt beam="1">  1        4 0.10800905E+00 0.10142805E+04</pdfrwt>
<totfact> 0.24350237E+01</totfact>
</mgrwt>
</event>
<event>
 6    1  0.1431486E-005  0.1017938E+04  0.7818608E-02  0.9800134E-01
          4   -1    0    0  502    0 -0.00000000000E+00  0.00000000000E+00  0.75443339611E+03  0.75443339611E+03  0.00000000000E+00 0.  1.
         21   -1    0    0  501  502  0.00000000000E+00 -0.00000000000E+00 -0.50395083741E+03  0.50395083741E+03  0.00000000000E+00 0.  1.
    9000010    2    1    2  501    0  0.70471610007E+02  0.15795840524E+03  0.89112916667E+02  0.10218313258E+04  0.10031356045E+04 0.  0.
        -13    1    3    3    0    0  0.20933229925E+03  0.27640629929E+03 -0.38242267886E+03  0.51620496924E+03  0.10566000000E+00 0.  1.
          4    1    3    3  501    0 -0.13886068925E+03 -0.11844789405E+03  0.47153559553E+03  0.50562635659E+03  0.00000000000E+00 0.  1.
         13    1    1    2    0    0 -0.70471610007E+02 -0.15795840524E+03  0.16136964203E+03  0.23655290769E+03  0.10566000000E+00 0. -1.
<mgrwt>
<rscale>  1 0.65355331E+03</rscale>
<asrwt>0</asrwt>
<pdfrwt beam="2">  1       21 0.77530898E-01 0.10179382E+04</pdfrwt>
<pdfrwt beam="1">  1        4 0.11606668E+00 0.10179382E+04</pdfrwt>
<totfact> 0.32483358E+01</totfact>
</mgrwt>
</event>
<event>
 6    1  0.1431486E-005  0.1156185E+04  0.7818608E-02  0.9325857E-01
          4   -1    0    0  502    0 -0.00000000000E+00  0.00000000000E+00  0.18808177202E+04  0.18808177202E+04  0.00000000000E+00 0.  1.
         21   -1    0    0  501  502  0.00000000000E+00 -0.00000000000E+00 -0.42011378328E+03  0.42011378328E+03  0.00000000000E+00 0.  1.
    9000010    2    1    2  501    0 -0.39352341080E+03 -0.46281745381E+03  0.81628635212E+03  0.14153047733E+04  0.98371922945E+03 0.  0.
        -13    1    3    3    0    0 -0.54069504515E+03 -0.66075730506E+03  0.42739324988E+03  0.95478602275E+03  0.10566000000E+00 0.  1.
          4    1    3    3  501    0  0.14717163435E+03  0.19793985125E+03  0.38889310224E+03  0.46051875059E+03  0.00000000000E+00 0.  1.
         13    1    1    2    0    0  0.39352341080E+03  0.46281745381E+03  0.64441758484E+03  0.88562673018E+03  0.10566000000E+00 0. -1.
<mgrwt>
<rscale>  1 0.98436865E+03</rscale>
<asrwt>0</asrwt>
<pdfrwt beam="2">  1       21 0.64632891E-01 0.11561852E+04</pdfrwt>
<pdfrwt beam="1">  1        4 0.28935657E+00 0.11561852E+04</pdfrwt>
<totfact> 0.30207696E+00</totfact>
</mgrwt>
</event>
<event>
 6    1  0.1431486E-005  0.1084962E+04  0.7818608E-02  0.9479956E-01
          4   -1    0    0  502    0 -0.00000000000E+00  0.00000000000E+00  0.22544320171E+04  0.22544320171E+04  0.00000000000E+00 0.  1.
         21   -1    0    0  501  502  0.00000000000E+00 -0.00000000000E+00 -0.44905515753E+03  0.44905515753E+03  0.00000000000E+00 0.  1.
    9000010    2    1    2  501    0 -0.61824296841E+02  0.41936071291E+03  0.28028512788E+03  0.11205814755E+04  0.99872791040E+03 0.  0.
        -13    1    3    3    0    0  0.37414702262E+03  0.44497586716E+03  0.34960635201E+03  0.67839083825E+03  0.10566000000E+00 0.  1.
          4    1    3    3  501    0 -0.43597131946E+03 -0.25615154253E+02 -0.69321224128E+02  0.44219063721E+03  0.00000000000E+00 0.  1.
         13    1    1    2    0    0  0.61824296841E+02 -0.41936071291E+03  0.15250917317E+04  0.15829056991E+04  0.10566000000E+00 0. -1.
<mgrwt>
<rscale>  1 0.85777849E+03</rscale>
<asrwt>0</asrwt>
<pdfrwt beam="2">  1       21 0.69085410E-01 0.10849623E+04</pdfrwt>
<pdfrwt beam="1">  1        4 0.34683569E+00 0.10849623E+04</pdfrwt>
<totfact> 0.11392204E+00</totfact>
</mgrwt>
</event>
<event>
 6    1  0.1431486E-005  0.1310135E+04  0.7818608E-02  0.9138704E-01
          4   -1    0    0  502    0 -0.00000000000E+00  0.00000000000E+00  0.62374021696E+03  0.62374021696E+03  0.00000000000E+00 0.  1.
         21   -1    0    0  501  502  0.00000000000E+00 -0.00000000000E+00 -0.18576288433E+04  0.18576288433E+04  0.00000000000E+00 0.  1.
    9000010    2    1    2  501    0 -0.49442049784E+03 -0.67399235623E+03 -0.84860168406E+03  0.15609542820E+04  0.10088290873E+04 0.  0.
        -13    1    3    3    0    0  0.53393708005E+02  0.12923968959E+03  0.12315058120E+03  0.18633266550E+03  0.10566000000E+00 0.  1.
          4    1    3    3  501    0 -0.54781420584E+03 -0.80323204583E+03 -0.97175226525E+03  0.13746216165E+04  0.00000000000E+00 0.  1.
         13    1    1    2    0    0  0.49442049784E+03  0.67399235623E+03 -0.38528694227E+03  0.92041477824E+03  0.10566000000E+00 0. -1.
<mgrwt>
<rscale>  1 0.11709132E+04</rscale>
<asrwt>0</asrwt>
<pdfrwt beam="2">  1       21 0.28578905E+00 0.13101349E+04</pdfrwt>
<pdfrwt beam="1">  1        4 0.95960034E-01 0.13101349E+04</pdfrwt>
<totfact> 0.10984618E+00</totfact>
</mgrwt>
</event>
<event>
 6    1  0.1431486E-005  0.1207797E+04  0.7818608E-02  0.9261699E-01
          4   -1    0    0  502    0 -0.00000000000E+00  0.00000000000E+00  0.18119900914E+04  0.18119900914E+04  0.00000000000E+00 0.  1.
         21   -1    0    0  501  502  0.00000000000E+00 -0.00000000000E+00 -0.94107150422E+03  0.94107150422E+03  0.00000000000E+00 0.  1.
    9000010    2    1    2  501    0 -0.59768875637E+03  0.31131719322E+03 -0.43481184007E+03  0.12836800236E+04  0.10023087461E+04 0.  0.
        -13    1    3    3    0    0 -0.60879063304E+03  0.60592047486E+03 -0.48228350223E+03  0.98507007081E+03  0.10566000000E+00 0.  1.
          4    1    3    3  501    0  0.11101876670E+02 -0.29460328164E+03  0.47471662159E+02  0.29860995282E+03  0.00000000000E+00 0.  1.
         13    1    1    2    0    0  0.59768875637E+03 -0.31131719322E+03  0.13057304273E+04  0.14693815720E+04  0.10566000000E+00 0. -1.
<mgrwt>
<rscale>  1 0.10438674E+04</rscale>
<asrwt>0</asrwt>
<pdfrwt beam="2">  1       21 0.14478023E+00 0.12077968E+04</pdfrwt>
<pdfrwt beam="1">  1        4 0.27876771E+00 0.12077968E+04</pdfrwt>
<totfact> 0.47138877E-01</totfact>
</mgrwt>
</event>
<event>
 6    1  0.1431486E-005  0.1006796E+04  0.7818608E-02  0.1019368E+00
          4   -1    0    0  502    0 -0.00000000000E+00  0.00000000000E+00  0.10390788647E+04  0.10390788647E+04  0.00000000000E+00 0.  1.
         21   -1    0    0  501  502  0.00000000000E+00 -0.00000000000E+00 -0.27845588613E+03  0.27845588613E+03  0.00000000000E+00 0.  1.
    9000010    2    1    2  501    0  0.24311244832E+02 -0.45571703594E+02  0.76675033928E+03  0.12655215554E+04  0.10054704906E+04 0.  0.
        -13    1    3    3    0    0  0.47930564706E+03 -0.20200347441E+03  0.46430796212E+03  0.69722392517E+03  0.10566000000E+00 0.  1.
          4    1    3    3  501    0 -0.45499440223E+03  0.15643177082E+03  0.30244237716E+03  0.56829763019E+03  0.00000000000E+00 0.  1.
         13    1    1    2    0    0 -0.24311244832E+02  0.45571703594E+02 -0.61273606762E+01  0.52013195505E+02  0.10566000000E+00 0. -1.
<mgrwt>
<rscale>  1 0.47915495E+03</rscale>
<asrwt>0</asrwt>
<pdfrwt beam="2">  1       21 0.42839368E-01 0.10067963E+04</pdfrwt>
<pdfrwt beam="1">  1        4 0.15985828E+00 0.10067963E+04</pdfrwt>
<totfact> 0.52523914E+01</totfact>
</mgrwt>
</event>
<event>
 6    1  0.1431486E-005  0.1085933E+04  0.7818608E-02  0.9399460E-01
          4   -1    0    0  502    0 -0.00000000000E+00  0.00000000000E+00  0.49138555132E+03  0.49138555132E+03  0.00000000000E+00 0.  1.
         21   -1    0    0  501  502  0.00000000000E+00 -0.00000000000E+00 -0.22573251509E+04  0.22573251509E+04  0.00000000000E+00 0.  1.
    9000010    2    1    2  501    0 -0.21122259427E+03 -0.52117640170E+03 -0.18835709633E+04  0.21741874434E+04  0.92898419753E+03 0.  0.
        -13    1    3    3    0    0 -0.57084723090E+03 -0.21564416829E+03 -0.11517319097E+04  0.13034014621E+04  0.10566000000E+00 0.  1.
          4    1    3    3  501    0  0.35962463662E+03 -0.30553223341E+03 -0.73183905357E+03  0.87078598131E+03  0.00000000000E+00 0.  1.
         13    1    1    2    0    0  0.21122259427E+03  0.52117640170E+03  0.11763136372E+03  0.57452325881E+03  0.10566000000E+00 0. -1.
<mgrwt>
<rscale>  1 0.92120117E+03</rscale>
<asrwt>0</asrwt>
<pdfrwt beam="2">  1       21 0.34728079E+00 0.10859335E+04</pdfrwt>
<pdfrwt beam="1">  1        4 0.75597779E-01 0.10859335E+04</pdfrwt>
<totfact> 0.81887047E-01</totfact>
</mgrwt>
</event>
<event>
 6    1  0.1431486E-005  0.1017268E+04  0.7818608E-02  0.9919776E-01
          4   -1    0    0  502    0 -0.00000000000E+00  0.00000000000E+00  0.63240311004E+03  0.63240311004E+03  0.00000000000E+00 0.  1.
         21   -1    0    0  501  502  0.00000000000E+00 -0.00000000000E+00 -0.51318345343E+03  0.51318345343E+03  0.00000000000E+00 0.  1.
    9000010    2    1    2  501    0  0.37351578410E+02 -0.11147260894E+03  0.13781536295E+03  0.10265609594E+04  0.10104519020E+04 0.  0.
        -13    1    3    3    0    0  0.24213139643E+03  0.26763884275E+03  0.38670513194E+03  0.52896033265E+03  0.10566000000E+00 0.  1.
          4    1    3    3  501    0 -0.20477981802E+03 -0.37911145170E+03 -0.24888976899E+03  0.49760062679E+03  0.00000000000E+00 0.  1.
         13    1    1    2    0    0 -0.37351578410E+02  0.11147260894E+03 -0.18595706333E+02  0.11902560402E+03  0.10566000000E+00 0. -1.
<mgrwt>
<rscale>  1 0.59312360E+03</rscale>
<asrwt>0</asrwt>
<pdfrwt beam="2">  1       21 0.78951300E-01 0.10172681E+04</pdfrwt>
<pdfrwt beam="1">  1        4 0.97292787E-01 0.10172681E+04</pdfrwt>
<totfact> 0.47922597E+01</totfact>
</mgrwt>
</event>
<event>
 6    1  0.1431486E-005  0.1137941E+04  0.7818608E-02  0.9365957E-01
          4   -1    0    0  502    0 -0.00000000000E+00  0.00000000000E+00  0.37640401965E+03  0.37640401965E+03  0.00000000000E+00 0.  1.
         21   -1    0    0  501  502  0.00000000000E+00 -0.00000000000E+00 -0.21393597855E+04  0.21393597855E+04  0.00000000000E+00 0.  1.
    9000010    2    1    2  501    0  0.52211198382E+03 -0.17654956457E+03 -0.15545260066E+04  0.19265154296E+04  0.99556010512E+03 0.  0.
        -13    1    3    3    0    0  0.52734577814E+03  0.26532479685E+03 -0.12711950128E+04  0.14015803899E+04  0.10566000000E+00 0.  1.
          4    1    3    3  501    0 -0.52337943260E+01 -0.44187436142E+03 -0.28333099377E+03  0.52493503971E+03  0.00000000000E+00 0.  1.
         13    1    1    2    0    0 -0.52211198382E+03  0.17654956457E+03 -0.20842975929E+03  0.58924837558E+03  0.10566000000E+00 0. -1.
<mgrwt>
<rscale>  1 0.94931021E+03</rscale>
<asrwt>0</asrwt>
<pdfrwt beam="2">  1       21 0.32913227E+00 0.11379414E+04</pdfrwt>
<pdfrwt beam="1">  1        4 0.57908311E-01 0.11379414E+04</pdfrwt>
<totfact> 0.19073123E+00</totfact>
</mgrwt>
</event>
<event>
 6    1  0.1431486E-005  0.1032933E+04  0.7818608E-02  0.9643402E-01
          4   -1    0    0  502    0 -0.00000000000E+00  0.00000000000E+00  0.74344772331E+03  0.74344772331E+03  0.00000000000E+00 0.  1.
         21   -1    0    0  501  502  0.00000000000E+00 -0.00000000000E+00 -0.71357943630E+03  0.71357943630E+03  0.00000000000E+00 0.  1.
    9000010    2    1    2  501    0 -0.58865904691E+02  0.27307887849E+03 -0.24877085610E+03  0.10624678461E+04  0.99444140936E+03 0.  0.
        -13    1    3    3    0    0  0.26772248620E+03  0.54484373022E+03 -0.16924531159E+03  0.63021742806E+03  0.10566000000E+00 0.  1.
          4    1    3    3  501    0 -0.32658839089E+03 -0.27176485173E+03 -0.79525544510E+02  0.43225041808E+03  0.00000000000E+00 0.  1.
         13    1    1    2    0    0  0.58865904691E+02 -0.27307887849E+03  0.27863914311E+03  0.39455931347E+03  0.10566000000E+00 0. -1.
<mgrwt>
<rscale>  1 0.74488965E+03</rscale>
<asrwt>0</asrwt>
<pdfrwt beam="2">  1       21 0.10978145E+00 0.10329332E+04</pdfrwt>
<pdfrwt beam="1">  1        4 0.11437657E+00 0.10329332E+04</pdfrwt>
<totfact> 0.14429141E+01</totfact>
</mgrwt>
</event>
<event>
 6    1  0.1431486E-005  0.1083472E+04  0.7818608E-02  0.9483110E-01
          4   -1    0    0  502    0 -0.00000000000E+00  0.00000000000E+00  0.62276626296E+03  0.62276626296E+03  0.00000000000E+00 0.  1.
         21   -1    0    0  501  502  0.00000000000E+00 -0.00000000000E+00 -0.12216326521E+04  0.12216326521E+04  0.00000000000E+00 0.  1.
    9000010    2    1    2  501    0  0.38755502056E+03 -0.16432751238E+03 -0.82937131469E+03  0.13644666729E+04  0.99835369407E+03 0.  0.
        -13    1    3    3    0    0  0.46726918918E+03  0.21940933596E+03 -0.84930447087E+02  0.52315785751E+03  0.10566000000E+00 0.  1.
          4    1    3    3  501    0 -0.79714168621E+02 -0.38373684834E+03 -0.74444086761E+03  0.84130881537E+03  0.00000000000E+00 0.  1.
         13    1    1    2    0    0 -0.38755502056E+03  0.16432751238E+03  0.23050492551E+03  0.47993224224E+03  0.10566000000E+00 0. -1.
<mgrwt>
<rscale>  1 0.85540565E+03</rscale>
<asrwt>0</asrwt>
<pdfrwt beam="2">  1       21 0.18794348E+00 0.10834724E+04</pdfrwt>
<pdfrwt beam="1">  1        4 0.95810195E-01 0.10834724E+04</pdfrwt>
<totfact> 0.49884592E+00</totfact>
</mgrwt>
</event>
<event>
 6    1  0.1431486E-005  0.9620779E+03  0.7818608E-02  0.9962017E-01
          4   -1    0    0  502    0 -0.00000000000E+00  0.00000000000E+00  0.49591948029E+03  0.49591948029E+03  0.00000000000E+00 0.  1.
         21   -1    0    0  501  502  0.00000000000E+00 -0.00000000000E+00 -0.88811160982E+03  0.88811160982E+03  0.00000000000E+00 0.  1.
    9000010    2    1    2  501    0  0.10666563960E+02  0.12098944213E+03 -0.60678816925E+03  0.11374470433E+04  0.95438025618E+03 0.  0.
        -13    1    3    3    0    0  0.17837314397E+03  0.20938732934E+03  0.17961609366E+03  0.32851481617E+03  0.10566000000E+00 0.  1.
          4    1    3    3  501    0 -0.16770658001E+03 -0.88397887214E+02 -0.78640426291E+03  0.80893222718E+03  0.00000000000E+00 0.  1.
         13    1    1    2    0    0 -0.10666563960E+02 -0.12098944213E+03  0.21459603972E+03  0.24658404677E+03  0.10566000000E+00 0. -1.
<mgrwt>
<rscale>  1 0.57347554E+03</rscale>
<asrwt>0</asrwt>
<pdfrwt beam="2">  1       21 0.13663256E+00 0.96207790E+03</pdfrwt>
<pdfrwt beam="1">  1        4 0.76295305E-01 0.96207790E+03</pdfrwt>
<totfact> 0.21490375E+01</totfact>
</mgrwt>
</event>
<event>
 6    1  0.1431486E-005  0.1008833E+04  0.7818608E-02  0.9906070E-01
          4   -1    0    0  502    0 -0.00000000000E+00  0.00000000000E+00  0.12719285289E+04  0.12719285289E+04  0.00000000000E+00 0.  1.
         21   -1    0    0  501  502  0.00000000000E+00 -0.00000000000E+00 -0.25471144382E+03  0.25471144382E+03  0.00000000000E+00 0.  1.
    9000010    2    1    2  501    0  0.10886184845E+03  0.63357550017E+02  0.94004052726E+03  0.13789195833E+04  0.10009385312E+04 0.  0.
        -13    1    3    3    0    0 -0.23535532877E+03  0.41210168679E+03  0.66507865320E+03  0.81703705984E+03  0.10566000000E+00 0.  1.
          4    1    3    3  501    0  0.34421717722E+03 -0.34874413678E+03  0.27496187406E+03  0.56188252350E+03  0.00000000000E+00 0.  1.
         13    1    1    2    0    0 -0.10886184845E+03 -0.63357550017E+02  0.77176557772E+02  0.14772038934E+03  0.10566000000E+00 0. -1.
<mgrwt>
<rscale>  1 0.59968016E+03</rscale>
<asrwt>0</asrwt>
<pdfrwt beam="2">  1       21 0.39186377E-01 0.10088325E+04</pdfrwt>
<pdfrwt beam="1">  1        4 0.19568131E+00 0.10088325E+04</pdfrwt>
<totfact> 0.35428992E+01</totfact>
</mgrwt>
</event>
<event>
 6    1  0.1431486E-005  0.9823744E+03  0.7818608E-02  0.9794450E-01
         21   -1    0    0  501  502  0.00000000000E+00  0.00000000000E+00  0.26178090686E+03  0.26178090686E+03  0.00000000000E+00 0.  1.
          4   -1    0    0  502    0 -0.00000000000E+00 -0.00000000000E+00 -0.13545714548E+04  0.13545714548E+04  0.00000000000E+00 0.  1.
    9000010    2    1    2  501    0 -0.16010135677E+03  0.11318087367E+03 -0.99114832197E+03  0.13955051116E+04  0.96260956038E+03 0.  0.
        -13    1    3    3    0    0 -0.32661996450E+03  0.11639987916E+03 -0.11279070357E+04  0.11800016209E+04  0.10566000000E+00 0.  1.
          4    1    3    3  501    0  0.16651860773E+03 -0.32190054846E+01  0.13675871371E+03  0.21550349067E+03  0.00000000000E+00 0.  1.
         13    1    1    2    0    0  0.16010135677E+03 -0.11318087367E+03 -0.10164222598E+03  0.22084725008E+03  0.10566000000E+00 0. -1.
<mgrwt>
<rscale>  1 0.65661244E+03</rscale>
<asrwt>0</asrwt>
<pdfrwt beam="1">  1       21 0.40273986E-01 0.98237443E+03</pdfrwt>
<pdfrwt beam="2">  1        4 0.20839561E+00 0.98237443E+03</pdfrwt>
<totfact> 0.27655675E+01</totfact>
</mgrwt>
</event>
<event>
 6    1  0.1431486E-005  0.1031014E+04  0.7818608E-02  0.9672738E-01
         21   -1    0    0  501  502  0.00000000000E+00  0.00000000000E+00  0.15835044740E+04  0.15835044740E+04  0.00000000000E+00 0.  1.
          4   -1    0    0  502    0 -0.00000000000E+00 -0.00000000000E+00 -0.33540786937E+03  0.33540786937E+03  0.00000000000E+00 0.  1.
    9000010    2    1    2  501    0 -0.25329450249E+03 -0.23395900300E+02  0.13000862599E+04  0.16592810498E+04  0.99914155454E+03 0.  0.
        -13    1    3    3    0    0  0.19375260795E+02  0.42950190616E+03  0.89624870012E+03  0.99403673561E+03  0.10566000000E+00 0.  1.
          4    1    3    3  501    0 -0.27266976329E+03 -0.45289780646E+03  0.40383755978E+03  0.66524431422E+03  0.00000000000E+00 0.  1.
         13    1    1    2    0    0  0.25329450249E+03  0.23395900300E+02 -0.51989655309E+02  0.25963129350E+03  0.10566000000E+00 0. -1.
<mgrwt>
<rscale>  1 0.72663443E+03</rscale>
<asrwt>0</asrwt>
<pdfrwt beam="1">  1       21 0.24361607E+00 0.10310137E+04</pdfrwt>
<pdfrwt beam="2">  1        4 0.51601212E-01 0.10310137E+04</pdfrwt>
<totfact> 0.85523934E+00</totfact>
</mgrwt>
</event>
<event>
 6    1  0.1431486E-005  0.1053766E+04  0.7818608E-02  0.9545217E-01
         21   -1    0    0  501  502  0.00000000000E+00  0.00000000000E+00  0.43498711064E+03  0.43498711064E+03  0.00000000000E+00 0.  1.
          4   -1    0    0  502    0 -0.00000000000E+00 -0.00000000000E+00 -0.12551026502E+04  0.12551026502E+04  0.00000000000E+00 0.  1.
    9000010    2    1    2  501    0  0.34545778046E+03  0.12808589130E+03 -0.38969801899E+03  0.11235155585E+04  0.98725659809E+03 0.  0.
        -13    1    3    3    0    0 -0.32267112825E+03  0.57883232462E+02  0.33493431000E+02  0.32952837008E+03  0.10566000000E+00 0.  1.
          4    1    3    3  501    0  0.66812890871E+03  0.70202658837E+02 -0.42319144999E+03  0.79398718838E+03  0.00000000000E+00 0.  1.
         13    1    1    2    0    0 -0.34545778046E+03 -0.12808589130E+03 -0.43041752062E+03  0.56657420242E+03  0.10566000000E+00 0. -1.
<mgrwt>
<rscale>  1 0.81030671E+03</rscale>
<asrwt>0</asrwt>
<pdfrwt beam="1">  1       21 0.66921094E-01 0.10537659E+04</pdfrwt>
<pdfrwt beam="2">  1        4 0.19309272E+00 0.10537659E+04</pdfrwt>
<totfact> 0.11461021E+01</totfact>
</mgrwt>
</event>
<event>
 6    1  0.1431486E-005  0.1084610E+04  0.7818608E-02  0.9448985E-01
          4   -1    0    0  502    0 -0.00000000000E+00  0.00000000000E+00  0.14129943620E+04  0.14129943620E+04  0.00000000000E+00 0.  1.
         21   -1    0    0  501  502  0.00000000000E+00 -0.00000000000E+00 -0.42963547981E+03  0.42963547981E+03  0.00000000000E+00 0. -1.
    9000010    2    1    2  501    0 -0.45664716473E+03 -0.12430731911E+03  0.70427722327E+03  0.12932069390E+04  0.97590923615E+03 0.  0.
        -13    1    3    3    0    0  0.19749751891E+03 -0.31108944919E+03  0.96373250944E+02  0.38088020431E+03  0.10566000000E+00 0.  1.
          4    1    3    3  501    0 -0.65414468363E+03  0.18678213009E+03  0.60790397233E+03  0.91232673468E+03  0.00000000000E+00 0.  1.
         13    1    1    2    0    0  0.45664716473E+03  0.12430731911E+03  0.27908165892E+03  0.54942290282E+03  0.10566000000E+00 0. -1.
<mgrwt>
<rscale>  1 0.88151765E+03</rscale>
<asrwt>0</asrwt>
<pdfrwt beam="2">  1       21 0.66097767E-01 0.10846095E+04</pdfrwt>
<pdfrwt beam="1">  1        4 0.21738375E+00 0.10846095E+04</pdfrwt>
<totfact> 0.81374634E+00</totfact>
</mgrwt>
</event>
<event>
 6    1  0.1431486E-005  0.9303160E+03  0.7818608E-02  0.9963408E-01
         21   -1    0    0  501  502  0.00000000000E+00  0.00000000000E+00  0.22927077127E+03  0.22927077127E+03  0.00000000000E+00 0.  1.
          4   -1    0    0  502    0 -0.00000000000E+00 -0.00000000000E+00 -0.12986866324E+04  0.12986866324E+04  0.00000000000E+00 0.  1.
    9000010    2    1    2  501    0 -0.13221505907E+03  0.20114515642E+02 -0.10312713628E+04  0.13888875310E+04  0.92065331933E+03 0.  0.
        -13    1    3    3    0    0 -0.11436242617E+03 -0.13395249204E+03  0.12898553961E+03  0.21831013544E+03  0.10566000000E+00 0.  1.
          4    1    3    3  501    0 -0.17852632892E+02  0.15406700768E+03 -0.11602569024E+04  0.11705773955E+04  0.00000000000E+00 0.  1.
         13    1    1    2    0    0  0.13221505907E+03 -0.20114515642E+02 -0.38144498386E+02  0.13906987274E+03  0.10566000000E+00 0. -1.
<mgrwt>
<rscale>  1 0.57284266E+03</rscale>
<asrwt>0</asrwt>
<pdfrwt beam="1">  1       21 0.35272427E-01 0.93031605E+03</pdfrwt>
<pdfrwt beam="2">  1        4 0.19979794E+00 0.93031605E+03</pdfrwt>
<totfact> 0.41663462E+01</totfact>
</mgrwt>
</event>
<event>
 6    1  0.1431486E-005  0.1007393E+04  0.7818608E-02  0.9802628E-01
         21   -1    0    0  501  502  0.00000000000E+00  0.00000000000E+00  0.12632439664E+04  0.12632439664E+04  0.00000000000E+00 0.  1.
          4   -1    0    0  502    0 -0.00000000000E+00 -0.00000000000E+00 -0.43793063143E+03  0.43793063143E+03  0.00000000000E+00 0.  1.
    9000010    2    1    2  501    0 -0.16566469025E+03  0.62321564738E+02  0.10230556079E+04  0.14357866088E+04  0.99172155481E+03 0.  0.
        -13    1    3    3    0    0 -0.90396340335E+02  0.52717256725E+03  0.58457884929E+03  0.79234768644E+03  0.10566000000E+00 0.  1.
          4    1    3    3  501    0 -0.75268349920E+02 -0.46485100251E+03  0.43847675856E+03  0.64343892237E+03  0.00000000000E+00 0.  1.
         13    1    1    2    0    0  0.16566469025E+03 -0.62321564738E+02 -0.19774227292E+03  0.26538798897E+03  0.10566000000E+00 0. -1.
<mgrwt>
<rscale>  1 0.65221696E+03</rscale>
<asrwt>0</asrwt>
<pdfrwt beam="1">  1       21 0.19434522E+00 0.10073929E+04</pdfrwt>
<pdfrwt beam="2">  1        4 0.67373944E-01 0.10073929E+04</pdfrwt>
<totfact> 0.10217640E+01</totfact>
</mgrwt>
</event>
<event>
 6    1  0.1431486E-005  0.1085733E+04  0.7818608E-02  0.9547853E-01
          4   -1    0    0  502    0 -0.00000000000E+00  0.00000000000E+00  0.10089718426E+04  0.10089718426E+04  0.00000000000E+00 0.  1.
         21   -1    0    0  501  502  0.00000000000E+00 -0.00000000000E+00 -0.49977793233E+03  0.49977793233E+03  0.00000000000E+00 0.  1.
    9000010    2    1    2  501    0  0.23639630649E+03  0.23564329559E+03  0.36905834122E+03  0.11467429168E+04  0.10331525935E+04 0.  0.
        -13    1    3    3    0    0  0.49028610421E+03  0.50924965058E+03  0.18574563180E+03  0.73090158126E+03  0.10566000000E+00 0.  1.
          4    1    3    3  501    0 -0.25388979772E+03 -0.27360635499E+03  0.18331270942E+03  0.41584133550E+03  0.00000000000E+00 0.  1.
         13    1    1    2    0    0 -0.23639630649E+03 -0.23564329559E+03  0.14013556904E+03  0.36200685816E+03  0.10566000000E+00 0. -1.
<mgrwt>
<rscale>  1 0.80845930E+03</rscale>
<asrwt>0</asrwt>
<pdfrwt beam="2">  1       21 0.76888913E-01 0.10857326E+04</pdfrwt>
<pdfrwt beam="1">  1        4 0.15522644E+00 0.10857326E+04</pdfrwt>
<totfact> 0.15454945E+01</totfact>
</mgrwt>
</event>
<event>
 6    1  0.1431486E-005  0.1041172E+04  0.7818608E-02  0.9497893E-01
          4   -1    0    0  502    0 -0.00000000000E+00  0.00000000000E+00  0.47305129135E+03  0.47305129135E+03  0.00000000000E+00 0.  1.
         21   -1    0    0  501  502  0.00000000000E+00 -0.00000000000E+00 -0.11918430080E+04  0.11918430080E+04  0.00000000000E+00 0.  1.
    9000010    2    1    2  501    0  0.18145874445E+03  0.41224465136E+03 -0.41098739308E+03  0.11193519625E+04  0.93870402693E+03 0.  0.
        -13    1    3    3    0    0  0.16153091864E+03  0.71730024932E+03 -0.28020104673E+03  0.78684466262E+03  0.10566000000E+00 0.  1.
          4    1    3    3  501    0  0.19927825808E+02 -0.30505559795E+03 -0.13078634635E+03  0.33250729988E+03  0.00000000000E+00 0.  1.
         13    1    1    2    0    0 -0.18145874445E+03 -0.41224465136E+03 -0.30780432356E+03  0.54554233684E+03  0.10566000000E+00 0. -1.
<mgrwt>
<rscale>  1 0.84439331E+03</rscale>
<asrwt>0</asrwt>
<pdfrwt beam="2">  1       21 0.18336046E+00 0.10411715E+04</pdfrwt>
<pdfrwt beam="1">  1        4 0.72777123E-01 0.10411715E+04</pdfrwt>
<totfact> 0.10235888E+01</totfact>
</mgrwt>
</event>
<event>
 6    1  0.1431486E-005  0.1019177E+04  0.7818608E-02  0.9812421E-01
          4   -1    0    0  502    0 -0.00000000000E+00  0.00000000000E+00  0.84837121970E+03  0.84837121970E+03  0.00000000000E+00 0.  1.
         21   -1    0    0  501  502  0.00000000000E+00 -0.00000000000E+00 -0.41652988910E+03  0.41652988910E+03  0.00000000000E+00 0.  1.
    9000010    2    1    2  501    0 -0.74588764019E+02  0.14777097471E+03  0.33345425215E+03  0.10723400196E+04  0.10056448850E+04 0.  0.
        -13    1    3    3    0    0 -0.27123957081E+03  0.48175932979E+03 -0.12220715022E+02  0.55300299606E+03  0.10566000000E+00 0.  1.
          4    1    3    3  501    0  0.19665080680E+03 -0.33398835508E+03  0.34567496717E+03  0.51933702359E+03  0.00000000000E+00 0.  1.
         13    1    1    2    0    0  0.74588764019E+02 -0.14777097471E+03  0.98387078458E+02  0.19256108915E+03  0.10566000000E+00 0. -1.
<mgrwt>
<rscale>  1 0.64700180E+03</rscale>
<asrwt>0</asrwt>
<pdfrwt beam="2">  1       21 0.64081521E-01 0.10191768E+04</pdfrwt>
<pdfrwt beam="1">  1        4 0.13051865E+00 0.10191768E+04</pdfrwt>
<totfact> 0.37359914E+01</totfact>
</mgrwt>
</event>
<event>
 6    1  0.1431486E-005  0.1014970E+04  0.7818608E-02  0.9784052E-01
          4   -1    0    0  502    0 -0.00000000000E+00  0.00000000000E+00  0.69286324622E+03  0.69286324622E+03  0.00000000000E+00 0.  1.
         21   -1    0    0  501  502  0.00000000000E+00 -0.00000000000E+00 -0.71982692673E+03  0.71982692673E+03  0.00000000000E+00 0.  1.
    9000010    2    1    2  501    0  0.49205066111E+02  0.17726468332E+03 -0.32215158014E+03  0.10648686473E+04  0.99815814821E+03 0.  0.
        -13    1    3    3    0    0  0.86001994550E+02  0.38948835856E+03  0.23817513138E+03  0.46456961684E+03  0.10566000000E+00 0.  1.
          4    1    3    3  501    0 -0.36796928439E+02 -0.21222367525E+03 -0.56032671152E+03  0.60029903042E+03  0.00000000000E+00 0.  1.
         13    1    1    2    0    0 -0.49205066111E+02 -0.17726468332E+03  0.29518789963E+03  0.34782152569E+03  0.10566000000E+00 0. -1.
<mgrwt>
<rscale>  1 0.66225448E+03</rscale>
<asrwt>0</asrwt>
<pdfrwt beam="2">  1       21 0.11074260E+00 0.10149698E+04</pdfrwt>
<pdfrwt beam="1">  1        4 0.10659435E+00 0.10149698E+04</pdfrwt>
<totfact> 0.16820581E+01</totfact>
</mgrwt>
</event>
<event>
 6    1  0.1431486E-005  0.1011656E+04  0.7818608E-02  0.9786251E-01
         21   -1    0    0  501  502  0.00000000000E+00  0.00000000000E+00  0.41679393604E+03  0.41679393604E+03  0.00000000000E+00 0.  1.
          4   -1    0    0  502    0 -0.00000000000E+00 -0.00000000000E+00 -0.14061027373E+04  0.14061027373E+04  0.00000000000E+00 0.  1.
    9000010    2    1    2  501    0  0.60883273937E+02 -0.17410190576E+03 -0.22463712636E+03  0.10362957401E+04  0.99470034471E+03 0.  0.
        -13    1    3    3    0    0  0.98183397198E+02 -0.11359894584E+03  0.38982219717E+03  0.41773922075E+03  0.10566000000E+00 0.  1.
          4    1    3    3  501    0 -0.37300123260E+02 -0.60502959917E+02 -0.61445932353E+03  0.61855651935E+03  0.00000000000E+00 0.  1.
         13    1    1    2    0    0 -0.60883273937E+02  0.17410190576E+03 -0.76467167489E+03  0.78660093324E+03  0.10566000000E+00 0. -1.
<mgrwt>
<rscale>  1 0.66105641E+03</rscale>
<asrwt>0</asrwt>
<pdfrwt beam="1">  1       21 0.64122144E-01 0.10116556E+04</pdfrwt>
<pdfrwt beam="2">  1        4 0.21632350E+00 0.10116556E+04</pdfrwt>
<totfact> 0.89285978E+00</totfact>
</mgrwt>
</event>
<event>
 6    1  0.1431486E-005  0.1001007E+04  0.7818608E-02  0.9792845E-01
          4   -1    0    0  502    0 -0.00000000000E+00  0.00000000000E+00  0.44114118340E+03  0.44114118340E+03  0.00000000000E+00 0.  1.
         21   -1    0    0  501  502  0.00000000000E+00 -0.00000000000E+00 -0.93581414086E+03  0.93581414086E+03  0.00000000000E+00 0.  1.
    9000010    2    1    2  501    0  0.18594821522E+03  0.11473353423E+02 -0.18856658777E+03  0.10186126149E+04  0.98351711969E+03 0.  0.
        -13    1    3    3    0    0  0.37281177756E+03  0.16874034722E+03 -0.48496636222E+03  0.63455047862E+03  0.10566000000E+00 0.  1.
          4    1    3    3  501    0 -0.18686356234E+03 -0.15726699380E+03  0.29639977445E+03  0.38406213633E+03  0.00000000000E+00 0.  1.
         13    1    1    2    0    0 -0.18594821522E+03 -0.11473353423E+02 -0.30610636969E+03  0.35834270931E+03  0.10566000000E+00 0. -1.
<mgrwt>
<rscale>  1 0.65747929E+03</rscale>
<asrwt>0</asrwt>
<pdfrwt beam="2">  1       21 0.14397140E+00 0.10010066E+04</pdfrwt>
<pdfrwt beam="1">  1        4 0.67867876E-01 0.10010066E+04</pdfrwt>
<totfact> 0.24146862E+01</totfact>
</mgrwt>
</event>
<event>
 6    1  0.1431486E-005  0.1137455E+04  0.7818608E-02  0.9338836E-01
          4   -1    0    0  502    0 -0.00000000000E+00  0.00000000000E+00  0.57081256448E+03  0.57081256448E+03  0.00000000000E+00 0.  1.
         21   -1    0    0  501  502  0.00000000000E+00 -0.00000000000E+00 -0.13538055235E+04  0.13538055235E+04  0.00000000000E+00 0.  1.
    9000010    2    1    2  501    0  0.13027760283E+02 -0.60852576803E+03 -0.61559941088E+03  0.12933543206E+04  0.96090032311E+03 0.  0.
        -13    1    3    3    0    0  0.47332246120E+03 -0.43611688038E+03 -0.38979606331E+03  0.75244472738E+03  0.10566000000E+00 0.  1.
          4    1    3    3  501    0 -0.46029470091E+03 -0.17240888765E+03 -0.22580334757E+03  0.54090959319E+03  0.00000000000E+00 0.  1.
         13    1    1    2    0    0 -0.13027760283E+02  0.60852576803E+03 -0.16739354811E+03  0.63126376738E+03  0.10566000000E+00 0. -1.
<mgrwt>
<rscale>  1 0.97284835E+03</rscale>
<asrwt>0</asrwt>
<pdfrwt beam="2">  1       21 0.20827777E+00 0.11374545E+04</pdfrwt>
<pdfrwt beam="1">  1        4 0.87817319E-01 0.11374545E+04</pdfrwt>
<totfact> 0.43990645E+00</totfact>
</mgrwt>
</event>
<event>
 6    1  0.1431486E-005  0.1022109E+04  0.7818608E-02  0.9947678E-01
         21   -1    0    0  501  502  0.00000000000E+00  0.00000000000E+00  0.11868197321E+04  0.11868197321E+04  0.00000000000E+00 0.  1.
          4   -1    0    0  502    0 -0.00000000000E+00 -0.00000000000E+00 -0.39846748686E+03  0.39846748686E+03  0.00000000000E+00 0.  1.
    9000010    2    1    2  501    0  0.59276446414E+02 -0.87897591716E+02  0.94772328495E+03  0.13938745152E+04  0.10165958172E+04 0.  0.
        -13    1    3    3    0    0  0.47566943321E+03  0.16557112368E+03  0.31088745072E+03  0.59188362443E+03  0.10566000000E+00 0.  1.
          4    1    3    3  501    0 -0.41639298679E+03 -0.25346871540E+03  0.63683583423E+03  0.80199089078E+03  0.00000000000E+00 0.  1.
         13    1    1    2    0    0 -0.59276446414E+02  0.87897591716E+02 -0.15937103967E+03  0.19141270380E+03  0.10566000000E+00 0. -1.
<mgrwt>
<rscale>  1 0.58005238E+03</rscale>
<asrwt>0</asrwt>
<pdfrwt beam="1">  1       21 0.18258765E+00 0.10221090E+04</pdfrwt>
<pdfrwt beam="2">  1        4 0.61302691E-01 0.10221090E+04</pdfrwt>
<totfact> 0.15214173E+01</totfact>
</mgrwt>
</event>
<event>
 6    1  0.1431486E-005  0.9499884E+03  0.7818608E-02  0.9910053E-01
         21   -1    0    0  501  502  0.00000000000E+00  0.00000000000E+00  0.19335548480E+04  0.19335548480E+04  0.00000000000E+00 0.  1.
          4   -1    0    0  502    0 -0.00000000000E+00 -0.00000000000E+00 -0.18131405987E+03  0.18131405987E+03  0.00000000000E+00 0.  1.
    9000010    2    1    2  501    0  0.67131270193E+02 -0.13293668566E+03  0.17162911220E+04  0.19616659069E+04  0.93824258329E+03 0.  0.
        -13    1    3    3    0    0  0.52579290498E+02  0.28172616744E+03  0.14278779239E+04  0.14563548991E+04  0.10566000000E+00 0.  1.
          4    1    3    3  501    0  0.14551979696E+02 -0.41466285310E+03  0.28841319810E+03  0.50531100789E+03  0.00000000000E+00 0.  1.
         13    1    1    2    0    0 -0.67131270193E+02  0.13293668566E+03  0.35949666093E+02  0.15320300092E+03  0.10566000000E+00 0. -1.
<mgrwt>
<rscale>  1 0.59776561E+03</rscale>
<asrwt>0</asrwt>
<pdfrwt beam="1">  1       21 0.29746996E+00 0.94998838E+03</pdfrwt>
<pdfrwt beam="2">  1        4 0.27894472E-01 0.94998838E+03</pdfrwt>
<totfact> 0.13830585E+01</totfact>
</mgrwt>
</event>
<event>
 6    1  0.1431486E-005  0.1042347E+04  0.7818608E-02  0.9564582E-01
          4   -1    0    0  502    0 -0.00000000000E+00  0.00000000000E+00  0.37025545050E+03  0.37025545050E+03  0.00000000000E+00 0.  1.
         21   -1    0    0  501  502  0.00000000000E+00 -0.00000000000E+00 -0.13216241469E+04  0.13216241469E+04  0.00000000000E+00 0.  1.
    9000010    2    1    2  501    0  0.25010484065E+03  0.25337742969E+03 -0.68586546569E+03  0.12477573959E+04  0.97966041505E+03 0.  0.
        -13    1    3    3    0    0 -0.13008795793E+02  0.37872040348E+03 -0.83748904815E+03  0.91923135810E+03  0.10566000000E+00 0.  1.
          4    1    3    3  501    0  0.26311363644E+03 -0.12534297379E+03  0.15162358245E+03  0.32852603781E+03  0.00000000000E+00 0.  1.
         13    1    1    2    0    0 -0.25010484065E+03 -0.25337742969E+03 -0.26550323074E+03  0.44412220153E+03  0.10566000000E+00 0. -1.
<mgrwt>
<rscale>  1 0.79685419E+03</rscale>
<asrwt>0</asrwt>
<pdfrwt beam="2">  1       21 0.20332679E+00 0.10423469E+04</pdfrwt>
<pdfrwt beam="1">  1        4 0.56962377E-01 0.10423469E+04</pdfrwt>
<totfact> 0.12737480E+01</totfact>
</mgrwt>
</event>
<event>
 6    1  0.1431486E-005  0.7851613E+03  0.7818608E-02  0.1000837E+00
         21   -1    0    0  501  502  0.00000000000E+00  0.00000000000E+00  0.34830999074E+03  0.34830999074E+03  0.00000000000E+00 0.  1.
          4   -1    0    0  502    0 -0.00000000000E+00 -0.00000000000E+00 -0.11053322094E+04  0.11053322094E+04  0.00000000000E+00 0.  1.
    9000010    2    1    2  501    0 -0.10924731268E+02  0.19268670578E+03 -0.12780903792E+03  0.79549574660E+03  0.76107214924E+03 0.  0.
        -13    1    3    3    0    0 -0.26512945695E+03  0.11381734620E+03 -0.34658322064E+03  0.45096336573E+03  0.10566000000E+00 0.  1.
          4    1    3    3  501    0  0.25420472568E+03  0.78869359577E+02  0.21877418273E+03  0.34453238086E+03  0.00000000000E+00 0.  1.
         13    1    1    2    0    0  0.10924731268E+02 -0.19268670578E+03 -0.62921318072E+03  0.65814645353E+03  0.10566000000E+00 0. -1.
<mgrwt>
<rscale>  1 0.55284879E+03</rscale>
<asrwt>0</asrwt>
<pdfrwt beam="1">  1       21 0.53586153E-01 0.78516134E+03</pdfrwt>
<pdfrwt beam="2">  1        4 0.17005111E+00 0.78516134E+03</pdfrwt>
<totfact> 0.27971025E+01</totfact>
</mgrwt>
</event>
<event>
 6    1  0.1431486E-005  0.1038828E+04  0.7818608E-02  0.9590231E-01
          4   -1    0    0  502    0 -0.00000000000E+00  0.00000000000E+00  0.92714230710E+03  0.92714230710E+03  0.00000000000E+00 0.  1.
         21   -1    0    0  501  502  0.00000000000E+00 -0.00000000000E+00 -0.53020694728E+03  0.53020694728E+03  0.00000000000E+00 0. -1.
    9000010    2    1    2  501    0 -0.13616684506E+03  0.29979223833E+03  0.15857519915E+03  0.10508614031E+04  0.98526483695E+03 0.  0.
        -13    1    3    3    0    0  0.81235313325E+02 -0.34627155461E+03  0.81187717293E+02  0.36482135665E+03  0.10566000000E+00 0.  1.
          4    1    3    3  501    0 -0.21740215839E+03  0.64606379294E+03  0.77387481859E+02  0.68604004648E+03  0.00000000000E+00 0.  1.
         13    1    1    2    0    0  0.13616684506E+03 -0.29979223833E+03  0.23836016067E+03  0.40648785125E+03  0.10566000000E+00 0. -1.
<mgrwt>
<rscale>  1 0.77946175E+03</rscale>
<asrwt>0</asrwt>
<pdfrwt beam="2">  1       21 0.81570299E-01 0.10388280E+04</pdfrwt>
<pdfrwt beam="1">  1        4 0.14263728E+00 0.10388280E+04</pdfrwt>
<totfact> 0.16951803E+01</totfact>
</mgrwt>
</event>
<event>
 6    1  0.1431486E-005  0.1047901E+04  0.7818608E-02  0.9634726E-01
          4   -1    0    0  502    0 -0.00000000000E+00  0.00000000000E+00  0.70441926776E+03  0.70441926776E+03  0.00000000000E+00 0.  1.
         21   -1    0    0  501  502  0.00000000000E+00 -0.00000000000E+00 -0.95680837227E+03  0.95680837227E+03  0.00000000000E+00 0.  1.
    9000010    2    1    2  501    0  0.14114240210E+03 -0.23666132655E+03 -0.60787594635E+03  0.12114491756E+04  0.10110223429E+04 0.  0.
        -13    1    3    3    0    0  0.57975297461E+03 -0.98626006161E+02 -0.34146960141E+03  0.68003095556E+03  0.10566000000E+00 0.  1.
          4    1    3    3  501    0 -0.43861057251E+03 -0.13803532039E+03 -0.26640634493E+03  0.53141822006E+03  0.00000000000E+00 0.  1.
         13    1    1    2    0    0 -0.14114240210E+03  0.23666132655E+03  0.35548684184E+03  0.44977846441E+03  0.10566000000E+00 0. -1.
<mgrwt>
<rscale>  1 0.75039792E+03</rscale>
<asrwt>0</asrwt>
<pdfrwt beam="2">  1       21 0.14720129E+00 0.10479007E+04</pdfrwt>
<pdfrwt beam="1">  1        4 0.10837219E+00 0.10479007E+04</pdfrwt>
<totfact> 0.75739719E+00</totfact>
</mgrwt>
</event>
<event>
 6    1  0.1431486E-005  0.8613716E+03  0.7818608E-02  0.1017515E+00
          4   -1    0    0  502    0 -0.00000000000E+00  0.00000000000E+00  0.41734980332E+03  0.41734980332E+03  0.00000000000E+00 0.  1.
         21   -1    0    0  501  502  0.00000000000E+00 -0.00000000000E+00 -0.56161269090E+03  0.56161269090E+03  0.00000000000E+00 0.  1.
    9000010    2    1    2  501    0 -0.50483395303E+02  0.71160025421E+02 -0.18756918538E+03  0.88155731462E+03  0.85694152498E+03 0.  0.
        -13    1    3    3    0    0  0.22311205570E+03  0.35681343415E+03  0.44157166302E+02  0.42313671867E+03  0.10566000000E+00 0.  1.
          4    1    3    3  501    0 -0.27359545100E+03 -0.28565340873E+03 -0.23172635168E+03  0.45842059595E+03  0.00000000000E+00 0.  1.
         13    1    1    2    0    0  0.50483395303E+02 -0.71160025421E+02  0.43306297798E+02  0.97405179597E+02  0.10566000000E+00 0. -1.
<mgrwt>
<rscale>  1 0.48594000E+03</rscale>
<asrwt>0</asrwt>
<pdfrwt beam="2">  1       21 0.86401952E-01 0.86137164E+03</pdfrwt>
<pdfrwt beam="1">  1        4 0.64207662E-01 0.86137164E+03</pdfrwt>
<totfact> 0.10160658E+02</totfact>
</mgrwt>
</event>
<event>
 6    1  0.1431486E-005  0.1006243E+04  0.7818608E-02  0.9830795E-01
          4   -1    0    0  502    0 -0.00000000000E+00  0.00000000000E+00  0.14858426083E+03  0.14858426083E+03  0.00000000000E+00 0.  1.
         21   -1    0    0  501  502  0.00000000000E+00 -0.00000000000E+00 -0.23811242041E+04  0.23811242041E+04  0.00000000000E+00 0.  1.
    9000010    2    1    2  501    0  0.45343682993E+02  0.15548920998E+03 -0.20625273360E+04  0.22948952587E+04  0.99312249641E+03 0.  0.
        -13    1    3    3    0    0  0.11806399939E+03  0.40206426427E+03 -0.30405198912E+03  0.51772811765E+03  0.10566000000E+00 0.  1.
          4    1    3    3  501    0 -0.72720316393E+02 -0.24657505429E+03 -0.17584753469E+04  0.17771671411E+04  0.00000000000E+00 0.  1.
         13    1    1    2    0    0 -0.45343682993E+02 -0.15548920998E+03 -0.17001260729E+03  0.23481320620E+03  0.10566000000E+00 0. -1.
<mgrwt>
<rscale>  1 0.63735750E+03</rscale>
<asrwt>0</asrwt>
<pdfrwt beam="2">  1       21 0.36632675E+00 0.10062431E+04</pdfrwt>
<pdfrwt beam="1">  1        4 0.22859120E-01 0.10062431E+04</pdfrwt>
<totfact> 0.74177997E+00</totfact>
</mgrwt>
</event>
<event>
 6    1  0.1431486E-005  0.1023300E+04  0.7818608E-02  0.9753482E-01
         21   -1    0    0  501  502  0.00000000000E+00  0.00000000000E+00  0.27040925063E+03  0.27040925063E+03  0.00000000000E+00 0.  1.
          4   -1    0    0  502    0 -0.00000000000E+00 -0.00000000000E+00 -0.15641124277E+04  0.15641124277E+04  0.00000000000E+00 0.  1.
    9000010    2    1    2  501    0  0.13443854067E+03 -0.14617787035E+03 -0.12752666617E+04  0.16350684074E+04  0.10038435872E+04 0.  0.
        -13    1    3    3    0    0  0.45405125909E+03 -0.29655216655E+03 -0.11295105423E+04  0.12529564277E+04  0.10566000000E+00 0.  1.
          4    1    3    3  501    0 -0.31961271841E+03  0.15037429620E+03 -0.14575611939E+03  0.38211197975E+03  0.00000000000E+00 0.  1.
         13    1    1    2    0    0 -0.13443854067E+03  0.14617787035E+03 -0.18436515352E+02  0.19945327087E+03  0.10566000000E+00 0. -1.
<mgrwt>
<rscale>  1 0.67919872E+03</rscale>
<asrwt>0</asrwt>
<pdfrwt beam="1">  1       21 0.41601423E-01 0.10233004E+04</pdfrwt>
<pdfrwt beam="2">  1        4 0.24063268E+00 0.10233004E+04</pdfrwt>
<totfact> 0.16056575E+01</totfact>
</mgrwt>
</event>
<event>
 6    1  0.1431486E-005  0.9899629E+03  0.7818608E-02  0.9807347E-01
          4   -1    0    0  502    0 -0.00000000000E+00  0.00000000000E+00  0.14043195206E+04  0.14043195206E+04  0.00000000000E+00 0.  1.
         21   -1    0    0  501  502  0.00000000000E+00 -0.00000000000E+00 -0.27482907444E+03  0.27482907444E+03  0.00000000000E+00 0.  1.
    9000010    2    1    2  501    0 -0.84503602628E+02  0.16305239253E+03  0.70118552112E+03  0.12131313619E+04  0.97277932992E+03 0.  0.
        -13    1    3    3    0    0  0.23557543049E+03 -0.31146317715E+03  0.14947839375E+03  0.41814936988E+03  0.10566000000E+00 0.  1.
          4    1    3    3  501    0 -0.32007903311E+03  0.47451556968E+03  0.55170712736E+03  0.79498199205E+03  0.00000000000E+00 0.  1.
         13    1    1    2    0    0  0.84503602628E+02 -0.16305239253E+03  0.42830492504E+03  0.46601723310E+03  0.10566000000E+00 0. -1.
<mgrwt>
<rscale>  1 0.64969770E+03</rscale>
<asrwt>0</asrwt>
<pdfrwt beam="2">  1       21 0.42281397E-01 0.98996291E+03</pdfrwt>
<pdfrwt beam="1">  1        4 0.21604915E+00 0.98996291E+03</pdfrwt>
<totfact> 0.22263191E+01</totfact>
</mgrwt>
</event>
<event>
 6    1  0.1431486E-005  0.9993797E+03  0.7818608E-02  0.9867911E-01
         21   -1    0    0  501  502  0.00000000000E+00  0.00000000000E+00  0.48526952314E+03  0.48526952314E+03  0.00000000000E+00 0.  1.
          4   -1    0    0  502    0 -0.00000000000E+00 -0.00000000000E+00 -0.68043531092E+03  0.68043531092E+03  0.00000000000E+00 0.  1.
    9000010    2    1    2  501    0 -0.13961784282E+03 -0.44490119243E+02 -0.14003981257E+03  0.10091436733E+04  0.98857841953E+03 0.  0.
        -13    1    3    3    0    0  0.20451856039E+03 -0.42797217497E+03 -0.13759227731E+03  0.49388224308E+03  0.10566000000E+00 0.  1.
          4    1    3    3  501    0 -0.34413640320E+03  0.38348205572E+03 -0.24475352617E+01  0.51526143025E+03  0.00000000000E+00 0.  1.
         13    1    1    2    0    0  0.13961784282E+03  0.44490119243E+02 -0.55125975204E+02  0.15656116073E+03  0.10566000000E+00 0. -1.
<mgrwt>
<rscale>  1 0.61841965E+03</rscale>
<asrwt>0</asrwt>
<pdfrwt beam="1">  1       21 0.74656850E-01 0.99937971E+03</pdfrwt>
<pdfrwt beam="2">  1        4 0.10468235E+00 0.99937971E+03</pdfrwt>
<totfact> 0.45807643E+01</totfact>
</mgrwt>
</event>
<event>
 6    1  0.1431486E-005  0.1041921E+04  0.7818608E-02  0.9594858E-01
         21   -1    0    0  501  502  0.00000000000E+00  0.00000000000E+00  0.33387776321E+03  0.33387776321E+03  0.00000000000E+00 0. -1.
          4   -1    0    0  502    0 -0.00000000000E+00 -0.00000000000E+00 -0.16310652306E+04  0.16310652306E+04  0.00000000000E+00 0.  1.
    9000010    2    1    2  501    0 -0.18535522302E+03  0.26232710868E+03 -0.12698251616E+04  0.16425755364E+04  0.99117424355E+03 0.  0.
        -13    1    3    3    0    0 -0.11646854497E+03 -0.23414263026E+03 -0.10724735466E+04  0.11038963777E+04  0.10566000000E+00 0.  1.
          4    1    3    3  501    0 -0.68886678051E+02  0.49646973894E+03 -0.19735161496E+03  0.53867915871E+03  0.00000000000E+00 0.  1.
         13    1    1    2    0    0  0.18535522302E+03 -0.26232710868E+03 -0.27362305775E+02  0.32236745740E+03  0.10566000000E+00 0. -1.
<mgrwt>
<rscale>  1 0.77637454E+03</rscale>
<asrwt>0</asrwt>
<pdfrwt beam="1">  1       21 0.51365809E-01 0.10419206E+04</pdfrwt>
<pdfrwt beam="2">  1        4 0.25093311E+00 0.10419206E+04</pdfrwt>
<totfact> 0.88078582E+00</totfact>
</mgrwt>
</event>
<event>
 6    1  0.1431486E-005  0.1013680E+04  0.7818608E-02  0.9823084E-01
         21   -1    0    0  501  502  0.00000000000E+00  0.00000000000E+00  0.28570739842E+03  0.28570739842E+03  0.00000000000E+00 0.  1.
          4   -1    0    0  502    0 -0.00000000000E+00 -0.00000000000E+00 -0.12443968843E+04  0.12443968843E+04  0.00000000000E+00 0.  1.
    9000010    2    1    2  501    0 -0.87826237263E+02  0.13668359067E+03 -0.90530816859E+03  0.13590913355E+04  0.10005750978E+04 0.  0.
        -13    1    3    3    0    0 -0.92692513210E+01  0.54858102686E+03 -0.70789288525E+03  0.89562235915E+03  0.10566000000E+00 0.  1.
          4    1    3    3  501    0 -0.78556985942E+02 -0.41189743620E+03 -0.19741528333E+03  0.46346897639E+03  0.00000000000E+00 0.  1.
         13    1    1    2    0    0  0.87826237263E+02 -0.13668359067E+03 -0.53381317336E+02  0.17101294721E+03  0.10566000000E+00 0. -1.
<mgrwt>
<rscale>  1 0.64138319E+03</rscale>
<asrwt>0</asrwt>
<pdfrwt beam="1">  1       21 0.43954984E-01 0.10136796E+04</pdfrwt>
<pdfrwt beam="2">  1        4 0.19144568E+00 0.10136796E+04</pdfrwt>
<totfact> 0.29693645E+01</totfact>
</mgrwt>
</event>
<event>
 6    1  0.1431486E-005  0.1010953E+04  0.7818608E-02  0.9873763E-01
          4   -1    0    0  502    0 -0.00000000000E+00  0.00000000000E+00  0.25847417444E+03  0.25847417444E+03  0.00000000000E+00 0.  1.
         21   -1    0    0  501  502  0.00000000000E+00 -0.00000000000E+00 -0.14644837163E+04  0.14644837163E+04  0.00000000000E+00 0.  1.
    9000010    2    1    2  501    0  0.12815143778E+03 -0.53586809499E+02 -0.12187504015E+04  0.15834706948E+04  0.10013653494E+04 0.  0.
        -13    1    3    3    0    0  0.35309594196E+03  0.31049791716E+03 -0.99508017015E+03  0.11005772381E+04  0.10566000000E+00 0.  1.
          4    1    3    3  501    0 -0.22494450419E+03 -0.36408472666E+03 -0.22367023132E+03  0.48289345670E+03  0.00000000000E+00 0.  1.
         13    1    1    2    0    0 -0.12815143778E+03  0.53586809499E+02  0.12740859643E+02  0.13948719592E+03  0.10566000000E+00 0. -1.
<mgrwt>
<rscale>  1 0.61549870E+03</rscale>
<asrwt>0</asrwt>
<pdfrwt beam="2">  1       21 0.22530519E+00 0.10109535E+04</pdfrwt>
<pdfrwt beam="1">  1        4 0.39765258E-01 0.10109535E+04</pdfrwt>
<totfact> 0.19369699E+01</totfact>
</mgrwt>
</event>
<event>
 6    1  0.1431486E-005  0.1044924E+04  0.7818608E-02  0.9588175E-01
         21   -1    0    0  501  502  0.00000000000E+00  0.00000000000E+00  0.15836363816E+04  0.15836363816E+04  0.00000000000E+00 0.  1.
          4   -1    0    0  502    0 -0.00000000000E+00 -0.00000000000E+00 -0.35378454544E+03  0.35378454544E+03  0.00000000000E+00 0.  1.
    9000010    2    1    2  501    0  0.88955553479E+02  0.31345033961E+03  0.12269149406E+04  0.16115791826E+04  0.99282575729E+03 0.  0.
        -13    1    3    3    0    0  0.32539932044E+03  0.54376608567E+03  0.47994299067E+03  0.79492865034E+03  0.10566000000E+00 0.  1.
          4    1    3    3  501    0 -0.23644376696E+03 -0.23031574606E+03  0.74697194994E+03  0.81665053225E+03  0.00000000000E+00 0.  1.
         13    1    1    2    0    0 -0.88955553479E+02 -0.31345033961E+03  0.29368955215E+01  0.32584174443E+03  0.10566000000E+00 0. -1.
<mgrwt>
<rscale>  1 0.78083802E+03</rscale>
<asrwt>0</asrwt>
<pdfrwt beam="1">  1       21 0.24363636E+00 0.10449245E+04</pdfrwt>
<pdfrwt beam="2">  1        4 0.54428392E-01 0.10449245E+04</pdfrwt>
<totfact> 0.76146147E+00</totfact>
</mgrwt>
</event>
<event>
 6    1  0.1431486E-005  0.1060953E+04  0.7818608E-02  0.9826029E-01
          4   -1    0    0  502    0 -0.00000000000E+00  0.00000000000E+00  0.45432756275E+03  0.45432756275E+03  0.00000000000E+00 0.  1.
         21   -1    0    0  501  502  0.00000000000E+00 -0.00000000000E+00 -0.83278852955E+03  0.83278852955E+03  0.00000000000E+00 0.  1.
    9000010    2    1    2  501    0 -0.11482214041E+03  0.80703536087E+02 -0.41952208661E+03  0.11408860975E+04  0.10516297455E+04 0.  0.
        -13    1    3    3    0    0  0.11123944936E+03 -0.47824317045E+02 -0.72767032945E+03  0.73767574172E+03  0.10566000000E+00 0.  1.
          4    1    3    3  501    0 -0.22606158978E+03  0.12852785313E+03  0.30814824284E+03  0.40321035573E+03  0.00000000000E+00 0.  1.
         13    1    1    2    0    0  0.11482214041E+03 -0.80703536087E+02  0.41061119812E+02  0.14622999484E+03  0.10566000000E+00 0. -1.
<mgrwt>
<rscale>  1 0.63984210E+03</rscale>
<asrwt>0</asrwt>
<pdfrwt beam="2">  1       21 0.12812131E+00 0.10609535E+04</pdfrwt>
<pdfrwt beam="1">  1        4 0.69896549E-01 0.10609535E+04</pdfrwt>
<totfact> 0.30784619E+01</totfact>
</mgrwt>
</event>
<event>
 6    1  0.1431486E-005  0.1120844E+04  0.7818608E-02  0.9424881E-01
          4   -1    0    0  502    0 -0.00000000000E+00  0.00000000000E+00  0.74682789431E+03  0.74682789431E+03  0.00000000000E+00 0.  1.
         21   -1    0    0  501  502  0.00000000000E+00 -0.00000000000E+00 -0.87143654257E+03  0.87143654257E+03  0.00000000000E+00 0. -1.
    9000010    2    1    2  501    0  0.18743444890E+02  0.46673106362E+03 -0.21816955003E+03  0.11418792398E+04  0.10188724372E+04 0.  0.
        -13    1    3    3    0    0 -0.18220861605E+03  0.48477515073E+03 -0.54878221531E+03  0.75456534345E+03  0.10566000000E+00 0.  1.
          4    1    3    3  501    0  0.20095206094E+03 -0.18044087113E+02  0.33061266529E+03  0.38731389638E+03  0.00000000000E+00 0.  1.
         13    1    1    2    0    0 -0.18743444890E+02 -0.46673106362E+03  0.93560901765E+02  0.47638519706E+03  0.10566000000E+00 0. -1.
<mgrwt>
<rscale>  1 0.90056052E+03</rscale>
<asrwt>0</asrwt>
<pdfrwt beam="2">  1       21 0.13406716E+00 0.11208435E+04</pdfrwt>
<pdfrwt beam="1">  1        4 0.11489660E+00 0.11208435E+04</pdfrwt>
<totfact> 0.83939805E+00</totfact>
</mgrwt>
</event>
<event>
 6    1  0.1431486E-005  0.1051680E+04  0.7818608E-02  0.9540423E-01
          4   -1    0    0  502    0 -0.00000000000E+00  0.00000000000E+00  0.83159460041E+03  0.83159460041E+03  0.00000000000E+00 0.  1.
         21   -1    0    0  501  502  0.00000000000E+00 -0.00000000000E+00 -0.64215931043E+03  0.64215931043E+03  0.00000000000E+00 0.  1.
    9000010    2    1    2  501    0 -0.37664552809E+03  0.12339091166E+02  0.27557764693E+03  0.10871861628E+04  0.98184347333E+03 0.  0.
        -13    1    3    3    0    0 -0.35680009112E+03 -0.41283316659E+03 -0.54771101683E+02  0.54839530742E+03  0.10566000000E+00 0.  1.
          4    1    3    3  501    0 -0.19845436970E+02  0.42517225776E+03  0.33034874861E+03  0.53879085538E+03  0.00000000000E+00 0.  1.
         13    1    1    2    0    0  0.37664552809E+03 -0.12339091166E+02 -0.86142356952E+02  0.38656774804E+03  0.10566000000E+00 0. -1.
<mgrwt>
<rscale>  1 0.81368103E+03</rscale>
<asrwt>0</asrwt>
<pdfrwt beam="2">  1       21 0.98793740E-01 0.10516799E+04</pdfrwt>
<pdfrwt beam="1">  1        4 0.12793763E+00 0.10516799E+04</pdfrwt>
<totfact> 0.14141767E+01</totfact>
</mgrwt>
</event>
<event>
 6    1  0.1431486E-005  0.9946039E+03  0.7818608E-02  0.9900080E-01
         21   -1    0    0  501  502  0.00000000000E+00  0.00000000000E+00  0.42156693430E+03  0.42156693430E+03  0.00000000000E+00 0.  1.
          4   -1    0    0  502    0 -0.00000000000E+00 -0.00000000000E+00 -0.75539105599E+03  0.75539105599E+03  0.00000000000E+00 0.  1.
    9000010    2    1    2  501    0  0.94540627754E+02  0.94957334117E+02 -0.29667537973E+03  0.10379081223E+04  0.98553648526E+03 0.  0.
        -13    1    3    3    0    0 -0.92476143438E+02 -0.51605250677E+02 -0.62428629307E+03  0.63320480563E+03  0.10566000000E+00 0.  1.
          4    1    3    3  501    0  0.18701677119E+03  0.14656258479E+03  0.32761091334E+03  0.40470331665E+03  0.00000000000E+00 0.  1.
         13    1    1    2    0    0 -0.94540627754E+02 -0.94957334117E+02 -0.37148741970E+02  0.13904986801E+03  0.10566000000E+00 0. -1.
<mgrwt>
<rscale>  1 0.60257397E+03</rscale>
<asrwt>0</asrwt>
<pdfrwt beam="1">  1       21 0.64856453E-01 0.99460394E+03</pdfrwt>
<pdfrwt beam="2">  1        4 0.11621401E+00 0.99460394E+03</pdfrwt>
<totfact> 0.48896176E+01</totfact>
</mgrwt>
</event>
<event>
 6    1  0.1431486E-005  0.1041959E+04  0.7818608E-02  0.9854002E-01
         21   -1    0    0  501  502  0.00000000000E+00  0.00000000000E+00  0.17538144436E+04  0.17538144436E+04  0.00000000000E+00 0.  1.
          4   -1    0    0  502    0 -0.00000000000E+00 -0.00000000000E+00 -0.28240265725E+03  0.28240265725E+03  0.00000000000E+00 0.  1.
    9000010    2    1    2  501    0  0.62864588939E+02  0.11976403323E+03  0.15589502775E+04  0.18751010594E+04  0.10331421175E+04 0.  0.
        -13    1    3    3    0    0 -0.41625456396E+03  0.66353843165E+02  0.12062328167E+04  0.12777590985E+04  0.10566000000E+00 0.  1.
          4    1    3    3  501    0  0.47911915290E+03  0.53410190062E+02  0.35271746082E+03  0.59734196089E+03  0.00000000000E+00 0.  1.
         13    1    1    2    0    0 -0.62864588939E+02 -0.11976403323E+03 -0.87538491209E+02  0.16111604143E+03  0.10566000000E+00 0. -1.
<mgrwt>
<rscale>  1 0.62543273E+03</rscale>
<asrwt>0</asrwt>
<pdfrwt beam="1">  1       21 0.26981760E+00 0.10419587E+04</pdfrwt>
<pdfrwt beam="2">  1        4 0.43446564E-01 0.10419587E+04</pdfrwt>
<totfact> 0.83544518E+00</totfact>
</mgrwt>
</event>
<event>
 6    1  0.1431486E-005  0.9609696E+03  0.7818608E-02  0.9651113E-01
          4   -1    0    0  502    0 -0.00000000000E+00  0.00000000000E+00  0.83207159639E+03  0.83207159639E+03  0.00000000000E+00 0.  1.
         21   -1    0    0  501  502  0.00000000000E+00 -0.00000000000E+00 -0.65943917203E+03  0.65943917203E+03  0.00000000000E+00 0.  1.
    9000010    2    1    2  501    0  0.44829101255E+02  0.33498663186E+03  0.44351413426E+03  0.10583796061E+04  0.89957596205E+03 0.  0.
        -13    1    3    3    0    0 -0.42626899809E+03  0.14901237063E+03  0.16791342765E+03  0.48177263899E+03  0.10566000000E+00 0.  1.
          4    1    3    3  501    0  0.47109809934E+03  0.18597426123E+03  0.27560070661E+03  0.57660696712E+03  0.00000000000E+00 0.  1.
         13    1    1    2    0    0 -0.44829101255E+02 -0.33498663186E+03 -0.27088170990E+03  0.43313116231E+03  0.10566000000E+00 0. -1.
<mgrwt>
<rscale>  1 0.74003588E+03</rscale>
<asrwt>0</asrwt>
<pdfrwt beam="2">  1       21 0.10145218E+00 0.96096962E+03</pdfrwt>
<pdfrwt beam="1">  1        4 0.12801102E+00 0.96096962E+03</pdfrwt>
<totfact> 0.13349023E+01</totfact>
</mgrwt>
</event>
<event>
 6    1  0.1431486E-005  0.9950305E+03  0.7818608E-02  0.9743818E-01
         21   -1    0    0  501  502  0.00000000000E+00  0.00000000000E+00  0.19674093682E+03  0.19674093682E+03  0.00000000000E+00 0.  1.
          4   -1    0    0  502    0 -0.00000000000E+00 -0.00000000000E+00 -0.22569494363E+04  0.22569494363E+04  0.00000000000E+00 0.  1.
    9000010    2    1    2  501    0 -0.20964503357E+03  0.76170260666E+02 -0.19812414968E+04  0.22170709585E+04  0.96970759379E+03 0.  0.
        -13    1    3    3    0    0 -0.59352218696E+03  0.10142744586E+02 -0.10240315964E+04  0.11836436049E+04  0.10566000000E+00 0.  1.
          4    1    3    3  501    0  0.38387715339E+03  0.66027516080E+02 -0.95720990040E+03  0.10334273536E+04  0.00000000000E+00 0.  1.
         13    1    1    2    0    0  0.20964503357E+03 -0.76170260666E+02 -0.78967002645E+02  0.23661941463E+03  0.10566000000E+00 0. -1.
<mgrwt>
<rscale>  1 0.68466752E+03</rscale>
<asrwt>0</asrwt>
<pdfrwt beam="1">  1       21 0.30267836E-01 0.99503054E+03</pdfrwt>
<pdfrwt beam="2">  1        4 0.34722299E+00 0.99503054E+03</pdfrwt>
<totfact> 0.67238405E+00</totfact>
</mgrwt>
</event>
<event>
 6    1  0.1431486E-005  0.1214147E+04  0.7818608E-02  0.9256779E-01
         21   -1    0    0  501  502  0.00000000000E+00  0.00000000000E+00  0.12181101434E+04  0.12181101434E+04  0.00000000000E+00 0. -1.
          4   -1    0    0  502    0 -0.00000000000E+00 -0.00000000000E+00 -0.73428588676E+03  0.73428588676E+03  0.00000000000E+00 0.  1.
    9000010    2    1    2  501    0  0.24249841050E+03 -0.63050170637E+03  0.35180309617E+03  0.12640883382E+04  0.10088686869E+04 0.  0.
        -13    1    3    3    0    0 -0.25568489869E+03  0.80843128995E+02  0.28767568887E+03  0.39327813574E+03  0.10566000000E+00 0.  1.
          4    1    3    3  501    0  0.49818330919E+03 -0.71134483536E+03  0.64127407305E+02  0.87081020247E+03  0.00000000000E+00 0.  1.
         13    1    1    2    0    0 -0.24249841050E+03  0.63050170637E+03  0.13202116047E+03  0.68830769196E+03  0.10566000000E+00 0. -1.
<mgrwt>
<rscale>  1 0.10486109E+04</rscale>
<asrwt>0</asrwt>
<pdfrwt beam="1">  1       21 0.18740156E+00 0.12141474E+04</pdfrwt>
<pdfrwt beam="2">  1        4 0.11296706E+00 0.12141474E+04</pdfrwt>
<totfact> 0.33123779E+00</totfact>
</mgrwt>
</event>
<event>
 6    1  0.1431486E-005  0.1005769E+04  0.7818608E-02  0.9826213E-01
          4   -1    0    0  502    0 -0.00000000000E+00  0.00000000000E+00  0.10153244245E+04  0.10153244245E+04  0.00000000000E+00 0.  1.
         21   -1    0    0  501  502  0.00000000000E+00 -0.00000000000E+00 -0.17892625058E+04  0.17892625058E+04  0.00000000000E+00 0.  1.
    9000010    2    1    2  501    0  0.11917624491E+03 -0.11359326697E+03 -0.16395487272E+04  0.19234579902E+04  0.99220169508E+03 0.  0.
        -13    1    3    3    0    0 -0.43432804315E+03 -0.25426213516E+02 -0.58294273833E+03  0.72739919490E+03  0.10566000000E+00 0.  1.
          4    1    3    3  501    0  0.55350428806E+03 -0.88167053453E+02 -0.10566059888E+04  0.11960587953E+04  0.00000000000E+00 0.  1.
         13    1    1    2    0    0 -0.11917624491E+03  0.11359326697E+03  0.86561064588E+03  0.88112894010E+03  0.10566000000E+00 0. -1.
<mgrwt>
<rscale>  1 0.63974602E+03</rscale>
<asrwt>0</asrwt>
<pdfrwt beam="2">  1       21 0.27527115E+00 0.10057687E+04</pdfrwt>
<pdfrwt beam="1">  1        4 0.15620376E+00 0.10057687E+04</pdfrwt>
<totfact> 0.39067574E-01</totfact>
</mgrwt>
</event>
<event>
 6    1  0.1431486E-005  0.1017824E+04  0.7818608E-02  0.9748341E-01
          4   -1    0    0  502    0 -0.00000000000E+00  0.00000000000E+00  0.47703133767E+03  0.47703133767E+03  0.00000000000E+00 0.  1.
         21   -1    0    0  501  502  0.00000000000E+00 -0.00000000000E+00 -0.78766468665E+03  0.78766468665E+03  0.00000000000E+00 0.  1.
    9000010    2    1    2  501    0 -0.20409077878E+03 -0.22199137689E+02 -0.22583011096E+03  0.10425756785E+04  0.99690468885E+03 0.  0.
        -13    1    3    3    0    0  0.95648793833E+02 -0.45438904494E+03 -0.22644037893E+03  0.51661722029E+03  0.10566000000E+00 0.  1.
          4    1    3    3  501    0 -0.29973957261E+03  0.43218990725E+03  0.61026796292E+00  0.52595845819E+03  0.00000000000E+00 0.  1.
         13    1    1    2    0    0  0.20409077878E+03  0.22199137689E+02 -0.84803238018E+02  0.22212034585E+03  0.10566000000E+00 0. -1.
<mgrwt>
<rscale>  1 0.68210117E+03</rscale>
<asrwt>0</asrwt>
<pdfrwt beam="2">  1       21 0.12117918E+00 0.10178236E+04</pdfrwt>
<pdfrwt beam="1">  1        4 0.73389436E-01 0.10178236E+04</pdfrwt>
<totfact> 0.32067431E+01</totfact>
</mgrwt>
</event>
<event>
 6    1  0.1431486E-005  0.1046361E+04  0.7818608E-02  0.9653573E-01
          4   -1    0    0  502    0 -0.00000000000E+00  0.00000000000E+00  0.64275800853E+03  0.64275800853E+03  0.00000000000E+00 0.  1.
         21   -1    0    0  501  502  0.00000000000E+00 -0.00000000000E+00 -0.66912110612E+03  0.66912110612E+03  0.00000000000E+00 0.  1.
    9000010    2    1    2  501    0  0.27022927089E+02 -0.25821584515E+03 -0.69617284504E+02  0.10486746369E+04  0.10136401070E+04 0.  0.
        -13    1    3    3    0    0 -0.33982450105E+03 -0.18694674135E+03  0.32439180464E+03  0.50562815358E+03  0.10566000000E+00 0.  1.
          4    1    3    3  501    0  0.36684742813E+03 -0.71269103806E+02 -0.39400908914E+03  0.54304648329E+03  0.00000000000E+00 0.  1.
         13    1    1    2    0    0 -0.27022927089E+02  0.25821584515E+03  0.43254186912E+02  0.26320447779E+03  0.10566000000E+00 0. -1.
<mgrwt>
<rscale>  1 0.73849626E+03</rscale>
<asrwt>0</asrwt>
<pdfrwt beam="2">  1       21 0.10294171E+00 0.10463613E+04</pdfrwt>
<pdfrwt beam="1">  1        4 0.98885848E-01 0.10463613E+04</pdfrwt>
<totfact> 0.24196115E+01</totfact>
</mgrwt>
</event>
<event>
 6    1  0.1431486E-005  0.9979887E+03  0.7818608E-02  0.9923567E-01
         21   -1    0    0  501  502  0.00000000000E+00  0.00000000000E+00  0.34425291221E+03  0.34425291221E+03  0.00000000000E+00 0.  1.
          4   -1    0    0  502    0 -0.00000000000E+00 -0.00000000000E+00 -0.91745995916E+03  0.91745995916E+03  0.00000000000E+00 0.  1.
    9000010    2    1    2  501    0  0.99017082314E+02 -0.72982169174E+02 -0.48023629920E+03  0.11075235374E+04  0.99037907047E+03 0.  0.
        -13    1    3    3    0    0  0.31500981460E+03 -0.17345911651E+03 -0.69773172225E+03  0.78495147353E+03  0.10566000000E+00 0.  1.
          4    1    3    3  501    0 -0.21599273229E+03  0.10047694733E+03  0.21749542305E+03  0.32257206387E+03  0.00000000000E+00 0.  1.
         13    1    1    2    0    0 -0.99017082314E+02  0.72982169174E+02 -0.92970747751E+02  0.15418933397E+03  0.10566000000E+00 0. -1.
<mgrwt>
<rscale>  1 0.59132594E+03</rscale>
<asrwt>0</asrwt>
<pdfrwt beam="1">  1       21 0.52961988E-01 0.99798872E+03</pdfrwt>
<pdfrwt beam="2">  1        4 0.14114768E+00 0.99798872E+03</pdfrwt>
<totfact> 0.46589186E+01</totfact>
</mgrwt>
</event>
<event>
 6    1  0.1431486E-005  0.1079994E+04  0.7818608E-02  0.9507107E-01
         21   -1    0    0  501  502  0.00000000000E+00  0.00000000000E+00  0.22657271823E+03  0.22657271823E+03  0.00000000000E+00 0.  1.
          4   -1    0    0  502    0 -0.00000000000E+00 -0.00000000000E+00 -0.24061603857E+04  0.24061603857E+04  0.00000000000E+00 0.  1.
    9000010    2    1    2  501    0  0.32936361697E+03  0.21028770977E+03 -0.17007785877E+04  0.20147044160E+04  0.10068191329E+04 0.  0.
        -13    1    3    3    0    0  0.69059851378E+03  0.12665780358E+03 -0.12192249910E+04  0.14069392653E+04  0.10566000000E+00 0.  1.
          4    1    3    3  501    0 -0.36123489681E+03  0.83629906193E+02 -0.48155359668E+03  0.60776515066E+03  0.00000000000E+00 0.  1.
         13    1    1    2    0    0 -0.32936361697E+03 -0.21028770977E+03 -0.47880907976E+03  0.61802868792E+03  0.10566000000E+00 0. -1.
<mgrwt>
<rscale>  1 0.83761853E+03</rscale>
<asrwt>0</asrwt>
<pdfrwt beam="1">  1       21 0.34857342E-01 0.10799936E+04</pdfrwt>
<pdfrwt beam="2">  1        4 0.37017851E+00 0.10799936E+04</pdfrwt>
<totfact> 0.35237925E+00</totfact>
</mgrwt>
</event>
<event>
 6    1  0.1431486E-005  0.8848052E+03  0.7818608E-02  0.1009300E+00
          4   -1    0    0  502    0 -0.00000000000E+00  0.00000000000E+00  0.13178350912E+04  0.13178350912E+04  0.00000000000E+00 0.  1.
         21   -1    0    0  501  502  0.00000000000E+00 -0.00000000000E+00 -0.18538207945E+03  0.18538207945E+03  0.00000000000E+00 0.  1.
    9000010    2    1    2  501    0 -0.43253014769E+02 -0.94102027901E+02  0.10221421868E+04  0.13519078709E+04  0.87872306573E+03 0.  0.
        -13    1    3    3    0    0 -0.33384527632E+03  0.24428326969E+03  0.33317416350E+03  0.53116101020E+03  0.10566000000E+00 0.  1.
          4    1    3    3  501    0  0.29059226155E+03 -0.33838529759E+03  0.68896802334E+03  0.82074686066E+03  0.00000000000E+00 0.  1.
         13    1    1    2    0    0  0.43253014769E+02  0.94102027901E+02  0.11031082486E+03  0.15130929974E+03  0.10566000000E+00 0. -1.
<mgrwt>
<rscale>  1 0.51753611E+03</rscale>
<asrwt>0</asrwt>
<pdfrwt beam="2">  1       21 0.28520321E-01 0.88480520E+03</pdfrwt>
<pdfrwt beam="1">  1        4 0.20274385E+00 0.88480520E+03</pdfrwt>
<totfact> 0.61570317E+01</totfact>
</mgrwt>
</event>
<event>
 6    1  0.1431486E-005  0.1005898E+04  0.7818608E-02  0.9755867E-01
         21   -1    0    0  501  502  0.00000000000E+00  0.00000000000E+00  0.87832909656E+03  0.87832909656E+03  0.00000000000E+00 0.  1.
          4   -1    0    0  502    0 -0.00000000000E+00 -0.00000000000E+00 -0.44270704669E+03  0.44270704669E+03  0.00000000000E+00 0.  1.
    9000010    2    1    2  501    0  0.15819479651E+03 -0.13418465552E+03  0.47082113806E+03  0.11106315274E+04  0.98427573885E+03 0.  0.
        -13    1    3    3    0    0  0.57182510989E+03 -0.14174523443E+03  0.31900804797E+03  0.66995657592E+03  0.10566000000E+00 0.  1.
          4    1    3    3  501    0 -0.41363031338E+03  0.75605789150E+01  0.15181309009E+03  0.44067495144E+03  0.00000000000E+00 0.  1.
         13    1    1    2    0    0 -0.15819479651E+03  0.13418465552E+03 -0.35199088195E+02  0.21040461590E+03  0.10566000000E+00 0. -1.
<mgrwt>
<rscale>  1 0.67785710E+03</rscale>
<asrwt>0</asrwt>
<pdfrwt beam="1">  1       21 0.13512755E+00 0.10058975E+04</pdfrwt>
<pdfrwt beam="2">  1        4 0.68108776E-01 0.10058975E+04</pdfrwt>
<totfact> 0.28454161E+01</totfact>
</mgrwt>
</event>
<event>
 6    1  0.1431486E-005  0.1021791E+04  0.7818608E-02  0.9697450E-01
          4   -1    0    0  502    0 -0.00000000000E+00  0.00000000000E+00  0.19062005575E+04  0.19062005575E+04  0.00000000000E+00 0.  1.
         21   -1    0    0  501  502  0.00000000000E+00 -0.00000000000E+00 -0.21084994020E+03  0.21084994020E+03  0.00000000000E+00 0.  1.
    9000010    2    1    2  501    0 -0.20537840805E+03  0.12509490714E+03  0.12888568428E+04  0.16447516239E+04  0.99308958153E+03 0.  0.
        -13    1    3    3    0    0  0.29912762846E+03 -0.20530349337E+02  0.10030553684E+04  0.10469092208E+04  0.10566000000E+00 0.  1.
          4    1    3    3  501    0 -0.50450603651E+03  0.14562525647E+03  0.28580147434E+03  0.59784240309E+03  0.00000000000E+00 0.  1.
         13    1    1    2    0    0  0.20537840805E+03 -0.12509490714E+03  0.40649377457E+03  0.47229887382E+03  0.10566000000E+00 0. -1.
<mgrwt>
<rscale>  1 0.71168803E+03</rscale>
<asrwt>0</asrwt>
<pdfrwt beam="2">  1       21 0.32438454E-01 0.10217906E+04</pdfrwt>
<pdfrwt beam="1">  1        4 0.29326161E+00 0.10217906E+04</pdfrwt>
<totfact> 0.12720913E+01</totfact>
</mgrwt>
</event>
<event>
 6    1  0.1431486E-005  0.1023125E+04  0.7818608E-02  0.1020106E+00
          4   -1    0    0  502    0 -0.00000000000E+00  0.00000000000E+00  0.64861698361E+03  0.64861698361E+03  0.00000000000E+00 0.  1.
         21   -1    0    0  501  502  0.00000000000E+00 -0.00000000000E+00 -0.45832709188E+03  0.45832709188E+03  0.00000000000E+00 0.  1.
    9000010    2    1    2  501    0 -0.40158636610E+02  0.26527739290E+02  0.13239368391E+03  0.10316551713E+04  0.10219921076E+04 0.  0.
        -13    1    3    3    0    0 -0.32948058501E+03 -0.29254334149E+03  0.33709627902E+03  0.55477290403E+03  0.10566000000E+00 0.  1.
          4    1    3    3  501    0  0.28932194840E+03  0.31907108078E+03 -0.20470259511E+03  0.47688226730E+03  0.00000000000E+00 0.  1.
         13    1    1    2    0    0  0.40158636610E+02 -0.26527739290E+02  0.57896207822E+02  0.75288904165E+02  0.10566000000E+00 0. -1.
<mgrwt>
<rscale>  1 0.47648505E+03</rscale>
<asrwt>0</asrwt>
<pdfrwt beam="2">  1       21 0.70511860E-01 0.10231248E+04</pdfrwt>
<pdfrwt beam="1">  1        4 0.99787229E-01 0.10231248E+04</pdfrwt>
<totfact> 0.58600404E+01</totfact>
</mgrwt>
</event>
<event>
 6    1  0.1431486E-005  0.9963159E+03  0.7818608E-02  0.9751548E-01
         21   -1    0    0  501  502  0.00000000000E+00  0.00000000000E+00  0.40547645417E+03  0.40547645417E+03  0.00000000000E+00 0.  1.
          4   -1    0    0  502    0 -0.00000000000E+00 -0.00000000000E+00 -0.17267263662E+04  0.17267263662E+04  0.00000000000E+00 0.  1.
    9000010    2    1    2  501    0  0.18367110063E+03  0.11473378891E+03 -0.23377568365E+03  0.10233750050E+04  0.97249494349E+03 0.  0.
        -13    1    3    3    0    0  0.35472138368E+03 -0.20246516009E+03 -0.44631230923E+03  0.60499098310E+03  0.10566000000E+00 0.  1.
          4    1    3    3  501    0 -0.17105028305E+03  0.31719894901E+03  0.21253662559E+03  0.41838402192E+03  0.00000000000E+00 0.  1.
         13    1    1    2    0    0 -0.18367110063E+03 -0.11473378891E+03 -0.10874742284E+04  0.11088278154E+04  0.10566000000E+00 0. -1.
<mgrwt>
<rscale>  1 0.68028854E+03</rscale>
<asrwt>0</asrwt>
<pdfrwt beam="1">  1       21 0.62380993E-01 0.99631588E+03</pdfrwt>
<pdfrwt beam="2">  1        4 0.26565021E+00 0.99631588E+03</pdfrwt>
<totfact> 0.46813010E+00</totfact>
</mgrwt>
</event>
<event>
 6    1  0.1431486E-005  0.1045525E+04  0.7818608E-02  0.9578039E-01
          4   -1    0    0  502    0 -0.00000000000E+00  0.00000000000E+00  0.20484968232E+04  0.20484968232E+04  0.00000000000E+00 0.  1.
         21   -1    0    0  501  502  0.00000000000E+00 -0.00000000000E+00 -0.23533125587E+03  0.23533125587E+03  0.00000000000E+00 0.  1.
    9000010    2    1    2  501    0 -0.23918402125E+02  0.33594962918E+03  0.12736858972E+04  0.16478465000E+04  0.98979193746E+03 0.  0.
        -13    1    3    3    0    0  0.23609042794E+02  0.32558411907E+01  0.13096404033E+04  0.13098572382E+04  0.10566000000E+00 0.  1.
          4    1    3    3  501    0 -0.47527444919E+02  0.33269378799E+03 -0.35954506051E+02  0.33798926180E+03  0.00000000000E+00 0.  1.
         13    1    1    2    0    0  0.23918402125E+02 -0.33594962918E+03  0.53947967013E+03  0.63598157910E+03  0.10566000000E+00 0. -1.
<mgrwt>
<rscale>  1 0.78766911E+03</rscale>
<asrwt>0</asrwt>
<pdfrwt beam="2">  1       21 0.36204810E-01 0.10455249E+04</pdfrwt>
<pdfrwt beam="1">  1        4 0.31515334E+00 0.10455249E+04</pdfrwt>
<totfact> 0.74004581E+00</totfact>
</mgrwt>
</event>
<event>
 6    1  0.1431486E-005  0.1013103E+04  0.7818608E-02  0.9975363E-01
          4   -1    0    0  502    0 -0.00000000000E+00  0.00000000000E+00  0.23669741279E+03  0.23669741279E+03  0.00000000000E+00 0.  1.
         21   -1    0    0  501  502  0.00000000000E+00 -0.00000000000E+00 -0.15321850074E+04  0.15321850074E+04  0.00000000000E+00 0.  1.
    9000010    2    1    2  501    0 -0.99613880081E+02 -0.42423671070E+01 -0.13221537785E+04  0.16656737998E+04  0.10081853354E+04 0.  0.
        -13    1    3    3    0    0  0.34919610818E+03 -0.30454584159E+03 -0.49659670326E+03  0.67918656380E+03  0.10566000000E+00 0.  1.
          4    1    3    3  501    0 -0.44880998826E+03  0.30030347448E+03 -0.82555707522E+03  0.98648723600E+03  0.00000000000E+00 0.  1.
         13    1    1    2    0    0  0.99613880081E+02  0.42423671070E+01  0.26666183913E+02  0.10320862034E+03  0.10566000000E+00 0. -1.
<mgrwt>
<rscale>  1 0.56743843E+03</rscale>
<asrwt>0</asrwt>
<pdfrwt beam="2">  1       21 0.23572077E+00 0.10131034E+04</pdfrwt>
<pdfrwt beam="1">  1        4 0.36414987E-01 0.10131034E+04</pdfrwt>
<totfact> 0.19796874E+01</totfact>
</mgrwt>
</event>
<event>
 6    1  0.1431486E-005  0.9296392E+03  0.7818608E-02  0.9995403E-01
         21   -1    0    0  501  502  0.00000000000E+00  0.00000000000E+00  0.20855440909E+03  0.20855440909E+03  0.00000000000E+00 0.  1.
          4   -1    0    0  502    0 -0.00000000000E+00 -0.00000000000E+00 -0.13807928547E+04  0.13807928547E+04  0.00000000000E+00 0.  1.
    9000010    2    1    2  501    0 -0.11414052305E+03  0.40524346274E+02 -0.91196195094E+03  0.13022686222E+04  0.92171507673E+03 0.  0.
        -13    1    3    3    0    0 -0.49201840010E+03  0.30165702100E+02 -0.73471186928E+03  0.88475624759E+03  0.10566000000E+00 0.  1.
          4    1    3    3  501    0  0.37787787705E+03  0.10358644174E+02 -0.17725008166E+03  0.41751237457E+03  0.00000000000E+00 0.  1.
         13    1    1    2    0    0  0.11414052305E+03 -0.40524346274E+02 -0.26027649470E+03  0.28707864167E+03  0.10566000000E+00 0. -1.
<mgrwt>
<rscale>  1 0.55852248E+03</rscale>
<asrwt>0</asrwt>
<pdfrwt beam="1">  1       21 0.32085293E-01 0.92963916E+03</pdfrwt>
<pdfrwt beam="2">  1        4 0.21242968E+00 0.92963916E+03</pdfrwt>
<totfact> 0.41825732E+01</totfact>
</mgrwt>
</event>
<event>
 6    1  0.1431486E-005  0.1024544E+04  0.7818608E-02  0.9665598E-01
         21   -1    0    0  501  502  0.00000000000E+00  0.00000000000E+00  0.17564274677E+04  0.17564274677E+04  0.00000000000E+00 0.  1.
          4   -1    0    0  502    0 -0.00000000000E+00 -0.00000000000E+00 -0.78956904353E+03  0.78956904353E+03  0.00000000000E+00 0.  1.
    9000010    2    1    2  501    0  0.26427651780E+03 -0.25916717098E+02  0.15769909898E+04  0.18805827205E+04  0.98953374511E+03 0.  0.
        -13    1    3    3    0    0  0.16988803890E+02 -0.90371377293E+02 -0.12741176281E+03  0.15712852624E+03  0.10566000000E+00 0.  1.
          4    1    3    3  501    0  0.24728771391E+03  0.64454660195E+02  0.17044027526E+04  0.17234541943E+04  0.00000000000E+00 0.  1.
         13    1    1    2    0    0 -0.26427651780E+03  0.25916717098E+02 -0.61013256563E+03  0.66541379073E+03  0.10566000000E+00 0. -1.
<mgrwt>
<rscale>  1 0.73102505E+03</rscale>
<asrwt>0</asrwt>
<pdfrwt beam="1">  1       21 0.27021961E+00 0.10245442E+04</pdfrwt>
<pdfrwt beam="2">  1        4 0.12147216E+00 0.10245442E+04</pdfrwt>
<totfact> 0.80852162E-01</totfact>
</mgrwt>
</event>
<event>
 6    1  0.1431486E-005  0.1008269E+04  0.7818608E-02  0.9863044E-01
          4   -1    0    0  502    0 -0.00000000000E+00  0.00000000000E+00  0.20065896546E+04  0.20065896546E+04  0.00000000000E+00 0.  1.
         21   -1    0    0  501  502  0.00000000000E+00 -0.00000000000E+00 -0.18597078796E+03  0.18597078796E+03  0.00000000000E+00 0.  1.
    9000010    2    1    2  501    0 -0.91375316680E+02  0.11253642954E+03  0.12613467879E+04  0.16148068916E+04  0.99779340609E+03 0.  0.
        -13    1    3    3    0    0  0.27920476037E+03  0.39649030755E+03  0.37496146876E+03  0.61298937708E+03  0.10566000000E+00 0.  1.
          4    1    3    3  501    0 -0.37058007705E+03 -0.28395387801E+03  0.88638531916E+03  0.10018175145E+04  0.00000000000E+00 0.  1.
         13    1    1    2    0    0  0.91375316680E+02 -0.11253642954E+03  0.55927207867E+03  0.57775355093E+03  0.10566000000E+00 0. -1.
<mgrwt>
<rscale>  1 0.62086265E+03</rscale>
<asrwt>0</asrwt>
<pdfrwt beam="2">  1       21 0.28610892E-01 0.10082686E+04</pdfrwt>
<pdfrwt beam="1">  1        4 0.30870609E+00 0.10082686E+04</pdfrwt>
<totfact> 0.13175885E+01</totfact>
</mgrwt>
</event>
<event>
 6    1  0.1431486E-005  0.8191169E+03  0.7818608E-02  0.1040494E+00
         21   -1    0    0  501  502  0.00000000000E+00  0.00000000000E+00  0.63829376334E+03  0.63829376334E+03  0.00000000000E+00 0.  1.
          4   -1    0    0  502    0 -0.00000000000E+00 -0.00000000000E+00 -0.29847813575E+03  0.29847813575E+03  0.00000000000E+00 0.  1.
    9000010    2    1    2  501    0  0.16588752547E+02 -0.48471859212E+02  0.33614924430E+03  0.88540886396E+03  0.81751320117E+03 0.  0.
        -13    1    3    3    0    0 -0.37769030912E+03 -0.66252003057E+02  0.30414838500E+03  0.48943390644E+03  0.10566000000E+00 0.  1.
          4    1    3    3  501    0  0.39427906167E+03  0.17780143845E+02  0.32000859301E+02  0.39597495752E+03  0.00000000000E+00 0.  1.
         13    1    1    2    0    0 -0.16588752547E+02  0.48471859212E+02  0.36663832884E+01  0.51363035122E+02  0.10566000000E+00 0. -1.
<mgrwt>
<rscale>  1 0.40963285E+03</rscale>
<asrwt>0</asrwt>
<pdfrwt beam="1">  1       21 0.98199040E-01 0.81911693E+03</pdfrwt>
<pdfrwt beam="2">  1        4 0.45919713E-01 0.81911693E+03</pdfrwt>
<totfact> 0.15307995E+02</totfact>
</mgrwt>
</event>
<event>
 6    1  0.1431486E-005  0.1143718E+04  0.7818608E-02  0.9376330E-01
          4   -1    0    0  502    0 -0.00000000000E+00  0.00000000000E+00  0.48367828646E+03  0.48367828646E+03  0.00000000000E+00 0.  1.
         21   -1    0    0  501  502  0.00000000000E+00 -0.00000000000E+00 -0.14453813797E+04  0.14453813797E+04  0.00000000000E+00 0.  1.
    9000010    2    1    2  501    0 -0.35778224189E+02  0.52173566790E+03 -0.58574982153E+03  0.12849874170E+04  0.10171536855E+04 0.  0.
        -13    1    3    3    0    0  0.13257534885E+03  0.75748105201E+03 -0.18575861720E+03  0.79111316656E+03  0.10566000000E+00 0.  1.
          4    1    3    3  501    0 -0.16835357304E+03 -0.23574538411E+03 -0.39999120433E+03  0.49387425041E+03  0.00000000000E+00 0.  1.
         13    1    1    2    0    0  0.35778224189E+02 -0.52173566790E+03 -0.37595327169E+03  0.64407224916E+03  0.10566000000E+00 0. -1.
<mgrwt>
<rscale>  1 0.94049494E+03</rscale>
<asrwt>0</asrwt>
<pdfrwt beam="2">  1       21 0.22236636E+00 0.11437175E+04</pdfrwt>
<pdfrwt beam="1">  1        4 0.74412046E-01 0.11437175E+04</pdfrwt>
<totfact> 0.51835310E+00</totfact>
</mgrwt>
</event>
<event>
 6    1  0.1431486E-005  0.1020075E+04  0.7818608E-02  0.9636510E-01
         21   -1    0    0  501  502  0.00000000000E+00  0.00000000000E+00  0.32892991491E+03  0.32892991491E+03  0.00000000000E+00 0.  1.
          4   -1    0    0  502    0 -0.00000000000E+00 -0.00000000000E+00 -0.13722493521E+04  0.13722493521E+04  0.00000000000E+00 0.  1.
    9000010    2    1    2  501    0 -0.18365594857E+03  0.23330488185E+03 -0.65464497294E+03  0.12120693349E+04  0.97590540360E+03 0.  0.
        -13    1    3    3    0    0  0.35980435293E+03  0.26488091700E+03 -0.15429930624E+03  0.47268314932E+03  0.10566000000E+00 0.  1.
          4    1    3    3  501    0 -0.54346030150E+03 -0.31576035151E+02 -0.50034566670E+03  0.73938618563E+03  0.00000000000E+00 0.  1.
         13    1    1    2    0    0  0.18365594857E+03 -0.23330488185E+03 -0.38867446427E+03  0.48910993210E+03  0.10566000000E+00 0. -1.
<mgrwt>
<rscale>  1 0.74926129E+03</rscale>
<asrwt>0</asrwt>
<pdfrwt beam="1">  1       21 0.50604601E-01 0.10200745E+04</pdfrwt>
<pdfrwt beam="2">  1        4 0.21111529E+00 0.10200745E+04</pdfrwt>
<totfact> 0.16262693E+01</totfact>
</mgrwt>
</event>
<event>
 6    1  0.1431486E-005  0.9988290E+03  0.7818608E-02  0.9873294E-01
          4   -1    0    0  502    0 -0.00000000000E+00  0.00000000000E+00  0.98497289801E+03  0.98497289801E+03  0.00000000000E+00 0.  1.
         21   -1    0    0  501  502  0.00000000000E+00 -0.00000000000E+00 -0.40233979922E+03  0.40233979922E+03  0.00000000000E+00 0.  1.
    9000010    2    1    2  501    0 -0.14258909827E+03 -0.21778217909E+02  0.25730035639E+03  0.10314372328E+04  0.98835891768E+03 0.  0.
        -13    1    3    3    0    0 -0.40133780478E+02  0.35158143060E+03  0.47107344056E+03  0.58917774928E+03  0.10566000000E+00 0.  1.
          4    1    3    3  501    0 -0.10245531779E+03 -0.37335964851E+03 -0.21377308417E+03  0.44225948356E+03  0.00000000000E+00 0.  1.
         13    1    1    2    0    0  0.14258909827E+03  0.21778217909E+02  0.32533274240E+03  0.35587546440E+03  0.10566000000E+00 0. -1.
<mgrwt>
<rscale>  1 0.61573210E+03</rscale>
<asrwt>0</asrwt>
<pdfrwt beam="2">  1       21 0.61898431E-01 0.99882896E+03</pdfrwt>
<pdfrwt beam="1">  1        4 0.15153429E+00 0.99882896E+03</pdfrwt>
<totfact> 0.27313764E+01</totfact>
</mgrwt>
</event>
<event>
 6    1  0.1431486E-005  0.9765173E+03  0.7818608E-02  0.9963470E-01
         21   -1    0    0  501  502  0.00000000000E+00  0.00000000000E+00  0.24893251630E+03  0.24893251630E+03  0.00000000000E+00 0.  1.
          4   -1    0    0  502    0 -0.00000000000E+00 -0.00000000000E+00 -0.13155748140E+04  0.13155748140E+04  0.00000000000E+00 0.  1.
    9000010    2    1    2  501    0 -0.34323867246E+02 -0.11040290300E+03 -0.76192609809E+03  0.12385949152E+04  0.96964893449E+03 0.  0.
        -13    1    3    3    0    0 -0.29291326610E+03 -0.46380703749E+01 -0.88579745215E+03  0.93298276005E+03  0.10566000000E+00 0.  1.
          4    1    3    3  501    0  0.25858939885E+03 -0.10576483263E+03  0.12387135406E+03  0.30561215515E+03  0.00000000000E+00 0.  1.
         13    1    1    2    0    0  0.34323867246E+02  0.11040290300E+03 -0.30471619964E+03  0.32591241513E+03  0.10566000000E+00 0. -1.
<mgrwt>
<rscale>  1 0.57281443E+03</rscale>
<asrwt>0</asrwt>
<pdfrwt beam="1">  1       21 0.38297311E-01 0.97651727E+03</pdfrwt>
<pdfrwt beam="2">  1        4 0.20239612E+00 0.97651727E+03</pdfrwt>
<totfact> 0.33640202E+01</totfact>
</mgrwt>
</event>
<event>
 6    1  0.1431486E-005  0.8554378E+03  0.7818608E-02  0.1009345E+00
          4   -1    0    0  502    0 -0.00000000000E+00  0.00000000000E+00  0.50300334318E+03  0.50300334318E+03  0.00000000000E+00 0.  1.
         21   -1    0    0  501  502  0.00000000000E+00 -0.00000000000E+00 -0.88048462843E+03  0.88048462843E+03  0.00000000000E+00 0.  1.
    9000010    2    1    2  501    0  0.10236141248E+03  0.51181349947E+02 -0.65884123962E+03  0.10797433018E+04  0.84774785721E+03 0.  0.
        -13    1    3    3    0    0  0.30570034771E+03  0.31742055929E+03 -0.59218687336E+03  0.73816923411E+03  0.10566000000E+00 0.  1.
          4    1    3    3  501    0 -0.20333893523E+03 -0.26623920935E+03 -0.66654366261E+02  0.34157406768E+03  0.00000000000E+00 0.  1.
         13    1    1    2    0    0 -0.10236141248E+03 -0.51181349947E+02  0.28135995437E+03  0.30374466980E+03  0.10566000000E+00 0. -1.
<mgrwt>
<rscale>  1 0.51735597E+03</rscale>
<asrwt>0</asrwt>
<pdfrwt beam="2">  1       21 0.13545917E+00 0.85543779E+03</pdfrwt>
<pdfrwt beam="1">  1        4 0.77385130E-01 0.85543779E+03</pdfrwt>
<totfact> 0.21556542E+01</totfact>
</mgrwt>
</event>
<event>
 6    1  0.1431486E-005  0.1013136E+04  0.7818608E-02  0.9755250E-01
          4   -1    0    0  502    0 -0.00000000000E+00  0.00000000000E+00  0.42325567059E+03  0.42325567059E+03  0.00000000000E+00 0.  1.
         21   -1    0    0  501  502  0.00000000000E+00 -0.00000000000E+00 -0.94148390222E+03  0.94148390222E+03  0.00000000000E+00 0.  1.
    9000010    2    1    2  501    0 -0.18249709283E+03 -0.89904315889E+02 -0.55919718656E+03  0.11572150168E+04  0.99250044170E+03 0.  0.
        -13    1    3    3    0    0  0.35070542078E+03 -0.23993652487E+03 -0.39327448978E+03  0.57898934671E+03  0.10566000000E+00 0.  1.
          4    1    3    3  501    0 -0.53320251362E+03  0.15003220898E+03 -0.16592269679E+03  0.57822567011E+03  0.00000000000E+00 0.  1.
         13    1    1    2    0    0  0.18249709283E+03  0.89904315889E+02  0.40968954938E+02  0.20752455600E+03  0.10566000000E+00 0. -1.
<mgrwt>
<rscale>  1 0.67820375E+03</rscale>
<asrwt>0</asrwt>
<pdfrwt beam="2">  1       21 0.14484368E+00 0.10131363E+04</pdfrwt>
<pdfrwt beam="1">  1        4 0.65116258E-01 0.10131363E+04</pdfrwt>
<totfact> 0.25999476E+01</totfact>
</mgrwt>
</event>
<event>
 6    1  0.1431486E-005  0.1282003E+04  0.7818608E-02  0.9163150E-01
          4   -1    0    0  502    0 -0.00000000000E+00  0.00000000000E+00  0.13799003358E+04  0.13799003358E+04  0.00000000000E+00 0.  1.
         21   -1    0    0  501  502  0.00000000000E+00 -0.00000000000E+00 -0.86765853347E+03  0.86765853347E+03  0.00000000000E+00 0. -1.
    9000010    2    1    2  501    0 -0.64515740549E+03  0.49548894415E+03 -0.78677819769E+01  0.12820272217E+04  0.99085545034E+03 0.  0.
        -13    1    3    3    0    0 -0.72730157419E+03  0.31724091372E+02 -0.22699756837E+03  0.76256272201E+03  0.10566000000E+00 0.  1.
          4    1    3    3  501    0  0.82144168695E+02  0.46376485278E+03  0.21912978639E+03  0.51946449966E+03  0.00000000000E+00 0.  1.
         13    1    1    2    0    0  0.64515740549E+03 -0.49548894415E+03  0.52010958426E+03  0.96553164756E+03  0.10566000000E+00 0. -1.
<mgrwt>
<rscale>  1 0.11442015E+04</rscale>
<asrwt>0</asrwt>
<pdfrwt beam="2">  1       21 0.13348593E+00 0.12820031E+04</pdfrwt>
<pdfrwt beam="1">  1        4 0.21229236E+00 0.12820031E+04</pdfrwt>
<totfact> 0.15226818E+00</totfact>
</mgrwt>
</event>
<event>
 6    1  0.1431486E-005  0.9657219E+03  0.7818608E-02  0.9751242E-01
          4   -1    0    0  502    0 -0.00000000000E+00  0.00000000000E+00  0.24106706557E+03  0.24106706557E+03  0.00000000000E+00 0.  1.
         21   -1    0    0  501  502  0.00000000000E+00 -0.00000000000E+00 -0.16237908940E+04  0.16237908940E+04  0.00000000000E+00 0.  1.
    9000010    2    1    2  501    0  0.23472485356E+03  0.39612428242E+02 -0.12852418454E+04  0.16076272275E+04  0.93592403535E+03 0.  0.
        -13    1    3    3    0    0  0.24755365509E+03 -0.39383216880E+03 -0.95599595281E+03  0.10631626697E+04  0.10566000000E+00 0.  1.
          4    1    3    3  501    0 -0.12828801531E+02  0.43344459704E+03 -0.32924589259E+03  0.54446455774E+03  0.00000000000E+00 0.  1.
         13    1    1    2    0    0 -0.23472485356E+03 -0.39612428242E+02 -0.97481982993E+02  0.25723073207E+03  0.10566000000E+00 0. -1.
<mgrwt>
<rscale>  1 0.68046113E+03</rscale>
<asrwt>0</asrwt>
<pdfrwt beam="2">  1       21 0.24981398E+00 0.96572186E+03</pdfrwt>
<pdfrwt beam="1">  1        4 0.37087241E-01 0.96572186E+03</pdfrwt>
<totfact> 0.15609184E+01</totfact>
</mgrwt>
</event>
<event>
 6    1  0.1431486E-005  0.1014981E+04  0.7818608E-02  0.1008867E+00
         21   -1    0    0  501  502  0.00000000000E+00  0.00000000000E+00  0.13492845639E+03  0.13492845639E+03  0.00000000000E+00 0.  1.
          4   -1    0    0  502    0 -0.00000000000E+00 -0.00000000000E+00 -0.21874806611E+04  0.21874806611E+04  0.00000000000E+00 0.  1.
    9000010    2    1    2  501    0  0.59706285104E+01  0.69280187094E+02 -0.18825200025E+04  0.21387073111E+04  0.10125966669E+04 0.  0.
        -13    1    3    3    0    0  0.36598186289E+03  0.18627649835E+02 -0.16861390221E+04  0.17255012392E+04  0.10566000000E+00 0.  1.
          4    1    3    3  501    0 -0.36001123438E+03  0.50652537258E+02 -0.19638098041E+03  0.41320607193E+03  0.00000000000E+00 0.  1.
         13    1    1    2    0    0 -0.59706285104E+01 -0.69280187094E+02 -0.17003220216E+03  0.18370180637E+03  0.10566000000E+00 0. -1.
<mgrwt>
<rscale>  1 0.51927532E+03</rscale>
<asrwt>0</asrwt>
<pdfrwt beam="1">  1       21 0.20758226E-01 0.10149815E+04</pdfrwt>
<pdfrwt beam="2">  1        4 0.33653545E+00 0.10149815E+04</pdfrwt>
<totfact> 0.16558992E+01</totfact>
</mgrwt>
</event>
<event>
 6    1  0.1431486E-005  0.1016259E+04  0.7818608E-02  0.9839009E-01
          4   -1    0    0  502    0 -0.00000000000E+00  0.00000000000E+00  0.15161643230E+04  0.15161643230E+04  0.00000000000E+00 0.  1.
         21   -1    0    0  501  502  0.00000000000E+00 -0.00000000000E+00 -0.28418936913E+03  0.28418936913E+03  0.00000000000E+00 0.  1.
    9000010    2    1    2  501    0 -0.15297792210E+03  0.52908421675E+01  0.66840603862E+03  0.12163672445E+04  0.10046653190E+04 0.  0.
        -13    1    3    3    0    0 -0.27155696064E+03 -0.34793994468E+03  0.71562108352E+03  0.84078471342E+03  0.10566000000E+00 0.  1.
          4    1    3    3  501    0  0.11857903853E+03  0.35323078684E+03 -0.47215044905E+02  0.37558253104E+03  0.00000000000E+00 0.  1.
         13    1    1    2    0    0  0.15297792210E+03 -0.52908421675E+01  0.56356891529E+03  0.58398644771E+03  0.10566000000E+00 0. -1.
<mgrwt>
<rscale>  1 0.63310459E+03</rscale>
<asrwt>0</asrwt>
<pdfrwt beam="2">  1       21 0.43721442E-01 0.10162591E+04</pdfrwt>
<pdfrwt beam="1">  1        4 0.23325605E+00 0.10162591E+04</pdfrwt>
<totfact> 0.16088070E+01</totfact>
</mgrwt>
</event>
<event>
 6    1  0.1431486E-005  0.1006630E+04  0.7818608E-02  0.1005524E+00
          4   -1    0    0  502    0 -0.00000000000E+00  0.00000000000E+00  0.11032746568E+04  0.11032746568E+04  0.00000000000E+00 0.  1.
         21   -1    0    0  501  502  0.00000000000E+00 -0.00000000000E+00 -0.30212940540E+03  0.30212940540E+03  0.00000000000E+00 0.  1.
    9000010    2    1    2  501    0 -0.41621901699E+02  0.67241012896E+02  0.56062487788E+03  0.11522167842E+04  0.10035185736E+04 0.  0.
        -13    1    3    3    0    0  0.20600099575E+03  0.47897508882E+03  0.34765056798E+03  0.62666935025E+03  0.10566000000E+00 0.  1.
          4    1    3    3  501    0 -0.24762289744E+03 -0.41173407593E+03  0.21297430990E+03  0.52554743391E+03  0.00000000000E+00 0.  1.
         13    1    1    2    0    0  0.41621901699E+02 -0.67241012896E+02  0.24052037354E+03  0.25318727806E+03  0.10566000000E+00 0. -1.
<mgrwt>
<rscale>  1 0.53292959E+03</rscale>
<asrwt>0</asrwt>
<pdfrwt beam="2">  1       21 0.46481448E-01 0.10066297E+04</pdfrwt>
<pdfrwt beam="1">  1        4 0.16973456E+00 0.10066297E+04</pdfrwt>
<totfact> 0.37369849E+01</totfact>
</mgrwt>
</event>
<event>
 6    1  0.1431486E-005  0.1204015E+04  0.7818608E-02  0.9264526E-01
         21   -1    0    0  501  502  0.00000000000E+00  0.00000000000E+00  0.88302544804E+03  0.88302544804E+03  0.00000000000E+00 0.  1.
          4   -1    0    0  502    0 -0.00000000000E+00 -0.00000000000E+00 -0.12402607122E+04  0.12402607122E+04  0.00000000000E+00 0.  1.
    9000010    2    1    2  501    0 -0.46418938174E+03  0.48760957083E+03  0.23488720867E+03  0.12267127334E+04  0.99820701956E+03 0.  0.
        -13    1    3    3    0    0 -0.69565294086E+03  0.26486966556E+03 -0.11333967547E+03  0.75295076005E+03  0.10566000000E+00 0.  1.
          4    1    3    3  501    0  0.23146355912E+03  0.22273990527E+03  0.34822688413E+03  0.47376197339E+03  0.00000000000E+00 0.  1.
         13    1    1    2    0    0  0.46418938174E+03 -0.48760957083E+03 -0.59212247286E+03  0.89657342684E+03  0.10566000000E+00 0. -1.
<mgrwt>
<rscale>  1 0.10411525E+04</rscale>
<asrwt>0</asrwt>
<pdfrwt beam="1">  1       21 0.13585007E+00 0.12040150E+04</pdfrwt>
<pdfrwt beam="2">  1        4 0.19080934E+00 0.12040150E+04</pdfrwt>
<totfact> 0.20369375E+00</totfact>
</mgrwt>
</event>
<event>
 6    1  0.1431486E-005  0.1022314E+04  0.7818608E-02  0.9687780E-01
          4   -1    0    0  502    0 -0.00000000000E+00  0.00000000000E+00  0.38633487204E+03  0.38633487204E+03  0.00000000000E+00 0.  1.
         21   -1    0    0  501  502  0.00000000000E+00 -0.00000000000E+00 -0.11928608416E+04  0.11928608416E+04  0.00000000000E+00 0.  1.
    9000010    2    1    2  501    0 -0.14633372579E+03  0.20026911117E+03 -0.84734461718E+03  0.13278245749E+04  0.99176808041E+03 0.  0.
        -13    1    3    3    0    0  0.21834238865E+03  0.32264115717E+03 -0.85875992823E+03  0.94299487829E+03  0.10566000000E+00 0.  1.
          4    1    3    3  501    0 -0.36467611445E+03 -0.12237204600E+03  0.11415311051E+02  0.38482969664E+03  0.00000000000E+00 0.  1.
         13    1    1    2    0    0  0.14633372579E+03 -0.20026911117E+03  0.40818647659E+02  0.25137113867E+03  0.10566000000E+00 0. -1.
<mgrwt>
<rscale>  1 0.71749073E+03</rscale>
<asrwt>0</asrwt>
<pdfrwt beam="2">  1       21 0.18351705E+00 0.10223137E+04</pdfrwt>
<pdfrwt beam="1">  1        4 0.59436135E-01 0.10223137E+04</pdfrwt>
<totfact> 0.16026510E+01</totfact>
</mgrwt>
</event>
<event>
 6    1  0.1431486E-005  0.9935599E+03  0.7818608E-02  0.9952267E-01
         21   -1    0    0  501  502  0.00000000000E+00  0.00000000000E+00  0.92436677563E+02  0.92436677563E+02  0.00000000000E+00 0.  1.
          4   -1    0    0  502    0 -0.00000000000E+00 -0.00000000000E+00 -0.33937219599E+04  0.33937219599E+04  0.00000000000E+00 0.  1.
    9000010    2    1    2  501    0 -0.10478345073E+03 -0.44258389158E+02 -0.27690422170E+04  0.29418966892E+04  0.98702733189E+03 0.  0.
        -13    1    3    3    0    0  0.30871320868E+03 -0.11155300364E+03 -0.32398781178E+03  0.46121148205E+03  0.10566000000E+00 0.  1.
          4    1    3    3  501    0 -0.41349665941E+03  0.67294614477E+02 -0.24450544053E+04  0.24806852072E+04  0.00000000000E+00 0.  1.
         13    1    1    2    0    0  0.10478345073E+03  0.44258389158E+02 -0.53224306535E+03  0.54426194827E+03  0.10566000000E+00 0. -1.
<mgrwt>
<rscale>  1 0.57793710E+03</rscale>
<asrwt>0</asrwt>
<pdfrwt beam="1">  1       21 0.14221026E-01 0.99355993E+03</pdfrwt>
<pdfrwt beam="2">  1        4 0.52211111E+00 0.99355993E+03</pdfrwt>
<totfact> 0.15385731E+00</totfact>
</mgrwt>
</event>
<event>
 6    1  0.1431486E-005  0.1311742E+04  0.7818608E-02  0.9131275E-01
         21   -1    0    0  501  502  0.00000000000E+00  0.00000000000E+00  0.94825948319E+03  0.94825948319E+03  0.00000000000E+00 0. -1.
          4   -1    0    0  502    0 -0.00000000000E+00 -0.00000000000E+00 -0.13616307482E+04  0.13616307482E+04  0.00000000000E+00 0.  1.
    9000010    2    1    2  501    0 -0.84588904786E+03  0.13506948046E+03  0.92613103617E+02  0.13150072039E+04  0.99342574641E+03 0.  0.
        -13    1    3    3    0    0 -0.10398448881E+04  0.11483425382E+03  0.23661714565E+03  0.10725912464E+04  0.10566000000E+00 0.  1.
          4    1    3    3  501    0  0.19395584021E+03  0.20235226639E+02 -0.14400404204E+03  0.24241595754E+03  0.00000000000E+00 0.  1.
         13    1    1    2    0    0  0.84588904786E+03 -0.13506948046E+03 -0.50598436861E+03  0.99488302744E+03  0.10566000000E+00 0. -1.
<mgrwt>
<rscale>  1 0.11791836E+04</rscale>
<asrwt>0</asrwt>
<pdfrwt beam="1">  1       21 0.14588607E+00 0.13117419E+04</pdfrwt>
<pdfrwt beam="2">  1        4 0.20948165E+00 0.13117419E+04</pdfrwt>
<totfact> 0.12406470E+00</totfact>
</mgrwt>
</event>
<event>
 6    1  0.1431486E-005  0.1280809E+04  0.7818608E-02  0.9171876E-01
          4   -1    0    0  502    0 -0.00000000000E+00  0.00000000000E+00  0.14287209314E+04  0.14287209314E+04  0.00000000000E+00 0.  1.
         21   -1    0    0  501  502  0.00000000000E+00 -0.00000000000E+00 -0.74994574722E+03  0.74994574722E+03  0.00000000000E+00 0. -1.
    9000010    2    1    2  501    0 -0.77978111574E+03 -0.12288253325E+03  0.42425762494E+03  0.13492464567E+04  0.10086192359E+04 0.  0.
        -13    1    3    3    0    0 -0.96353826052E+03 -0.30775240698E+03  0.27220638296E+03  0.10474797609E+04  0.10566000000E+00 0.  1.
          4    1    3    3  501    0  0.18375714478E+03  0.18486987374E+03  0.15205124198E+03  0.30176669574E+03  0.00000000000E+00 0.  1.
         13    1    1    2    0    0  0.77978111574E+03  0.12288253325E+03  0.25451755924E+03  0.82942022194E+03  0.10566000000E+00 0. -1.
<mgrwt>
<rscale>  1 0.11348492E+04</rscale>
<asrwt>0</asrwt>
<pdfrwt beam="2">  1       21 0.11537627E+00 0.12808089E+04</pdfrwt>
<pdfrwt beam="1">  1        4 0.21980322E+00 0.12808089E+04</pdfrwt>
<totfact> 0.20005608E+00</totfact>
</mgrwt>
</event>
<event>
 6    1  0.1431486E-005  0.1008059E+04  0.7818608E-02  0.9948268E-01
         21   -1    0    0  501  502  0.00000000000E+00  0.00000000000E+00  0.39420870911E+03  0.39420870911E+03  0.00000000000E+00 0.  1.
          4   -1    0    0  502    0 -0.00000000000E+00 -0.00000000000E+00 -0.81413935831E+03  0.81413935831E+03  0.00000000000E+00 0.  1.
    9000010    2    1    2  501    0  0.45518618486E+02  0.10047486589E+03 -0.31505718520E+03  0.10561455776E+04  0.10020056426E+04 0.  0.
        -13    1    3    3    0    0  0.12240132409E+02 -0.31173436056E+03  0.21864926803E+03  0.38096672554E+03  0.10566000000E+00 0.  1.
          4    1    3    3  501    0  0.33278486078E+02  0.41220922645E+03 -0.53370645323E+03  0.67517885203E+03  0.00000000000E+00 0.  1.
         13    1    1    2    0    0 -0.45518618486E+02 -0.10047486589E+03 -0.10487346400E+03  0.15220248986E+03  0.10566000000E+00 0. -1.
<mgrwt>
<rscale>  1 0.57977971E+03</rscale>
<asrwt>0</asrwt>
<pdfrwt beam="1">  1       21 0.60647493E-01 0.10080588E+04</pdfrwt>
<pdfrwt beam="2">  1        4 0.12525221E+00 0.10080588E+04</pdfrwt>
<totfact> 0.47018712E+01</totfact>
</mgrwt>
</event>
<event>
 6    1  0.1431486E-005  0.1147564E+04  0.7818608E-02  0.9343176E-01
          4   -1    0    0  502    0 -0.00000000000E+00  0.00000000000E+00  0.12482390138E+04  0.12482390138E+04  0.00000000000E+00 0.  1.
         21   -1    0    0  501  502  0.00000000000E+00 -0.00000000000E+00 -0.60498138764E+03  0.60498138764E+03  0.00000000000E+00 0. -1.
    9000010    2    1    2  501    0  0.47371178992E+03  0.34065034999E+03  0.50395481936E+03  0.12533447443E+04  0.98815842213E+03 0.  0.
        -13    1    3    3    0    0  0.73503777123E+03  0.11860822055E+03  0.14806304575E+03  0.75912522800E+03  0.10566000000E+00 0.  1.
          4    1    3    3  501    0 -0.26132598131E+03  0.22204212944E+03  0.35589177361E+03  0.49421951628E+03  0.00000000000E+00 0.  1.
         13    1    1    2    0    0 -0.47371178992E+03 -0.34065034999E+03  0.13930280675E+03  0.59987565710E+03  0.10566000000E+00 0. -1.
<mgrwt>
<rscale>  1 0.96903314E+03</rscale>
<asrwt>0</asrwt>
<pdfrwt beam="2">  1       21 0.93074060E-01 0.11475638E+04</pdfrwt>
<pdfrwt beam="1">  1        4 0.19203677E+00 0.11475638E+04</pdfrwt>
<totfact> 0.53062808E+00</totfact>
</mgrwt>
</event>
<event>
 6    1  0.1431486E-005  0.1015606E+04  0.7818608E-02  0.9645853E-01
          4   -1    0    0  502    0 -0.00000000000E+00  0.00000000000E+00  0.16006197512E+04  0.16006197512E+04  0.00000000000E+00 0.  1.
         21   -1    0    0  501  502  0.00000000000E+00 -0.00000000000E+00 -0.36563127177E+03  0.36563127177E+03  0.00000000000E+00 0.  1.
    9000010    2    1    2  501    0 -0.75191726795E+02 -0.28159426578E+03  0.41698924481E+03  0.10978778973E+04  0.97288576971E+03 0.  0.
        -13    1    3    3    0    0 -0.54230243942E+02 -0.58518820077E+02  0.71811850177E+03  0.72253689554E+03  0.10566000000E+00 0.  1.
          4    1    3    3  501    0 -0.20961482853E+02 -0.22307544571E+03 -0.30112925696E+03  0.37534100181E+03  0.00000000000E+00 0.  1.
         13    1    1    2    0    0  0.75191726795E+02  0.28159426578E+03  0.81799923459E+03  0.86837312560E+03  0.10566000000E+00 0. -1.
<mgrwt>
<rscale>  1 0.74334233E+03</rscale>
<asrwt>0</asrwt>
<pdfrwt beam="2">  1       21 0.56250966E-01 0.10156061E+04</pdfrwt>
<pdfrwt beam="1">  1        4 0.24624919E+00 0.10156061E+04</pdfrwt>
<totfact> 0.77446081E+00</totfact>
</mgrwt>
</event>
<event>
 6    1  0.1431486E-005  0.1000429E+04  0.7818608E-02  0.1002849E+00
          4   -1    0    0  502    0 -0.00000000000E+00  0.00000000000E+00  0.51480599191E+03  0.51480599191E+03  0.00000000000E+00 0.  1.
         21   -1    0    0  501  502  0.00000000000E+00 -0.00000000000E+00 -0.58750435629E+03  0.58750435629E+03  0.00000000000E+00 0.  1.
    9000010    2    1    2  501    0 -0.20858042173E+02 -0.85063070402E+02 -0.11129335831E+03  0.10066005337E+04  0.99658799862E+03 0.  0.
        -13    1    3    3    0    0  0.12323958944E+03  0.26855231371E+03  0.31662605311E+03  0.43308245205E+03  0.10566000000E+00 0.  1.
          4    1    3    3  501    0 -0.14409763161E+03 -0.35361538411E+03 -0.42791941142E+03  0.57351808166E+03  0.00000000000E+00 0.  1.
         13    1    1    2    0    0  0.20858042173E+02  0.85063070402E+02  0.38594993934E+02  0.95709814493E+02  0.10566000000E+00 0. -1.
<mgrwt>
<rscale>  1 0.54418277E+03</rscale>
<asrwt>0</asrwt>
<pdfrwt beam="2">  1       21 0.90385286E-01 0.10004291E+04</pdfrwt>
<pdfrwt beam="1">  1        4 0.79200922E-01 0.10004291E+04</pdfrwt>
<totfact> 0.56295124E+01</totfact>
</mgrwt>
</event>
<event>
 6    1  0.1431486E-005  0.1057238E+04  0.7818608E-02  0.9408808E-01
         21   -1    0    0  501  502  0.00000000000E+00  0.00000000000E+00  0.64611004824E+03  0.64611004824E+03  0.00000000000E+00 0.  1.
          4   -1    0    0  502    0 -0.00000000000E+00 -0.00000000000E+00 -0.17473042501E+04  0.17473042501E+04  0.00000000000E+00 0.  1.
    9000010    2    1    2  501    0 -0.53024863503E+03 -0.25731008252E+03  0.93381628410E+02  0.10613544202E+04  0.87771349726E+03 0.  0.
        -13    1    3    3    0    0 -0.36946269035E+03 -0.54253909418E+03 -0.12445269797E+03  0.66808669607E+03  0.10566000000E+00 0.  1.
          4    1    3    3  501    0 -0.16078594468E+03  0.28522901166E+03  0.21783432638E+03  0.39326772414E+03  0.00000000000E+00 0.  1.
         13    1    1    2    0    0  0.53024863503E+03  0.25731008252E+03 -0.11945758303E+04  0.13320598782E+04  0.10566000000E+00 0. -1.
<mgrwt>
<rscale>  1 0.91354316E+03</rscale>
<asrwt>0</asrwt>
<pdfrwt beam="1">  1       21 0.99401547E-01 0.10572384E+04</pdfrwt>
<pdfrwt beam="2">  1        4 0.26881604E+00 0.10572384E+04</pdfrwt>
<totfact> 0.14835605E+00</totfact>
</mgrwt>
</event>
<event>
 6    1  0.1431486E-005  0.1121856E+04  0.7818608E-02  0.9389133E-01
         21   -1    0    0  501  502  0.00000000000E+00  0.00000000000E+00  0.86087352852E+03  0.86087352852E+03  0.00000000000E+00 0. -1.
          4   -1    0    0  502    0 -0.00000000000E+00 -0.00000000000E+00 -0.80186915071E+03  0.80186915071E+03  0.00000000000E+00 0.  1.
    9000010    2    1    2  501    0  0.23710931224E+02 -0.52871878783E+03  0.12750209074E+03  0.11290782597E+04  0.98916892817E+03 0.  0.
        -13    1    3    3    0    0  0.40615249534E+03  0.40665129086E+02 -0.72590862156E+02  0.41458768268E+03  0.10566000000E+00 0.  1.
          4    1    3    3  501    0 -0.38244156412E+03 -0.56938391692E+03  0.20009295290E+03  0.71449057699E+03  0.00000000000E+00 0.  1.
         13    1    1    2    0    0 -0.23710931224E+02  0.52871878783E+03 -0.68497712927E+02  0.53366441956E+03  0.10566000000E+00 0. -1.
<mgrwt>
<rscale>  1 0.92975410E+03</rscale>
<asrwt>0</asrwt>
<pdfrwt beam="1">  1       21 0.13244208E+00 0.11218560E+04</pdfrwt>
<pdfrwt beam="2">  1        4 0.12336448E+00 0.11218560E+04</pdfrwt>
<totfact> 0.72514828E+00</totfact>
</mgrwt>
</event>
<event>
 6    1  0.1431486E-005  0.1150948E+04  0.7818608E-02  0.9371006E-01
         21   -1    0    0  501  502  0.00000000000E+00  0.00000000000E+00  0.59759662943E+03  0.59759662943E+03  0.00000000000E+00 0.  1.
          4   -1    0    0  502    0 -0.00000000000E+00 -0.00000000000E+00 -0.11723804654E+04  0.11723804654E+04  0.00000000000E+00 0.  1.
    9000010    2    1    2  501    0  0.51756657924E+03 -0.75783406053E+02 -0.39159146739E+03  0.12157409144E+04  0.10252140289E+04 0.  0.
        -13    1    3    3    0    0 -0.30140361850E+03 -0.12980588613E+03 -0.79522843248E+02  0.33766492723E+03  0.10566000000E+00 0.  1.
          4    1    3    3  501    0  0.81897019774E+03  0.54022480074E+02 -0.31206862414E+03  0.87807598721E+03  0.00000000000E+00 0.  1.
         13    1    1    2    0    0 -0.51756657924E+03  0.75783406053E+02 -0.18319236856E+03  0.55423618038E+03  0.10566000000E+00 0. -1.
<mgrwt>
<rscale>  1 0.94500698E+03</rscale>
<asrwt>0</asrwt>
<pdfrwt beam="1">  1       21 0.91937943E-01 0.11509483E+04</pdfrwt>
<pdfrwt beam="2">  1        4 0.18036622E+00 0.11509483E+04</pdfrwt>
<totfact> 0.65741687E+00</totfact>
</mgrwt>
</event>
<event>
 6    1  0.1431486E-005  0.1001025E+04  0.7818608E-02  0.1021043E+00
          4   -1    0    0  502    0 -0.00000000000E+00  0.00000000000E+00  0.21304258584E+04  0.21304258584E+04  0.00000000000E+00 0.  1.
         21   -1    0    0  501  502  0.00000000000E+00 -0.00000000000E+00 -0.13776249956E+03  0.13776249956E+03  0.00000000000E+00 0.  1.
    9000010    2    1    2  501    0  0.39788841870E+02 -0.30200759999E+02  0.17125247047E+04  0.19836309568E+04  0.99977781070E+03 0.  0.
        -13    1    3    3    0    0  0.27303196815E+03 -0.12710932039E+03  0.53985444499E+02  0.30597005465E+03  0.10566000000E+00 0.  1.
          4    1    3    3  501    0 -0.23324312628E+03  0.96908560391E+02  0.16585392602E+04  0.16776609021E+04  0.00000000000E+00 0.  1.
         13    1    1    2    0    0 -0.39788841870E+02  0.30200759999E+02  0.28013865420E+03  0.28455740121E+03  0.10566000000E+00 0. -1.
<mgrwt>
<rscale>  1 0.47312174E+03</rscale>
<asrwt>0</asrwt>
<pdfrwt beam="2">  1       21 0.21194232E-01 0.10010249E+04</pdfrwt>
<pdfrwt beam="1">  1        4 0.32775780E+00 0.10010249E+04</pdfrwt>
<totfact> 0.18111808E+01</totfact>
</mgrwt>
</event>
<event>
 6    1  0.1431486E-005  0.1038124E+04  0.7818608E-02  0.9706369E-01
         21   -1    0    0  501  502  0.00000000000E+00  0.00000000000E+00  0.11465501695E+04  0.11465501695E+04  0.00000000000E+00 0.  1.
          4   -1    0    0  502    0 -0.00000000000E+00 -0.00000000000E+00 -0.10661326382E+04  0.10661326382E+04  0.00000000000E+00 0.  1.
    9000010    2    1    2  501    0  0.20166266904E+03  0.94130246105E+02  0.89350348983E+03  0.13696898525E+04  0.10139888907E+04 0.  0.
        -13    1    3    3    0    0 -0.31477792727E+03 -0.24254021656E+03  0.49852364351E+03  0.63752390892E+03  0.10566000000E+00 0.  1.
          4    1    3    3  501    0  0.51644059631E+03  0.33667046266E+03  0.39497984632E+03  0.73216594359E+03  0.00000000000E+00 0.  1.
         13    1    1    2    0    0 -0.20166266904E+03 -0.94130246105E+02 -0.81308595857E+03  0.84299295520E+03  0.10566000000E+00 0. -1.
<mgrwt>
<rscale>  1 0.70638864E+03</rscale>
<asrwt>0</asrwt>
<pdfrwt beam="1">  1       21 0.17639233E+00 0.10381242E+04</pdfrwt>
<pdfrwt beam="2">  1        4 0.16402041E+00 0.10381242E+04</pdfrwt>
<totfact> 0.15362134E+00</totfact>
</mgrwt>
</event>
<event>
 6    1  0.1431486E-005  0.1036740E+04  0.7818608E-02  0.9875759E-01
          4   -1    0    0  502    0 -0.00000000000E+00  0.00000000000E+00  0.87508251455E+03  0.87508251455E+03  0.00000000000E+00 0.  1.
         21   -1    0    0  501  502  0.00000000000E+00 -0.00000000000E+00 -0.43537444645E+03  0.43537444645E+03  0.00000000000E+00 0.  1.
    9000010    2    1    2  501    0  0.11661807341E+03 -0.52683826254E+02  0.22556905330E+03  0.10609957628E+04  0.10288125438E+04 0.  0.
        -13    1    3    3    0    0  0.41087156982E+03 -0.23298719457E+03 -0.20013391060E+03  0.51298350174E+03  0.10566000000E+00 0.  1.
          4    1    3    3  501    0 -0.29425349640E+03  0.18030336832E+03  0.42570296390E+03  0.54801226104E+03  0.00000000000E+00 0.  1.
         13    1    1    2    0    0 -0.11661807341E+03  0.52683826254E+02  0.21413901480E+03  0.24946119822E+03  0.10566000000E+00 0. -1.
<mgrwt>
<rscale>  1 0.61450639E+03</rscale>
<asrwt>0</asrwt>
<pdfrwt beam="2">  1       21 0.66980684E-01 0.10367404E+04</pdfrwt>
<pdfrwt beam="1">  1        4 0.13462808E+00 0.10367404E+04</pdfrwt>
<totfact> 0.31152557E+01</totfact>
</mgrwt>
</event>
<event>
 6    1  0.1431486E-005  0.1034429E+04  0.7818608E-02  0.9663232E-01
          4   -1    0    0  502    0 -0.00000000000E+00  0.00000000000E+00  0.27086046353E+03  0.27086046353E+03  0.00000000000E+00 0.  1.
         21   -1    0    0  501  502  0.00000000000E+00 -0.00000000000E+00 -0.16386898171E+04  0.16386898171E+04  0.00000000000E+00 0.  1.
    9000010    2    1    2  501    0 -0.25888922475E+03  0.24810225854E+02 -0.12541632287E+04  0.16257207947E+04  0.10012010387E+04 0.  0.
        -13    1    3    3    0    0 -0.49634867442E+03  0.34026052005E+02 -0.12925584784E+04  0.13850007978E+04  0.10566000000E+00 0.  1.
          4    1    3    3  501    0  0.23745944966E+03 -0.92158261507E+01  0.38395249605E+02  0.24071999684E+03  0.00000000000E+00 0.  1.
         13    1    1    2    0    0  0.25888922475E+03 -0.24810225854E+02 -0.11366612478E+03  0.28382948594E+03  0.10566000000E+00 0. -1.
<mgrwt>
<rscale>  1 0.73248749E+03</rscale>
<asrwt>0</asrwt>
<pdfrwt beam="2">  1       21 0.25210612E+00 0.10344287E+04</pdfrwt>
<pdfrwt beam="1">  1        4 0.41670841E-01 0.10344287E+04</pdfrwt>
<totfact> 0.11788880E+01</totfact>
</mgrwt>
</event>
<event>
 6    1  0.1431486E-005  0.1021926E+04  0.7818608E-02  0.9764874E-01
         21   -1    0    0  501  502  0.00000000000E+00  0.00000000000E+00  0.70479415541E+03  0.70479415541E+03  0.00000000000E+00 0.  1.
          4   -1    0    0  502    0 -0.00000000000E+00 -0.00000000000E+00 -0.57163769910E+03  0.57163769910E+03  0.00000000000E+00 0.  1.
    9000010    2    1    2  501    0  0.15485436606E+03 -0.11353863109E+03  0.24946691433E+03  0.10519345734E+04  0.10037239211E+04 0.  0.
        -13    1    3    3    0    0 -0.92402086983E+02  0.31386684826E+03  0.41743076537E+03  0.53037628073E+03  0.10566000000E+00 0.  1.
          4    1    3    3  501    0  0.24725645304E+03 -0.42740547936E+03 -0.16796385104E+03  0.52155829263E+03  0.00000000000E+00 0.  1.
         13    1    1    2    0    0 -0.15485436606E+03  0.11353863109E+03 -0.11631045802E+03  0.22449728115E+03  0.10566000000E+00 0. -1.
<mgrwt>
<rscale>  1 0.67282178E+03</rscale>
<asrwt>0</asrwt>
<pdfrwt beam="1">  1       21 0.10842987E+00 0.10219259E+04</pdfrwt>
<pdfrwt beam="2">  1        4 0.87944262E-01 0.10219259E+04</pdfrwt>
<totfact> 0.28103401E+01</totfact>
</mgrwt>
</event>
<event>
 6    1  0.1431486E-005  0.1028397E+04  0.7818608E-02  0.9787290E-01
          4   -1    0    0  502    0 -0.00000000000E+00  0.00000000000E+00  0.41476248106E+03  0.41476248106E+03  0.00000000000E+00 0.  1.
         21   -1    0    0  501  502  0.00000000000E+00 -0.00000000000E+00 -0.88104374826E+03  0.88104374826E+03  0.00000000000E+00 0.  1.
    9000010    2    1    2  501    0  0.92626780340E+02 -0.14845202904E+03 -0.44118239634E+03  0.11190360683E+04  0.10134012482E+04 0.  0.
        -13    1    3    3    0    0 -0.40463493632E+03 -0.12049246277E+02 -0.44741266154E+03  0.60336781229E+03  0.10566000000E+00 0.  1.
          4    1    3    3  501    0  0.49726171667E+03 -0.13640278276E+03  0.62302652070E+01  0.51566825597E+03  0.00000000000E+00 0.  1.
         13    1    1    2    0    0 -0.92626780340E+02  0.14845202904E+03 -0.25098870870E+02  0.17677016107E+03  0.10566000000E+00 0. -1.
<mgrwt>
<rscale>  1 0.66049137E+03</rscale>
<asrwt>0</asrwt>
<pdfrwt beam="2">  1       21 0.13554519E+00 0.10283967E+04</pdfrwt>
<pdfrwt beam="1">  1        4 0.63809613E-01 0.10283967E+04</pdfrwt>
<totfact> 0.32533318E+01</totfact>
</mgrwt>
</event>
<event>
 6    1  0.1431486E-005  0.1011389E+04  0.7818608E-02  0.9876443E-01
          4   -1    0    0  502    0 -0.00000000000E+00  0.00000000000E+00  0.72458735054E+03  0.72458735054E+03  0.00000000000E+00 0.  1.
         21   -1    0    0  501  502  0.00000000000E+00 -0.00000000000E+00 -0.55917522258E+03  0.55917522258E+03  0.00000000000E+00 0.  1.
    9000010    2    1    2  501    0  0.98543777813E+02  0.95932158586E+02 -0.67110665085E+02  0.10136131411E+04  0.10019949616E+04 0.  0.
        -13    1    3    3    0    0  0.26429853325E+03  0.22094443514E+03  0.38469382675E+03  0.51639084964E+03  0.10566000000E+00 0.  1.
          4    1    3    3  501    0 -0.16575475543E+03 -0.12501227655E+03 -0.45180449183E+03  0.49722229141E+03  0.00000000000E+00 0.  1.
         13    1    1    2    0    0 -0.98543777813E+02 -0.95932158586E+02  0.23252279304E+03  0.27014943206E+03  0.10566000000E+00 0. -1.
<mgrwt>
<rscale>  1 0.61416663E+03</rscale>
<asrwt>0</asrwt>
<pdfrwt beam="2">  1       21 0.86026957E-01 0.10113890E+04</pdfrwt>
<pdfrwt beam="1">  1        4 0.11147498E+00 0.10113890E+04</pdfrwt>
<totfact> 0.28089829E+01</totfact>
</mgrwt>
</event>
<event>
 6    1  0.1431486E-005  0.1145899E+04  0.7818608E-02  0.9423573E-01
         21   -1    0    0  501  502  0.00000000000E+00  0.00000000000E+00  0.14705392886E+04  0.14705392886E+04  0.00000000000E+00 0. -1.
          4   -1    0    0  502    0 -0.00000000000E+00 -0.00000000000E+00 -0.44601909168E+03  0.44601909168E+03  0.00000000000E+00 0.  1.
    9000010    2    1    2  501    0 -0.34688023327E+03 -0.26934021403E+03  0.55354018238E+03  0.12725923623E+04  0.10584018801E+04 0.  0.
        -13    1    3    3    0    0  0.12387922101E+03 -0.88723109025E+02 -0.26821581196E+03  0.30847622991E+03  0.10566000000E+00 0.  1.
          4    1    3    3  501    0 -0.47075945428E+03 -0.18061710500E+03  0.82175599434E+03  0.96411613235E+03  0.00000000000E+00 0.  1.
         13    1    1    2    0    0  0.34688023327E+03  0.26934021403E+03  0.47098001455E+03  0.64396601805E+03  0.10566000000E+00 0. -1.
<mgrwt>
<rscale>  1 0.90160834E+03</rscale>
<asrwt>0</asrwt>
<pdfrwt beam="1">  1       21 0.22623681E+00 0.11458990E+04</pdfrwt>
<pdfrwt beam="2">  1        4 0.68618322E-01 0.11458990E+04</pdfrwt>
<totfact> 0.58655694E+00</totfact>
</mgrwt>
</event>
<event>
 6    1  0.1431486E-005  0.1019319E+04  0.7818608E-02  0.9841502E-01
         21   -1    0    0  501  502  0.00000000000E+00  0.00000000000E+00  0.14817350355E+04  0.14817350355E+04  0.00000000000E+00 0.  1.
          4   -1    0    0  502    0 -0.00000000000E+00 -0.00000000000E+00 -0.38995383491E+03  0.38995383491E+03  0.00000000000E+00 0.  1.
    9000010    2    1    2  501    0  0.49459070695E+02  0.14210775590E+03  0.12764347631E+04  0.16334919701E+04  0.10081515253E+04 0.  0.
        -13    1    3    3    0    0 -0.98052553053E+02  0.54087087716E+03  0.47598171758E+03  0.72712737231E+03  0.10566000000E+00 0.  1.
          4    1    3    3  501    0  0.14751162375E+03 -0.39876312126E+03  0.80045304555E+03  0.90636459780E+03  0.00000000000E+00 0.  1.
         13    1    1    2    0    0 -0.49459070695E+02 -0.14210775590E+03 -0.18465356257E+03  0.23819690027E+03  0.10566000000E+00 0. -1.
<mgrwt>
<rscale>  1 0.63182089E+03</rscale>
<asrwt>0</asrwt>
<pdfrwt beam="1">  1       21 0.22795923E+00 0.10193186E+04</pdfrwt>
<pdfrwt beam="2">  1        4 0.59992898E-01 0.10193186E+04</pdfrwt>
<totfact> 0.78221901E+00</totfact>
</mgrwt>
</event>
<event>
 6    1  0.1431486E-005  0.1008082E+04  0.7818608E-02  0.9925650E-01
          4   -1    0    0  502    0 -0.00000000000E+00  0.00000000000E+00  0.92099523323E+03  0.92099523323E+03  0.00000000000E+00 0.  1.
         21   -1    0    0  501  502  0.00000000000E+00 -0.00000000000E+00 -0.38734602731E+03  0.38734602731E+03  0.00000000000E+00 0.  1.
    9000010    2    1    2  501    0  0.68118886522E+02  0.97033075514E+02  0.30908226550E+03  0.10544004754E+04  0.10010858681E+04 0.  0.
        -13    1    3    3    0    0  0.26358549592E+03  0.36970368771E+03  0.49429066766E+03  0.67117911594E+03  0.10566000000E+00 0.  1.
          4    1    3    3  501    0 -0.19546660940E+03 -0.27267061220E+03 -0.18520840217E+03  0.38322135950E+03  0.00000000000E+00 0.  1.
         13    1    1    2    0    0 -0.68118886522E+02 -0.97033075514E+02  0.22456694042E+03  0.25394078510E+03  0.10566000000E+00 0. -1.
<mgrwt>
<rscale>  1 0.59034105E+03</rscale>
<asrwt>0</asrwt>
<pdfrwt beam="2">  1       21 0.59591697E-01 0.10080816E+04</pdfrwt>
<pdfrwt beam="1">  1        4 0.14169157E+00 0.10080816E+04</pdfrwt>
<totfact> 0.35534178E+01</totfact>
</mgrwt>
</event>
<event>
 6    1  0.1431486E-005  0.1004896E+04  0.7818608E-02  0.9665163E-01
         21   -1    0    0  501  502  0.00000000000E+00  0.00000000000E+00  0.27346759238E+04  0.27346759238E+04  0.00000000000E+00 0.  1.
          4   -1    0    0  502    0 -0.00000000000E+00 -0.00000000000E+00 -0.16538289232E+03  0.16538289232E+03  0.00000000000E+00 0.  1.
    9000010    2    1    2  501    0 -0.18331556099E+03  0.21407947272E+03  0.23013397970E+04  0.25111712198E+04  0.96456281200E+03 0.  0.
        -13    1    3    3    0    0 -0.10961618640E+03  0.56339391813E+03  0.18423660560E+04  0.19296997462E+04  0.10566000000E+00 0.  1.
          4    1    3    3  501    0 -0.73699374582E+02 -0.34931444542E+03  0.45897374105E+03  0.58147147356E+03  0.00000000000E+00 0.  1.
         13    1    1    2    0    0  0.18331556099E+03 -0.21407947272E+03  0.26795323442E+03  0.38888759628E+03  0.10566000000E+00 0. -1.
<mgrwt>
<rscale>  1 0.73129412E+03</rscale>
<asrwt>0</asrwt>
<pdfrwt beam="1">  1       21 0.42071934E+00 0.10048960E+04</pdfrwt>
<pdfrwt beam="2">  1        4 0.25443524E-01 0.10048960E+04</pdfrwt>
<totfact> 0.26715900E+00</totfact>
</mgrwt>
</event>
<event>
 6    1  0.1431486E-005  0.1033590E+04  0.7818608E-02  0.9808572E-01
          4   -1    0    0  502    0 -0.00000000000E+00  0.00000000000E+00  0.15577815296E+04  0.15577815296E+04  0.00000000000E+00 0.  1.
         21   -1    0    0  501  502  0.00000000000E+00 -0.00000000000E+00 -0.30080912095E+03  0.30080912095E+03  0.00000000000E+00 0.  1.
    9000010    2    1    2  501    0 -0.12373795571E+03 -0.10255789236E+03  0.62801892875E+03  0.12094283488E+04  0.10210190757E+04 0.  0.
        -13    1    3    3    0    0  0.59313647132E+02  0.37584199832E+03  0.58173132866E+03  0.69511629699E+03  0.10566000000E+00 0.  1.
          4    1    3    3  501    0 -0.18305160284E+03 -0.47839989068E+03  0.46287600092E+02  0.51431205181E+03  0.00000000000E+00 0.  1.
         13    1    1    2    0    0  0.12373795571E+03  0.10255789236E+03  0.62895347992E+03  0.64916230177E+03  0.10566000000E+00 0. -1.
<mgrwt>
<rscale>  1 0.64904567E+03</rscale>
<asrwt>0</asrwt>
<pdfrwt beam="2">  1       21 0.46278327E-01 0.10335904E+04</pdfrwt>
<pdfrwt beam="1">  1        4 0.23965869E+00 0.10335904E+04</pdfrwt>
<totfact> 0.12972295E+01</totfact>
</mgrwt>
</event>
<event>
 6    1  0.1431486E-005  0.9257551E+03  0.7818608E-02  0.9736997E-01
          4   -1    0    0  502    0 -0.00000000000E+00  0.00000000000E+00  0.12807450224E+03  0.12807450224E+03  0.00000000000E+00 0.  1.
         21   -1    0    0  501  502  0.00000000000E+00 -0.00000000000E+00 -0.30114908616E+04  0.30114908616E+04  0.00000000000E+00 0.  1.
    9000010    2    1    2  501    0  0.36481866124E+02 -0.28096379588E+03 -0.24752475302E+04  0.26427018158E+04  0.88133476621E+03 0.  0.
        -13    1    3    3    0    0 -0.32240595564E+03  0.15261153748E+03 -0.11129015387E+04  0.11686683565E+04  0.10566000000E+00 0.  1.
          4    1    3    3  501    0  0.35888782177E+03 -0.43357533337E+03 -0.13623459915E+04  0.14740334593E+04  0.00000000000E+00 0.  1.
         13    1    1    2    0    0 -0.36481866124E+02  0.28096379588E+03 -0.40816882919E+03  0.49686354811E+03  0.10566000000E+00 0. -1.
<mgrwt>
<rscale>  1 0.68856085E+03</rscale>
<asrwt>0</asrwt>
<pdfrwt beam="2">  1       21 0.46330627E+00 0.92575512E+03</pdfrwt>
<pdfrwt beam="1">  1        4 0.19703770E-01 0.92575512E+03</pdfrwt>
<totfact> 0.22587607E+00</totfact>
</mgrwt>
</event>
<event>
 6    1  0.1431486E-005  0.1022781E+04  0.7818608E-02  0.9751693E-01
          4   -1    0    0  502    0 -0.00000000000E+00  0.00000000000E+00  0.40759108402E+03  0.40759108402E+03  0.00000000000E+00 0.  1.
         21   -1    0    0  501  502  0.00000000000E+00 -0.00000000000E+00 -0.93607385555E+03  0.93607385555E+03  0.00000000000E+00 0.  1.
    9000010    2    1    2  501    0  0.15499945235E+03 -0.12652848295E+03 -0.50955947205E+03  0.11426863595E+04  0.10030189297E+04 0.  0.
        -13    1    3    3    0    0  0.52109099324E+03 -0.10373972509E+03 -0.20964792254E+02  0.53173046506E+03  0.10566000000E+00 0.  1.
          4    1    3    3  501    0 -0.36609154089E+03 -0.22788757868E+02 -0.48859467980E+03  0.61095589441E+03  0.00000000000E+00 0.  1.
         13    1    1    2    0    0 -0.15499945235E+03  0.12652848295E+03 -0.18923299480E+02  0.20097858009E+03  0.10566000000E+00 0. -1.
<mgrwt>
<rscale>  1 0.68020694E+03</rscale>
<asrwt>0</asrwt>
<pdfrwt beam="2">  1       21 0.14401136E+00 0.10227811E+04</pdfrwt>
<pdfrwt beam="1">  1        4 0.62706320E-01 0.10227811E+04</pdfrwt>
<totfact> 0.28675641E+01</totfact>
</mgrwt>
</event>
<event>
 6    1  0.1431486E-005  0.1157225E+04  0.7818608E-02  0.9327662E-01
          4   -1    0    0  502    0 -0.00000000000E+00  0.00000000000E+00  0.87328796599E+03  0.87328796599E+03  0.00000000000E+00 0.  1.
         21   -1    0    0  501  502  0.00000000000E+00 -0.00000000000E+00 -0.14752463933E+04  0.14752463933E+04  0.00000000000E+00 0.  1.
    9000010    2    1    2  501    0  0.57089347359E+03 -0.19071894203E+03 -0.10776892519E+04  0.15813232400E+04  0.98837037228E+03 0.  0.
        -13    1    3    3    0    0  0.80745888721E+03 -0.34113639778E+03 -0.80034604082E+03  0.11869783876E+04  0.10566000000E+00 0.  1.
          4    1    3    3  501    0 -0.23656541362E+03  0.15041745575E+03 -0.27734321104E+03  0.39434485241E+03  0.00000000000E+00 0.  1.
         13    1    1    2    0    0 -0.57089347359E+03  0.19071894203E+03  0.47573082452E+03  0.76721111932E+03  0.10566000000E+00 0. -1.
<mgrwt>
<rscale>  1 0.98275618E+03</rscale>
<asrwt>0</asrwt>
<pdfrwt beam="2">  1       21 0.22696098E+00 0.11572247E+04</pdfrwt>
<pdfrwt beam="1">  1        4 0.13435200E+00 0.11572247E+04</pdfrwt>
<totfact> 0.11540567E+00</totfact>
</mgrwt>
</event>
<event>
 6    1  0.1431486E-005  0.1020334E+04  0.7818608E-02  0.9732256E-01
          4   -1    0    0  502    0 -0.00000000000E+00  0.00000000000E+00  0.10569229095E+04  0.10569229095E+04  0.00000000000E+00 0.  1.
         21   -1    0    0  501  502  0.00000000000E+00 -0.00000000000E+00 -0.41096014394E+03  0.41096014394E+03  0.00000000000E+00 0.  1.
    9000010    2    1    2  501    0 -0.12519774945E+03  0.17476254538E+03  0.30524908341E+03  0.10650155217E+04  0.99742901246E+03 0.  0.
        -13    1    3    3    0    0  0.30199808028E+03  0.12121112829E+03  0.49671765673E+03  0.59382103346E+03  0.10566000000E+00 0.  1.
          4    1    3    3  501    0 -0.42719582973E+03  0.53551417093E+02 -0.19146857332E+03  0.47119448828E+03  0.00000000000E+00 0.  1.
         13    1    1    2    0    0  0.12519774945E+03 -0.17476254538E+03  0.34071368213E+03  0.40286753169E+03  0.10566000000E+00 0. -1.
<mgrwt>
<rscale>  1 0.69128361E+03</rscale>
<asrwt>0</asrwt>
<pdfrwt beam="2">  1       21 0.63224638E-01 0.10203338E+04</pdfrwt>
<pdfrwt beam="1">  1        4 0.16260352E+00 0.10203338E+04</pdfrwt>
<totfact> 0.21435792E+01</totfact>
</mgrwt>
</event>
<event>
 6    1  0.1431486E-005  0.1151148E+04  0.7818608E-02  0.9374070E-01
          4   -1    0    0  502    0 -0.00000000000E+00  0.00000000000E+00  0.13783747628E+04  0.13783747628E+04  0.00000000000E+00 0.  1.
         21   -1    0    0  501  502  0.00000000000E+00 -0.00000000000E+00 -0.50705304903E+03  0.50705304903E+03  0.00000000000E+00 0.  1.
    9000010    2    1    2  501    0  0.32977640147E+03  0.39827469214E+03  0.54184419662E+03  0.12722959738E+04  0.10284778588E+04 0.  0.
        -13    1    3    3    0    0  0.66423350280E+03  0.15362960089E+03  0.14187852875E+03  0.69637470416E+03  0.10566000000E+00 0.  1.
          4    1    3    3  501    0 -0.33445710134E+03  0.24464509125E+03  0.39996566787E+03  0.57592126961E+03  0.00000000000E+00 0.  1.
         13    1    1    2    0    0 -0.32977640147E+03 -0.39827469214E+03  0.32947751715E+03  0.61313183805E+03  0.10566000000E+00 0. -1.
<mgrwt>
<rscale>  1 0.94240708E+03</rscale>
<asrwt>0</asrwt>
<pdfrwt beam="2">  1       21 0.78008162E-01 0.11511481E+04</pdfrwt>
<pdfrwt beam="1">  1        4 0.21205765E+00 0.11511481E+04</pdfrwt>
<totfact> 0.59645631E+00</totfact>
</mgrwt>
</event>
<event>
 6    1  0.1431486E-005  0.1189615E+04  0.7818608E-02  0.9285575E-01
         21   -1    0    0  501  502  0.00000000000E+00  0.00000000000E+00  0.23219633969E+04  0.23219633969E+04  0.00000000000E+00 0. -1.
          4   -1    0    0  502    0 -0.00000000000E+00 -0.00000000000E+00 -0.51262038931E+03  0.51262038931E+03  0.00000000000E+00 0.  1.
    9000010    2    1    2  501    0 -0.19419713439E+03 -0.61615362099E+03  0.35220971348E+03  0.12406593025E+04  0.99891241409E+03 0.  0.
        -13    1    3    3    0    0 -0.38377036425E+02 -0.76509401305E+03  0.55400391276E+03  0.94538986257E+03  0.10566000000E+00 0.  1.
          4    1    3    3  501    0 -0.15582009797E+03  0.14894039205E+03 -0.20179419928E+03  0.29526943997E+03  0.00000000000E+00 0.  1.
         13    1    1    2    0    0  0.19419713439E+03  0.61615362099E+03  0.14571332941E+04  0.15939244837E+04  0.10566000000E+00 0. -1.
<mgrwt>
<rscale>  1 0.10212180E+04</rscale>
<asrwt>0</asrwt>
<pdfrwt beam="1">  1       21 0.35722513E+00 0.11896150E+04</pdfrwt>
<pdfrwt beam="2">  1        4 0.78864677E-01 0.11896150E+04</pdfrwt>
<totfact> 0.63001010E-01</totfact>
</mgrwt>
</event>
<event>
 6    1  0.1431486E-005  0.1024870E+04  0.7818608E-02  0.9618248E-01
          4   -1    0    0  502    0 -0.00000000000E+00  0.00000000000E+00  0.52236126402E+03  0.52236126402E+03  0.00000000000E+00 0.  1.
         21   -1    0    0  501  502  0.00000000000E+00 -0.00000000000E+00 -0.93537768694E+03  0.93537768694E+03  0.00000000000E+00 0. -1.
    9000010    2    1    2  501    0  0.96483867510E+02  0.29623820580E+03 -0.49123320930E+03  0.11365161496E+04  0.97636708320E+03 0.  0.
        -13    1    3    3    0    0  0.26744022148E+03 -0.76412129138E+02  0.19321502094E+03  0.33866671083E+03  0.10566000000E+00 0.  1.
          4    1    3    3  501    0 -0.17095635397E+03  0.37265033494E+03 -0.68444823024E+03  0.79784943878E+03  0.00000000000E+00 0.  1.
         13    1    1    2    0    0 -0.96483867510E+02 -0.29623820580E+03  0.78216786377E+02  0.32122280134E+03  0.10566000000E+00 0. -1.
<mgrwt>
<rscale>  1 0.76100088E+03</rscale>
<asrwt>0</asrwt>
<pdfrwt beam="2">  1       21 0.14390426E+00 0.10248702E+04</pdfrwt>
<pdfrwt beam="1">  1        4 0.80363273E-01 0.10248702E+04</pdfrwt>
<totfact> 0.16452055E+01</totfact>
</mgrwt>
</event>
<event>
 6    1  0.1431486E-005  0.9999805E+03  0.7818608E-02  0.9847469E-01
         21   -1    0    0  501  502  0.00000000000E+00  0.00000000000E+00  0.31889817504E+03  0.31889817504E+03  0.00000000000E+00 0.  1.
          4   -1    0    0  502    0 -0.00000000000E+00 -0.00000000000E+00 -0.11373148794E+04  0.11373148794E+04  0.00000000000E+00 0.  1.
    9000010    2    1    2  501    0  0.12639440213E+03  0.91952672370E+02 -0.53885970139E+03  0.11359272947E+04  0.98768932469E+03 0.  0.
        -13    1    3    3    0    0  0.37752454835E+03 -0.33462902496E+03 -0.25427877143E+03  0.56494165514E+03  0.10566000000E+00 0.  1.
          4    1    3    3  501    0 -0.25113014622E+03  0.42658169733E+03 -0.28458092996E+03  0.57098563952E+03  0.00000000000E+00 0.  1.
         13    1    1    2    0    0 -0.12639440213E+03 -0.91952672370E+02 -0.27955700294E+03  0.32028575976E+03  0.10566000000E+00 0. -1.
<mgrwt>
<rscale>  1 0.62876155E+03</rscale>
<asrwt>0</asrwt>
<pdfrwt beam="1">  1       21 0.49061256E-01 0.99998052E+03</pdfrwt>
<pdfrwt beam="2">  1        4 0.17497153E+00 0.99998052E+03</pdfrwt>
<totfact> 0.30549516E+01</totfact>
</mgrwt>
</event>
<event>
 6    1  0.1431486E-005  0.9874526E+03  0.7818608E-02  0.1013934E+00
         21   -1    0    0  501  502  0.00000000000E+00  0.00000000000E+00  0.34603969934E+03  0.34603969934E+03  0.00000000000E+00 0.  1.
          4   -1    0    0  502    0 -0.00000000000E+00 -0.00000000000E+00 -0.96445339105E+03  0.96445339105E+03  0.00000000000E+00 0.  1.
    9000010    2    1    2  501    0 -0.46443912312E+02  0.44907461064E+02 -0.37110387541E+03  0.10548842614E+04  0.98533699900E+03 0.  0.
        -13    1    3    3    0    0 -0.38020415614E+03  0.31007949634E+03 -0.13961431525E+01  0.49061844113E+03  0.10566000000E+00 0.  1.
          4    1    3    3  501    0  0.33376024383E+03 -0.26517203528E+03 -0.36970773226E+03  0.56426582029E+03  0.00000000000E+00 0.  1.
         13    1    1    2    0    0  0.46443912312E+02 -0.44907461064E+02 -0.24730981629E+03  0.25560882897E+03  0.10566000000E+00 0. -1.
<mgrwt>
<rscale>  1 0.49940482E+03</rscale>
<asrwt>0</asrwt>
<pdfrwt beam="1">  1       21 0.53236877E-01 0.98745264E+03</pdfrwt>
<pdfrwt beam="2">  1        4 0.14837744E+00 0.98745264E+03</pdfrwt>
<totfact> 0.40376465E+01</totfact>
</mgrwt>
</event>
<event>
 6    1  0.1431486E-005  0.9894466E+03  0.7818608E-02  0.1052303E+00
          4   -1    0    0  502    0 -0.00000000000E+00  0.00000000000E+00  0.20568376695E+03  0.20568376695E+03  0.00000000000E+00 0.  1.
         21   -1    0    0  501  502  0.00000000000E+00 -0.00000000000E+00 -0.16240215672E+04  0.16240215672E+04  0.00000000000E+00 0.  1.
    9000010    2    1    2  501    0 -0.10874413526E+02  0.17617100702E+02 -0.14711774543E+04  0.17729545164E+04  0.98923000367E+03 0.  0.
        -13    1    3    3    0    0  0.23907702909E+03 -0.33662633626E+03 -0.26347313534E+03  0.48978895487E+03  0.10566000000E+00 0.  1.
          4    1    3    3  501    0 -0.24995144262E+03  0.35424343697E+03 -0.12077043190E+04  0.12831655616E+04  0.00000000000E+00 0.  1.
         13    1    1    2    0    0  0.10874413526E+02 -0.17617100702E+02  0.52839654062E+02  0.56750817722E+02  0.10566000000E+00 0. -1.
<mgrwt>
<rscale>  1 0.37631725E+03</rscale>
<asrwt>0</asrwt>
<pdfrwt beam="2">  1       21 0.24984947E+00 0.98944662E+03</pdfrwt>
<pdfrwt beam="1">  1        4 0.31643657E-01 0.98944662E+03</pdfrwt>
<totfact> 0.21330834E+01</totfact>
</mgrwt>
</event>
<event>
 6    1  0.1431486E-005  0.1018215E+04  0.7818608E-02  0.9760836E-01
         21   -1    0    0  501  502  0.00000000000E+00  0.00000000000E+00  0.15962715587E+03  0.15962715587E+03  0.00000000000E+00 0.  1.
          4   -1    0    0  502    0 -0.00000000000E+00 -0.00000000000E+00 -0.27154340605E+04  0.27154340605E+04  0.00000000000E+00 0.  1.
    9000010    2    1    2  501    0  0.17292273576E+03 -0.93824548762E+02 -0.15803674173E+04  0.18799795498E+04  0.99902783522E+03 0.  0.
        -13    1    3    3    0    0  0.29866233499E+03  0.37616478446E+03 -0.10804443515E+04  0.11823955105E+04  0.10566000000E+00 0.  1.
          4    1    3    3  501    0 -0.12573959924E+03 -0.46998933323E+03 -0.49992306575E+03  0.69758403926E+03  0.00000000000E+00 0.  1.
         13    1    1    2    0    0 -0.17292273576E+03  0.93824548762E+02 -0.97543948737E+03  0.99508166658E+03  0.10566000000E+00 0. -1.
<mgrwt>
<rscale>  1 0.67507339E+03</rscale>
<asrwt>0</asrwt>
<pdfrwt beam="1">  1       21 0.24558024E-01 0.10182151E+04</pdfrwt>
<pdfrwt beam="2">  1        4 0.41775908E+00 0.10182151E+04</pdfrwt>
<totfact> 0.33927012E+00</totfact>
</mgrwt>
</event>
<event>
 6    1  0.1431486E-005  0.1044063E+04  0.7818608E-02  0.9543095E-01
         21   -1    0    0  501  502  0.00000000000E+00  0.00000000000E+00  0.34984698064E+03  0.34984698064E+03  0.00000000000E+00 0.  1.
          4   -1    0    0  502    0 -0.00000000000E+00 -0.00000000000E+00 -0.15361061101E+04  0.15361061101E+04  0.00000000000E+00 0.  1.
    9000010    2    1    2  501    0 -0.32615838863E+03  0.19809625439E+03 -0.65739614183E+03  0.12337893909E+04  0.97182568058E+03 0.  0.
        -13    1    3    3    0    0  0.30312275850E+03 -0.62387870376E+02 -0.35494853870E+02  0.31150529515E+03  0.10566000000E+00 0.  1.
          4    1    3    3  501    0 -0.62928114713E+03  0.26048412477E+03 -0.62190128796E+03  0.92228409580E+03  0.00000000000E+00 0.  1.
         13    1    1    2    0    0  0.32615838863E+03 -0.19809625439E+03 -0.52886298758E+03  0.65216369975E+03  0.10566000000E+00 0. -1.
<mgrwt>
<rscale>  1 0.81179813E+03</rscale>
<asrwt>0</asrwt>
<pdfrwt beam="1">  1       21 0.53822614E-01 0.10440625E+04</pdfrwt>
<pdfrwt beam="2">  1        4 0.23632401E+00 0.10440625E+04</pdfrwt>
<totfact> 0.98048712E+00</totfact>
</mgrwt>
</event>
<event>
 6    1  0.1431486E-005  0.1021840E+04  0.7818608E-02  0.9679648E-01
          4   -1    0    0  502    0 -0.00000000000E+00  0.00000000000E+00  0.10207609381E+04  0.10207609381E+04  0.00000000000E+00 0.  1.
         21   -1    0    0  501  502  0.00000000000E+00 -0.00000000000E+00 -0.41538370992E+03  0.41538370992E+03  0.00000000000E+00 0.  1.
    9000010    2    1    2  501    0 -0.20539328469E+03  0.15158016342E+03  0.36374844865E+03  0.10846515107E+04  0.98944076042E+03 0.  0.
        -13    1    3    3    0    0  0.19749518273E+03  0.37453740772E+03 -0.95781162856E+02  0.43411595145E+03  0.10566000000E+00 0.  1.
          4    1    3    3  501    0 -0.40288846743E+03 -0.22295724430E+03  0.45952961151E+03  0.65053555923E+03  0.00000000000E+00 0.  1.
         13    1    1    2    0    0  0.20539328469E+03 -0.15158016342E+03  0.24162877951E+03  0.35149313733E+03  0.10566000000E+00 0. -1.
<mgrwt>
<rscale>  1 0.72241560E+03</rscale>
<asrwt>0</asrwt>
<pdfrwt beam="2">  1       21 0.63905186E-01 0.10218395E+04</pdfrwt>
<pdfrwt beam="1">  1        4 0.15704014E+00 0.10218395E+04</pdfrwt>
<totfact> 0.23028054E+01</totfact>
</mgrwt>
</event>
<event>
 6    1  0.1431486E-005  0.1171045E+04  0.7818608E-02  0.9313242E-01
         21   -1    0    0  501  502  0.00000000000E+00  0.00000000000E+00  0.80088580438E+03  0.80088580438E+03  0.00000000000E+00 0.  1.
          4   -1    0    0  502    0 -0.00000000000E+00 -0.00000000000E+00 -0.12750940246E+04  0.12750940246E+04  0.00000000000E+00 0.  1.
    9000010    2    1    2  501    0  0.53316998373E+03  0.30072078947E+03  0.17459460465E+03  0.11839886062E+04  0.99831984799E+03 0.  0.
        -13    1    3    3    0    0  0.52978549523E+03 -0.25764174819E+03  0.20765500886E+03  0.62463793932E+03  0.10566000000E+00 0.  1.
          4    1    3    3  501    0  0.33844885023E+01  0.55836253766E+03 -0.33060404212E+02  0.55935066689E+03  0.00000000000E+00 0.  1.
         13    1    1    2    0    0 -0.53316998373E+03 -0.30072078947E+03 -0.64880282483E+03  0.89199122274E+03  0.10566000000E+00 0. -1.
<mgrwt>
<rscale>  1 0.99572874E+03</rscale>
<asrwt>0</asrwt>
<pdfrwt beam="1">  1       21 0.12321320E+00 0.11710447E+04</pdfrwt>
<pdfrwt beam="2">  1        4 0.19616831E+00 0.11710447E+04</pdfrwt>
<totfact> 0.24409212E+00</totfact>
</mgrwt>
</event>
<event>
 6    1  0.1431486E-005  0.1008589E+04  0.7818608E-02  0.9859010E-01
         21   -1    0    0  501  502  0.00000000000E+00  0.00000000000E+00  0.41142005368E+03  0.41142005368E+03  0.00000000000E+00 0.  1.
          4   -1    0    0  502    0 -0.00000000000E+00 -0.00000000000E+00 -0.84178853223E+03  0.84178853223E+03  0.00000000000E+00 0.  1.
    9000010    2    1    2  501    0 -0.14174389237E+03 -0.37927658350E+02 -0.28833313460E+03  0.10489932868E+04  0.99785824693E+03 0.  0.
        -13    1    3    3    0    0 -0.50584800513E+03  0.22385665001E+03 -0.97781245703E+02  0.56174299036E+03  0.10566000000E+00 0.  1.
          4    1    3    3  501    0  0.36410411276E+03 -0.26178430836E+03 -0.19055188890E+03  0.48725029645E+03  0.00000000000E+00 0.  1.
         13    1    1    2    0    0  0.14174389237E+03  0.37927658350E+02 -0.14203534394E+03  0.20421529910E+03  0.10566000000E+00 0. -1.
<mgrwt>
<rscale>  1 0.62289617E+03</rscale>
<asrwt>0</asrwt>
<pdfrwt beam="1">  1       21 0.63295394E-01 0.10085886E+04</pdfrwt>
<pdfrwt beam="2">  1        4 0.12950593E+00 0.10085886E+04</pdfrwt>
<totfact> 0.39224484E+01</totfact>
</mgrwt>
</event>
<event>
 6    1  0.1431486E-005  0.1094300E+04  0.7818608E-02  0.9606757E-01
         21   -1    0    0  501  502  0.00000000000E+00  0.00000000000E+00  0.11345570908E+04  0.11345570908E+04  0.00000000000E+00 0.  1.
          4   -1    0    0  502    0 -0.00000000000E+00 -0.00000000000E+00 -0.46469977480E+03  0.46469977480E+03  0.00000000000E+00 0.  1.
    9000010    2    1    2  501    0 -0.23891167777E+03  0.11736497891E+03  0.74361081336E+03  0.13230451396E+04  0.10614320852E+04 0.  0.
        -13    1    3    3    0    0  0.23714920373E+03  0.39364759826E+03  0.89562855492E+02  0.46820902671E+03  0.10566000000E+00 0.  1.
          4    1    3    3  501    0 -0.47606088150E+03 -0.27628261936E+03  0.65404795787E+03  0.85483611286E+03  0.00000000000E+00 0.  1.
         13    1    1    2    0    0  0.23891167777E+03 -0.11736497891E+03 -0.73753497369E+02  0.27621172601E+03  0.10566000000E+00 0. -1.
<mgrwt>
<rscale>  1 0.76850587E+03</rscale>
<asrwt>0</asrwt>
<pdfrwt beam="1">  1       21 0.17454724E+00 0.10942995E+04</pdfrwt>
<pdfrwt beam="2">  1        4 0.71492273E-01 0.10942995E+04</pdfrwt>
<totfact> 0.12279572E+01</totfact>
</mgrwt>
</event>
<event>
 6    1  0.1431486E-005  0.9041551E+03  0.7818608E-02  0.9917671E-01
         21   -1    0    0  501  502  0.00000000000E+00  0.00000000000E+00  0.15727407493E+03  0.15727407493E+03  0.00000000000E+00 0.  1.
          4   -1    0    0  502    0 -0.00000000000E+00 -0.00000000000E+00 -0.18738221982E+04  0.18738221982E+04  0.00000000000E+00 0.  1.
    9000010    2    1    2  501    0  0.16718403328E+02 -0.16773946194E+03 -0.15480622986E+04  0.17927613903E+04  0.88830202637E+03 0.  0.
        -13    1    3    3    0    0  0.19329706880E+03 -0.80869820824E+02 -0.15796205746E+04  0.15934568885E+04  0.10566000000E+00 0.  1.
          4    1    3    3  501    0 -0.17657866547E+03 -0.86869641120E+02  0.31558275985E+02  0.19930450178E+03  0.00000000000E+00 0.  1.
         13    1    1    2    0    0 -0.16718403328E+02  0.16773946194E+03 -0.16848582468E+03  0.23833488286E+03  0.10566000000E+00 0. -1.
<mgrwt>
<rscale>  1 0.59412486E+03</rscale>
<asrwt>0</asrwt>
<pdfrwt beam="1">  1       21 0.24196012E-01 0.90415514E+03</pdfrwt>
<pdfrwt beam="2">  1        4 0.28828033E+00 0.90415514E+03</pdfrwt>
<totfact> 0.24900547E+01</totfact>
</mgrwt>
</event>
<event>
 6    1  0.1431486E-005  0.1023376E+04  0.7818608E-02  0.9726912E-01
          4   -1    0    0  502    0 -0.00000000000E+00  0.00000000000E+00  0.76967916564E+03  0.76967916564E+03  0.00000000000E+00 0.  1.
         21   -1    0    0  501  502  0.00000000000E+00 -0.00000000000E+00 -0.53111633716E+03  0.53111633716E+03  0.00000000000E+00 0.  1.
    9000010    2    1    2  501    0 -0.13642666244E+03 -0.16861804841E+03  0.69390787622E+02  0.10257255643E+04  0.10001267777E+04 0.  0.
        -13    1    3    3    0    0 -0.50873721184E+03 -0.82986971469E+02  0.28299193092E+03  0.58803472029E+03  0.10566000000E+00 0.  1.
          4    1    3    3  501    0  0.37231054940E+03 -0.85631076944E+02 -0.21360114330E+03  0.43769084404E+03  0.00000000000E+00 0.  1.
         13    1    1    2    0    0  0.13642666244E+03  0.16861804841E+03  0.16917204086E+03  0.27506993846E+03  0.10566000000E+00 0. -1.
<mgrwt>
<rscale>  1 0.69436800E+03</rscale>
<asrwt>0</asrwt>
<pdfrwt beam="2">  1       21 0.81710205E-01 0.10233757E+04</pdfrwt>
<pdfrwt beam="1">  1        4 0.11841218E+00 0.10233757E+04</pdfrwt>
<totfact> 0.27303442E+01</totfact>
</mgrwt>
</event>
<event>
 6    1  0.1431486E-005  0.1014092E+04  0.7818608E-02  0.9876876E-01
          4   -1    0    0  502    0 -0.00000000000E+00  0.00000000000E+00  0.96722153173E+03  0.96722153173E+03  0.00000000000E+00 0.  1.
         21   -1    0    0  501  502  0.00000000000E+00 -0.00000000000E+00 -0.45650220192E+03  0.45650220192E+03  0.00000000000E+00 0.  1.
    9000010    2    1    2  501    0  0.12079419653E+03  0.63008799861E+02  0.13372979729E+03  0.10228715594E+04  0.10048986126E+04 0.  0.
        -13    1    3    3    0    0  0.22311755194E+03  0.45965900571E+03  0.28636350768E+03  0.58572341016E+03  0.10566000000E+00 0.  1.
          4    1    3    3  501    0 -0.10232335541E+03 -0.39665020585E+03 -0.15263371039E+03  0.43714814927E+03  0.00000000000E+00 0.  1.
         13    1    1    2    0    0 -0.12079419653E+03 -0.63008799861E+02  0.37698953252E+03  0.40085217421E+03  0.10566000000E+00 0. -1.
<mgrwt>
<rscale>  1 0.61395174E+03</rscale>
<asrwt>0</asrwt>
<pdfrwt beam="2">  1       21 0.70231108E-01 0.10140920E+04</pdfrwt>
<pdfrwt beam="1">  1        4 0.14880331E+00 0.10140920E+04</pdfrwt>
<totfact> 0.21509097E+01</totfact>
</mgrwt>
</event>
<event>
 6    1  0.1431486E-005  0.9634367E+03  0.7818608E-02  0.9734522E-01
          4   -1    0    0  502    0 -0.00000000000E+00  0.00000000000E+00  0.14686154307E+04  0.14686154307E+04  0.00000000000E+00 0.  1.
         21   -1    0    0  501  502  0.00000000000E+00 -0.00000000000E+00 -0.38519073478E+03  0.38519073478E+03  0.00000000000E+00 0.  1.
    9000010    2    1    2  501    0  0.21372971627E+03  0.13620658008E+03  0.26816575190E+03  0.10000616012E+04  0.92950401379E+03 0.  0.
        -13    1    3    3    0    0  0.31474072966E+03 -0.78553755805E+01  0.56972313833E+03  0.65092849019E+03  0.10566000000E+00 0.  1.
          4    1    3    3  501    0 -0.10101101338E+03  0.14406195566E+03 -0.30155738643E+03  0.34913311101E+03  0.00000000000E+00 0.  1.
         13    1    1    2    0    0 -0.21372971627E+03 -0.13620658008E+03  0.81525894406E+03  0.85374456432E+03  0.10566000000E+00 0. -1.
<mgrwt>
<rscale>  1 0.68998058E+03</rscale>
<asrwt>0</asrwt>
<pdfrwt beam="2">  1       21 0.59260114E-01 0.96343673E+03</pdfrwt>
<pdfrwt beam="1">  1        4 0.22594083E+00 0.96343673E+03</pdfrwt>
<totfact> 0.93067977E+00</totfact>
</mgrwt>
</event>
<event>
 6    1  0.1431486E-005  0.1003693E+04  0.7818608E-02  0.9847689E-01
          4   -1    0    0  502    0 -0.00000000000E+00  0.00000000000E+00  0.27940717976E+03  0.27940717976E+03  0.00000000000E+00 0.  1.
         21   -1    0    0  501  502  0.00000000000E+00 -0.00000000000E+00 -0.12017210279E+04  0.12017210279E+04  0.00000000000E+00 0.  1.
    9000010    2    1    2  501    0 -0.13159983116E-01  0.15446486002E+03 -0.78068731147E+03  0.12715632292E+04  0.99173634313E+03 0.  0.
        -13    1    3    3    0    0  0.31733420433E+03  0.46189878541E+03 -0.47028241179E+03  0.73158529455E+03  0.10566000000E+00 0.  1.
          4    1    3    3  501    0 -0.31734736431E+03 -0.30743392539E+03 -0.31040489968E+03  0.53997793460E+03  0.00000000000E+00 0.  1.
         13    1    1    2    0    0  0.13159983116E-01 -0.15446486002E+03 -0.14162653664E+03  0.20956497847E+03  0.10566000000E+00 0. -1.
<mgrwt>
<rscale>  1 0.62864909E+03</rscale>
<asrwt>0</asrwt>
<pdfrwt beam="2">  1       21 0.18488015E+00 0.10036934E+04</pdfrwt>
<pdfrwt beam="1">  1        4 0.42985721E-01 0.10036934E+04</pdfrwt>
<totfact> 0.31176100E+01</totfact>
</mgrwt>
</event>
<event>
 6    1  0.1431486E-005  0.1264900E+04  0.7818608E-02  0.9188684E-01
          4   -1    0    0  502    0 -0.00000000000E+00  0.00000000000E+00  0.11718839864E+04  0.11718839864E+04  0.00000000000E+00 0.  1.
         21   -1    0    0  501  502  0.00000000000E+00 -0.00000000000E+00 -0.88291997976E+03  0.88291997976E+03  0.00000000000E+00 0. -1.
    9000010    2    1    2  501    0 -0.60270451947E+02  0.76712004415E+03  0.17891968595E+03  0.12774909962E+04  0.10039249483E+04 0.  0.
        -13    1    3    3    0    0  0.16879933093E+03 -0.19754132679E+03 -0.37863854805E+02  0.26258231582E+03  0.10566000000E+00 0.  1.
          4    1    3    3  501    0 -0.22906978288E+03  0.96466137094E+03  0.21678354075E+03  0.10149086804E+04  0.00000000000E+00 0.  1.
         13    1    1    2    0    0  0.60270451947E+02 -0.76712004415E+03  0.11004432065E+03  0.77731296991E+03  0.10566000000E+00 0. -1.
<mgrwt>
<rscale>  1 0.11170997E+04</rscale>
<asrwt>0</asrwt>
<pdfrwt beam="2">  1       21 0.13583384E+00 0.12648996E+04</pdfrwt>
<pdfrwt beam="1">  1        4 0.18028985E+00 0.12648996E+04</pdfrwt>
<totfact> 0.23903121E+00</totfact>
</mgrwt>
</event>
<event>
 6    1  0.1431486E-005  0.1004112E+04  0.7818608E-02  0.9797287E-01
          4   -1    0    0  502    0 -0.00000000000E+00  0.00000000000E+00  0.16761798393E+04  0.16761798393E+04  0.00000000000E+00 0.  1.
         21   -1    0    0  501  502  0.00000000000E+00 -0.00000000000E+00 -0.21888135206E+03  0.21888135206E+03  0.00000000000E+00 0. -1.
    9000010    2    1    2  501    0 -0.10685479356E+03 -0.14720993843E+03  0.13545860051E+04  0.16861627040E+04  0.98749820569E+03 0.  0.
        -13    1    3    3    0    0  0.24968581445E+03  0.14435696362E+03  0.11438726686E+04  0.11796722562E+04  0.10566000000E+00 0.  1.
          4    1    3    3  501    0 -0.35654060801E+03 -0.29156690206E+03  0.21071333648E+03  0.50649044779E+03  0.00000000000E+00 0.  1.
         13    1    1    2    0    0  0.10685479356E+03  0.14720993843E+03  0.10271248219E+03  0.20889848741E+03  0.10566000000E+00 0. -1.
<mgrwt>
<rscale>  1 0.65508365E+03</rscale>
<asrwt>0</asrwt>
<pdfrwt beam="2">  1       21 0.33674055E-01 0.10041123E+04</pdfrwt>
<pdfrwt beam="1">  1        4 0.25787381E+00 0.10041123E+04</pdfrwt>
<totfact> 0.19508979E+01</totfact>
</mgrwt>
</event>
<event>
 6    1  0.1431486E-005  0.1147658E+04  0.7818608E-02  0.9424504E-01
          4   -1    0    0  502    0 -0.00000000000E+00  0.00000000000E+00  0.15995305263E+04  0.15995305263E+04  0.00000000000E+00 0.  1.
         21   -1    0    0  501  502  0.00000000000E+00 -0.00000000000E+00 -0.47177690532E+03  0.47177690532E+03  0.00000000000E+00 0. -1.
    9000010    2    1    2  501    0 -0.58164693851E+01 -0.43566881966E+03  0.11633258883E+04  0.16341500811E+04  0.10617335887E+04 0.  0.
        -13    1    3    3    0    0 -0.44632987287E+02 -0.13935782485E+03  0.12981005130E+04  0.13063221884E+04  0.10566000000E+00 0.  1.
          4    1    3    3  501    0  0.38816517902E+02 -0.29631099480E+03 -0.13477462474E+03  0.32782789262E+03  0.00000000000E+00 0.  1.
         13    1    1    2    0    0  0.58164693851E+01  0.43566881966E+03 -0.35572267355E+02  0.43715735051E+03  0.10566000000E+00 0. -1.
<mgrwt>
<rscale>  1 0.90086202E+03</rscale>
<asrwt>0</asrwt>
<pdfrwt beam="2">  1       21 0.72581063E-01 0.11476582E+04</pdfrwt>
<pdfrwt beam="1">  1        4 0.24608162E+00 0.11476582E+04</pdfrwt>
<totfact> 0.42963853E+00</totfact>
</mgrwt>
</event>
<event>
 6    1  0.1431486E-005  0.1028933E+04  0.7818608E-02  0.9653116E-01
          4   -1    0    0  502    0 -0.00000000000E+00  0.00000000000E+00  0.12742005354E+04  0.12742005354E+04  0.00000000000E+00 0.  1.
         21   -1    0    0  501  502  0.00000000000E+00 -0.00000000000E+00 -0.33863257666E+03  0.33863257666E+03  0.00000000000E+00 0.  1.
    9000010    2    1    2  501    0  0.27255149678E+03  0.22348273135E+02  0.64791048798E+03  0.12159318707E+04  0.99192668588E+03 0.  0.
        -13    1    3    3    0    0  0.11145209337E+03 -0.16610859638E+02 -0.26507087010E+03  0.28802789295E+03  0.10566000000E+00 0.  1.
          4    1    3    3  501    0  0.16109940340E+03  0.38959132773E+02  0.91298135808E+03  0.92790397780E+03  0.00000000000E+00 0.  1.
         13    1    1    2    0    0 -0.27255149678E+03 -0.22348273135E+02  0.28765747077E+03  0.39690124132E+03  0.10566000000E+00 0. -1.
<mgrwt>
<rscale>  1 0.73878169E+03</rscale>
<asrwt>0</asrwt>
<pdfrwt beam="2">  1       21 0.52097320E-01 0.10289326E+04</pdfrwt>
<pdfrwt beam="1">  1        4 0.19603085E+00 0.10289326E+04</pdfrwt>
<totfact> 0.19166555E+01</totfact>
</mgrwt>
</event>
<event>
 6    1  0.1431486E-005  0.9771379E+03  0.7818608E-02  0.9800049E-01
         21   -1    0    0  501  502  0.00000000000E+00  0.00000000000E+00  0.17229561019E+04  0.17229561019E+04  0.00000000000E+00 0.  1.
          4   -1    0    0  502    0 -0.00000000000E+00 -0.00000000000E+00 -0.21431256367E+03  0.21431256367E+03  0.00000000000E+00 0.  1.
    9000010    2    1    2  501    0 -0.13736159898E+03 -0.13925824083E+03  0.14170361188E+04  0.17212756171E+04  0.95735955714E+03 0.  0.
        -13    1    3    3    0    0  0.38290786627E+02  0.32538689250E+03  0.10601580429E+04  0.11096296235E+04  0.10566000000E+00 0.  1.
          4    1    3    3  501    0 -0.17565238560E+03 -0.46464513333E+03  0.35687807582E+03  0.61164599361E+03  0.00000000000E+00 0.  1.
         13    1    1    2    0    0  0.13736159898E+03  0.13925824083E+03  0.91607419440E+02  0.21599304844E+03  0.10566000000E+00 0. -1.
<mgrwt>
<rscale>  1 0.65359923E+03</rscale>
<asrwt>0</asrwt>
<pdfrwt beam="1">  1       21 0.26507016E+00 0.97713786E+03</pdfrwt>
<pdfrwt beam="2">  1        4 0.32971165E-01 0.97713786E+03</pdfrwt>
<totfact> 0.15793468E+01</totfact>
</mgrwt>
</event>
<event>
 6    1  0.1431486E-005  0.1088655E+04  0.7818608E-02  0.9485053E-01
          4   -1    0    0  502    0 -0.00000000000E+00  0.00000000000E+00  0.40413260099E+03  0.40413260099E+03  0.00000000000E+00 0.  1.
         21   -1    0    0  501  502  0.00000000000E+00 -0.00000000000E+00 -0.13976961718E+04  0.13976961718E+04  0.00000000000E+00 0.  1.
    9000010    2    1    2  501    0 -0.31976372087E+03 -0.26003737670E+03 -0.76480161401E+03  0.13304474850E+04  0.10076213212E+04 0.  0.
        -13    1    3    3    0    0 -0.58638456904E+02 -0.29621903430E+03 -0.95744850172E+03  0.10039381602E+04  0.10566000000E+00 0.  1.
          4    1    3    3  501    0 -0.26112526397E+03  0.36181657595E+02  0.19264688770E+03  0.32650932478E+03  0.00000000000E+00 0.  1.
         13    1    1    2    0    0  0.31976372087E+03  0.26003737670E+03 -0.22876195684E+03  0.47138128784E+03  0.10566000000E+00 0. -1.
<mgrwt>
<rscale>  1 0.85394843E+03</rscale>
<asrwt>0</asrwt>
<pdfrwt beam="2">  1       21 0.21503018E+00 0.10886547E+04</pdfrwt>
<pdfrwt beam="1">  1        4 0.62174247E-01 0.10886547E+04</pdfrwt>
<totfact> 0.87231866E+00</totfact>
</mgrwt>
</event>
<event>
 6    1  0.1431486E-005  0.1068422E+04  0.7818608E-02  0.9529621E-01
         21   -1    0    0  501  502  0.00000000000E+00  0.00000000000E+00  0.19013758758E+04  0.19013758758E+04  0.00000000000E+00 0.  1.
          4   -1    0    0  502    0 -0.00000000000E+00 -0.00000000000E+00 -0.27335777341E+03  0.27335777341E+03  0.00000000000E+00 0.  1.
    9000010    2    1    2  501    0  0.32896141444E+03 -0.17613239482E+03  0.11865830536E+04  0.15967170870E+04  0.10011432865E+04 0.  0.
        -13    1    3    3    0    0  0.18279407716E+03 -0.53685854982E+02  0.13390762628E+04  0.13525609393E+04  0.10566000000E+00 0.  1.
          4    1    3    3  501    0  0.14616733728E+03 -0.12244653984E+03 -0.15249320923E+03  0.24415614771E+03  0.00000000000E+00 0.  1.
         13    1    1    2    0    0 -0.32896141444E+03  0.17613239482E+03  0.44143504874E+03  0.57801656214E+03  0.10566000000E+00 0. -1.
<mgrwt>
<rscale>  1 0.82134774E+03</rscale>
<asrwt>0</asrwt>
<pdfrwt beam="1">  1       21 0.29251936E+00 0.10684223E+04</pdfrwt>
<pdfrwt beam="2">  1        4 0.42055043E-01 0.10684223E+04</pdfrwt>
<totfact> 0.64178360E+00</totfact>
</mgrwt>
</event>
<event>
 6    1  0.1431486E-005  0.1061499E+04  0.7818608E-02  0.9456211E-01
         21   -1    0    0  501  502  0.00000000000E+00  0.00000000000E+00  0.43227689758E+03  0.43227689758E+03  0.00000000000E+00 0.  1.
          4   -1    0    0  502    0 -0.00000000000E+00 -0.00000000000E+00 -0.14213152571E+04  0.14213152571E+04  0.00000000000E+00 0.  1.
    9000010    2    1    2  501    0  0.42671536442E+03 -0.24514795506E+03 -0.55714799068E+03  0.11988305004E+04  0.94053025628E+03 0.  0.
        -13    1    3    3    0    0  0.33612069723E+02 -0.12881675316E+03  0.25579721905E+03  0.28836739684E+03  0.10566000000E+00 0.  1.
          4    1    3    3  501    0  0.39310329470E+03 -0.11633120190E+03 -0.81294520973E+03  0.91046310351E+03  0.00000000000E+00 0.  1.
         13    1    1    2    0    0 -0.42671536442E+03  0.24514795506E+03 -0.43189036882E+03  0.65476165430E+03  0.10566000000E+00 0. -1.
<mgrwt>
<rscale>  1 0.87590670E+03</rscale>
<asrwt>0</asrwt>
<pdfrwt beam="1">  1       21 0.66504139E-01 0.10614993E+04</pdfrwt>
<pdfrwt beam="2">  1        4 0.21866388E+00 0.10614993E+04</pdfrwt>
<totfact> 0.78953250E+00</totfact>
</mgrwt>
</event>
<event>
 6    1  0.1431486E-005  0.1022214E+04  0.7818608E-02  0.9736367E-01
         21   -1    0    0  501  502  0.00000000000E+00  0.00000000000E+00  0.28727493182E+03  0.28727493182E+03  0.00000000000E+00 0.  1.
          4   -1    0    0  502    0 -0.00000000000E+00 -0.00000000000E+00 -0.16367133095E+04  0.16367133095E+04  0.00000000000E+00 0.  1.
    9000010    2    1    2  501    0  0.16720180282E+03  0.12852206266E+03 -0.69420796841E+03  0.12356560077E+04  0.10002233263E+04 0.  0.
        -13    1    3    3    0    0  0.51616836599E+03  0.27525081741E+03 -0.61523997779E+03  0.84894819392E+03  0.10566000000E+00 0.  1.
          4    1    3    3  501    0 -0.34896656317E+03 -0.14672875475E+03 -0.78967990619E+02  0.38670781376E+03  0.00000000000E+00 0.  1.
         13    1    1    2    0    0 -0.16720180282E+03 -0.12852206266E+03 -0.65523040926E+03  0.68833223362E+03  0.10566000000E+00 0. -1.
<mgrwt>
<rscale>  1 0.68892198E+03</rscale>
<asrwt>0</asrwt>
<pdfrwt beam="1">  1       21 0.44196144E-01 0.10222138E+04</pdfrwt>
<pdfrwt beam="2">  1        4 0.25180204E+00 0.10222138E+04</pdfrwt>
<totfact> 0.12043932E+01</totfact>
</mgrwt>
</event>
<event>
 6    1  0.1431486E-005  0.1027939E+04  0.7818608E-02  0.9743126E-01
         21   -1    0    0  501  502  0.00000000000E+00  0.00000000000E+00  0.13689786174E+04  0.13689786174E+04  0.00000000000E+00 0.  1.
          4   -1    0    0  502    0 -0.00000000000E+00 -0.00000000000E+00 -0.31781418199E+03  0.31781418199E+03  0.00000000000E+00 0.  1.
    9000010    2    1    2  501    0 -0.11597993507E+03 -0.16633298432E+03  0.10692352573E+04  0.14832133977E+04  0.10077400164E+04 0.  0.
        -13    1    3    3    0    0 -0.18047872533E+03 -0.57944561542E+03  0.57761952350E+03  0.83783895625E+03  0.10566000000E+00 0.  1.
          4    1    3    3  501    0  0.64498790263E+02  0.41311263110E+03  0.49161573382E+03  0.64537444144E+03  0.00000000000E+00 0.  1.
         13    1    1    2    0    0  0.11597993507E+03  0.16633298432E+03 -0.18070821944E+02  0.20357940166E+03  0.10566000000E+00 0. -1.
<mgrwt>
<rscale>  1 0.68506129E+03</rscale>
<asrwt>0</asrwt>
<pdfrwt beam="1">  1       21 0.21061209E+00 0.10279387E+04</pdfrwt>
<pdfrwt beam="2">  1        4 0.48894490E-01 0.10279387E+04</pdfrwt>
<totfact> 0.15771929E+01</totfact>
</mgrwt>
</event>
<event>
 6    1  0.1431486E-005  0.1013030E+04  0.7818608E-02  0.9763174E-01
          4   -1    0    0  502    0 -0.00000000000E+00  0.00000000000E+00  0.40772275647E+03  0.40772275647E+03  0.00000000000E+00 0.  1.
         21   -1    0    0  501  502  0.00000000000E+00 -0.00000000000E+00 -0.12389162872E+04  0.12389162872E+04  0.00000000000E+00 0. -1.
    9000010    2    1    2  501    0 -0.14347144841E+03 -0.13679312093E+03 -0.26553731456E+03  0.10472532076E+04  0.99344491591E+03 0.  0.
        -13    1    3    3    0    0  0.11723990698E+03  0.39536050038E+03 -0.17423480315E+03  0.44767499243E+03  0.10566000000E+00 0.  1.
          4    1    3    3  501    0 -0.26071135538E+03 -0.53215362132E+03 -0.91302511408E+02  0.59957821516E+03  0.00000000000E+00 0.  1.
         13    1    1    2    0    0  0.14347144841E+03  0.13679312093E+03 -0.56565621622E+03  0.59938583613E+03  0.10566000000E+00 0. -1.
<mgrwt>
<rscale>  1 0.67376869E+03</rscale>
<asrwt>0</asrwt>
<pdfrwt beam="2">  1       21 0.19060251E+00 0.10130297E+04</pdfrwt>
<pdfrwt beam="1">  1        4 0.62726578E-01 0.10130297E+04</pdfrwt>
<totfact> 0.12701515E+01</totfact>
</mgrwt>
</event>
<event>
 6    1  0.1431486E-005  0.1239540E+04  0.7818608E-02  0.9231778E-01
         21   -1    0    0  501  502  0.00000000000E+00  0.00000000000E+00  0.27247591937E+04  0.27247591937E+04  0.00000000000E+00 0.  1.
          4   -1    0    0  502    0 -0.00000000000E+00 -0.00000000000E+00 -0.34423869850E+03  0.34423869850E+03  0.00000000000E+00 0.  1.
    9000010    2    1    2  501    0  0.49348421064E+03 -0.49132520095E+03  0.14749593262E+04  0.19266458618E+04  0.10254424137E+04 0.  0.
        -13    1    3    3    0    0  0.69544972828E+03 -0.53336602519E+02  0.56837236662E+03  0.89974567297E+03  0.10566000000E+00 0.  1.
          4    1    3    3  501    0 -0.20196551764E+03 -0.43798859843E+03  0.90658695954E+03  0.10269001889E+04  0.00000000000E+00 0.  1.
         13    1    1    2    0    0 -0.49348421064E+03  0.49132520095E+03  0.90556116902E+03  0.11423520303E+04  0.10566000000E+00 0. -1.
<mgrwt>
<rscale>  1 0.10731366E+04</rscale>
<asrwt>0</asrwt>
<pdfrwt beam="1">  1       21 0.41919371E+00 0.12395399E+04</pdfrwt>
<pdfrwt beam="2">  1        4 0.52959801E-01 0.12395399E+04</pdfrwt>
<totfact> 0.59357498E-01</totfact>
</mgrwt>
</event>
<event>
 6    1  0.1431486E-005  0.9589572E+03  0.7818608E-02  0.1017106E+00
         21   -1    0    0  501  502  0.00000000000E+00  0.00000000000E+00  0.63301143230E+03  0.63301143230E+03  0.00000000000E+00 0.  1.
          4   -1    0    0  502    0 -0.00000000000E+00 -0.00000000000E+00 -0.42934431701E+03  0.42934431701E+03  0.00000000000E+00 0.  1.
    9000010    2    1    2  501    0 -0.18566740867E+02  0.61272375022E+02  0.24028099532E+03  0.98860200241E+03  0.95681760783E+03 0.  0.
        -13    1    3    3    0    0  0.19795083393E+03  0.43655355919E+03 -0.26021599142E+02  0.48004237050E+03  0.10566000000E+00 0.  1.
          4    1    3    3  501    0 -0.21651757479E+03 -0.37528118417E+03  0.26630259447E+03  0.50855963191E+03  0.00000000000E+00 0.  1.
         13    1    1    2    0    0  0.18566740867E+02 -0.61272375022E+02 -0.36613880036E+02  0.73753746905E+02  0.10566000000E+00 0. -1.
<mgrwt>
<rscale>  1 0.48745517E+03</rscale>
<asrwt>0</asrwt>
<pdfrwt beam="1">  1       21 0.97386373E-01 0.95895723E+03</pdfrwt>
<pdfrwt beam="2">  1        4 0.66052972E-01 0.95895723E+03</pdfrwt>
<totfact> 0.70892444E+01</totfact>
</mgrwt>
</event>
<event>
 6    1  0.1431486E-005  0.1059697E+04  0.7818608E-02  0.9547220E-01
         21   -1    0    0  501  502  0.00000000000E+00  0.00000000000E+00  0.12470366123E+04  0.12470366123E+04  0.00000000000E+00 0. -1.
          4   -1    0    0  502    0 -0.00000000000E+00 -0.00000000000E+00 -0.40394180549E+03  0.40394180549E+03  0.00000000000E+00 0.  1.
    9000010    2    1    2  501    0 -0.33219078936E+03 -0.13817465851E+03  0.62994367892E+03  0.12327961952E+04  0.99675195686E+03 0.  0.
        -13    1    3    3    0    0 -0.27011963066E+03 -0.32353909419E+03  0.84370930135E+03  0.94312647968E+03  0.10566000000E+00 0.  1.
          4    1    3    3  501    0 -0.62071158695E+02  0.18536443567E+03 -0.21376562243E+03  0.28966971552E+03  0.00000000000E+00 0.  1.
         13    1    1    2    0    0  0.33219078936E+03  0.13817465851E+03  0.21315112788E+03  0.41818222257E+03  0.10566000000E+00 0. -1.
<mgrwt>
<rscale>  1 0.80890225E+03</rscale>
<asrwt>0</asrwt>
<pdfrwt beam="1">  1       21 0.19185178E+00 0.10596969E+04</pdfrwt>
<pdfrwt beam="2">  1        4 0.62144894E-01 0.10596969E+04</pdfrwt>
<totfact> 0.12630967E+01</totfact>
</mgrwt>
</event>
<event>
 6    1  0.1431486E-005  0.1000178E+04  0.7818608E-02  0.9921089E-01
          4   -1    0    0  502    0 -0.00000000000E+00  0.00000000000E+00  0.32882392889E+03  0.32882392889E+03  0.00000000000E+00 0.  1.
         21   -1    0    0  501  502  0.00000000000E+00 -0.00000000000E+00 -0.10998481715E+04  0.10998481715E+04  0.00000000000E+00 0.  1.
    9000010    2    1    2  501    0  0.57573355517E+02 -0.10889157869E+03 -0.82273159146E+03  0.12950841958E+04  0.99256422233E+03 0.  0.
        -13    1    3    3    0    0 -0.63676133276E+02  0.43461002362E+03 -0.42111247038E+03  0.60850328384E+03  0.10566000000E+00 0.  1.
          4    1    3    3  501    0  0.12124948879E+03 -0.54350160230E+03 -0.40161912108E+03  0.68658091195E+03  0.00000000000E+00 0.  1.
         13    1    1    2    0    0 -0.57573355517E+02  0.10889157869E+03  0.51707348828E+02  0.13358790462E+03  0.10566000000E+00 0. -1.
<mgrwt>
<rscale>  1 0.59250029E+03</rscale>
<asrwt>0</asrwt>
<pdfrwt beam="2">  1       21 0.16920741E+00 0.10001779E+04</pdfrwt>
<pdfrwt beam="1">  1        4 0.50588297E-01 0.10001779E+04</pdfrwt>
<totfact> 0.28912769E+01</totfact>
</mgrwt>
</event>
<event>
 6    1  0.1431486E-005  0.9067661E+03  0.7818608E-02  0.9866944E-01
          4   -1    0    0  502    0 -0.00000000000E+00  0.00000000000E+00  0.70778743413E+03  0.70778743413E+03  0.00000000000E+00 0.  1.
         21   -1    0    0  501  502  0.00000000000E+00 -0.00000000000E+00 -0.10588619111E+04  0.10588619111E+04  0.00000000000E+00 0.  1.
    9000010    2    1    2  501    0 -0.17371989241E+03  0.92458874676E+02 -0.84220965853E+03  0.12375548147E+04  0.88515397869E+03 0.  0.
        -13    1    3    3    0    0 -0.52373292029E+01  0.25878313890E+03 -0.94474116443E+03  0.97955705374E+03  0.10566000000E+00 0.  1.
          4    1    3    3  501    0 -0.16848256321E+03 -0.16632426422E+03  0.10253150590E+03  0.25799776099E+03  0.00000000000E+00 0.  1.
         13    1    1    2    0    0  0.17371989241E+03 -0.92458874676E+02  0.49113518153E+03  0.52909453052E+03  0.10566000000E+00 0. -1.
<mgrwt>
<rscale>  1 0.61890438E+03</rscale>
<asrwt>0</asrwt>
<pdfrwt beam="2">  1       21 0.16290183E+00 0.90676613E+03</pdfrwt>
<pdfrwt beam="1">  1        4 0.10889038E+00 0.90676613E+03</pdfrwt>
<totfact> 0.57317008E+00</totfact>
</mgrwt>
</event>
<event>
 6    1  0.1431486E-005  0.1095695E+04  0.7818608E-02  0.9460468E-01
         21   -1    0    0  501  502  0.00000000000E+00  0.00000000000E+00  0.13397325920E+04  0.13397325920E+04  0.00000000000E+00 0. -1.
          4   -1    0    0  502    0 -0.00000000000E+00 -0.00000000000E+00 -0.48029129323E+03  0.48029129323E+03  0.00000000000E+00 0.  1.
    9000010    2    1    2  501    0 -0.27880978814E+03 -0.34141582409E+03  0.83672870039E+03  0.13786447555E+04  0.10031185279E+04 0.  0.
        -13    1    3    3    0    0  0.24120402889E+03  0.13152672761E+03  0.55897772590E+03  0.62284409995E+03  0.10566000000E+00 0.  1.
          4    1    3    3  501    0 -0.52001381703E+03 -0.47294255170E+03  0.27775097449E+03  0.75580065556E+03  0.00000000000E+00 0.  1.
         13    1    1    2    0    0  0.27880978814E+03  0.34141582409E+03  0.22712598422E+02  0.44137912976E+03  0.10566000000E+00 0. -1.
<mgrwt>
<rscale>  1 0.87262193E+03</rscale>
<asrwt>0</asrwt>
<pdfrwt beam="1">  1       21 0.20611271E+00 0.10956945E+04</pdfrwt>
<pdfrwt beam="2">  1        4 0.73890969E-01 0.10956945E+04</pdfrwt>
<totfact> 0.68118387E+00</totfact>
</mgrwt>
</event>
<event>
 6    1  0.1431486E-005  0.9981438E+03  0.7818608E-02  0.9765086E-01
         21   -1    0    0  501  502  0.00000000000E+00  0.00000000000E+00  0.94009855136E+03  0.94009855136E+03  0.00000000000E+00 0.  1.
          4   -1    0    0  502    0 -0.00000000000E+00 -0.00000000000E+00 -0.45624779852E+03  0.45624779852E+03  0.00000000000E+00 0.  1.
    9000010    2    1    2  501    0  0.18571367473E+03  0.88976123358E+02  0.59530958044E+03  0.11621895628E+04  0.97667024317E+03 0.  0.
        -13    1    3    3    0    0  0.32830562851E+03  0.39697356662E+03  0.63811232142E+03  0.82009752116E+03  0.10566000000E+00 0.  1.
          4    1    3    3  501    0 -0.14259195378E+03 -0.30799744326E+03 -0.42802740979E+02  0.34209204167E+03  0.00000000000E+00 0.  1.
         13    1    1    2    0    0 -0.18571367473E+03 -0.88976123358E+02 -0.11145882760E+03  0.23415678705E+03  0.10566000000E+00 0. -1.
<mgrwt>
<rscale>  1 0.67270349E+03</rscale>
<asrwt>0</asrwt>
<pdfrwt beam="1">  1       21 0.14463055E+00 0.99814382E+03</pdfrwt>
<pdfrwt beam="2">  1        4 0.70191969E-01 0.99814382E+03</pdfrwt>
<totfact> 0.22124315E+01</totfact>
</mgrwt>
</event>
<event>
 6    1  0.1431486E-005  0.9930965E+03  0.7818608E-02  0.1011573E+00
          4   -1    0    0  502    0 -0.00000000000E+00  0.00000000000E+00  0.36527774602E+03  0.36527774602E+03  0.00000000000E+00 0.  1.
         21   -1    0    0  501  502  0.00000000000E+00 -0.00000000000E+00 -0.97099233104E+03  0.97099233104E+03  0.00000000000E+00 0.  1.
    9000010    2    1    2  501    0  0.44256165291E+02  0.52003487112E+02 -0.70348237154E+03  0.12170160537E+04  0.99074601038E+03 0.  0.
        -13    1    3    3    0    0  0.79948116332E+02  0.36220066538E+03  0.74842615811E+02  0.37839457133E+03  0.10566000000E+00 0.  1.
          4    1    3    3  501    0 -0.35691951041E+02 -0.31019717827E+03 -0.77832498735E+03  0.83862148238E+03  0.00000000000E+00 0.  1.
         13    1    1    2    0    0 -0.44256165291E+02 -0.52003487112E+02  0.97767786524E+02  0.11925402335E+03  0.10566000000E+00 0. -1.
<mgrwt>
<rscale>  1 0.50854168E+03</rscale>
<asrwt>0</asrwt>
<pdfrwt beam="2">  1       21 0.14938343E+00 0.99309648E+03</pdfrwt>
<pdfrwt beam="1">  1        4 0.56196577E-01 0.99309648E+03</pdfrwt>
<totfact> 0.32983972E+01</totfact>
</mgrwt>
</event>
<event>
 6    1  0.1431486E-005  0.1069072E+04  0.7818608E-02  0.9596334E-01
          4   -1    0    0  502    0 -0.00000000000E+00  0.00000000000E+00  0.61729711922E+03  0.61729711922E+03  0.00000000000E+00 0.  1.
         21   -1    0    0  501  502  0.00000000000E+00 -0.00000000000E+00 -0.77031015147E+03  0.77031015147E+03  0.00000000000E+00 0.  1.
    9000010    2    1    2  501    0 -0.25830197997E+03 -0.14423884239E+03 -0.20126383344E+03  0.10878525251E+04  0.10273223590E+04 0.  0.
        -13    1    3    3    0    0 -0.46408984889E+03 -0.47128476872E+03 -0.21752767176E+02  0.66178691065E+03  0.10566000000E+00 0.  1.
          4    1    3    3  501    0  0.20578786892E+03  0.32704592633E+03 -0.17951106626E+03  0.42606561447E+03  0.00000000000E+00 0.  1.
         13    1    1    2    0    0  0.25830197997E+03  0.14423884239E+03  0.48250801185E+02  0.29975474557E+03  0.10566000000E+00 0. -1.
<mgrwt>
<rscale>  1 0.77539275E+03</rscale>
<asrwt>0</asrwt>
<pdfrwt beam="2">  1       21 0.11850925E+00 0.10690725E+04</pdfrwt>
<pdfrwt beam="1">  1        4 0.94968788E-01 0.10690725E+04</pdfrwt>
<totfact> 0.18600092E+01</totfact>
</mgrwt>
</event>
<event>
 6    1  0.1431486E-005  0.1044822E+04  0.7818608E-02  0.9628557E-01
          4   -1    0    0  502    0 -0.00000000000E+00  0.00000000000E+00  0.67759969791E+03  0.67759969791E+03  0.00000000000E+00 0.  1.
         21   -1    0    0  501  502  0.00000000000E+00 -0.00000000000E+00 -0.81975653664E+03  0.81975653664E+03  0.00000000000E+00 0.  1.
    9000010    2    1    2  501    0  0.27762092086E+03  0.59345309906E+02 -0.39519317808E+03  0.11170633978E+04  0.10055136723E+04 0.  0.
        -13    1    3    3    0    0  0.34920618947E+03 -0.14349221604E+03  0.23937556818E+03  0.44702981179E+03  0.10566000000E+00 0.  1.
          4    1    3    3  501    0 -0.71585268612E+02  0.20283752594E+03 -0.63456874626E+03  0.67003358598E+03  0.00000000000E+00 0.  1.
         13    1    1    2    0    0 -0.27762092086E+03 -0.59345309906E+02  0.25303633935E+03  0.38029283678E+03  0.10566000000E+00 0. -1.
<mgrwt>
<rscale>  1 0.75434568E+03</rscale>
<asrwt>0</asrwt>
<pdfrwt beam="2">  1       21 0.12611639E+00 0.10448220E+04</pdfrwt>
<pdfrwt beam="1">  1        4 0.10424611E+00 0.10448220E+04</pdfrwt>
<totfact> 0.12652242E+01</totfact>
</mgrwt>
</event>
<event>
 6    1  0.1431486E-005  0.1079147E+04  0.7818608E-02  0.9503864E-01
         21   -1    0    0  501  502  0.00000000000E+00  0.00000000000E+00  0.48891001076E+03  0.48891001076E+03  0.00000000000E+00 0. -1.
          4   -1    0    0  502    0 -0.00000000000E+00 -0.00000000000E+00 -0.11366208875E+04  0.11366208875E+04  0.00000000000E+00 0.  1.
    9000010    2    1    2  501    0 -0.35485593950E+03 -0.17611545574E+03 -0.57493500131E+03  0.12227459299E+04  0.10038017542E+04 0.  0.
        -13    1    3    3    0    0 -0.37869068051E+03 -0.20514748843E+03 -0.84587823024E+03  0.94921131212E+03  0.10566000000E+00 0.  1.
          4    1    3    3  501    0  0.23834741004E+02  0.29032032687E+02  0.27094322893E+03  0.27353461774E+03  0.00000000000E+00 0.  1.
         13    1    1    2    0    0  0.35485593950E+03  0.17611545574E+03 -0.72775875438E+02  0.40278496839E+03  0.10566000000E+00 0. -1.
<mgrwt>
<rscale>  1 0.83999535E+03</rscale>
<asrwt>0</asrwt>
<pdfrwt beam="1">  1       21 0.75216926E-01 0.10791466E+04</pdfrwt>
<pdfrwt beam="2">  1        4 0.17486475E+00 0.10791466E+04</pdfrwt>
<totfact> 0.11675227E+01</totfact>
</mgrwt>
</event>
<event>
 6    1  0.1431486E-005  0.1060138E+04  0.7818608E-02  0.9538624E-01
         21   -1    0    0  501  502  0.00000000000E+00  0.00000000000E+00  0.44144278151E+03  0.44144278151E+03  0.00000000000E+00 0.  1.
          4   -1    0    0  502    0 -0.00000000000E+00 -0.00000000000E+00 -0.11628737832E+04  0.11628737832E+04  0.00000000000E+00 0.  1.
    9000010    2    1    2  501    0 -0.36097932057E+03 -0.82126055234E+02 -0.49160674476E+03  0.11685758631E+04  0.99339901221E+03 0.  0.
        -13    1    3    3    0    0  0.15775948942E+03 -0.36961572528E+03 -0.57821581603E+01  0.40191701306E+03  0.10566000000E+00 0.  1.
          4    1    3    3  501    0 -0.51873880999E+03  0.28748967004E+03 -0.48582458660E+03  0.76665885002E+03  0.00000000000E+00 0.  1.
         13    1    1    2    0    0  0.36097932057E+03  0.82126055234E+02 -0.22982425698E+03  0.43574070167E+03  0.10566000000E+00 0. -1.
<mgrwt>
<rscale>  1 0.81495186E+03</rscale>
<asrwt>0</asrwt>
<pdfrwt beam="1">  1       21 0.67914276E-01 0.10601379E+04</pdfrwt>
<pdfrwt beam="2">  1        4 0.17890365E+00 0.10601379E+04</pdfrwt>
<totfact> 0.13860252E+01</totfact>
</mgrwt>
</event>
<event>
 6    1  0.1431486E-005  0.1015146E+04  0.7818608E-02  0.9814827E-01
          4   -1    0    0  502    0 -0.00000000000E+00  0.00000000000E+00  0.12742603257E+04  0.12742603257E+04  0.00000000000E+00 0.  1.
         21   -1    0    0  501  502  0.00000000000E+00 -0.00000000000E+00 -0.28208256590E+03  0.28208256590E+03  0.00000000000E+00 0.  1.
    9000010    2    1    2  501    0 -0.83743180275E+01 -0.16598289066E+03  0.74795148596E+03  0.12609331199E+04  0.10014491792E+04 0.  0.
        -13    1    3    3    0    0 -0.31954802668E+03 -0.38387163822E+03  0.72496342746E+03  0.88036376477E+03  0.10566000000E+00 0.  1.
          4    1    3    3  501    0  0.31117370865E+03  0.21788874756E+03  0.22988058491E+02  0.38056935518E+03  0.00000000000E+00 0.  1.
         13    1    1    2    0    0  0.83743180275E+01  0.16598289066E+03  0.24422627386E+03  0.29540977168E+03  0.10566000000E+00 0. -1.
<mgrwt>
<rscale>  1 0.64572882E+03</rscale>
<asrwt>0</asrwt>
<pdfrwt beam="2">  1       21 0.43397319E-01 0.10151458E+04</pdfrwt>
<pdfrwt beam="1">  1        4 0.19604005E+00 0.10151458E+04</pdfrwt>
<totfact> 0.28409544E+01</totfact>
</mgrwt>
</event>
<event>
 6    1  0.1431486E-005  0.1010448E+04  0.7818608E-02  0.1009892E+00
          4   -1    0    0  502    0 -0.00000000000E+00  0.00000000000E+00  0.13169662447E+04  0.13169662447E+04  0.00000000000E+00 0.  1.
         21   -1    0    0  501  502  0.00000000000E+00 -0.00000000000E+00 -0.25611065985E+03  0.25611065985E+03  0.00000000000E+00 0.  1.
    9000010    2    1    2  501    0  0.59118380787E+02 -0.34159087885E+02  0.75943500921E+03  0.12640199505E+04  0.10081384210E+04 0.  0.
        -13    1    3    3    0    0 -0.36075393066E+03 -0.24562126619E+03  0.89372744289E+02  0.44548928548E+03  0.10566000000E+00 0.  1.
          4    1    3    3  501    0  0.41987231145E+03  0.21146217830E+03  0.67006226492E+03  0.81853066506E+03  0.00000000000E+00 0.  1.
         13    1    1    2    0    0 -0.59118380787E+02  0.34159087885E+02  0.30142057561E+03  0.30905695397E+03  0.10566000000E+00 0. -1.
<mgrwt>
<rscale>  1 0.51517535E+03</rscale>
<asrwt>0</asrwt>
<pdfrwt beam="2">  1       21 0.39401641E-01 0.10104479E+04</pdfrwt>
<pdfrwt beam="1">  1        4 0.20261019E+00 0.10104479E+04</pdfrwt>
<totfact> 0.31502334E+01</totfact>
</mgrwt>
</event>
<event>
 6    1  0.1431486E-005  0.1117066E+04  0.7818608E-02  0.9449985E-01
         21   -1    0    0  501  502  0.00000000000E+00  0.00000000000E+00  0.21490871307E+04  0.21490871307E+04  0.00000000000E+00 0.  1.
          4   -1    0    0  502    0 -0.00000000000E+00 -0.00000000000E+00 -0.39311756126E+03  0.39311756126E+03  0.00000000000E+00 0.  1.
    9000010    2    1    2  501    0  0.11939863326E+03 -0.41482693996E+03  0.51836436657E+03  0.12314781480E+04  0.10302909243E+04 0.  0.
        -13    1    3    3    0    0  0.60272025296E+02  0.12531646197E+03  0.65630316296E+03  0.67087315161E+03  0.10566000000E+00 0.  1.
          4    1    3    3  501    0  0.59126607961E+02 -0.54014340193E+03 -0.13793879639E+03  0.56060499638E+03  0.00000000000E+00 0.  1.
         13    1    1    2    0    0 -0.11939863326E+03  0.41482693996E+03  0.12376052029E+04  0.13107265440E+04  0.10566000000E+00 0. -1.
<mgrwt>
<rscale>  1 0.88073801E+03</rscale>
<asrwt>0</asrwt>
<pdfrwt beam="1">  1       21 0.33062878E+00 0.11170662E+04</pdfrwt>
<pdfrwt beam="2">  1        4 0.60479626E-01 0.11170662E+04</pdfrwt>
<totfact> 0.17043696E+00</totfact>
</mgrwt>
</event>
<event>
 6    1  0.1431486E-005  0.1044499E+04  0.7818608E-02  0.9612833E-01
          4   -1    0    0  502    0 -0.00000000000E+00  0.00000000000E+00  0.61167450536E+03  0.61167450536E+03  0.00000000000E+00 0.  1.
         21   -1    0    0  501  502  0.00000000000E+00 -0.00000000000E+00 -0.85280886809E+03  0.85280886809E+03  0.00000000000E+00 0.  1.
    9000010    2    1    2  501    0 -0.14072315481E+03  0.26473157090E+03 -0.40800962376E+03  0.11213606915E+04  0.10005459192E+04 0.  0.
        -13    1    3    3    0    0  0.20285246305E+03  0.32433235187E+03  0.19150997674E+03  0.42780448641E+03  0.10566000000E+00 0.  1.
          4    1    3    3  501    0 -0.34357561786E+03 -0.59600780974E+02 -0.59951960051E+03  0.69355620513E+03  0.00000000000E+00 0.  1.
         13    1    1    2    0    0  0.14072315481E+03 -0.26473157090E+03  0.16687526104E+03  0.34312268191E+03  0.10566000000E+00 0. -1.
<mgrwt>
<rscale>  1 0.76452623E+03</rscale>
<asrwt>0</asrwt>
<pdfrwt beam="2">  1       21 0.13120136E+00 0.10444989E+04</pdfrwt>
<pdfrwt beam="1">  1        4 0.94103770E-01 0.10444989E+04</pdfrwt>
<totfact> 0.14578760E+01</totfact>
</mgrwt>
</event>
<event>
 6    1  0.1431486E-005  0.1054228E+04  0.7818608E-02  0.9585720E-01
         21   -1    0    0  501  502  0.00000000000E+00  0.00000000000E+00  0.23986121001E+03  0.23986121001E+03  0.00000000000E+00 0. -1.
          4   -1    0    0  502    0 -0.00000000000E+00 -0.00000000000E+00 -0.20021787432E+04  0.20021787432E+04  0.00000000000E+00 0.  1.
    9000010    2    1    2  501    0  0.27533398963E+03  0.16299809103E+03 -0.12201887755E+04  0.16125315858E+04  0.10045000169E+04 0.  0.
        -13    1    3    3    0    0  0.65346860658E+03  0.13887428326E+03 -0.68542782609E+03  0.95714084767E+03  0.10566000000E+00 0.  1.
          4    1    3    3  501    0 -0.37813461695E+03  0.24123807770E+02 -0.53476094944E+03  0.65539073817E+03  0.00000000000E+00 0.  1.
         13    1    1    2    0    0 -0.27533398963E+03 -0.16299809103E+03 -0.54212875763E+03  0.62950836733E+03  0.10566000000E+00 0. -1.
<mgrwt>
<rscale>  1 0.78248574E+03</rscale>
<asrwt>0</asrwt>
<pdfrwt beam="1">  1       21 0.36901723E-01 0.10542284E+04</pdfrwt>
<pdfrwt beam="2">  1        4 0.30802751E+00 0.10542284E+04</pdfrwt>
<totfact> 0.78730702E+00</totfact>
</mgrwt>
</event>
<event>
 6    1  0.1431486E-005  0.9313003E+03  0.7818608E-02  0.1002150E+00
         21   -1    0    0  501  502  0.00000000000E+00  0.00000000000E+00  0.26739181747E+03  0.26739181747E+03  0.00000000000E+00 0.  1.
          4   -1    0    0  502    0 -0.00000000000E+00 -0.00000000000E+00 -0.12616496187E+04  0.12616496187E+04  0.00000000000E+00 0.  1.
    9000010    2    1    2  501    0 -0.71562330602E+02  0.84822123091E+02 -0.57310555093E+03  0.10935128047E+04  0.92466443742E+03 0.  0.
        -13    1    3    3    0    0 -0.57925509971E+02  0.37528764022E+03 -0.68396895483E+03  0.78231050098E+03  0.10566000000E+00 0.  1.
          4    1    3    3  501    0 -0.13636820631E+02 -0.29046551713E+03  0.11086340391E+03  0.31120230372E+03  0.00000000000E+00 0.  1.
         13    1    1    2    0    0  0.71562330602E+02 -0.84822123091E+02 -0.42115225027E+03  0.43552863143E+03  0.10566000000E+00 0. -1.
<mgrwt>
<rscale>  1 0.54717456E+03</rscale>
<asrwt>0</asrwt>
<pdfrwt beam="1">  1       21 0.41137203E-01 0.93130032E+03</pdfrwt>
<pdfrwt beam="2">  1        4 0.19409994E+00 0.93130032E+03</pdfrwt>
<totfact> 0.33033388E+01</totfact>
</mgrwt>
</event>
<event>
 6    1  0.1431486E-005  0.1182536E+04  0.7818608E-02  0.9385225E-01
          4   -1    0    0  502    0 -0.00000000000E+00  0.00000000000E+00  0.11271399467E+04  0.11271399467E+04  0.00000000000E+00 0.  1.
         21   -1    0    0  501  502  0.00000000000E+00 -0.00000000000E+00 -0.59959621402E+03  0.59959621402E+03  0.00000000000E+00 0. -1.
    9000010    2    1    2  501    0  0.45427471502E+03  0.60318700853E+02  0.42938622909E+03  0.12580798164E+04  0.10901322986E+04 0.  0.
        -13    1    3    3    0    0 -0.56247811604E+02  0.19724655839E+03  0.65277914244E+03  0.68424457694E+03  0.10566000000E+00 0.  1.
          4    1    3    3  501    0  0.51052252662E+03 -0.13692785754E+03 -0.22339291336E+03  0.57383523950E+03  0.00000000000E+00 0.  1.
         13    1    1    2    0    0 -0.45427471502E+03 -0.60318700853E+02  0.98157503635E+02  0.46865634431E+03  0.10566000000E+00 0. -1.
<mgrwt>
<rscale>  1 0.93301656E+03</rscale>
<asrwt>0</asrwt>
<pdfrwt beam="2">  1       21 0.92245571E-01 0.11825364E+04</pdfrwt>
<pdfrwt beam="1">  1        4 0.17340615E+00 0.11825364E+04</pdfrwt>
<totfact> 0.72799053E+00</totfact>
</mgrwt>
</event>
<event>
 6    1  0.1431486E-005  0.1076330E+04  0.7818608E-02  0.9514832E-01
         21   -1    0    0  501  502  0.00000000000E+00  0.00000000000E+00  0.78930912376E+03  0.78930912376E+03  0.00000000000E+00 0. -1.
          4   -1    0    0  502    0 -0.00000000000E+00 -0.00000000000E+00 -0.71467754573E+03  0.71467754573E+03  0.00000000000E+00 0.  1.
    9000010    2    1    2  501    0  0.38357085907E+03  0.23195011876E+02  0.20989219158E+03  0.10966047145E+04  0.10053967154E+04 0.  0.
        -13    1    3    3    0    0  0.51274133017E+03 -0.31014337990E+02  0.53556092151E+03  0.74208562352E+03  0.10566000000E+00 0.  1.
          4    1    3    3  501    0 -0.12917047109E+03  0.54209349866E+02 -0.32566872994E+03  0.35451909099E+03  0.00000000000E+00 0.  1.
         13    1    1    2    0    0 -0.38357085907E+03 -0.23195011876E+02 -0.13526061354E+03  0.40738195499E+03  0.10566000000E+00 0. -1.
<mgrwt>
<rscale>  1 0.83199127E+03</rscale>
<asrwt>0</asrwt>
<pdfrwt beam="1">  1       21 0.12143217E+00 0.10763304E+04</pdfrwt>
<pdfrwt beam="2">  1        4 0.10995039E+00 0.10763304E+04</pdfrwt>
<totfact> 0.12223461E+01</totfact>
</mgrwt>
</event>
<event>
 6    1  0.1431486E-005  0.1001435E+04  0.7818608E-02  0.9795551E-01
          4   -1    0    0  502    0 -0.00000000000E+00  0.00000000000E+00  0.10911491180E+04  0.10911491180E+04  0.00000000000E+00 0.  1.
         21   -1    0    0  501  502  0.00000000000E+00 -0.00000000000E+00 -0.32321250911E+03  0.32321250911E+03  0.00000000000E+00 0.  1.
    9000010    2    1    2  501    0 -0.58350064748E+02  0.17493995954E+03  0.61884292747E+03  0.11772168264E+04  0.98430897994E+03 0.  0.
        -13    1    3    3    0    0  0.13375512416E+03 -0.35718352148E+03  0.67647751562E+02  0.38735865901E+03  0.10566000000E+00 0.  1.
          4    1    3    3  501    0 -0.19210518891E+03  0.53212348102E+03  0.55119517591E+03  0.78985816740E+03  0.00000000000E+00 0.  1.
         13    1    1    2    0    0  0.58350064748E+02 -0.17493995954E+03  0.14909368145E+03  0.23714480073E+03  0.10566000000E+00 0. -1.
<mgrwt>
<rscale>  1 0.65601839E+03</rscale>
<asrwt>0</asrwt>
<pdfrwt beam="2">  1       21 0.49725002E-01 0.10014354E+04</pdfrwt>
<pdfrwt beam="1">  1        4 0.16786909E+00 0.10014354E+04</pdfrwt>
<totfact> 0.33359148E+01</totfact>
</mgrwt>
</event>
<event>
 6    1  0.1431486E-005  0.1011433E+04  0.7818608E-02  0.9948366E-01
         21   -1    0    0  501  502  0.00000000000E+00  0.00000000000E+00  0.45054780219E+03  0.45054780219E+03  0.00000000000E+00 0.  1.
          4   -1    0    0  502    0 -0.00000000000E+00 -0.00000000000E+00 -0.71634908560E+03  0.71634908560E+03  0.00000000000E+00 0.  1.
    9000010    2    1    2  501    0  0.10625399342E+03  0.25065247099E+02 -0.29557985068E+03  0.10537379201E+04  0.10055237334E+04 0.  0.
        -13    1    3    3    0    0 -0.34302271058E+03 -0.10869489081E+03 -0.43513203583E+03  0.56464064593E+03  0.10566000000E+00 0.  1.
          4    1    3    3  501    0  0.44927670400E+03  0.13376013791E+03  0.13955218516E+03  0.48909727420E+03  0.00000000000E+00 0.  1.
         13    1    1    2    0    0 -0.10625399342E+03 -0.25065247099E+02  0.29778567264E+02  0.11315896766E+03  0.10566000000E+00 0. -1.
<mgrwt>
<rscale>  1 0.57973442E+03</rscale>
<asrwt>0</asrwt>
<pdfrwt beam="1">  1       21 0.69315047E-01 0.10114327E+04</pdfrwt>
<pdfrwt beam="2">  1        4 0.11020755E+00 0.10114327E+04</pdfrwt>
<totfact> 0.47866337E+01</totfact>
</mgrwt>
</event>
<event>
 6    1  0.1431486E-005  0.1007734E+04  0.7818608E-02  0.9869250E-01
          4   -1    0    0  502    0 -0.00000000000E+00  0.00000000000E+00  0.23413108621E+03  0.23413108621E+03  0.00000000000E+00 0.  1.
         21   -1    0    0  501  502  0.00000000000E+00 -0.00000000000E+00 -0.15118376830E+04  0.15118376830E+04  0.00000000000E+00 0.  1.
    9000010    2    1    2  501    0 -0.14206456320E+03  0.82272028227E+01 -0.12417199977E+04  0.15991863675E+04  0.99763643596E+03 0.  0.
        -13    1    3    3    0    0 -0.44757083351E+03  0.25529750560E+03 -0.10327723603E+04  0.11541729622E+04  0.10566000000E+00 0.  1.
          4    1    3    3  501    0  0.30550627031E+03 -0.24707030277E+03 -0.20894763741E+03  0.44501340529E+03  0.00000000000E+00 0.  1.
         13    1    1    2    0    0  0.14206456320E+03 -0.82272028227E+01 -0.35986599151E+02  0.14678240175E+03  0.10566000000E+00 0. -1.
<mgrwt>
<rscale>  1 0.61775003E+03</rscale>
<asrwt>0</asrwt>
<pdfrwt beam="2">  1       21 0.23259041E+00 0.10077343E+04</pdfrwt>
<pdfrwt beam="1">  1        4 0.36020167E-01 0.10077343E+04</pdfrwt>
<totfact> 0.21217294E+01</totfact>
</mgrwt>
</event>
<event>
 6    1  0.1431486E-005  0.1074540E+04  0.7818608E-02  0.9475263E-01
          4   -1    0    0  502    0 -0.00000000000E+00  0.00000000000E+00  0.60244778722E+03  0.60244778722E+03  0.00000000000E+00 0.  1.
         21   -1    0    0  501  502  0.00000000000E+00 -0.00000000000E+00 -0.12153780733E+04  0.12153780733E+04  0.00000000000E+00 0.  1.
    9000010    2    1    2  501    0 -0.39820029475E+03 -0.19550836199E+03 -0.79668875283E+03  0.13376652836E+04  0.97869732175E+03 0.  0.
        -13    1    3    3    0    0  0.13849246281E+01  0.20664717102E+03 -0.73954327741E+03  0.76787319372E+03  0.10566000000E+00 0.  1.
          4    1    3    3  501    0 -0.39958521937E+03 -0.40215553301E+03 -0.57145475412E+02  0.56979208983E+03  0.00000000000E+00 0.  1.
         13    1    1    2    0    0  0.39820029475E+03  0.19550836199E+03  0.18375846679E+03  0.48016057692E+03  0.10566000000E+00 0. -1.
<mgrwt>
<rscale>  1 0.86132367E+03</rscale>
<asrwt>0</asrwt>
<pdfrwt beam="2">  1       21 0.18698124E+00 0.10745396E+04</pdfrwt>
<pdfrwt beam="1">  1        4 0.92684276E-01 0.10745396E+04</pdfrwt>
<totfact> 0.54901211E+00</totfact>
</mgrwt>
</event>
<event>
 6    1  0.1431486E-005  0.1019732E+04  0.7818608E-02  0.9883182E-01
          4   -1    0    0  502    0 -0.00000000000E+00  0.00000000000E+00  0.42787295296E+03  0.42787295296E+03  0.00000000000E+00 0.  1.
         21   -1    0    0  501  502  0.00000000000E+00 -0.00000000000E+00 -0.77718400263E+03  0.77718400263E+03  0.00000000000E+00 0.  1.
    9000010    2    1    2  501    0  0.13097324743E+03  0.91206644444E+01 -0.33316455913E+03  0.10727773336E+04  0.10112444838E+04 0.  0.
        -13    1    3    3    0    0  0.54545365926E+03  0.16610916208E+03 -0.12798257157E+03  0.58437273886E+03  0.10566000000E+00 0.  1.
          4    1    3    3  501    0 -0.41448041183E+03 -0.15698849764E+03 -0.20518198757E+03  0.48840459478E+03  0.00000000000E+00 0.  1.
         13    1    1    2    0    0 -0.13097324743E+03 -0.91206644444E+01 -0.16146490543E+02  0.13227962195E+03  0.10566000000E+00 0. -1.
<mgrwt>
<rscale>  1 0.61083332E+03</rscale>
<asrwt>0</asrwt>
<pdfrwt beam="2">  1       21 0.11956677E+00 0.10197316E+04</pdfrwt>
<pdfrwt beam="1">  1        4 0.65826609E-01 0.10197316E+04</pdfrwt>
<totfact> 0.42347772E+01</totfact>
</mgrwt>
</event>
<event>
 6    1  0.1431486E-005  0.1006878E+04  0.7818608E-02  0.9931255E-01
          4   -1    0    0  502    0 -0.00000000000E+00  0.00000000000E+00  0.10679588332E+04  0.10679588332E+04  0.00000000000E+00 0.  1.
         21   -1    0    0  501  502  0.00000000000E+00 -0.00000000000E+00 -0.38610100731E+03  0.38610100731E+03  0.00000000000E+00 0.  1.
    9000010    2    1    2  501    0 -0.45232733868E+02 -0.10776020255E+03  0.29391950152E+03  0.10489000990E+04  0.10000722388E+04 0.  0.
        -13    1    3    3    0    0 -0.41122673675E+03 -0.37093493718E+03  0.19706158987E+03  0.58782092342E+03  0.10566000000E+00 0.  1.
          4    1    3    3  501    0  0.36599400288E+03  0.26317473463E+03  0.96857911650E+02  0.46107917557E+03  0.00000000000E+00 0.  1.
         13    1    1    2    0    0  0.45232733868E+02  0.10776020255E+03  0.38793832441E+03  0.40515974155E+03  0.10566000000E+00 0. -1.
<mgrwt>
<rscale>  1 0.58770180E+03</rscale>
<asrwt>0</asrwt>
<pdfrwt beam="2">  1       21 0.59400155E-01 0.10068777E+04</pdfrwt>
<pdfrwt beam="1">  1        4 0.16430136E+00 0.10068777E+04</pdfrwt>
<totfact> 0.23978442E+01</totfact>
</mgrwt>
</event>
<event>
 6    1  0.1431486E-005  0.1076295E+04  0.7818608E-02  0.9517336E-01
         21   -1    0    0  501  502  0.00000000000E+00  0.00000000000E+00  0.31247572042E+04  0.31247572042E+04  0.00000000000E+00 0.  1.
          4   -1    0    0  502    0 -0.00000000000E+00 -0.00000000000E+00 -0.20254035744E+03  0.20254035744E+03  0.00000000000E+00 0.  1.
    9000010    2    1    2  501    0 -0.17709945121E+03 -0.33730053028E+03  0.26466140714E+04  0.28570925380E+04  0.10066160460E+04 0.  0.
        -13    1    3    3    0    0  0.91635648679E+02  0.23151503918E+02 -0.60943102581E+02  0.11245958011E+03  0.10566000000E+00 0.  1.
          4    1    3    3  501    0 -0.26873509989E+03 -0.36045203420E+03  0.27075571740E+04  0.27446329579E+04  0.00000000000E+00 0.  1.
         13    1    1    2    0    0  0.17709945121E+03  0.33730053028E+03  0.27560277536E+03  0.47020502368E+03  0.10566000000E+00 0. -1.
<mgrwt>
<rscale>  1 0.83017653E+03</rscale>
<asrwt>0</asrwt>
<pdfrwt beam="1">  1       21 0.48073184E+00 0.10762954E+04</pdfrwt>
<pdfrwt beam="2">  1        4 0.31160057E-01 0.10762954E+04</pdfrwt>
<totfact> 0.68587679E-01</totfact>
</mgrwt>
</event>
<event>
 6    1  0.1431486E-005  0.1059795E+04  0.7818608E-02  0.9587699E-01
          4   -1    0    0  502    0 -0.00000000000E+00  0.00000000000E+00  0.11635056014E+04  0.11635056014E+04  0.00000000000E+00 0.  1.
         21   -1    0    0  501  502  0.00000000000E+00 -0.00000000000E+00 -0.52333172119E+03  0.52333172119E+03  0.00000000000E+00 0.  1.
    9000010    2    1    2  501    0 -0.61576890185E+02  0.30669537306E+03  0.80722816593E+03  0.13322094743E+04  0.10125764199E+04 0.  0.
        -13    1    3    3    0    0  0.24746169624E+03 -0.27861951750E+03  0.15701558920E+03  0.40437610347E+03  0.10566000000E+00 0.  1.
          4    1    3    3  501    0 -0.30903858643E+03  0.58531489057E+03  0.65021257672E+03  0.92783337079E+03  0.00000000000E+00 0.  1.
         13    1    1    2    0    0  0.61576890185E+02 -0.30669537306E+03 -0.16705428572E+03  0.35462784832E+03  0.10566000000E+00 0. -1.
<mgrwt>
<rscale>  1 0.78115741E+03</rscale>
<asrwt>0</asrwt>
<pdfrwt beam="2">  1       21 0.80512573E-01 0.10597947E+04</pdfrwt>
<pdfrwt beam="1">  1        4 0.17900086E+00 0.10597947E+04</pdfrwt>
<totfact> 0.93267944E+00</totfact>
</mgrwt>
</event>
<event>
 6    1  0.1431486E-005  0.8425635E+03  0.7818608E-02  0.9989737E-01
          4   -1    0    0  502    0 -0.00000000000E+00  0.00000000000E+00  0.87745392142E+03  0.87745392142E+03  0.00000000000E+00 0.  1.
         21   -1    0    0  501  502  0.00000000000E+00 -0.00000000000E+00 -0.41877400935E+03  0.41877400935E+03  0.00000000000E+00 0.  1.
    9000010    2    1    2  501    0 -0.56431935536E+00 -0.16562281840E+03  0.37211508322E+02  0.84338484211E+03  0.82612472371E+03 0.  0.
        -13    1    3    3    0    0 -0.31323491478E+03  0.16303567604E+03 -0.10428307068E+03  0.36820064298E+03  0.10566000000E+00 0.  1.
          4    1    3    3  501    0  0.31267059543E+03 -0.32865849445E+03  0.14149457900E+03  0.47518419913E+03  0.00000000000E+00 0.  1.
         13    1    1    2    0    0  0.56431935536E+00  0.16562281840E+03  0.42146840374E+03  0.45284308866E+03  0.10566000000E+00 0. -1.
<mgrwt>
<rscale>  1 0.56102561E+03</rscale>
<asrwt>0</asrwt>
<pdfrwt beam="2">  1       21 0.64426771E-01 0.84256353E+03</pdfrwt>
<pdfrwt beam="1">  1        4 0.13499291E+00 0.84256353E+03</pdfrwt>
<totfact> 0.34399493E+01</totfact>
</mgrwt>
</event>
<event>
 6    1  0.1431486E-005  0.1052962E+04  0.7818608E-02  0.9634273E-01
          4   -1    0    0  502    0 -0.00000000000E+00  0.00000000000E+00  0.74320605506E+03  0.74320605506E+03  0.00000000000E+00 0.  1.
         21   -1    0    0  501  502  0.00000000000E+00 -0.00000000000E+00 -0.59865841502E+03  0.59865841502E+03  0.00000000000E+00 0.  1.
    9000010    2    1    2  501    0  0.15138289141E+02 -0.27159609552E+03  0.50948825864E+02  0.10541939014E+04  0.10172194414E+04 0.  0.
        -13    1    3    3    0    0  0.65591134130E+02 -0.17472348137E+02 -0.46867349623E+03  0.47356344565E+03  0.10566000000E+00 0.  1.
          4    1    3    3  501    0 -0.50452844989E+02 -0.25412374738E+03  0.51962232209E+03  0.58063045577E+03  0.00000000000E+00 0.  1.
         13    1    1    2    0    0 -0.15138289141E+02  0.27159609552E+03  0.93598814173E+02  0.28767056867E+03  0.10566000000E+00 0. -1.
<mgrwt>
<rscale>  1 0.75068685E+03</rscale>
<asrwt>0</asrwt>
<pdfrwt beam="2">  1       21 0.92101295E-01 0.10529620E+04</pdfrwt>
<pdfrwt beam="1">  1        4 0.11433939E+00 0.10529620E+04</pdfrwt>
<totfact> 0.22296288E+01</totfact>
</mgrwt>
</event>
<event>
 6    1  0.1431486E-005  0.1062689E+04  0.7818608E-02  0.9553630E-01
          4   -1    0    0  502    0 -0.00000000000E+00  0.00000000000E+00  0.15767100092E+04  0.15767100092E+04  0.00000000000E+00 0.  1.
         21   -1    0    0  501  502  0.00000000000E+00 -0.00000000000E+00 -0.42747041060E+03  0.42747041060E+03  0.00000000000E+00 0.  1.
    9000010    2    1    2  501    0  0.33615246813E+03  0.93535159547E+02  0.32842628723E+03  0.11122825494E+04  0.10037735480E+04 0.  0.
        -13    1    3    3    0    0  0.35602834493E+03  0.43362655817E+03  0.48098695044E+03  0.73901057638E+03  0.10566000000E+00 0.  1.
          4    1    3    3  501    0 -0.19875876797E+02 -0.34009139863E+03 -0.15256066321E+03  0.37327197304E+03  0.00000000000E+00 0.  1.
         13    1    1    2    0    0 -0.33615246813E+03 -0.93535159547E+02  0.82081331137E+03  0.89189787038E+03  0.10566000000E+00 0. -1.
<mgrwt>
<rscale>  1 0.80442798E+03</rscale>
<asrwt>0</asrwt>
<pdfrwt beam="2">  1       21 0.65764679E-01 0.10626893E+04</pdfrwt>
<pdfrwt beam="1">  1        4 0.24257077E+00 0.10626893E+04</pdfrwt>
<totfact> 0.57221608E+00</totfact>
</mgrwt>
</event>
<event>
 6    1  0.1431486E-005  0.1072875E+04  0.7818608E-02  0.9507459E-01
          4   -1    0    0  502    0 -0.00000000000E+00  0.00000000000E+00  0.85989478844E+03  0.85989478844E+03  0.00000000000E+00 0.  1.
         21   -1    0    0  501  502  0.00000000000E+00 -0.00000000000E+00 -0.67446981480E+03  0.67446981480E+03  0.00000000000E+00 0.  1.
    9000010    2    1    2  501    0  0.15799681350E+03 -0.36541701414E+03 -0.46027145547E+02  0.10738619627E+04  0.99627728545E+03 0.  0.
        -13    1    3    3    0    0  0.43262289601E+03  0.66851146330E+02  0.22741612662E+03  0.49330492774E+03  0.10566000000E+00 0.  1.
          4    1    3    3  501    0 -0.27462608251E+03 -0.43226816047E+03 -0.27344327217E+03  0.58055703496E+03  0.00000000000E+00 0.  1.
         13    1    1    2    0    0 -0.15799681350E+03  0.36541701414E+03  0.23145211919E+03  0.46050264053E+03  0.10566000000E+00 0. -1.
<mgrwt>
<rscale>  1 0.83736153E+03</rscale>
<asrwt>0</asrwt>
<pdfrwt beam="2">  1       21 0.10376459E+00 0.10728751E+04</pdfrwt>
<pdfrwt beam="1">  1        4 0.13229151E+00 0.10728751E+04</pdfrwt>
<totfact> 0.11456108E+01</totfact>
</mgrwt>
</event>
<event>
 6    1  0.1431486E-005  0.9959327E+03  0.7818608E-02  0.9781840E-01
          4   -1    0    0  502    0 -0.00000000000E+00  0.00000000000E+00  0.94372768653E+03  0.94372768653E+03  0.00000000000E+00 0.  1.
         21   -1    0    0  501  502  0.00000000000E+00 -0.00000000000E+00 -0.39237495550E+03  0.39237495550E+03  0.00000000000E+00 0.  1.
    9000010    2    1    2  501    0 -0.11222867372E+03 -0.16086439294E+03  0.35166574576E+03  0.10561963517E+04  0.97642680650E+03 0.  0.
        -13    1    3    3    0    0 -0.18908885040E+03  0.15671723912E+03  0.59834573071E+03  0.64678629470E+03  0.10566000000E+00 0.  1.
          4    1    3    3  501    0  0.76860176680E+02 -0.31758163206E+03 -0.24667998495E+03  0.40941005699E+03  0.00000000000E+00 0.  1.
         13    1    1    2    0    0  0.11222867372E+03  0.16086439294E+03  0.19968698528E+03  0.27990629035E+03  0.10566000000E+00 0. -1.
<mgrwt>
<rscale>  1 0.66346267E+03</rscale>
<asrwt>0</asrwt>
<pdfrwt beam="2">  1       21 0.60365378E-01 0.99593270E+03</pdfrwt>
<pdfrwt beam="1">  1        4 0.14518887E+00 0.99593270E+03</pdfrwt>
<totfact> 0.32400472E+01</totfact>
</mgrwt>
</event>
<event>
 6    1  0.1431486E-005  0.9358889E+03  0.7818608E-02  0.9785854E-01
         21   -1    0    0  501  502  0.00000000000E+00  0.00000000000E+00  0.11121986522E+04  0.11121986522E+04  0.00000000000E+00 0.  1.
          4   -1    0    0  502    0 -0.00000000000E+00 -0.00000000000E+00 -0.42598300649E+03  0.42598300649E+03  0.00000000000E+00 0.  1.
    9000010    2    1    2  501    0 -0.23292175847E+03 -0.12645476879E+02  0.84099474034E+03  0.12582369624E+04  0.90635293709E+03 0.  0.
        -13    1    3    3    0    0 -0.22686581551E+03  0.15485960386E+03  0.99402132189E+03  0.10312749365E+04  0.10566000000E+00 0.  1.
          4    1    3    3  501    0 -0.60559429617E+01 -0.16750508074E+03 -0.15302658156E+03  0.22696202586E+03  0.00000000000E+00 0.  1.
         13    1    1    2    0    0  0.23292175847E+03  0.12645476879E+02 -0.15477909467E+03  0.27994469626E+03  0.10566000000E+00 0. -1.
<mgrwt>
<rscale>  1 0.66127261E+03</rscale>
<asrwt>0</asrwt>
<pdfrwt beam="1">  1       21 0.17110748E+00 0.93588894E+03</pdfrwt>
<pdfrwt beam="2">  1        4 0.65535848E-01 0.93588894E+03</pdfrwt>
<totfact> 0.16113222E+01</totfact>
</mgrwt>
</event>
<event>
 6    1  0.1431486E-005  0.1016880E+04  0.7818608E-02  0.9824015E-01
         21   -1    0    0  501  502  0.00000000000E+00  0.00000000000E+00  0.57646916342E+03  0.57646916342E+03  0.00000000000E+00 0.  1.
          4   -1    0    0  502    0 -0.00000000000E+00 -0.00000000000E+00 -0.69214366664E+03  0.69214366664E+03  0.00000000000E+00 0.  1.
    9000010    2    1    2  501    0  0.77919512797E+02  0.14025933809E+03  0.74725720291E+02  0.10196220899E+04  0.10041419922E+04 0.  0.
        -13    1    3    3    0    0 -0.44459651684E+03  0.14028381592E+03  0.15431535137E+03  0.49107927122E+03  0.10566000000E+00 0.  1.
          4    1    3    3  501    0  0.52251602963E+03 -0.24477834812E-01 -0.79589631078E+02  0.52854281870E+03  0.00000000000E+00 0.  1.
         13    1    1    2    0    0 -0.77919512797E+02 -0.14025933809E+03 -0.19040022351E+03  0.24899074013E+03  0.10566000000E+00 0. -1.
<mgrwt>
<rscale>  1 0.64089538E+03</rscale>
<asrwt>0</asrwt>
<pdfrwt beam="1">  1       21 0.88687564E-01 0.10168802E+04</pdfrwt>
<pdfrwt beam="2">  1        4 0.10648364E+00 0.10168802E+04</pdfrwt>
<totfact> 0.29207384E+01</totfact>
</mgrwt>
</event>
<event>
 6    1  0.1431486E-005  0.1035769E+04  0.7818608E-02  0.9633413E-01
         21   -1    0    0  501  502  0.00000000000E+00  0.00000000000E+00  0.30518288427E+03  0.30518288427E+03  0.00000000000E+00 0.  1.
          4   -1    0    0  502    0 -0.00000000000E+00 -0.00000000000E+00 -0.14389826786E+04  0.14389826786E+04  0.00000000000E+00 0.  1.
    9000010    2    1    2  501    0 -0.13850637558E+03 -0.25094014941E+03 -0.83842145483E+03  0.13325791816E+04  0.99531993076E+03 0.  0.
        -13    1    3    3    0    0  0.18547428541E+03 -0.29307268548E+03 -0.93058749094E+03  0.99311902558E+03  0.10566000000E+00 0.  1.
          4    1    3    3  501    0 -0.32398066099E+03  0.42132536071E+02  0.92166036109E+02  0.33946015599E+03  0.00000000000E+00 0.  1.
         13    1    1    2    0    0  0.13850637558E+03  0.25094014941E+03 -0.29537833948E+03  0.41158638128E+03  0.10566000000E+00 0. -1.
<mgrwt>
<rscale>  1 0.75123587E+03</rscale>
<asrwt>0</asrwt>
<pdfrwt beam="1">  1       21 0.46951214E-01 0.10357687E+04</pdfrwt>
<pdfrwt beam="2">  1        4 0.22138195E+00 0.10357687E+04</pdfrwt>
<totfact> 0.16392655E+01</totfact>
</mgrwt>
</event>
<event>
 6    1  0.1431486E-005  0.9047872E+03  0.7818608E-02  0.1004772E+00
          4   -1    0    0  502    0 -0.00000000000E+00  0.00000000000E+00  0.97731684030E+03  0.97731684030E+03  0.00000000000E+00 0.  1.
         21   -1    0    0  501  502  0.00000000000E+00 -0.00000000000E+00 -0.26456970891E+03  0.26456970891E+03  0.00000000000E+00 0.  1.
    9000010    2    1    2  501    0 -0.10816399682E+03 -0.27014454465E+02  0.61955930213E+03  0.10965826826E+04  0.89789232095E+03 0.  0.
        -13    1    3    3    0    0 -0.50855879688E+02 -0.36029673531E+03  0.66234610294E+03  0.75571319244E+03  0.10566000000E+00 0.  1.
          4    1    3    3  501    0 -0.57308117136E+02  0.33328228085E+03 -0.42786800812E+02  0.34086949019E+03  0.00000000000E+00 0.  1.
         13    1    1    2    0    0  0.10816399682E+03  0.27014454465E+02  0.93187829261E+02  0.14530386659E+03  0.10566000000E+00 0. -1.
<mgrwt>
<rscale>  1 0.53606248E+03</rscale>
<asrwt>0</asrwt>
<pdfrwt beam="2">  1       21 0.40703033E-01 0.90478719E+03</pdfrwt>
<pdfrwt beam="1">  1        4 0.15035644E+00 0.90478719E+03</pdfrwt>
<totfact> 0.69656142E+01</totfact>
</mgrwt>
</event>
<event>
 6    1  0.1431486E-005  0.1013942E+04  0.7818608E-02  0.9841730E-01
          4   -1    0    0  502    0 -0.00000000000E+00  0.00000000000E+00  0.11553946068E+04  0.11553946068E+04  0.00000000000E+00 0.  1.
         21   -1    0    0  501  502  0.00000000000E+00 -0.00000000000E+00 -0.30831764023E+03  0.30831764023E+03  0.00000000000E+00 0.  1.
    9000010    2    1    2  501    0 -0.14953486998E+03  0.31229822066E+02  0.61501862378E+03  0.11858866457E+04  0.10023688192E+04 0.  0.
        -13    1    3    3    0    0 -0.28155045644E+03 -0.43283277586E+03  0.21567004239E+03  0.55957881459E+03  0.10566000000E+00 0.  1.
          4    1    3    3  501    0  0.13201558647E+03  0.46406259793E+03  0.39934858139E+03  0.62630783112E+03  0.00000000000E+00 0.  1.
         13    1    1    2    0    0  0.14953486998E+03 -0.31229822066E+02  0.23205834274E+03  0.27782560128E+03  0.10566000000E+00 0. -1.
<mgrwt>
<rscale>  1 0.63170345E+03</rscale>
<asrwt>0</asrwt>
<pdfrwt beam="2">  1       21 0.47433484E-01 0.10139424E+04</pdfrwt>
<pdfrwt beam="1">  1        4 0.17775301E+00 0.10139424E+04</pdfrwt>
<totfact> 0.31356636E+01</totfact>
</mgrwt>
</event>
<event>
 6    1  0.1431486E-005  0.1027216E+04  0.7818608E-02  0.9722276E-01
          4   -1    0    0  502    0 -0.00000000000E+00  0.00000000000E+00  0.99548207841E+03  0.99548207841E+03  0.00000000000E+00 0.  1.
         21   -1    0    0  501  502  0.00000000000E+00 -0.00000000000E+00 -0.45732082647E+03  0.45732082647E+03  0.00000000000E+00 0.  1.
    9000010    2    1    2  501    0 -0.87188632951E+02 -0.19960510872E+03  0.19380231466E+03  0.10453386169E+04  0.10038572755E+04 0.  0.
        -13    1    3    3    0    0  0.30870869648E+03 -0.25137036991E+03 -0.23268996359E+03  0.46112119065E+03  0.10566000000E+00 0.  1.
          4    1    3    3  501    0 -0.39589732943E+03  0.51765261197E+02  0.42649227824E+03  0.58421742624E+03  0.00000000000E+00 0.  1.
         13    1    1    2    0    0  0.87188632951E+02  0.19960510872E+03  0.34435893729E+03  0.40746428800E+03  0.10566000000E+00 0. -1.
<mgrwt>
<rscale>  1 0.69705844E+03</rscale>
<asrwt>0</asrwt>
<pdfrwt beam="2">  1       21 0.70357050E-01 0.10272164E+04</pdfrwt>
<pdfrwt beam="1">  1        4 0.15315109E+00 0.10272164E+04</pdfrwt>
<totfact> 0.19798916E+01</totfact>
</mgrwt>
</event>
<event>
 6    1  0.1431486E-005  0.1076938E+04  0.7818608E-02  0.9515790E-01
         21   -1    0    0  501  502  0.00000000000E+00  0.00000000000E+00  0.13822398239E+04  0.13822398239E+04  0.00000000000E+00 0. -1.
          4   -1    0    0  502    0 -0.00000000000E+00 -0.00000000000E+00 -0.46146836140E+03  0.46146836140E+03  0.00000000000E+00 0.  1.
    9000010    2    1    2  501    0  0.37341932855E+03  0.82115146789E+02  0.98086707771E+03  0.14566728040E+04  0.10067822712E+04 0.  0.
        -13    1    3    3    0    0 -0.32372242123E+03 -0.89105777132E+02  0.17926609267E+03  0.38062105653E+03  0.10566000000E+00 0.  1.
          4    1    3    3  501    0  0.69714174978E+03  0.17122092392E+03  0.80160098504E+03  0.10760517475E+04  0.00000000000E+00 0.  1.
         13    1    1    2    0    0 -0.37341932855E+03 -0.82115146789E+02 -0.60095615170E+02  0.38703538132E+03  0.10566000000E+00 0. -1.
<mgrwt>
<rscale>  1 0.83129628E+03</rscale>
<asrwt>0</asrwt>
<pdfrwt beam="1">  1       21 0.21265228E+00 0.10769380E+04</pdfrwt>
<pdfrwt beam="2">  1        4 0.70995133E-01 0.10769380E+04</pdfrwt>
<totfact> 0.67502230E+00</totfact>
</mgrwt>
</event>
<event>
 6    1  0.1431486E-005  0.1026849E+04  0.7818608E-02  0.9820136E-01
         21   -1    0    0  501  502  0.00000000000E+00  0.00000000000E+00  0.82458601742E+03  0.82458601742E+03  0.00000000000E+00 0.  1.
          4   -1    0    0  502    0 -0.00000000000E+00 -0.00000000000E+00 -0.45771261768E+03  0.45771261768E+03  0.00000000000E+00 0.  1.
    9000010    2    1    2  501    0 -0.11476918635E+03  0.10831546426E+03  0.18827250225E+03  0.10439658894E+04  0.10146497115E+04 0.  0.
        -13    1    3    3    0    0 -0.56535503397E+03  0.89043788340E+01  0.10274449415E+03  0.57468429998E+03  0.10566000000E+00 0.  1.
          4    1    3    3  501    0  0.45058584762E+03  0.99411085430E+02  0.85528008106E+02  0.46928158940E+03  0.00000000000E+00 0.  1.
         13    1    1    2    0    0  0.11476918635E+03 -0.10831546426E+03  0.17860089749E+03  0.23833274572E+03  0.10566000000E+00 0. -1.
<mgrwt>
<rscale>  1 0.64293047E+03</rscale>
<asrwt>0</asrwt>
<pdfrwt beam="1">  1       21 0.12685939E+00 0.10268487E+04</pdfrwt>
<pdfrwt beam="2">  1        4 0.70417326E-01 0.10268487E+04</pdfrwt>
<totfact> 0.31178617E+01</totfact>
</mgrwt>
</event>
<event>
 6    1  0.1431486E-005  0.1298340E+04  0.7818608E-02  0.9148086E-01
          4   -1    0    0  502    0 -0.00000000000E+00  0.00000000000E+00  0.10210334819E+04  0.10210334819E+04  0.00000000000E+00 0.  1.
         21   -1    0    0  501  502  0.00000000000E+00 -0.00000000000E+00 -0.11698600196E+04  0.11698600196E+04  0.00000000000E+00 0. -1.
    9000010    2    1    2  501    0  0.57134296896E+03 -0.60058474534E+03  0.15601758061E+03  0.13076807456E+04  0.99927604921E+03 0.  0.
        -13    1    3    3    0    0 -0.54560713518E+02  0.20933705441E+03  0.18357614709E+03  0.28372360979E+03  0.10566000000E+00 0.  1.
          4    1    3    3  501    0  0.62590368248E+03 -0.80992179975E+03 -0.27558566478E+02  0.10239571358E+04  0.00000000000E+00 0.  1.
         13    1    1    2    0    0 -0.57134296896E+03  0.60058474534E+03 -0.30484411837E+03  0.88321275590E+03  0.10566000000E+00 0. -1.
<mgrwt>
<rscale>  1 0.11605709E+04</rscale>
<asrwt>0</asrwt>
<pdfrwt beam="2">  1       21 0.17997846E+00 0.12983403E+04</pdfrwt>
<pdfrwt beam="1">  1        4 0.15708207E+00 0.12983403E+04</pdfrwt>
<totfact> 0.15714597E+00</totfact>
</mgrwt>
</event>
<event>
 6    1  0.1431486E-005  0.1019268E+04  0.7818608E-02  0.9717693E-01
          4   -1    0    0  502    0 -0.00000000000E+00  0.00000000000E+00  0.16720249224E+04  0.16720249224E+04  0.00000000000E+00 0.  1.
         21   -1    0    0  501  502  0.00000000000E+00 -0.00000000000E+00 -0.23461792981E+03  0.23461792981E+03  0.00000000000E+00 0.  1.
    9000010    2    1    2  501    0 -0.75111871626E+02 -0.21356683526E+03  0.10931647273E+04  0.14946290967E+04  0.99380804447E+03 0.  0.
        -13    1    3    3    0    0  0.77974657157E+01 -0.50351580299E+03  0.10813169671E+04  0.11928266256E+04  0.10566000000E+00 0.  1.
          4    1    3    3  501    0 -0.82909337342E+02  0.28994896774E+03  0.11847760212E+02  0.30180247105E+03  0.00000000000E+00 0.  1.
         13    1    1    2    0    0  0.75111871626E+02  0.21356683526E+03  0.34424226532E+03  0.41201375557E+03  0.10566000000E+00 0. -1.
<mgrwt>
<rscale>  1 0.69973040E+03</rscale>
<asrwt>0</asrwt>
<pdfrwt beam="2">  1       21 0.36095067E-01 0.10192679E+04</pdfrwt>
<pdfrwt beam="1">  1        4 0.25723460E+00 0.10192679E+04</pdfrwt>
<totfact> 0.17040070E+01</totfact>
</mgrwt>
</event>
<event>
 6    1  0.1431486E-005  0.1005077E+04  0.7818608E-02  0.9835857E-01
         21   -1    0    0  501  502  0.00000000000E+00  0.00000000000E+00  0.22161705860E+03  0.22161705860E+03  0.00000000000E+00 0.  1.
          4   -1    0    0  502    0 -0.00000000000E+00 -0.00000000000E+00 -0.15339794801E+04  0.15339794801E+04  0.00000000000E+00 0.  1.
    9000010    2    1    2  501    0  0.43875464006E+02  0.15373092464E+03 -0.11042385188E+04  0.14931583106E+04  0.99228059569E+03 0.  0.
        -13    1    3    3    0    0  0.28525090603E+03  0.43814863710E+03 -0.29077715359E+03  0.59824215148E+03  0.10566000000E+00 0.  1.
          4    1    3    3  501    0 -0.24137544202E+03 -0.28441771247E+03 -0.81346136521E+03  0.89491615913E+03  0.00000000000E+00 0.  1.
         13    1    1    2    0    0 -0.43875464006E+02 -0.15373092464E+03 -0.20812390269E+03  0.26243822810E+03  0.10566000000E+00 0. -1.
<mgrwt>
<rscale>  1 0.63473260E+03</rscale>
<asrwt>0</asrwt>
<pdfrwt beam="1">  1       21 0.34094932E-01 0.10050766E+04</pdfrwt>
<pdfrwt beam="2">  1        4 0.23599684E+00 0.10050766E+04</pdfrwt>
<totfact> 0.25996246E+01</totfact>
</mgrwt>
</event>
<event>
 6    1  0.1431486E-005  0.1010152E+04  0.7818608E-02  0.9819250E-01
         21   -1    0    0  501  502  0.00000000000E+00  0.00000000000E+00  0.67863231978E+03  0.67863231978E+03  0.00000000000E+00 0.  1.
          4   -1    0    0  502    0 -0.00000000000E+00 -0.00000000000E+00 -0.68083373238E+03  0.68083373238E+03  0.00000000000E+00 0.  1.
    9000010    2    1    2  501    0 -0.21654613824E+02 -0.16483090542E+03  0.26539405186E+03  0.10444335246E+04  0.99637805816E+03 0.  0.
        -13    1    3    3    0    0 -0.40058875812E+03 -0.17945229423E+03 -0.16669831025E+03  0.46953468119E+03  0.10566000000E+00 0.  1.
          4    1    3    3  501    0  0.37893414429E+03  0.14621388810E+02  0.43209236211E+03  0.57489884337E+03  0.00000000000E+00 0.  1.
         13    1    1    2    0    0  0.21654613824E+02  0.16483090542E+03 -0.26759546446E+03  0.31503252760E+03  0.10566000000E+00 0. -1.
<mgrwt>
<rscale>  1 0.64339657E+03</rscale>
<asrwt>0</asrwt>
<pdfrwt beam="1">  1       21 0.10440497E+00 0.10101522E+04</pdfrwt>
<pdfrwt beam="2">  1        4 0.10474365E+00 0.10101522E+04</pdfrwt>
<totfact> 0.20382021E+01</totfact>
</mgrwt>
</event>
<event>
 6    1  0.1431486E-005  0.1063178E+04  0.7818608E-02  0.9524403E-01
          4   -1    0    0  502    0 -0.00000000000E+00  0.00000000000E+00  0.23204809458E+03  0.23204809458E+03  0.00000000000E+00 0.  1.
         21   -1    0    0  501  502  0.00000000000E+00 -0.00000000000E+00 -0.24905575274E+04  0.24905575274E+04  0.00000000000E+00 0.  1.
    9000010    2    1    2  501    0  0.17076774611E+03 -0.34576120458E+03 -0.19784033953E+04  0.22459801536E+04  0.99077465756E+03 0.  0.
        -13    1    3    3    0    0 -0.22555315233E+03 -0.29524739408E+02 -0.15928546123E+04  0.16090157743E+04  0.10566000000E+00 0.  1.
          4    1    3    3  501    0  0.39632089844E+03 -0.31623646517E+03 -0.38554878300E+03  0.63696437932E+03  0.00000000000E+00 0.  1.
         13    1    1    2    0    0 -0.17076774611E+03  0.34576120458E+03 -0.28010603751E+03  0.47662546839E+03  0.10566000000E+00 0. -1.
<mgrwt>
<rscale>  1 0.82508333E+03</rscale>
<asrwt>0</asrwt>
<pdfrwt beam="2">  1       21 0.38316272E+00 0.10631777E+04</pdfrwt>
<pdfrwt beam="1">  1        4 0.35699704E-01 0.10631777E+04</pdfrwt>
<totfact> 0.23998785E+00</totfact>
</mgrwt>
</event>
<event>
 6    1  0.1431486E-005  0.9712042E+03  0.7818608E-02  0.9874470E-01
          4   -1    0    0  502    0 -0.00000000000E+00  0.00000000000E+00  0.38871754964E+03  0.38871754964E+03  0.00000000000E+00 0.  1.
         21   -1    0    0  501  502  0.00000000000E+00 -0.00000000000E+00 -0.97845670308E+03  0.97845670308E+03  0.00000000000E+00 0.  1.
    9000010    2    1    2  501    0  0.15314448325E+03 -0.31292060939E+02 -0.68100426460E+03  0.11861721602E+04  0.95854324854E+03 0.  0.
        -13    1    3    3    0    0  0.31005522464E+03  0.30662770293E+03 -0.68681499070E+03  0.81355370637E+03  0.10566000000E+00 0.  1.
          4    1    3    3  501    0 -0.15691074139E+03 -0.33791976387E+03  0.58107261038E+01  0.37261845380E+03  0.00000000000E+00 0.  1.
         13    1    1    2    0    0 -0.15314448325E+03  0.31292060939E+02  0.91265111159E+02  0.18100209255E+03  0.10566000000E+00 0. -1.
<mgrwt>
<rscale>  1 0.61514679E+03</rscale>
<asrwt>0</asrwt>
<pdfrwt beam="2">  1       21 0.15053180E+00 0.97120419E+03</pdfrwt>
<pdfrwt beam="1">  1        4 0.59802700E-01 0.97120419E+03</pdfrwt>
<totfact> 0.28287297E+01</totfact>
</mgrwt>
</event>
<event>
 6    1  0.1431486E-005  0.1057270E+04  0.7818608E-02  0.9570057E-01
         21   -1    0    0  501  502  0.00000000000E+00  0.00000000000E+00  0.61139672993E+03  0.61139672993E+03  0.00000000000E+00 0.  1.
          4   -1    0    0  502    0 -0.00000000000E+00 -0.00000000000E+00 -0.11163330691E+04  0.11163330691E+04  0.00000000000E+00 0.  1.
    9000010    2    1    2  501    0 -0.33212708064E+03  0.42048159675E+02  0.73048472616E+02  0.10597905059E+04  0.10028675843E+04 0.  0.
        -13    1    3    3    0    0  0.26754942491E+03 -0.14991233722E+03 -0.20768476592E+03  0.37039084327E+03  0.10566000000E+00 0.  1.
          4    1    3    3  501    0 -0.59967650554E+03  0.19196049690E+03  0.28073323854E+03  0.68939966267E+03  0.00000000000E+00 0.  1.
         13    1    1    2    0    0  0.33212708064E+03 -0.42048159675E+02 -0.57798481174E+03  0.66793929305E+03  0.10566000000E+00 0. -1.
<mgrwt>
<rscale>  1 0.79310142E+03</rscale>
<asrwt>0</asrwt>
<pdfrwt beam="1">  1       21 0.94061037E-01 0.10572700E+04</pdfrwt>
<pdfrwt beam="2">  1        4 0.17174355E+00 0.10572700E+04</pdfrwt>
<totfact> 0.72312931E+00</totfact>
</mgrwt>
</event>
<event>
 6    1  0.1431486E-005  0.1003817E+04  0.7818608E-02  0.9991201E-01
         21   -1    0    0  501  502  0.00000000000E+00  0.00000000000E+00  0.21430453185E+03  0.21430453185E+03  0.00000000000E+00 0.  1.
          4   -1    0    0  502    0 -0.00000000000E+00 -0.00000000000E+00 -0.14677498120E+04  0.14677498120E+04  0.00000000000E+00 0.  1.
    9000010    2    1    2  501    0  0.61390150234E+02  0.75732899774E+02 -0.12179441685E+04  0.15783019331E+04  0.99907195525E+03 0.  0.
        -13    1    3    3    0    0  0.12197498497E+03 -0.45274798578E+03 -0.63151892618E+03  0.78655883497E+03  0.10566000000E+00 0.  1.
          4    1    3    3  501    0 -0.60584834741E+02  0.52848088555E+03 -0.58642524230E+03  0.79174309811E+03  0.00000000000E+00 0.  1.
         13    1    1    2    0    0 -0.61390150234E+02 -0.75732899774E+02 -0.35501111717E+02  0.10375241082E+03  0.10566000000E+00 0. -1.
<mgrwt>
<rscale>  1 0.56037748E+03</rscale>
<asrwt>0</asrwt>
<pdfrwt beam="1">  1       21 0.32969927E-01 0.10038172E+04</pdfrwt>
<pdfrwt beam="2">  1        4 0.22580767E+00 0.10038172E+04</pdfrwt>
<totfact> 0.32276022E+01</totfact>
</mgrwt>
</event>
<event>
 6    1  0.1431486E-005  0.1108848E+04  0.7818608E-02  0.9430773E-01
          4   -1    0    0  502    0 -0.00000000000E+00  0.00000000000E+00  0.65564300600E+03  0.65564300600E+03  0.00000000000E+00 0.  1.
         21   -1    0    0  501  502  0.00000000000E+00 -0.00000000000E+00 -0.11887580220E+04  0.11887580220E+04  0.00000000000E+00 0. -1.
    9000010    2    1    2  501    0 -0.47008272678E+03  0.47085653849E+02 -0.73532885984E+03  0.13305087449E+04  0.10031700550E+04 0.  0.
        -13    1    3    3    0    0 -0.17222402081E+03 -0.37362480651E+03 -0.70235534012E+03  0.81397766821E+03  0.10566000000E+00 0.  1.
          4    1    3    3  501    0 -0.29785870597E+03  0.42071046036E+03 -0.32973519725E+02  0.51653107668E+03  0.00000000000E+00 0.  1.
         13    1    1    2    0    0  0.47008272678E+03 -0.47085653849E+02  0.20221384386E+03  0.51389228310E+03  0.10566000000E+00 0. -1.
<mgrwt>
<rscale>  1 0.89585903E+03</rscale>
<asrwt>0</asrwt>
<pdfrwt beam="2">  1       21 0.18288585E+00 0.11088485E+04</pdfrwt>
<pdfrwt beam="1">  1        4 0.10086816E+00 0.11088485E+04</pdfrwt>
<totfact> 0.47758331E+00</totfact>
</mgrwt>
</event>
<event>
 6    1  0.1431486E-005  0.9987387E+03  0.7818608E-02  0.9939917E-01
          4   -1    0    0  502    0 -0.00000000000E+00  0.00000000000E+00  0.13819291625E+04  0.13819291625E+04  0.00000000000E+00 0.  1.
         21   -1    0    0  501  502  0.00000000000E+00 -0.00000000000E+00 -0.31890028927E+03  0.31890028927E+03  0.00000000000E+00 0.  1.
    9000010    2    1    2  501    0 -0.70407770433E+01 -0.11626888919E+03  0.48332968550E+03  0.11095434072E+04  0.99192286008E+03 0.  0.
        -13    1    3    3    0    0 -0.15733868605E+03  0.16572725132E+03  0.69142532320E+03  0.72821011575E+03  0.10566000000E+00 0.  1.
          4    1    3    3  501    0  0.15029790900E+03 -0.28199614051E+03 -0.20809563769E+03  0.38133329141E+03  0.00000000000E+00 0.  1.
         13    1    1    2    0    0  0.70407770433E+01  0.11626888919E+03  0.57969918777E+03  0.59128604465E+03  0.10566000000E+00 0. -1.
<mgrwt>
<rscale>  1 0.58365141E+03</rscale>
<asrwt>0</asrwt>
<pdfrwt beam="2">  1       21 0.49061584E-01 0.99873870E+03</pdfrwt>
<pdfrwt beam="1">  1        4 0.21260448E+00 0.99873870E+03</pdfrwt>
<totfact> 0.17045619E+01</totfact>
</mgrwt>
</event>
<event>
 6    1  0.1431486E-005  0.1025324E+04  0.7818608E-02  0.9698179E-01
         21   -1    0    0  501  502  0.00000000000E+00  0.00000000000E+00  0.11348315869E+04  0.11348315869E+04  0.00000000000E+00 0.  1.
          4   -1    0    0  502    0 -0.00000000000E+00 -0.00000000000E+00 -0.46981184303E+03  0.46981184303E+03  0.00000000000E+00 0.  1.
    9000010    2    1    2  501    0 -0.20231034771E+03  0.12424876482E+03  0.82696323616E+03  0.13172535586E+04  0.99745752351E+03 0.  0.
        -13    1    3    3    0    0  0.88728668950E+02 -0.18184022563E+03  0.86951723648E+03  0.89274793758E+03  0.10566000000E+00 0.  1.
          4    1    3    3  501    0 -0.29103901666E+03  0.30608899045E+03 -0.42554000315E+02  0.42450562097E+03  0.00000000000E+00 0.  1.
         13    1    1    2    0    0  0.20231034771E+03 -0.12424876482E+03 -0.16194349225E+03  0.28738987142E+03  0.10566000000E+00 0. -1.
<mgrwt>
<rscale>  1 0.71125299E+03</rscale>
<asrwt>0</asrwt>
<pdfrwt beam="1">  1       21 0.17458947E+00 0.10253237E+04</pdfrwt>
<pdfrwt beam="2">  1        4 0.72278745E-01 0.10253237E+04</pdfrwt>
<totfact> 0.12068460E+01</totfact>
</mgrwt>
</event>
<event>
 6    1  0.1431486E-005  0.1065785E+04  0.7818608E-02  0.9524357E-01
          4   -1    0    0  502    0 -0.00000000000E+00  0.00000000000E+00  0.11983272585E+04  0.11983272585E+04  0.00000000000E+00 0.  1.
         21   -1    0    0  501  502  0.00000000000E+00 -0.00000000000E+00 -0.48697360891E+03  0.48697360891E+03  0.00000000000E+00 0.  1.
    9000010    2    1    2  501    0  0.27898360531E+03 -0.26221716445E+03  0.74590659043E+03  0.13008745282E+04  0.99463973532E+03 0.  0.
        -13    1    3    3    0    0  0.14939765920E+03 -0.49350520224E+03  0.86752702660E+03  0.10091928449E+04  0.10566000000E+00 0.  1.
          4    1    3    3  501    0  0.12958594611E+03  0.23128803779E+03 -0.12162043617E+03  0.29168168326E+03  0.00000000000E+00 0.  1.
         13    1    1    2    0    0 -0.27898360531E+03  0.26221716445E+03 -0.34552940886E+02  0.38442633917E+03  0.10566000000E+00 0. -1.
<mgrwt>
<rscale>  1 0.82511641E+03</rscale>
<asrwt>0</asrwt>
<pdfrwt beam="2">  1       21 0.74919017E-01 0.10657851E+04</pdfrwt>
<pdfrwt beam="1">  1        4 0.18435804E+00 0.10657851E+04</pdfrwt>
<totfact> 0.10125603E+01</totfact>
</mgrwt>
</event>
<event>
 6    1  0.1431486E-005  0.1081653E+04  0.7818608E-02  0.9536901E-01
         21   -1    0    0  501  502  0.00000000000E+00  0.00000000000E+00  0.25595524590E+03  0.25595524590E+03  0.00000000000E+00 0.  1.
          4   -1    0    0  502    0 -0.00000000000E+00 -0.00000000000E+00 -0.27513003006E+04  0.27513003006E+04  0.00000000000E+00 0.  1.
    9000010    2    1    2  501    0  0.17874404619E+03 -0.30165841008E+03 -0.10059019551E+04  0.14770960814E+04  0.10232433044E+04 0.  0.
        -13    1    3    3    0    0  0.24215894786E+03 -0.23393265796E+02 -0.11372075538E+04  0.11629399092E+04  0.10566000000E+00 0.  1.
          4    1    3    3  501    0 -0.63414901665E+02 -0.27826514428E+03  0.13130559870E+03  0.31415617219E+03  0.00000000000E+00 0.  1.
         13    1    1    2    0    0 -0.17874404619E+03  0.30165841008E+03 -0.14894430996E+04  0.15301594651E+04  0.10566000000E+00 0. -1.
<mgrwt>
<rscale>  1 0.81617059E+03</rscale>
<asrwt>0</asrwt>
<pdfrwt beam="1">  1       21 0.39377727E-01 0.10816534E+04</pdfrwt>
<pdfrwt beam="2">  1        4 0.42327700E+00 0.10816534E+04</pdfrwt>
<totfact> 0.11764048E+00</totfact>
</mgrwt>
</event>
<event>
 6    1  0.1431486E-005  0.1029710E+04  0.7818608E-02  0.9663551E-01
         21   -1    0    0  501  502  0.00000000000E+00  0.00000000000E+00  0.18352422815E+04  0.18352422815E+04  0.00000000000E+00 0.  1.
          4   -1    0    0  502    0 -0.00000000000E+00 -0.00000000000E+00 -0.26634784439E+03  0.26634784439E+03  0.00000000000E+00 0.  1.
    9000010    2    1    2  501    0 -0.25249938697E+03  0.74933633216E+02  0.15164920738E+04  0.18330440243E+04  0.99545527046E+03 0.  0.
        -13    1    3    3    0    0  0.73148032497E+02  0.11569745076E+03  0.14980997542E+04  0.15043401940E+04  0.10566000000E+00 0.  1.
          4    1    3    3  501    0 -0.32564741947E+03 -0.40763817545E+02  0.18392319602E+02  0.32870383029E+03  0.00000000000E+00 0.  1.
         13    1    1    2    0    0  0.25249938697E+03 -0.74933633216E+02  0.52402363305E+02  0.26854610154E+03  0.10566000000E+00 0. -1.
<mgrwt>
<rscale>  1 0.73229044E+03</rscale>
<asrwt>0</asrwt>
<pdfrwt beam="1">  1       21 0.28234496E+00 0.10297098E+04</pdfrwt>
<pdfrwt beam="2">  1        4 0.40976593E-01 0.10297098E+04</pdfrwt>
<totfact> 0.78831816E+00</totfact>
</mgrwt>
</event>
<event>
 6    1  0.1431486E-005  0.1008114E+04  0.7818608E-02  0.9874955E-01
          4   -1    0    0  502    0 -0.00000000000E+00  0.00000000000E+00  0.11788694426E+04  0.11788694426E+04  0.00000000000E+00 0.  1.
         21   -1    0    0  501  502  0.00000000000E+00 -0.00000000000E+00 -0.28127439115E+03  0.28127439115E+03  0.00000000000E+00 0.  1.
    9000010    2    1    2  501    0 -0.73751009132E+02  0.11845993099E+03  0.74610460098E+03  0.12541794331E+04  0.99840973961E+03 0.  0.
        -13    1    3    3    0    0  0.34252519559E+03  0.24353305192E+03  0.36271744675E+02  0.42183824817E+03  0.10566000000E+00 0.  1.
          4    1    3    3  501    0 -0.41627620472E+03 -0.12507312093E+03  0.70983285631E+03  0.83234118491E+03  0.00000000000E+00 0.  1.
         13    1    1    2    0    0  0.73751009132E+02 -0.11845993099E+03  0.15149045048E+03  0.20596440068E+03  0.10566000000E+00 0. -1.
<mgrwt>
<rscale>  1 0.61490569E+03</rscale>
<asrwt>0</asrwt>
<pdfrwt beam="2">  1       21 0.43272984E-01 0.10081141E+04</pdfrwt>
<pdfrwt beam="1">  1        4 0.18136453E+00 0.10081141E+04</pdfrwt>
<totfact> 0.35999375E+01</totfact>
</mgrwt>
</event>
<event>
 6    1  0.1431486E-005  0.9981170E+03  0.7818608E-02  0.9825052E-01
         21   -1    0    0  501  502  0.00000000000E+00  0.00000000000E+00  0.23566958201E+04  0.23566958201E+04  0.00000000000E+00 0.  1.
          4   -1    0    0  502    0 -0.00000000000E+00 -0.00000000000E+00 -0.15634383736E+03  0.15634383736E+03  0.00000000000E+00 0.  1.
    9000010    2    1    2  501    0 -0.75163534226E+02  0.15147196241E+03  0.20749061281E+04  0.23024927841E+04  0.98368911153E+03 0.  0.
        -13    1    3    3    0    0 -0.47231379661E+03 -0.15317014909E+02  0.15660637510E+04  0.16358088570E+04  0.10566000000E+00 0.  1.
          4    1    3    3  501    0  0.39715026239E+03  0.16678897732E+03  0.50884237711E+03  0.66668392707E+03  0.00000000000E+00 0.  1.
         13    1    1    2    0    0  0.75163534226E+02 -0.15147196241E+03  0.12544585465E+03  0.21054687337E+03  0.10566000000E+00 0. -1.
<mgrwt>
<rscale>  1 0.64035260E+03</rscale>
<asrwt>0</asrwt>
<pdfrwt beam="1">  1       21 0.36256856E+00 0.99811702E+03</pdfrwt>
<pdfrwt beam="2">  1        4 0.24052900E-01 0.99811702E+03</pdfrwt>
<totfact> 0.71282397E+00</totfact>
</mgrwt>
</event>
<event>
 6    1  0.1431486E-005  0.1007729E+04  0.7818608E-02  0.1001310E+00
         21   -1    0    0  501  502  0.00000000000E+00  0.00000000000E+00  0.65322152879E+03  0.65322152879E+03  0.00000000000E+00 0.  1.
          4   -1    0    0  502    0 -0.00000000000E+00 -0.00000000000E+00 -0.57606499006E+03  0.57606499006E+03  0.00000000000E+00 0.  1.
    9000010    2    1    2  501    0 -0.56814257430E+02 -0.69716132837E+02  0.24659307609E+03  0.10374612067E+04  0.10037078316E+04 0.  0.
        -13    1    3    3    0    0 -0.49370221025E+03 -0.15173364899E+03  0.28740377905E+03  0.59107183660E+03  0.10566000000E+00 0.  1.
          4    1    3    3  501    0  0.43688795282E+03  0.82017516158E+02 -0.40810702967E+02  0.44638937011E+03  0.00000000000E+00 0.  1.
         13    1    1    2    0    0  0.56814257430E+02  0.69716132837E+02 -0.16943653735E+03  0.19182531214E+03  0.10566000000E+00 0. -1.
<mgrwt>
<rscale>  1 0.55079419E+03</rscale>
<asrwt>0</asrwt>
<pdfrwt beam="1">  1       21 0.10049562E+00 0.10077289E+04</pdfrwt>
<pdfrwt beam="2">  1        4 0.88625383E-01 0.10077289E+04</pdfrwt>
<totfact> 0.33442366E+01</totfact>
</mgrwt>
</event>
<event>
 6    1  0.1431486E-005  0.1023814E+04  0.7818608E-02  0.9754879E-01
          4   -1    0    0  502    0 -0.00000000000E+00  0.00000000000E+00  0.38177693692E+03  0.38177693692E+03  0.00000000000E+00 0.  1.
         21   -1    0    0  501  502  0.00000000000E+00 -0.00000000000E+00 -0.13112046481E+04  0.13112046481E+04  0.00000000000E+00 0.  1.
    9000010    2    1    2  501    0  0.17157364633E+02 -0.19663685057E+03 -0.10460663236E+04  0.14637109955E+04  0.10046067383E+04 0.  0.
        -13    1    3    3    0    0 -0.42561656548E+03 -0.36118923878E+00 -0.83126006709E+03  0.93388591464E+03  0.10566000000E+00 0.  1.
          4    1    3    3  501    0  0.44277393012E+03 -0.19627566133E+03 -0.21480625651E+03  0.52982508081E+03  0.00000000000E+00 0.  1.
         13    1    1    2    0    0 -0.17157364633E+02  0.19663685057E+03  0.11663861243E+03  0.22927058955E+03  0.10566000000E+00 0. -1.
<mgrwt>
<rscale>  1 0.67841240E+03</rscale>
<asrwt>0</asrwt>
<pdfrwt beam="2">  1       21 0.20172380E+00 0.10238140E+04</pdfrwt>
<pdfrwt beam="1">  1        4 0.58734912E-01 0.10238140E+04</pdfrwt>
<totfact> 0.12254294E+01</totfact>
</mgrwt>
</event>
<event>
 6    1  0.1431486E-005  0.1003360E+04  0.7818608E-02  0.9905134E-01
          4   -1    0    0  502    0 -0.00000000000E+00  0.00000000000E+00  0.73135202504E+03  0.73135202504E+03  0.00000000000E+00 0.  1.
         21   -1    0    0  501  502  0.00000000000E+00 -0.00000000000E+00 -0.72554243959E+03  0.72554243959E+03  0.00000000000E+00 0.  1.
    9000010    2    1    2  501    0 -0.14195590958E+02 -0.12762778393E+03 -0.36250404257E+03  0.10668363846E+04  0.99510819744E+03 0.  0.
        -13    1    3    3    0    0 -0.40909320348E+02 -0.31193069264E+03  0.26558795774E+03  0.41171750505E+03  0.10566000000E+00 0.  1.
          4    1    3    3  501    0  0.26713729391E+02  0.18430290870E+03 -0.62809200032E+03  0.65511887956E+03  0.00000000000E+00 0.  1.
         13    1    1    2    0    0  0.14195590958E+02  0.12762778393E+03  0.36831362802E+03  0.39005808002E+03  0.10566000000E+00 0. -1.
<mgrwt>
<rscale>  1 0.60013135E+03</rscale>
<asrwt>0</asrwt>
<pdfrwt beam="2">  1       21 0.11162191E+00 0.10033597E+04</pdfrwt>
<pdfrwt beam="1">  1        4 0.11251570E+00 0.10033597E+04</pdfrwt>
<totfact> 0.14451146E+01</totfact>
</mgrwt>
</event>
<event>
 6    1  0.1431486E-005  0.1006837E+04  0.7818608E-02  0.9801761E-01
         21   -1    0    0  501  502  0.00000000000E+00  0.00000000000E+00  0.32712358838E+03  0.32712358838E+03  0.00000000000E+00 0.  1.
          4   -1    0    0  502    0 -0.00000000000E+00 -0.00000000000E+00 -0.11151372625E+04  0.11151372625E+04  0.00000000000E+00 0.  1.
    9000010    2    1    2  501    0  0.10967360363E+03 -0.13994219420E+03 -0.76175610357E+03  0.12625344248E+04  0.99101397339E+03 0.  0.
        -13    1    3    3    0    0  0.34987448106E+03 -0.25358996255E+03  0.24283747046E+02  0.43279294488E+03  0.10566000000E+00 0.  1.
          4    1    3    3  501    0 -0.24020087743E+03  0.11364776835E+03 -0.78603985062E+03  0.82974147994E+03  0.00000000000E+00 0.  1.
         13    1    1    2    0    0 -0.10967360363E+03  0.13994219420E+03 -0.26257570548E+02  0.17972642607E+03  0.10566000000E+00 0. -1.
<mgrwt>
<rscale>  1 0.65268128E+03</rscale>
<asrwt>0</asrwt>
<pdfrwt beam="1">  1       21 0.50326705E-01 0.10068370E+04</pdfrwt>
<pdfrwt beam="2">  1        4 0.17155958E+00 0.10068370E+04</pdfrwt>
<totfact> 0.30558657E+01</totfact>
</mgrwt>
</event>
<event>
 6    1  0.1431486E-005  0.1039394E+04  0.7818608E-02  0.9689683E-01
         21   -1    0    0  501  502  0.00000000000E+00  0.00000000000E+00  0.56928960885E+03  0.56928960885E+03  0.00000000000E+00 0.  1.
          4   -1    0    0  502    0 -0.00000000000E+00 -0.00000000000E+00 -0.11401721903E+04  0.11401721903E+04  0.00000000000E+00 0.  1.
    9000010    2    1    2  501    0 -0.16609978236E+03 -0.16553536305E+03  0.55245136112E+02  0.10408610035E+04  0.10125949385E+04 0.  0.
        -13    1    3    3    0    0 -0.14165610354E+03 -0.57803525638E+03  0.15658150531E+03  0.61539336059E+03  0.10566000000E+00 0.  1.
          4    1    3    3  501    0 -0.24443678816E+02  0.41249989332E+03 -0.10133636920E+03  0.42546764289E+03  0.00000000000E+00 0.  1.
         13    1    1    2    0    0  0.16609978236E+03  0.16553536305E+03 -0.62612771753E+03  0.66860079565E+03  0.10566000000E+00 0. -1.
<mgrwt>
<rscale>  1 0.71634407E+03</rscale>
<asrwt>0</asrwt>
<pdfrwt beam="1">  1       21 0.87583017E-01 0.10393939E+04</pdfrwt>
<pdfrwt beam="2">  1        4 0.17541111E+00 0.10393939E+04</pdfrwt>
<totfact> 0.81100099E+00</totfact>
</mgrwt>
</event>
<event>
 6    1  0.1431486E-005  0.1021216E+04  0.7818608E-02  0.9696126E-01
          4   -1    0    0  502    0 -0.00000000000E+00  0.00000000000E+00  0.65930701082E+03  0.65930701082E+03  0.00000000000E+00 0.  1.
         21   -1    0    0  501  502  0.00000000000E+00 -0.00000000000E+00 -0.80556939759E+03  0.80556939759E+03  0.00000000000E+00 0.  1.
    9000010    2    1    2  501    0 -0.10871633655E+03 -0.21615606938E+03 -0.41584491072E+03  0.11026369344E+04  0.99213836289E+03 0.  0.
        -13    1    3    3    0    0  0.28206044418E+03 -0.28168849833E+03  0.13783050406E+03  0.42178639532E+03  0.10566000000E+00 0.  1.
          4    1    3    3  501    0 -0.39077678073E+03  0.65532428949E+02 -0.55367541478E+03  0.68085053906E+03  0.00000000000E+00 0.  1.
         13    1    1    2    0    0  0.10871633655E+03  0.21615606938E+03  0.26958252394E+03  0.36223947403E+03  0.10566000000E+00 0. -1.
<mgrwt>
<rscale>  1 0.71247915E+03</rscale>
<asrwt>0</asrwt>
<pdfrwt beam="2">  1       21 0.12393375E+00 0.10212156E+04</pdfrwt>
<pdfrwt beam="1">  1        4 0.10143185E+00 0.10212156E+04</pdfrwt>
<totfact> 0.14195831E+01</totfact>
</mgrwt>
</event>
<event>
 6    1  0.1431486E-005  0.1020973E+04  0.7818608E-02  0.9841071E-01
         21   -1    0    0  501  502  0.00000000000E+00  0.00000000000E+00  0.52108556356E+03  0.52108556356E+03  0.00000000000E+00 0.  1.
          4   -1    0    0  502    0 -0.00000000000E+00 -0.00000000000E+00 -0.65917463162E+03  0.65917463162E+03  0.00000000000E+00 0.  1.
    9000010    2    1    2  501    0 -0.13408627811E+03 -0.67122620781E+02 -0.10219052624E+03  0.10260742922E+04  0.10099014671E+04 0.  0.
        -13    1    3    3    0    0  0.82448744938E+02  0.44484081513E+03 -0.12618371998E+03  0.46968445653E+03  0.10566000000E+00 0.  1.
          4    1    3    3  501    0 -0.21653502305E+03 -0.51196343592E+03  0.23993193743E+02  0.55638983570E+03  0.00000000000E+00 0.  1.
         13    1    1    2    0    0  0.13408627811E+03  0.67122620781E+02 -0.35898541819E+02  0.15418590295E+03  0.10566000000E+00 0. -1.
<mgrwt>
<rscale>  1 0.63204247E+03</rscale>
<asrwt>0</asrwt>
<pdfrwt beam="1">  1       21 0.80167010E-01 0.10209728E+04</pdfrwt>
<pdfrwt beam="2">  1        4 0.10141148E+00 0.10209728E+04</pdfrwt>
<totfact> 0.41826055E+01</totfact>
</mgrwt>
</event>
<event>
 6    1  0.1431486E-005  0.9957968E+03  0.7818608E-02  0.1009691E+00
          4   -1    0    0  502    0 -0.00000000000E+00  0.00000000000E+00  0.63727037108E+03  0.63727037108E+03  0.00000000000E+00 0.  1.
         21   -1    0    0  501  502  0.00000000000E+00 -0.00000000000E+00 -0.50247302674E+03  0.50247302674E+03  0.00000000000E+00 0.  1.
    9000010    2    1    2  501    0 -0.54337457078E+02  0.46903506502E+02  0.10084016632E+02  0.99584786823E+03  0.99320631850E+03 0.  0.
        -13    1    3    3    0    0  0.24397845437E+03 -0.22528640358E+03  0.33934425832E+03  0.47479889075E+03  0.10566000000E+00 0.  1.
          4    1    3    3  501    0 -0.29831591145E+03  0.27218991008E+03 -0.32926024169E+03  0.52104897748E+03  0.00000000000E+00 0.  1.
         13    1    1    2    0    0  0.54337457078E+02 -0.46903506502E+02  0.12471332771E+03  0.14389552959E+03  0.10566000000E+00 0. -1.
<mgrwt>
<rscale>  1 0.51597706E+03</rscale>
<asrwt>0</asrwt>
<pdfrwt beam="2">  1       21 0.77303542E-01 0.99579681E+03</pdfrwt>
<pdfrwt beam="1">  1        4 0.98041596E-01 0.99579681E+03</pdfrwt>
<totfact> 0.49517865E+01</totfact>
</mgrwt>
</event>
