<event>
 7    1  0.5696597E-006  0.9990437E+03  0.7818608E-02  0.9324192E-01
          4   -1    0    0  501    0 -0.00000000000E+00  0.00000000000E+00  0.92244973969E+03  0.92244973969E+03  0.00000000000E+00 0.  1.
          2   -1    0    0  502    0  0.00000000000E+00 -0.00000000000E+00 -0.16979527618E+04  0.16979527618E+04  0.00000000000E+00 0. -1.
    9000010    2    1    2  502    0  0.88224470554E+02  0.39269472305E+02  0.59425941606E+03  0.11611482963E+04  0.99287233010E+03 0.  0.
        -13    1    3    3    0    0  0.40137687278E+02 -0.44078199406E+03  0.69011982686E+02  0.44795364174E+03  0.10566000000E+00 0.  1.
         13    1    1    2    0    0 -0.98742394947E+02 -0.58417759824E+02 -0.29031096320E+02  0.11834488134E+03  0.10566000000E+00 0. -1.
          2    1    1    2  501    0  0.10517924393E+02  0.19148287519E+02 -0.13407313418E+04  0.13409093238E+04  0.00000000000E+00 0. -1.
          4    1    3    3  502    0  0.48086783276E+02  0.48005146637E+03  0.52524743337E+03  0.71319465460E+03  0.00000000000E+00 0.  1.
</event>
<event>
 7    1  0.5696597E-006  0.1045082E+04  0.7818608E-02  0.9175219E-01
          2   -1    0    0  501    0  0.00000000000E+00  0.00000000000E+00  0.37966156521E+04  0.37966156521E+04  0.00000000000E+00 0. -1.
         -4   -1    0    0    0  501 -0.00000000000E+00 -0.00000000000E+00 -0.16747376946E+03  0.16747376946E+03  0.00000000000E+00 0. -1.
   -9000010    2    1    2    0  502  0.10918224579E+03  0.72336141578E+02  0.26645660095E+04  0.28600482693E+04  0.10309271572E+04 0.  0.
        -13    1    1    2    0    0 -0.12767694919E+03 -0.11684204990E+03  0.39255941439E+02  0.17746692109E+03  0.10566000000E+00 0.  1.
         13    1    3    3    0    0  0.23070845864E+03 -0.41743036097E+03  0.82925522871E+03  0.95662884373E+03  0.10566000000E+00 0. -1.
          2    1    1    2  502    0  0.18494703398E+02  0.44505908324E+02  0.92531993170E+03  0.92657423120E+03  0.00000000000E+00 0. -1.
         -4    1    3    3    0  502 -0.12152621285E+03  0.48976650255E+03  0.18353107808E+04  0.19034194255E+04  0.00000000000E+00 0. -1.
</event>
<event>
 7    1  0.5696597E-006  0.1231335E+04  0.7818608E-02  0.8893741E-01
         -4   -1    0    0    0  501 -0.00000000000E+00  0.00000000000E+00  0.72985431132E+03  0.72985431132E+03  0.00000000000E+00 0. -1.
          2   -1    0    0  501    0  0.00000000000E+00 -0.00000000000E+00 -0.86116968328E+03  0.86116968328E+03  0.00000000000E+00 0. -1.
   -9000010    2    1    2    0  502  0.52526529760E+02  0.32028431785E+03 -0.60528960599E+02  0.12327893232E+04  0.11877561533E+04 0.  0.
        -13    1    1    2    0    0 -0.72009241281E+02 -0.31677817895E+03 -0.48556700572E+02  0.32846843048E+03  0.10566000000E+00 0.  1.
         13    1    3    3    0    0 -0.52705445972E+03 -0.69690276414E+02 -0.41975106142E+00  0.53164210282E+03  0.10566000000E+00 0. -1.
          2    1    1    2  502    0  0.19482711520E+02 -0.35061388977E+01 -0.22229710788E+02  0.29766240943E+02  0.00000000000E+00 0. -1.
         -4    1    3    3    0  502  0.57958098948E+03  0.38997459427E+03 -0.60109209538E+02  0.70114722035E+03  0.00000000000E+00 0. -1.
</event>
<event>
 7    1  0.5696597E-006  0.9687596E+03  0.7818608E-02  0.9311754E-01
          4   -1    0    0  501    0 -0.00000000000E+00  0.00000000000E+00  0.24228367234E+04  0.24228367234E+04  0.00000000000E+00 0.  1.
          2   -1    0    0  502    0  0.00000000000E+00 -0.00000000000E+00 -0.27409964069E+03  0.27409964069E+03  0.00000000000E+00 0. -1.
    9000010    2    1    2  502    0  0.11037581009E+03  0.61378646738E+02  0.16507775414E+04  0.19139669600E+04  0.96033997889E+03 0.  0.
        -13    1    3    3    0    0  0.41051881051E+03  0.14924070270E+03  0.15083477452E+04  0.15703220729E+04  0.10566000000E+00 0.  1.
         13    1    1    2    0    0 -0.11661142391E+03 -0.51616440440E+02  0.63386771975E+03  0.64656846383E+03  0.10566000000E+00 0. -1.
          2    1    1    2  501    0  0.62356138216E+01 -0.97622062982E+01 -0.13590817842E+03  0.13640094029E+03  0.00000000000E+00 0. -1.
          4    1    3    3  502    0 -0.30014300042E+03 -0.87862055966E+02  0.14242979623E+03  0.34364488710E+03  0.00000000000E+00 0.  1.
</event>
<event>
 7    1  0.5696597E-006  0.1052714E+04  0.7818608E-02  0.9003961E-01
         -4   -1    0    0    0  501 -0.00000000000E+00  0.00000000000E+00  0.30100643115E+04  0.30100643115E+04  0.00000000000E+00 0. -1.
          4   -1    0    0  501    0  0.00000000000E+00 -0.00000000000E+00 -0.17880090291E+04  0.17880090291E+04  0.00000000000E+00 0.  1.
   -9000010    2    1    2    0  502 -0.31382228694E+03 -0.16497207727E+03  0.27699211931E+04  0.29659529236E+04  0.99935635047E+03 0.  0.
        -13    1    1    2    0    0  0.30131679120E+03  0.38552025260E+02 -0.25914618147E+02  0.30487644368E+03  0.10566000000E+00 0.  1.
         13    1    3    3    0    0 -0.62604925480E+03 -0.31804903141E+03  0.20390634282E+04  0.21565881691E+04  0.10566000000E+00 0. -1.
          4    1    1    2  502    0  0.12505495743E+02  0.12642005201E+03 -0.15219512925E+04  0.15272439732E+04  0.00000000000E+00 0.  1.
         -4    1    3    3    0  502  0.31222696786E+03  0.15307695413E+03  0.73085776485E+03  0.80936475447E+03  0.00000000000E+00 0. -1.
</event>
<event>
 7    1  0.5696597E-006  0.1033372E+04  0.7818608E-02  0.9073842E-01
         -2   -1    0    0    0  501  0.00000000000E+00  0.00000000000E+00  0.56479186558E+03  0.56479186558E+03  0.00000000000E+00 0. -1.
         -4   -1    0    0    0  502 -0.00000000000E+00 -0.00000000000E+00 -0.10695078203E+04  0.10695078203E+04  0.00000000000E+00 0. -1.
   -9000010    2    1    2    0  501  0.11454582192E+03 -0.23080562297E+03 -0.42807016830E+03  0.11169736726E+04  0.99899656430E+03 0.  0.
        -13    1    1    2    0    0 -0.10968512796E+03  0.24176982275E+03 -0.23738547844E+03  0.35613951062E+03  0.10566000000E+00 0.  1.
         13    1    3    3    0    0  0.40337583220E+02  0.36147958920E+03  0.29412394849E+02  0.36491055639E+03  0.10566000000E+00 0. -1.
         -2    1    1    2    0  502 -0.48606939575E+01 -0.10964199773E+02  0.16073969204E+03  0.16118650260E+03  0.00000000000E+00 0. -1.
         -4    1    3    3    0  501  0.74208238702E+02 -0.59228521218E+03 -0.45748256315E+03  0.75206311626E+03  0.00000000000E+00 0. -1.
</event>
<event>
 7    1  0.5696597E-006  0.1039831E+04  0.7818608E-02  0.9020116E-01
          2   -1    0    0  502    0  0.00000000000E+00  0.00000000000E+00  0.13887313738E+04  0.13887313738E+04  0.00000000000E+00 0. -1.
          4   -1    0    0  501    0 -0.00000000000E+00 -0.00000000000E+00 -0.82222704935E+03  0.82222704935E+03  0.00000000000E+00 0.  1.
    9000010    2    1    2  502    0  0.72239707901E+02 -0.31411479978E+03 -0.31172348828E+03  0.10857386585E+04  0.98882264268E+03 0.  0.
        -13    1    3    3    0    0  0.52667024307E+03 -0.20969972327E+03 -0.23285553383E+03  0.61284356052E+03  0.10566000000E+00 0.  1.
         13    1    1    2    0    0 -0.85026729682E+02  0.30998666932E+03  0.85816719681E+02  0.33269475568E+03  0.10566000000E+00 0. -1.
          2    1    1    2  501    0  0.12787021781E+02  0.41281304632E+01  0.79241109302E+03  0.79252500890E+03  0.00000000000E+00 0. -1.
          4    1    3    3  502    0 -0.45443053517E+03 -0.10441507651E+03 -0.78867954457E+02  0.47289509802E+03  0.00000000000E+00 0.  1.
</event>
<event>
 7    1  0.5696597E-006  0.1205171E+04  0.7818608E-02  0.8729804E-01
         -2   -1    0    0    0  501  0.00000000000E+00  0.00000000000E+00  0.63842239155E+03  0.63842239155E+03  0.00000000000E+00 0. -1.
         -4   -1    0    0    0  502 -0.00000000000E+00 -0.00000000000E+00 -0.33554412247E+04  0.33554412247E+04  0.00000000000E+00 0. -1.
   -9000010    2    1    2    0  501  0.43511737201E+02  0.66943835654E+03 -0.23443213839E+04  0.26305012496E+04  0.98673861222E+03 0.  0.
        -13    1    1    2    0    0 -0.61175977911E+02 -0.71105185544E+03 -0.71962165234E+03  0.10135050938E+04  0.10566000000E+00 0.  1.
         13    1    3    3    0    0 -0.24805062825E+02  0.53703008107E+03 -0.37480914014E+03  0.65536135208E+03  0.10566000000E+00 0. -1.
         -2    1    1    2    0  502  0.17664240710E+02  0.41613498896E+02  0.34692420308E+03  0.34985727286E+03  0.00000000000E+00 0. -1.
         -4    1    3    3    0  501  0.68316800026E+02  0.13240827548E+03 -0.19695122437E+04  0.19751398975E+04  0.00000000000E+00 0. -1.
</event>
<event>
 7    1  0.5696597E-006  0.1257886E+04  0.7818608E-02  0.8682078E-01
          4   -1    0    0  501    0 -0.00000000000E+00  0.00000000000E+00  0.19826837848E+04  0.19826837848E+04  0.00000000000E+00 0.  1.
          2   -1    0    0  502    0  0.00000000000E+00 -0.00000000000E+00 -0.19838058426E+04  0.19838058426E+04  0.00000000000E+00 0.  1.
    9000010    2    1    2  502    0  0.33437059682E+03  0.67430065866E+03  0.10221284398E+04  0.16229534813E+04  0.10113092409E+04 0.  0.
        -13    1    3    3    0    0  0.23566815902E+03  0.19224924642E+03 -0.15917221037E+03  0.34327111391E+03  0.10566000000E+00 0.  1.
         13    1    1    2    0    0 -0.37098145620E+03 -0.64645266374E+03  0.44928731685E+03  0.87028006501E+03  0.10566000000E+00 0. -1.
          2    1    1    2  501    0  0.36610859383E+02 -0.27847994921E+02 -0.14725378144E+04  0.14732560812E+04  0.00000000000E+00 0.  1.
          4    1    3    3  502    0  0.98702437799E+02  0.48205141224E+03  0.11813006501E+04  0.12796823673E+04  0.00000000000E+00 0.  1.
</event>
<event>
 7    1  0.5696597E-006  0.1118208E+04  0.7818608E-02  0.8878569E-01
          1   -1    0    0  501    0  0.00000000000E+00  0.00000000000E+00  0.88781307047E+03  0.88781307047E+03  0.00000000000E+00 0. -1.
         -4   -1    0    0    0  501 -0.00000000000E+00 -0.00000000000E+00 -0.10461376289E+04  0.10461376289E+04  0.00000000000E+00 0. -1.
   -9000010    2    1    2    0  502  0.33762607368E+03  0.30432341708E+03 -0.33194099393E+03  0.11636075955E+04  0.10184270740E+04 0.  0.
        -13    1    1    2    0    0 -0.34447645405E+03 -0.31214507271E+03 -0.11714401218E+03  0.47939681326E+03  0.10566000000E+00 0.  1.
         13    1    3    3    0    0  0.13693149298E+03 -0.37732111724E+03 -0.16294808187E+03  0.43321305132E+03  0.10566000000E+00 0. -1.
          1    1    1    2  502    0  0.68503803705E+01  0.78216556271E+01  0.29076044773E+03  0.29094629053E+03  0.00000000000E+00 0. -1.
         -4    1    3    3    0  502  0.20069458070E+03  0.68164453432E+03 -0.16899291207E+03  0.73039454422E+03  0.00000000000E+00 0. -1.
</event>
<event>
 7    1  0.5696597E-006  0.1209210E+04  0.7818608E-02  0.8759000E-01
          1   -1    0    0  501    0  0.00000000000E+00  0.00000000000E+00  0.16311679534E+04  0.16311679534E+04  0.00000000000E+00 0. -1.
         -4   -1    0    0    0  501 -0.00000000000E+00 -0.00000000000E+00 -0.21634961469E+04  0.21634961469E+04  0.00000000000E+00 0. -1.
   -9000010    2    1    2    0  502 -0.39190962168E+03  0.34785283788E+03 -0.71101351139E+03  0.13700153164E+04  0.10472855415E+04 0.  0.
        -13    1    1    2    0    0  0.50012416011E+03 -0.37682574634E+03 -0.10329015781E+04  0.12078938281E+04  0.10566000000E+00 0.  1.
         13    1    3    3    0    0 -0.13304474315E+03  0.45372554729E+03 -0.91086094785E+03  0.10262726019E+04  0.10566000000E+00 0. -1.
          1    1    1    2  502    0 -0.10821453843E+03  0.28972908461E+02  0.12115868960E+04  0.12167549557E+04  0.00000000000E+00 0. -1.
         -4    1    3    3    0  502 -0.25886487853E+03 -0.10587270941E+03  0.19984743646E+03  0.34374271453E+03  0.00000000000E+00 0. -1.
</event>
<event>
 7    1  0.5696597E-006  0.1014435E+04  0.7818608E-02  0.9111083E-01
         -4   -1    0    0    0  501 -0.00000000000E+00  0.00000000000E+00  0.71318845941E+03  0.71318845941E+03  0.00000000000E+00 0. -1.
          2   -1    0    0  501    0  0.00000000000E+00 -0.00000000000E+00 -0.25682878310E+04  0.25682878310E+04  0.00000000000E+00 0. -1.
   -9000010    2    1    2    0  502  0.18070813725E+03  0.25552825802E+03  0.86458817264E+02  0.10374976136E+04  0.98538116967E+03 0.  0.
        -13    1    1    2    0    0 -0.51937460028E+01 -0.23526683856E+03  0.53322091143E+02  0.24128969495E+03  0.10566000000E+00 0.  1.
         13    1    3    3    0    0  0.22366735231E+03  0.51130997245E+02 -0.42614015688E+03  0.48398027629E+03  0.10566000000E+00 0. -1.
          2    1    1    2  502    0 -0.17551439125E+03 -0.20261419456E+02 -0.19948802800E+04  0.20026889819E+04  0.00000000000E+00 0. -1.
         -4    1    3    3    0  502 -0.42959215059E+02  0.20439726077E+03  0.51259897414E+03  0.55351733727E+03  0.00000000000E+00 0. -1.
</event>
<event>
 7    1  0.5696597E-006  0.1158641E+04  0.7818608E-02  0.9148418E-01
          2   -1    0    0  501    0  0.00000000000E+00  0.00000000000E+00  0.30806277956E+04  0.30806277956E+04  0.00000000000E+00 0.  1.
         -4   -1    0    0    0  501 -0.00000000000E+00 -0.00000000000E+00 -0.67678982285E+03  0.67678982285E+03  0.00000000000E+00 0. -1.
   -9000010    2    1    2    0  502 -0.21516105539E+03 -0.20643871865E+03  0.30116472361E+02  0.11618920215E+04  0.11225750948E+04 0.  0.
        -13    1    1    2    0    0  0.12330170950E+03 -0.65634658762E+02 -0.54827706534E+02  0.15005768412E+03  0.10566000000E+00 0.  1.
         13    1    3    3    0    0  0.42773648548E+03  0.56357666429E+02 -0.12713878785E+03  0.44977657800E+03  0.10566000000E+00 0. -1.
          2    1    1    2  502    0  0.91859345886E+02  0.27207337741E+03  0.24285492069E+04  0.24454679128E+04  0.00000000000E+00 0.  1.
         -4    1    3    3    0  502 -0.64289754086E+03 -0.26279638507E+03  0.15725526021E+03  0.71211544353E+03  0.00000000000E+00 0. -1.
</event>
<event>
 7    1  0.5696597E-006  0.1087497E+04  0.7818608E-02  0.9261697E-01
         -4   -1    0    0    0  501 -0.00000000000E+00  0.00000000000E+00  0.16820022149E+04  0.16820022149E+04  0.00000000000E+00 0. -1.
          3   -1    0    0  501    0  0.00000000000E+00 -0.00000000000E+00 -0.56195581714E+03  0.56195581714E+03  0.00000000000E+00 0. -1.
   -9000010    2    1    2    0  502 -0.35480914209E+03  0.36807836599E+03  0.96059592926E+03  0.14801797861E+04  0.10034024362E+04 0.  0.
        -13    1    1    2    0    0  0.48245071329E+02 -0.97712081153E+02  0.30967835813E+03  0.32829245250E+03  0.10566000000E+00 0.  1.
         13    1    3    3    0    0  0.24762650938E+03 -0.77523408578E+02  0.58932369741E+03  0.64391862724E+03  0.10566000000E+00 0. -1.
          3    1    1    2  502    0  0.30656407076E+03 -0.27036628484E+03 -0.15022788965E+03  0.43548579344E+03  0.00000000000E+00 0. -1.
         -4    1    3    3    0  502 -0.60243565146E+03  0.44560177457E+03  0.37127223186E+03  0.83626115885E+03  0.00000000000E+00 0. -1.
</event>
<event>
 7    1  0.5696597E-006  0.1186003E+04  0.7818608E-02  0.8755674E-01
          2   -1    0    0  501    0  0.00000000000E+00  0.00000000000E+00  0.15162858488E+04  0.15162858488E+04  0.00000000000E+00 0.  1.
         -4   -1    0    0    0  501 -0.00000000000E+00 -0.00000000000E+00 -0.11582333311E+04  0.11582333311E+04  0.00000000000E+00 0. -1.
   -9000010    2    1    2    0  502  0.60689254665E+03  0.25647135573E+03  0.11948950241E+03  0.11969591632E+04  0.99213778162E+03 0.  0.
        -13    1    1    2    0    0 -0.61212310442E+03 -0.21197818378E+03 -0.44922792294E+03  0.78831160290E+03  0.10566000000E+00 0.  1.
         13    1    3    3    0    0  0.30071414912E+03  0.62458581638E+03 -0.34320946320E+02  0.69405646746E+03  0.10566000000E+00 0. -1.
          2    1    1    2  502    0  0.52305577671E+01 -0.44493171947E+02  0.68779093823E+03  0.68924841371E+03  0.00000000000E+00 0.  1.
         -4    1    3    3    0  502  0.30617839753E+03 -0.36811446065E+03  0.15381044873E+03  0.50290269575E+03  0.00000000000E+00 0. -1.
</event>
<event>
 7    1  0.5696597E-006  0.1171343E+04  0.7818608E-02  0.9267250E-01
         -4   -1    0    0    0  502 -0.00000000000E+00  0.00000000000E+00  0.15325925160E+04  0.15325925160E+04  0.00000000000E+00 0. -1.
         -2   -1    0    0    0  501  0.00000000000E+00 -0.00000000000E+00 -0.55198971593E+03  0.55198971593E+03  0.00000000000E+00 0. -1.
   -9000010    2    1    2    0  501  0.38062115867E+02  0.29517194646E+02  0.96831155512E+03  0.15181246766E+04  0.11682274078E+04 0.  0.
        -13    1    1    2    0    0 -0.80380613367E+02  0.32897017033E+02  0.27748045734E+03  0.29075534751E+03  0.10566000000E+00 0.  1.
         13    1    3    3    0    0 -0.15864052697E+03 -0.44741644165E+03  0.87267081558E+03  0.99342974215E+03  0.10566000000E+00 0. -1.
         -2    1    1    2    0  502  0.42318497500E+02 -0.62414211679E+02 -0.26518921239E+03  0.27570220786E+03  0.00000000000E+00 0. -1.
         -4    1    3    3    0  501  0.19670264284E+03  0.47693363630E+03  0.95640739536E+02  0.52469493441E+03  0.00000000000E+00 0. -1.
</event>
<event>
 7    1  0.5696597E-006  0.1147782E+04  0.7818608E-02  0.8856916E-01
         -4   -1    0    0    0  501 -0.00000000000E+00  0.00000000000E+00  0.54263612995E+03  0.54263612995E+03  0.00000000000E+00 0. -1.
          2   -1    0    0  501    0  0.00000000000E+00 -0.00000000000E+00 -0.15788319956E+04  0.15788319956E+04  0.00000000000E+00 0. -1.
   -9000010    2    1    2    0  502  0.38009015152E+03  0.23947495825E+03 -0.82800060466E+03  0.14094119038E+04  0.10483511503E+04 0.  0.
        -13    1    1    2    0    0 -0.40607892084E+03 -0.23841011352E+03  0.30565185871E+02  0.47188315707E+03  0.10566000000E+00 0.  1.
         13    1    3    3    0    0 -0.56657531365E+02  0.43908667352E+03  0.10826236527E+02  0.44285934707E+03  0.10566000000E+00 0. -1.
          2    1    1    2  502    0  0.25988769317E+02 -0.10648447260E+01 -0.23876044684E+03  0.24017306468E+03  0.00000000000E+00 0. -1.
         -4    1    3    3    0  502  0.43674768289E+03 -0.19961171527E+03 -0.83882684118E+03  0.96655255670E+03  0.00000000000E+00 0. -1.
</event>
<event>
 7    1  0.5696597E-006  0.1315386E+04  0.7818608E-02  0.8619677E-01
          4   -1    0    0  501    0 -0.00000000000E+00  0.00000000000E+00  0.14676052580E+04  0.14676052580E+04  0.00000000000E+00 0.  1.
          2   -1    0    0  502    0  0.00000000000E+00 -0.00000000000E+00 -0.16982389116E+04  0.16982389116E+04  0.00000000000E+00 0. -1.
    9000010    2    1    2  502    0 -0.88876795012E+03 -0.33461147819E+03  0.50264538550E+03  0.14647611055E+04  0.99548952883E+03 0.  0.
        -13    1    3    3    0    0 -0.91823983478E+03  0.22259449005E+02  0.96909704417E+02  0.92360780596E+03  0.10566000000E+00 0.  1.
         13    1    1    2    0    0  0.78595753813E+03  0.15548210095E+03  0.13156465001E+03  0.81191945644E+03  0.10566000000E+00 0. -1.
          2    1    1    2  501    0  0.10281041200E+03  0.17912937724E+03 -0.86484368908E+03  0.88916360763E+03  0.00000000000E+00 0. -1.
          4    1    3    3  502    0  0.29471884657E+02 -0.35687092719E+03  0.40573568108E+03  0.54115329950E+03  0.00000000000E+00 0.  1.
</event>
<event>
 6    1  0.5696597E-006  0.7415604E+03  0.7818608E-02  0.9286800E-01
          2   -1    0    0  502    0  0.00000000000E+00  0.00000000000E+00  0.80195404321E+03  0.80195404321E+03  0.00000000000E+00 0.  1.
          4   -1    0    0  501    0 -0.00000000000E+00 -0.00000000000E+00 -0.10009174850E+04  0.10009174850E+04  0.00000000000E+00 0.  1.
        -13    1    1    2    0    0  0.42383355209E+03  0.23120790007E+03 -0.30249829708E+03  0.56973432741E+03  0.10566000000E+00 0.  1.
         13    1    1    2    0    0 -0.20478176736E+03 -0.23775358406E+03 -0.39519870576E+03  0.50462299509E+03  0.10566000000E+00 0. -1.
          2    1    1    2  501    0  0.98151014047E+01  0.22000286267E+01  0.49950350482E+03  0.49960477147E+03  0.00000000000E+00 0.  1.
          4    1    1    2  502    0 -0.22886688613E+03  0.43456553610E+01 -0.76994381309E+00  0.22890943427E+03  0.00000000000E+00 0.  1.
</event>
<event>
 7    1  0.5696597E-006  0.1042321E+04  0.7818608E-02  0.9032413E-01
          2   -1    0    0  502    0  0.00000000000E+00  0.00000000000E+00  0.11380634252E+04  0.11380634252E+04  0.00000000000E+00 0.  1.
          4   -1    0    0  501    0 -0.00000000000E+00 -0.00000000000E+00 -0.86614407415E+03  0.86614407415E+03  0.00000000000E+00 0.  1.
    9000010    2    1    2  502    0 -0.27360759094E+03 -0.10513853721E+03  0.28134360632E+03  0.10766179075E+04  0.99701387559E+03 0.  0.
        -13    1    3    3    0    0  0.84636238350E+02 -0.49924965724E+03  0.14856468657E+03  0.52771677097E+03  0.10566000000E+00 0.  1.
         13    1    1    2    0    0  0.27330695217E+03  0.13503757223E+03 -0.41831380842E+03  0.51760823940E+03  0.10566000000E+00 0. -1.
          2    1    1    2  501    0  0.30063876741E+00 -0.29899035024E+02  0.40888955317E+03  0.40998135247E+03  0.00000000000E+00 0.  1.
          4    1    3    3  502    0 -0.35824382929E+03  0.39411112004E+03  0.13277891974E+03  0.54890113653E+03  0.00000000000E+00 0.  1.
</event>
<event>
 7    1  0.5696597E-006  0.1039433E+04  0.7818608E-02  0.9244478E-01
         -4   -1    0    0    0  501 -0.00000000000E+00  0.00000000000E+00  0.55471878098E+03  0.55471878098E+03  0.00000000000E+00 0. -1.
          2   -1    0    0  501    0  0.00000000000E+00 -0.00000000000E+00 -0.16530202469E+04  0.16530202469E+04  0.00000000000E+00 0. -1.
   -9000010    2    1    2    0  502  0.11289101764E+03 -0.53162330937E+02 -0.61609247950E+03  0.12073901538E+04  0.10308493707E+04 0.  0.
        -13    1    1    2    0    0 -0.13057435388E+03  0.27931545841E+02  0.24151474877E+03  0.27596959648E+03  0.10566000000E+00 0.  1.
         13    1    3    3    0    0 -0.36871221438E+03  0.50372920919E+02 -0.61022911017E+03  0.71474870148E+03  0.10566000000E+00 0. -1.
          2    1    1    2  502    0  0.17683336238E+02  0.25230785096E+02 -0.72372373518E+03  0.72437927756E+03  0.00000000000E+00 0. -1.
         -4    1    3    3    0  502  0.48160323202E+03 -0.10353525186E+03 -0.58633693224E+01  0.49264145235E+03  0.00000000000E+00 0. -1.
</event>
<event>
 7    1  0.5696597E-006  0.1041103E+04  0.7818608E-02  0.9039209E-01
          4   -1    0    0  501    0 -0.00000000000E+00  0.00000000000E+00  0.19660343258E+04  0.19660343258E+04  0.00000000000E+00 0.  1.
          2   -1    0    0  502    0  0.00000000000E+00 -0.00000000000E+00 -0.54826528812E+03  0.54826528812E+03  0.00000000000E+00 0.  1.
    9000010    2    1    2  502    0  0.27061922885E+03  0.60162028538E+02  0.13971842120E+04  0.17391852547E+04  0.99789147260E+03 0.  0.
        -13    1    3    3    0    0 -0.21097191774E+03 -0.14782840774E+03  0.11880312928E+02  0.25788280519E+03  0.10566000000E+00 0.  1.
         13    1    1    2    0    0 -0.28085952758E+03 -0.11824762171E+03  0.33636169800E+03  0.45387638991E+03  0.10566000000E+00 0. -1.
          2    1    1    2  501    0  0.10240298729E+02  0.58085593174E+02 -0.31577687232E+03  0.32123796934E+03  0.00000000000E+00 0.  1.
          4    1    3    3  502    0  0.48159114659E+03  0.20799043628E+03  0.13853038991E+04  0.14813024495E+04  0.00000000000E+00 0.  1.
</event>
<event>
 7    1  0.5696597E-006  0.9883588E+03  0.7818608E-02  0.9332185E-01
          2   -1    0    0  502    0  0.00000000000E+00  0.00000000000E+00  0.11418073661E+04  0.11418073661E+04  0.00000000000E+00 0.  1.
          4   -1    0    0  501    0 -0.00000000000E+00 -0.00000000000E+00 -0.42504186651E+03  0.42504186651E+03  0.00000000000E+00 0.  1.
    9000010    2    1    2  502    0 -0.36507806289E+02  0.10455842565E+03  0.32526753626E+03  0.10404669272E+04  0.98209326038E+03 0.  0.
        -13    1    3    3    0    0  0.44137623134E+03  0.17069486732E+03  0.29376923125E+03  0.55700097640E+03  0.10566000000E+00 0.  1.
         13    1    1    2    0    0 -0.35574450007E+02 -0.10694456381E+03 -0.14852951705E+02  0.11368070443E+03  0.10566000000E+00 0. -1.
          2    1    1    2  501    0  0.72082256296E+02  0.23861381574E+01  0.40635091505E+03  0.41270160103E+03  0.00000000000E+00 0.  1.
          4    1    3    3  502    0 -0.47788403762E+03 -0.66136441663E+02  0.31498305004E+02  0.48346595077E+03  0.00000000000E+00 0.  1.
</event>
<event>
 7    1  0.5696597E-006  0.1068937E+04  0.7818608E-02  0.8953625E-01
         -4   -1    0    0    0  501 -0.00000000000E+00  0.00000000000E+00  0.88285678205E+03  0.88285678205E+03  0.00000000000E+00 0. -1.
          1   -1    0    0  501    0  0.00000000000E+00 -0.00000000000E+00 -0.24611536906E+04  0.24611536906E+04  0.00000000000E+00 0. -1.
   -9000010    2    1    2    0  502 -0.23773691260E+03  0.33686108009E+03 -0.88188392595E+03  0.13928093683E+04  0.99609459922E+03 0.  0.
        -13    1    1    2    0    0  0.23736211051E+03 -0.30513151695E+03  0.56762573966E+03  0.68676415576E+03  0.10566000000E+00 0.  1.
         13    1    3    3    0    0 -0.13807664781E+02 -0.19610244247E+03 -0.78177053790E+03  0.80610917663E+03  0.10566000000E+00 0. -1.
          1    1    1    2  502    0  0.37480209104E+00 -0.31729563142E+02 -0.12640387223E+04  0.12644369486E+04  0.00000000000E+00 0. -1.
         -4    1    3    3    0  502 -0.22392924782E+03  0.53296352256E+03 -0.10011338805E+03  0.58670019164E+03  0.00000000000E+00 0. -1.
</event>
<event>
 7    1  0.5696597E-006  0.1039133E+04  0.7818608E-02  0.9075076E-01
          2   -1    0    0  502    0  0.00000000000E+00  0.00000000000E+00  0.68558255898E+03  0.68558255898E+03  0.00000000000E+00 0.  1.
          4   -1    0    0  501    0 -0.00000000000E+00 -0.00000000000E+00 -0.22348380968E+04  0.22348380968E+04  0.00000000000E+00 0.  1.
    9000010    2    1    2  502    0  0.15537805377E+02 -0.22902505868E+03 -0.12368569905E+04  0.16110232297E+04  0.10064227396E+04 0.  0.
        -13    1    3    3    0    0 -0.16486551183E+03 -0.14602624251E+03  0.11237929273E+03  0.24725172819E+03  0.10566000000E+00 0.  1.
         13    1    1    2    0    0  0.11189325804E+03  0.24035503433E+03 -0.78041010201E+03  0.82421513102E+03  0.10566000000E+00 0. -1.
          2    1    1    2  501    0 -0.12743106342E+03 -0.11329975644E+02  0.46801155461E+03  0.48518229515E+03  0.00000000000E+00 0.  1.
          4    1    3    3  502    0  0.18040331721E+03 -0.82998816175E+02 -0.13492362832E+04  0.13637715015E+04  0.00000000000E+00 0.  1.
</event>
<event>
 7    1  0.5696597E-006  0.1488809E+04  0.7818608E-02  0.8616074E-01
          2   -1    0    0  501    0  0.00000000000E+00  0.00000000000E+00  0.27659915824E+04  0.27659915824E+04  0.00000000000E+00 0. -1.
         -4   -1    0    0    0  501 -0.00000000000E+00 -0.00000000000E+00 -0.10597256280E+04  0.10597256280E+04  0.00000000000E+00 0. -1.
   -9000010    2    1    2    0  502  0.63872483024E+03 -0.92764734657E+03  0.10921873598E+04  0.18608115949E+04  0.10006235829E+04 0.  0.
        -13    1    1    2    0    0  0.41009620918E+03  0.44136561036E+03 -0.93193976954E+02  0.60964549642E+03  0.10566000000E+00 0.  1.
         13    1    3    3    0    0 -0.21471035862E+02 -0.41882467547E+03  0.91803779110E+03  0.10092910934E+04  0.10566000000E+00 0. -1.
          2    1    1    2  502    0 -0.10488210394E+04  0.48628173621E+03  0.70727257160E+03  0.13552601190E+04  0.00000000000E+00 0. -1.
         -4    1    3    3    0  502  0.66019586610E+03 -0.50882267110E+03  0.17414956867E+03  0.85152050152E+03  0.00000000000E+00 0. -1.
</event>
<event>
 7    1  0.5696597E-006  0.1128012E+04  0.7818608E-02  0.8835259E-01
          2   -1    0    0  501    0  0.00000000000E+00  0.00000000000E+00  0.91788982405E+03  0.91788982405E+03  0.00000000000E+00 0.  1.
         -4   -1    0    0    0  501 -0.00000000000E+00 -0.00000000000E+00 -0.15580802935E+04  0.15580802935E+04  0.00000000000E+00 0. -1.
   -9000010    2    1    2    0  502  0.34224947675E+03  0.40508555032E+03 -0.10741404598E+04  0.15546152561E+04  0.99086924457E+03 0.  0.
        -13    1    1    2    0    0 -0.37309847298E+03 -0.40506442361E+03  0.68897672245E+02  0.55500140379E+03  0.10566000000E+00 0.  1.
         13    1    3    3    0    0  0.26831079194E+03  0.69872775925E+03 -0.98856324814E+03  0.12399469623E+04  0.10566000000E+00 0. -1.
          2    1    1    2  502    0  0.30848996225E+02 -0.21126712323E-01  0.36505231806E+03  0.36635345765E+03  0.00000000000E+00 0.  1.
         -4    1    3    3    0  502  0.73938684807E+02 -0.29364220893E+03 -0.85577211642E+02  0.31466829381E+03  0.00000000000E+00 0. -1.
</event>
<event>
 7    1  0.5696597E-006  0.1185473E+04  0.7818608E-02  0.8759313E-01
          2   -1    0    0  501    0  0.00000000000E+00  0.00000000000E+00  0.24771469292E+04  0.24771469292E+04  0.00000000000E+00 0. -1.
         -4   -1    0    0    0  501 -0.00000000000E+00 -0.00000000000E+00 -0.55189642062E+03  0.55189642062E+03  0.00000000000E+00 0. -1.
   -9000010    2    1    2    0  502  0.20864780302E+03  0.56849424566E+03  0.56757200527E+03  0.12976015936E+04  0.99745290689E+03 0.  0.
        -13    1    1    2    0    0 -0.32443390698E+03 -0.58217949823E+03  0.42269255539E+03  0.78921437880E+03  0.10566000000E+00 0.  1.
         13    1    3    3    0    0 -0.16398175729E+03  0.70150618311E+03  0.17743287661E+03  0.74194567088E+03  0.10566000000E+00 0. -1.
          2    1    1    2  502    0  0.11578610396E+03  0.13685252568E+02  0.93498594789E+03  0.94222737742E+03  0.00000000000E+00 0. -1.
         -4    1    3    3    0  502  0.37262956031E+03 -0.13301193746E+03  0.39013912866E+03  0.55565592270E+03  0.00000000000E+00 0. -1.
</event>
<event>
 7    1  0.5696597E-006  0.1209156E+04  0.7818608E-02  0.8966186E-01
          4   -1    0    0  501    0 -0.00000000000E+00  0.00000000000E+00  0.24052292364E+04  0.24052292364E+04  0.00000000000E+00 0.  1.
          2   -1    0    0  502    0  0.00000000000E+00 -0.00000000000E+00 -0.65421857198E+03  0.65421857198E+03  0.00000000000E+00 0. -1.
    9000010    2    1    2  502    0  0.21757508767E+03  0.14664222368E+03  0.12981224741E+04  0.17751688778E+04  0.11820574124E+04 0.  0.
        -13    1    3    3    0    0  0.59826115626E+03 -0.47381035382E+02  0.26282011500E+03  0.65516089445E+03  0.10566000000E+00 0.  1.
         13    1    1    2    0    0 -0.21362845531E+03 -0.13731305559E+03  0.84995517969E+03  0.88708275307E+03  0.10566000000E+00 0. -1.
          2    1    1    2  501    0 -0.39466323561E+01 -0.93291680916E+01 -0.39706698946E+03  0.39719617747E+03  0.00000000000E+00 0. -1.
          4    1    3    3  502    0 -0.38068606860E+03  0.19402325906E+03  0.10353023591E+04  0.11200079833E+04  0.00000000000E+00 0.  1.
</event>
<event>
 7    1  0.5696597E-006  0.1096492E+04  0.7818608E-02  0.8904064E-01
         -4   -1    0    0    0  501 -0.00000000000E+00  0.00000000000E+00  0.26473372180E+04  0.26473372180E+04  0.00000000000E+00 0. -1.
          2   -1    0    0  501    0  0.00000000000E+00 -0.00000000000E+00 -0.71662059539E+03  0.71662059539E+03  0.00000000000E+00 0. -1.
   -9000010    2    1    2    0  502 -0.18206674556E+03 -0.40054679081E+03  0.22522636531E+04  0.25048892731E+04  0.10040879823E+04 0.  0.
        -13    1    1    2    0    0  0.11457408906E+03  0.43008434961E+03  0.78794296550E+02  0.45200478094E+03  0.10566000000E+00 0.  1.
         13    1    3    3    0    0  0.21967030595E+02 -0.64577342449E+03  0.85513143492E+03  0.10718001905E+04  0.10566000000E+00 0. -1.
          2    1    1    2  502    0  0.67492656502E+02 -0.29537558803E+02 -0.40034132701E+03  0.40706375935E+03  0.00000000000E+00 0. -1.
         -4    1    3    3    0  502 -0.20403377615E+03  0.24522663368E+03  0.13971322182E+04  0.14330890826E+04  0.00000000000E+00 0. -1.
</event>
<event>
 7    1  0.5696597E-006  0.1020380E+04  0.7818608E-02  0.9160117E-01
          2   -1    0    0  502    0  0.00000000000E+00  0.00000000000E+00  0.31963038306E+04  0.31963038306E+04  0.00000000000E+00 0. -1.
          4   -1    0    0  501    0 -0.00000000000E+00 -0.00000000000E+00 -0.17325892506E+04  0.17325892506E+04  0.00000000000E+00 0.  1.
    9000010    2    1    2  502    0 -0.18940344817E+03  0.80284221557E+02 -0.61688878860E+03  0.11941031709E+04  0.10015045596E+04 0.  0.
        -13    1    3    3    0    0  0.23052570397E+03  0.22433360950E+02 -0.72126961996E+03  0.75754553112E+03  0.10566000000E+00 0.  1.
         13    1    1    2    0    0  0.90072543182E+02 -0.17497716539E+03 -0.81373769966E+03  0.83719718493E+03  0.10566000000E+00 0. -1.
          2    1    1    2  501    0  0.99330904991E+02  0.94692943835E+02  0.28943410683E+04  0.28975927253E+04  0.00000000000E+00 0. -1.
          4    1    3    3  502    0 -0.41992915214E+03  0.57850860608E+02  0.10438083136E+03  0.43655763977E+03  0.00000000000E+00 0.  1.
</event>
<event>
 7    1  0.5696597E-006  0.1073093E+04  0.7818608E-02  0.8944756E-01
          1   -1    0    0  501    0  0.00000000000E+00  0.00000000000E+00  0.13594680908E+04  0.13594680908E+04  0.00000000000E+00 0. -1.
         -4   -1    0    0    0  501 -0.00000000000E+00 -0.00000000000E+00 -0.10968190067E+04  0.10968190067E+04  0.00000000000E+00 0. -1.
   -9000010    2    1    2    0  502  0.20911214277E+03 -0.33701701271E+03 -0.25022292330E+03  0.11015538633E+04  0.99674522687E+03 0.  0.
        -13    1    1    2    0    0 -0.31084001922E+03  0.25447180405E+03 -0.31877555864E+03  0.51283065876E+03  0.10566000000E+00 0.  1.
         13    1    3    3    0    0  0.46697531073E+03  0.82957870353E+02 -0.36147446367E+03  0.59633191105E+03  0.10566000000E+00 0. -1.
          1    1    1    2  502    0  0.10172787645E+03  0.82545208657E+02  0.83164756611E+03  0.84190257544E+03  0.00000000000E+00 0. -1.
         -4    1    3    3    0  502 -0.25786316796E+03 -0.41997488306E+03  0.11125154038E+03  0.50522195225E+03  0.00000000000E+00 0. -1.
</event>
<event>
 7    1  0.5696597E-006  0.1510390E+04  0.7818608E-02  0.8505778E-01
         -4   -1    0    0    0  501 -0.00000000000E+00  0.00000000000E+00  0.22940808840E+04  0.22940808840E+04  0.00000000000E+00 0. -1.
          4   -1    0    0  501    0  0.00000000000E+00 -0.00000000000E+00 -0.24161494646E+04  0.24161494646E+04  0.00000000000E+00 0. -1.
   -9000010    2    1    2    0  502  0.20283165415E+03 -0.61464010804E+03 -0.20357332882E+03  0.12113775125E+04  0.10035288911E+04 0.  0.
        -13    1    1    2    0    0  0.78978681040E+03 -0.51920809838E+03  0.12675485819E+04  0.15811450515E+04  0.10566000000E+00 0.  1.
         13    1    3    3    0    0  0.30051753850E+03 -0.39433182162E+03 -0.58086682682E+03  0.76368492074E+03  0.10566000000E+00 0. -1.
          4    1    1    2  502    0 -0.99261846455E+03  0.11338482064E+04 -0.11860438338E+04  0.19177077846E+04  0.00000000000E+00 0. -1.
         -4    1    3    3    0  502 -0.97685884358E+02 -0.22030828642E+03  0.37729349801E+03  0.44769259175E+03  0.00000000000E+00 0. -1.
</event>
<event>
 7    1  0.5696597E-006  0.1077189E+04  0.7818608E-02  0.8932641E-01
          2   -1    0    0  502    0  0.00000000000E+00  0.00000000000E+00  0.13189571769E+04  0.13189571769E+04  0.00000000000E+00 0. -1.
          4   -1    0    0  501    0 -0.00000000000E+00 -0.00000000000E+00 -0.19964535949E+04  0.19964535949E+04  0.00000000000E+00 0.  1.
    9000010    2    1    2  502    0  0.23080728965E+03  0.36211063179E+03 -0.58835309899E+03  0.12329997390E+04  0.99485319147E+03 0.  0.
        -13    1    3    3    0    0  0.36841803191E+03  0.47273019361E+03  0.19871284883E+02  0.59966704205E+03  0.10566000000E+00 0.  1.
         13    1    1    2    0    0 -0.19294671421E+03 -0.36312772139E+03 -0.10464563002E+04  0.11243491343E+04  0.10566000000E+00 0. -1.
          2    1    1    2  501    0 -0.37860575434E+02  0.10170896027E+01  0.95731298112E+03  0.95806189856E+03  0.00000000000E+00 0. -1.
          4    1    3    3  502    0 -0.13761074226E+03 -0.11061956182E+03 -0.60822438388E+03  0.63333269692E+03  0.00000000000E+00 0.  1.
</event>
<event>
 7    1  0.5696597E-006  0.1134096E+04  0.7818608E-02  0.8877537E-01
          4   -1    0    0  501    0 -0.00000000000E+00  0.00000000000E+00  0.90257488786E+03  0.90257488786E+03  0.00000000000E+00 0.  1.
          2   -1    0    0  502    0  0.00000000000E+00 -0.00000000000E+00 -0.24284277215E+04  0.24284277215E+04  0.00000000000E+00 0.  1.
    9000010    2    1    2  502    0  0.22320350741E+03 -0.28032938926E+03 -0.14973650164E+03  0.10692400847E+04  0.99621732901E+03 0.  0.
        -13    1    3    3    0    0 -0.31968184701E+03  0.41694326871E+02  0.16693955102E+03  0.36304782751E+03  0.10566000000E+00 0.  1.
         13    1    1    2    0    0  0.35136216447E+03  0.27225706787E+03  0.26874059489E+03  0.51942352674E+03  0.10566000000E+00 0. -1.
          2    1    1    2  501    0 -0.57456567188E+03  0.80723213890E+01 -0.16448569269E+04  0.17423389979E+04  0.00000000000E+00 0.  1.
          4    1    3    3  502    0  0.54288535442E+03 -0.32202371613E+03 -0.31667605266E+03  0.70619225720E+03  0.00000000000E+00 0.  1.
</event>
<event>
 7    1  0.5696597E-006  0.1870955E+04  0.7818608E-02  0.8257302E-01
          4   -1    0    0  501    0 -0.00000000000E+00  0.00000000000E+00  0.26667317043E+04  0.26667317043E+04  0.00000000000E+00 0.  1.
          2   -1    0    0  502    0  0.00000000000E+00 -0.00000000000E+00 -0.20669833760E+04  0.20669833760E+04  0.00000000000E+00 0. -1.
    9000010    2    1    2  502    0  0.12247508805E+04  0.14388706611E+04  0.11779087279E+04  0.24379592863E+04  0.99288116692E+03 0.  0.
        -13    1    3    3    0    0  0.81631475753E+03  0.84099695628E+03  0.15138162031E+03  0.11817622730E+04  0.10566000000E+00 0.  1.
         13    1    1    2    0    0 -0.96789793621E+03 -0.88937917191E+03  0.17790658210E+03  0.13264510882E+04  0.10566000000E+00 0. -1.
          2    1    1    2  501    0 -0.25685294425E+03 -0.54949148924E+03 -0.75606698174E+03  0.96930470575E+03  0.00000000000E+00 0. -1.
          4    1    3    3  502    0  0.40843612294E+03  0.59787370487E+03  0.10265271076E+04  0.12561970133E+04  0.00000000000E+00 0.  1.
</event>
<event>
 7    1  0.5696597E-006  0.1029323E+04  0.7818608E-02  0.9096003E-01
         -4   -1    0    0    0  501 -0.00000000000E+00  0.00000000000E+00  0.14895696878E+04  0.14895696878E+04  0.00000000000E+00 0. -1.
          2   -1    0    0  501    0  0.00000000000E+00 -0.00000000000E+00 -0.14434288777E+04  0.14434288777E+04  0.00000000000E+00 0.  1.
   -9000010    2    1    2    0  502 -0.17566729179E+03  0.24141022217E+03  0.98991269268E+03  0.14382579022E+04  0.99976035202E+03 0.  0.
        -13    1    1    2    0    0 -0.61891874491E+02 -0.24554623948E+03  0.20241675061E+03  0.32418530494E+03  0.10566000000E+00 0.  1.
         13    1    3    3    0    0  0.81597845019E+02  0.58496333344E+03  0.71992859523E+03  0.93120218168E+03  0.10566000000E+00 0. -1.
          2    1    1    2  502    0  0.23755916628E+03  0.41360173034E+01 -0.11461886332E+04  0.11705553583E+04  0.00000000000E+00 0.  1.
         -4    1    3    3    0  502 -0.25726513681E+03 -0.34355311127E+03  0.26998409746E+03  0.50705572056E+03  0.00000000000E+00 0. -1.
</event>
<event>
 7    1  0.5696597E-006  0.1173151E+04  0.7818608E-02  0.8774238E-01
          2   -1    0    0  501    0  0.00000000000E+00  0.00000000000E+00  0.29135880963E+04  0.29135880963E+04  0.00000000000E+00 0. -1.
         -4   -1    0    0    0  501 -0.00000000000E+00 -0.00000000000E+00 -0.48871696595E+03  0.48871696595E+03  0.00000000000E+00 0. -1.
   -9000010    2    1    2    0  502  0.37824560460E+03  0.48478785982E+03  0.67459728593E+03  0.13508138580E+04  0.99575477617E+03 0.  0.
        -13    1    1    2    0    0 -0.34275370208E+03 -0.52210089774E+03  0.49969581895E+03  0.79985334303E+03  0.10566000000E+00 0.  1.
         13    1    3    3    0    0  0.50238755696E+02 -0.42981797642E+02 -0.23785158042E+03  0.24686991104E+03  0.10566000000E+00 0. -1.
          2    1    1    2  502    0 -0.35491902517E+02  0.37313037913E+02  0.12505780255E+04  0.12516378613E+04  0.00000000000E+00 0. -1.
         -4    1    3    3    0  502  0.32800684890E+03  0.52776965747E+03  0.91244886635E+03  0.11039439469E+04  0.00000000000E+00 0. -1.
</event>
<event>
 7    1  0.5696597E-006  0.1099161E+04  0.7818608E-02  0.8851427E-01
         -4   -1    0    0    0  501 -0.00000000000E+00  0.00000000000E+00  0.80301100850E+03  0.80301100850E+03  0.00000000000E+00 0. -1.
          4   -1    0    0  501    0  0.00000000000E+00 -0.00000000000E+00 -0.10635951197E+04  0.10635951197E+04  0.00000000000E+00 0.  1.
   -9000010    2    1    2    0  502 -0.41145526556E+03 -0.23087040679E+03 -0.33728930613E+03  0.11171811340E+04  0.95484712385E+03 0.  0.
        -13    1    1    2    0    0  0.41034873485E+03  0.40150077461E+03  0.73282844012E+02  0.57875672143E+03  0.10566000000E+00 0.  1.
         13    1    3    3    0    0 -0.22032553308E+03 -0.16067987591E+03 -0.67210336472E+03  0.72531669434E+03  0.10566000000E+00 0. -1.
          4    1    1    2  502    0  0.11065307055E+01 -0.17063036782E+03  0.34223509226E+01  0.17066827274E+03  0.00000000000E+00 0. -1.
         -4    1    3    3    0  502 -0.19112973248E+03 -0.70190530880E+02  0.33481405860E+03  0.39186443970E+03  0.00000000000E+00 0.  1.
</event>
<event>
 7    1  0.5696597E-006  0.1037662E+04  0.7818608E-02  0.9047999E-01
         -4   -1    0    0    0  501 -0.00000000000E+00  0.00000000000E+00  0.14544515543E+04  0.14544515543E+04  0.00000000000E+00 0. -1.
          3   -1    0    0  501    0  0.00000000000E+00 -0.00000000000E+00 -0.44100137970E+03  0.44100137970E+03  0.00000000000E+00 0. -1.
   -9000010    2    1    2    0  502 -0.15076145544E+03 -0.28033245504E+03  0.97011909179E+03  0.14266828894E+04  0.99648267068E+03 0.  0.
        -13    1    1    2    0    0  0.15724289741E+03  0.23165260546E+03  0.17368209845E+03  0.32947494729E+03  0.10566000000E+00 0.  1.
         13    1    3    3    0    0 -0.27921199151E+03 -0.22500882793E+03 -0.79903895318E+02  0.36738665259E+03  0.10566000000E+00 0. -1.
          3    1    1    2  502    0 -0.64814419693E+01  0.48679849577E+02 -0.13035101564E+03  0.13929509727E+03  0.00000000000E+00 0. -1.
         -4    1    3    3    0  502  0.12845053607E+03 -0.55323627105E+02  0.10500229871E+04  0.10592962368E+04  0.00000000000E+00 0. -1.
</event>
<event>
 7    1  0.5696597E-006  0.1428317E+04  0.7818608E-02  0.8895168E-01
          2   -1    0    0  502    0  0.00000000000E+00  0.00000000000E+00  0.18771983942E+04  0.18771983942E+04  0.00000000000E+00 0.  1.
          4   -1    0    0  501    0 -0.00000000000E+00 -0.00000000000E+00 -0.10957960215E+04  0.10957960215E+04  0.00000000000E+00 0.  1.
    9000010    2    1    2  502    0  0.51219968873E+03  0.69600079009E+03 -0.45054956032E+02  0.13271536696E+04  0.10062511081E+04 0.  0.
        -13    1    3    3    0    0  0.71929349984E+03  0.16477650994E+03  0.83625140190E+02  0.74264905061E+03  0.10566000000E+00 0.  1.
         13    1    1    2    0    0  0.82614795727E+02  0.18958235532E+03 -0.10291400345E+03  0.23099345703E+03  0.10566000000E+00 0. -1.
          2    1    1    2  501    0 -0.59481448446E+03 -0.88558314541E+03  0.92937133214E+03  0.14148472891E+04  0.00000000000E+00 0.  1.
          4    1    3    3  502    0 -0.20709381110E+03  0.53122428015E+03 -0.12868009622E+03  0.58450461896E+03  0.00000000000E+00 0.  1.
</event>
<event>
 7    1  0.5696597E-006  0.1109355E+04  0.7818608E-02  0.8979211E-01
          2   -1    0    0  501    0  0.00000000000E+00  0.00000000000E+00  0.15008598787E+04  0.15008598787E+04  0.00000000000E+00 0. -1.
         -4   -1    0    0    0  501 -0.00000000000E+00 -0.00000000000E+00 -0.62732736552E+03  0.62732736552E+03  0.00000000000E+00 0. -1.
   -9000010    2    1    2    0  502 -0.29886584918E+03  0.65676355972E+02  0.82253413568E+02  0.11105622773E+04  0.10644006615E+04 0.  0.
        -13    1    1    2    0    0  0.30213064729E+03 -0.90029528616E+02  0.10702571688E+03  0.33293056226E+03  0.10566000000E+00 0.  1.
         13    1    3    3    0    0 -0.12165668620E+03  0.54610665079E+03 -0.97366750620E+02  0.56790238477E+03  0.10566000000E+00 0. -1.
          2    1    1    2  502    0 -0.32647981039E+01  0.24353172644E+02  0.68425338274E+03  0.68469440462E+03  0.00000000000E+00 0. -1.
         -4    1    3    3    0  502 -0.17720916298E+03 -0.48043029482E+03  0.17962016419E+03  0.54265989257E+03  0.00000000000E+00 0. -1.
</event>
<event>
 7    1  0.5696597E-006  0.9943372E+03  0.7818608E-02  0.9240355E-01
          3   -1    0    0  501    0  0.00000000000E+00  0.00000000000E+00  0.46503085038E+03  0.46503085038E+03  0.00000000000E+00 0. -1.
         -4   -1    0    0    0  501 -0.00000000000E+00 -0.00000000000E+00 -0.90622009014E+03  0.90622009014E+03  0.00000000000E+00 0. -1.
   -9000010    2    1    2    0  502 -0.99531098658E+02 -0.93982154185E+02 -0.25045427289E+03  0.10228578065E+04  0.98222790867E+03 0.  0.
        -13    1    1    2    0    0  0.12548753461E+03  0.92366798591E+02 -0.24377626087E+03  0.28931924124E+03  0.10566000000E+00 0.  1.
         13    1    3    3    0    0 -0.24560561938E+03  0.23117112990E+03  0.24186372569E+03  0.41504250931E+03  0.10566000000E+00 0. -1.
          3    1    1    2  502    0 -0.25956435951E+02  0.16153555948E+01  0.53041293997E+02  0.59073892794E+02  0.00000000000E+00 0. -1.
         -4    1    3    3    0  502  0.14607452072E+03 -0.32515328408E+03 -0.49231799858E+03  0.60781529717E+03  0.00000000000E+00 0. -1.
</event>
<event>
 7    1  0.5696597E-006  0.9714789E+03  0.7818608E-02  0.9202175E-01
          1   -1    0    0  501    0  0.00000000000E+00  0.00000000000E+00  0.39551923779E+03  0.39551923779E+03  0.00000000000E+00 0. -1.
         -4   -1    0    0    0  501 -0.00000000000E+00 -0.00000000000E+00 -0.20410319255E+04  0.20410319255E+04  0.00000000000E+00 0. -1.
   -9000010    2    1    2    0  502  0.29219668388E+03  0.10159928119E+03 -0.11916990864E+04  0.15564954820E+04  0.95227630275E+03 0.  0.
        -13    1    1    2    0    0 -0.13946924508E+03 -0.12161170053E+03 -0.62379696094E+03  0.65066407283E+03  0.10566000000E+00 0.  1.
         13    1    3    3    0    0 -0.15613986486E+03 -0.30991171634E+03 -0.67162954896E+03  0.75598359210E+03  0.10566000000E+00 0. -1.
          1    1    1    2  502    0 -0.15272743880E+03  0.20012419345E+02  0.16998335966E+03  0.22939160850E+03  0.00000000000E+00 0. -1.
         -4    1    3    3    0  502  0.44833654874E+03  0.41151099753E+03 -0.52006953749E+03  0.80051188988E+03  0.00000000000E+00 0. -1.
</event>
<event>
 7    1  0.5696597E-006  0.9395630E+03  0.7818608E-02  0.9143298E-01
          2   -1    0    0  502    0  0.00000000000E+00  0.00000000000E+00  0.26146081435E+04  0.26146081435E+04  0.00000000000E+00 0.  1.
          4   -1    0    0  501    0 -0.00000000000E+00 -0.00000000000E+00 -0.26665130295E+03  0.26665130295E+03  0.00000000000E+00 0.  1.
    9000010    2    1    2  502    0 -0.25453204889E+03 -0.18655379500E+02  0.98628857662E+03  0.13598722917E+04  0.90075130096E+03 0.  0.
        -13    1    3    3    0    0 -0.44159201126E+03 -0.29358981182E+03  0.33119603150E+03  0.62521140781E+03  0.10566000000E+00 0.  1.
         13    1    1    2    0    0  0.26516597375E+03 -0.58024487597E+02  0.15567737734E+03  0.31291419235E+03  0.10566000000E+00 0. -1.
          2    1    1    2  501    0 -0.10633924860E+02  0.76679867097E+02  0.12059908866E+04  0.12084729624E+04  0.00000000000E+00 0.  1.
          4    1    3    3  502    0  0.18705996237E+03  0.27493443232E+03  0.65509254511E+03  0.73466088385E+03  0.00000000000E+00 0.  1.
</event>
<event>
 7    1  0.5696597E-006  0.9925905E+03  0.7818608E-02  0.9400802E-01
         -4   -1    0    0    0  501 -0.00000000000E+00  0.00000000000E+00  0.18664653092E+04  0.18664653092E+04  0.00000000000E+00 0. -1.
          1   -1    0    0  501    0  0.00000000000E+00 -0.00000000000E+00 -0.32700773823E+03  0.32700773823E+03  0.00000000000E+00 0.  1.
   -9000010    2    1    2    0  502 -0.27882841489E+02  0.96744962363E+02  0.11849225525E+04  0.15412410940E+04  0.98043134070E+03 0.  0.
        -13    1    1    2    0    0 -0.83806262482E+02  0.13553330377E+02  0.45697310782E+03  0.46479201244E+03  0.10566000000E+00 0.  1.
         13    1    3    3    0    0 -0.22286694704E+03 -0.38481227386E+03  0.38933337940E+03  0.59104200669E+03  0.10566000000E+00 0. -1.
          1    1    1    2  502    0  0.11168910397E+03 -0.11029829274E+03 -0.10243808936E+03  0.18743994099E+03  0.00000000000E+00 0.  1.
         -4    1    3    3    0  502  0.19498410555E+03  0.48155723622E+03  0.79558917313E+03  0.95019908734E+03  0.00000000000E+00 0. -1.
</event>
<event>
 7    1  0.5696597E-006  0.1092287E+04  0.7818608E-02  0.8910458E-01
         -4   -1    0    0    0  501 -0.00000000000E+00  0.00000000000E+00  0.67538717261E+03  0.67538717261E+03  0.00000000000E+00 0. -1.
          1   -1    0    0  501    0  0.00000000000E+00 -0.00000000000E+00 -0.20897349545E+04  0.20897349545E+04  0.00000000000E+00 0. -1.
   -9000010    2    1    2    0  502  0.41274793268E+03 -0.12648455005E+03  0.76870967628E+02  0.10940554609E+04  0.10023417623E+04 0.  0.
        -13    1    1    2    0    0 -0.42393097700E+03  0.10540926769E+03 -0.44154022516E+03  0.62111703291E+03  0.10566000000E+00 0.  1.
         13    1    3    3    0    0 -0.16720263454E+03 -0.10560005980E+03  0.38807100784E+03  0.43555391390E+03  0.10566000000E+00 0. -1.
          1    1    1    2  502    0  0.11183044329E+02  0.21075282360E+02 -0.10496785244E+04  0.10499496333E+04  0.00000000000E+00 0. -1.
         -4    1    3    3    0  502  0.57995056721E+03 -0.20884490257E+02 -0.31120004021E+03  0.65850154698E+03  0.00000000000E+00 0. -1.
</event>
<event>
 7    1  0.5696597E-006  0.1031229E+04  0.7818608E-02  0.9115250E-01
         -4   -1    0    0    0  501 -0.00000000000E+00  0.00000000000E+00  0.11777060232E+04  0.11777060232E+04  0.00000000000E+00 0. -1.
          1   -1    0    0  501    0  0.00000000000E+00 -0.00000000000E+00 -0.78187618106E+03  0.78187618106E+03  0.00000000000E+00 0.  1.
   -9000010    2    1    2    0  502 -0.22539331390E+03  0.23898995989E+03  0.67573810928E+03  0.12554931031E+04  0.10058442189E+04 0.  0.
        -13    1    1    2    0    0 -0.11430816516E+01 -0.22571129826E+03  0.11142664866E+03  0.25171969727E+03  0.10566000000E+00 0.  1.
         13    1    3    3    0    0  0.41094734621E+02  0.42683090246E+03  0.79911362403E+03  0.90689359452E+03  0.10566000000E+00 0. -1.
          1    1    1    2  502    0  0.22653639555E+03 -0.13278661628E+02 -0.39133491575E+03  0.45236940397E+03  0.00000000000E+00 0.  1.
         -4    1    3    3    0  502 -0.26648804852E+03 -0.18784094258E+03 -0.12337551475E+03  0.34859950854E+03  0.00000000000E+00 0. -1.
</event>
<event>
 7    1  0.5696597E-006  0.1038750E+04  0.7818608E-02  0.9178885E-01
         -2   -1    0    0    0  501  0.00000000000E+00  0.00000000000E+00  0.60638005744E+03  0.60638005744E+03  0.00000000000E+00 0. -1.
         -4   -1    0    0    0  502 -0.00000000000E+00 -0.00000000000E+00 -0.14422132020E+04  0.14422132020E+04  0.00000000000E+00 0. -1.
   -9000010    2    1    2    0  501 -0.19209469277E+02  0.13518403549E+03 -0.52609556956E+03  0.11596559330E+04  0.10243932875E+04 0.  0.
        -13    1    1    2    0    0 -0.30833166882E+02 -0.17103724799E+03 -0.58324481709E+03  0.60858767010E+03  0.10566000000E+00 0.  1.
         13    1    3    3    0    0 -0.31413521400E+03 -0.14435642895E+02 -0.71336880080E+03  0.77960527036E+03  0.10566000000E+00 0. -1.
         -2    1    1    2    0  502  0.50042636159E+02  0.35853212497E+02  0.27350724212E+03  0.28034965627E+03  0.00000000000E+00 0. -1.
         -4    1    3    3    0  501  0.29492574472E+03  0.14961967838E+03  0.18727323124E+03  0.38005066267E+03  0.00000000000E+00 0. -1.
</event>
<event>
 7    1  0.5696597E-006  0.1109762E+04  0.7818608E-02  0.8893524E-01
          2   -1    0    0  502    0  0.00000000000E+00  0.00000000000E+00  0.30626635363E+04  0.30626635363E+04  0.00000000000E+00 0.  1.
          4   -1    0    0  501    0 -0.00000000000E+00 -0.00000000000E+00 -0.69685411487E+03  0.69685411487E+03  0.00000000000E+00 0.  1.
    9000010    2    1    2  502    0  0.16051789936E+02 -0.30243764867E+03  0.11012168918E+04  0.14859400720E+04  0.95058564242E+03 0.  0.
        -13    1    3    3    0    0  0.42195218025E+01  0.34050428079E+03  0.26745645789E+03  0.43300570162E+03  0.10566000000E+00 0.  1.
         13    1    1    2    0    0 -0.31544655894E+03 -0.31233216122E+03 -0.32034148466E+03  0.54742724488E+03  0.10566000000E+00 0. -1.
          2    1    1    2  501    0  0.29939476901E+03  0.61476980988E+03  0.15849340143E+04  0.17261503342E+04  0.00000000000E+00 0.  1.
          4    1    3    3  502    0  0.11832268134E+02 -0.64294192946E+03  0.83376043390E+03  0.10529343704E+04  0.00000000000E+00 0.  1.
</event>
<event>
 7    1  0.5696597E-006  0.1278401E+04  0.7818608E-02  0.8679604E-01
          2   -1    0    0  501    0  0.00000000000E+00  0.00000000000E+00  0.58036648929E+03  0.58036648929E+03  0.00000000000E+00 0.  1.
         -4   -1    0    0    0  501 -0.00000000000E+00 -0.00000000000E+00 -0.20062989875E+04  0.20062989875E+04  0.00000000000E+00 0. -1.
   -9000010    2    1    2    0  502  0.29388785024E+03 -0.66495462875E+03 -0.12515415428E+04  0.17917538947E+04  0.10561681017E+04 0.  0.
        -13    1    1    2    0    0 -0.30006287864E+03  0.64765334688E+03 -0.21903280688E+03  0.74663777731E+03  0.10566000000E+00 0.  1.
         13    1    3    3    0    0 -0.37127561733E+03 -0.74950282349E+02 -0.50188241433E+03  0.62876792048E+03  0.10566000000E+00 0. -1.
          2    1    1    2  502    0  0.61750283973E+01  0.17301281870E+02  0.44641851439E+02  0.48273804801E+02  0.00000000000E+00 0.  1.
         -4    1    3    3    0  502  0.66516346757E+03 -0.59000434640E+03 -0.74965912847E+03  0.11629859742E+04  0.00000000000E+00 0. -1.
</event>
<event>
 7    1  0.5696597E-006  0.1099890E+04  0.7818608E-02  0.9030966E-01
          4   -1    0    0  501    0 -0.00000000000E+00  0.00000000000E+00  0.47868268545E+03  0.47868268545E+03  0.00000000000E+00 0.  1.
          2   -1    0    0  502    0  0.00000000000E+00 -0.00000000000E+00 -0.20213290838E+04  0.20213290838E+04  0.00000000000E+00 0.  1.
    9000010    2    1    2  502    0  0.15778686535E+03  0.28922573692E+03 -0.90593196158E+03  0.14392062290E+04  0.10686690923E+04 0.  0.
        -13    1    3    3    0    0  0.35712883691E+03  0.17186893310E+03 -0.10795332949E+04  0.11499878618E+04  0.10566000000E+00 0.  1.
         13    1    1    2    0    0 -0.13338165136E+03 -0.21807917647E+03  0.13249269095E+03  0.28792970748E+03  0.10566000000E+00 0. -1.
          2    1    1    2  501    0 -0.24405213983E+02 -0.71146560450E+02 -0.76920712773E+03  0.77287583278E+03  0.00000000000E+00 0.  1.
          4    1    3    3  502    0 -0.19934197156E+03  0.11735680383E+03  0.17360133329E+03  0.28921836724E+03  0.00000000000E+00 0.  1.
</event>
<event>
 7    1  0.5696597E-006  0.1069224E+04  0.7818608E-02  0.8953164E-01
         -4   -1    0    0    0  501 -0.00000000000E+00  0.00000000000E+00  0.82157938652E+03  0.82157938652E+03  0.00000000000E+00 0. -1.
          2   -1    0    0  501    0  0.00000000000E+00 -0.00000000000E+00 -0.12757632371E+04  0.12757632371E+04  0.00000000000E+00 0. -1.
   -9000010    2    1    2    0  502 -0.12670470183E+03  0.35401816439E+03 -0.76620824302E+03  0.13118507103E+04  0.99624006760E+03 0.  0.
        -13    1    1    2    0    0  0.14046961529E+03 -0.36284033679E+03  0.47934258630E+03  0.61737682903E+03  0.10566000000E+00 0.  1.
         13    1    3    3    0    0 -0.12752434204E+03 -0.33800134736E+03 -0.17378005697E+03  0.40088263618E+03  0.10566000000E+00 0. -1.
          2    1    1    2  502    0 -0.13764913459E+02  0.88221724011E+01 -0.16731819385E+03  0.16811508428E+03  0.00000000000E+00 0. -1.
         -4    1    3    3    0  502  0.81964020010E+00  0.69201951175E+03 -0.59242818605E+03  0.91096807413E+03  0.00000000000E+00 0. -1.
</event>
<event>
 7    1  0.5696597E-006  0.9851204E+03  0.7818608E-02  0.9184698E-01
          4   -1    0    0  501    0 -0.00000000000E+00  0.00000000000E+00  0.42872303923E+03  0.42872303923E+03  0.00000000000E+00 0.  1.
          2   -1    0    0  502    0  0.00000000000E+00 -0.00000000000E+00 -0.29509693985E+04  0.29509693985E+04  0.00000000000E+00 0.  1.
    9000010    2    1    2  502    0 -0.66003343226E+02 -0.23105069265E+03 -0.47769115558E+03  0.11033953860E+04  0.96516924622E+03 0.  0.
        -13    1    3    3    0    0 -0.48665784745E+03 -0.13757565578E+03 -0.70669505509E+02  0.51064382079E+03  0.10566000000E+00 0.  1.
         13    1    1    2    0    0  0.64853723144E+02  0.18169285681E+03  0.35073154309E+02  0.19608272983E+03  0.10566000000E+00 0. -1.
          2    1    1    2  501    0  0.11496200819E+01  0.49357835838E+02 -0.20796283580E+04  0.20802143218E+04  0.00000000000E+00 0.  1.
          4    1    3    3  502    0  0.42065450422E+03 -0.93475036872E+02 -0.40702165007E+03  0.59275156521E+03  0.00000000000E+00 0.  1.
</event>
<event>
 7    1  0.5696597E-006  0.1018130E+04  0.7818608E-02  0.8984101E-01
          4   -1    0    0  501    0 -0.00000000000E+00  0.00000000000E+00  0.19085096251E+03  0.19085096251E+03  0.00000000000E+00 0.  1.
          2   -1    0    0  502    0  0.00000000000E+00 -0.00000000000E+00 -0.43440208108E+04  0.43440208108E+04  0.00000000000E+00 0.  1.
    9000010    2    1    2  502    0 -0.28214859203E+03  0.14814421376E+03 -0.17710392468E+04  0.20291796699E+04  0.93778226834E+03 0.  0.
        -13    1    3    3    0    0 -0.58870632247E+03  0.23901080790E+02 -0.14629828269E+04  0.15771699841E+04  0.10566000000E+00 0.  1.
         13    1    1    2    0    0  0.38371528465E+03 -0.18877365396E+03 -0.70194176997E+03  0.82194596640E+03  0.10566000000E+00 0. -1.
          2    1    1    2  501    0 -0.10156669261E+03  0.40629440200E+02 -0.16801888315E+04  0.16837461370E+04  0.00000000000E+00 0.  1.
          4    1    3    3  502    0  0.30655773044E+03  0.12424313297E+03 -0.30805641993E+03  0.45200968578E+03  0.00000000000E+00 0.  1.
</event>
<event>
 7    1  0.5696597E-006  0.1547991E+04  0.7818608E-02  0.8635144E-01
         -4   -1    0    0    0  501 -0.00000000000E+00  0.00000000000E+00  0.67108254658E+03  0.67108254658E+03  0.00000000000E+00 0. -1.
          4   -1    0    0  501    0  0.00000000000E+00 -0.00000000000E+00 -0.45988068558E+04  0.45988068558E+04  0.00000000000E+00 0.  1.
   -9000010    2    1    2    0  502  0.12024762069E+04 -0.45521377419E+03 -0.10252520083E+04  0.19271924529E+04  0.10048683803E+04 0.  0.
        -13    1    1    2    0    0 -0.35377359733E+03 -0.34304674938E+03 -0.84002772800E+03  0.97390113738E+03  0.10566000000E+00 0.  1.
         13    1    3    3    0    0  0.10760583017E+04 -0.74398564539E+03 -0.90046708060E+03  0.15881615420E+04  0.10566000000E+00 0. -1.
          4    1    1    2  502    0 -0.84870260954E+03  0.79826052357E+03 -0.20624445730E+04  0.23687958121E+04  0.00000000000E+00 0.  1.
         -4    1    3    3    0  502  0.12641790517E+03  0.28877187119E+03 -0.12478492766E+03  0.33903091085E+03  0.00000000000E+00 0. -1.
</event>
<event>
 7    1  0.5696597E-006  0.1053801E+04  0.7818608E-02  0.8941662E-01
          2   -1    0    0  502    0  0.00000000000E+00  0.00000000000E+00  0.14909160602E+04  0.14909160602E+04  0.00000000000E+00 0.  1.
          4   -1    0    0  501    0 -0.00000000000E+00 -0.00000000000E+00 -0.56717044154E+03  0.56717044154E+03  0.00000000000E+00 0.  1.
    9000010    2    1    2  502    0  0.27068800986E+03 -0.32238008310E+03  0.65098039098E+03  0.12372334166E+04  0.96424589240E+03 0.  0.
        -13    1    3    3    0    0  0.50207307862E+03 -0.52896942665E+03  0.36593356167E+03  0.81596164942E+03  0.10566000000E+00 0.  1.
         13    1    1    2    0    0 -0.26488582145E+03  0.33347157963E+03 -0.10842409879E+03  0.43945829061E+03  0.10566000000E+00 0. -1.
          2    1    1    2  501    0 -0.58021884090E+01 -0.11091496526E+02  0.38118932646E+03  0.38139479453E+03  0.00000000000E+00 0.  1.
          4    1    3    3  502    0 -0.23138506876E+03  0.20658934355E+03  0.28504682931E+03  0.42127176717E+03  0.00000000000E+00 0.  1.
</event>
<event>
 7    1  0.5696597E-006  0.1128454E+04  0.7818608E-02  0.8850361E-01
         -4   -1    0    0    0  501 -0.00000000000E+00  0.00000000000E+00  0.64635187856E+03  0.64635187856E+03  0.00000000000E+00 0. -1.
          1   -1    0    0  501    0  0.00000000000E+00 -0.00000000000E+00 -0.26844209752E+04  0.26844209752E+04  0.00000000000E+00 0. -1.
   -9000010    2    1    2    0  502  0.44130244686E+03  0.19662633369E+03 -0.10302423188E+04  0.15207883511E+04  0.10089540172E+04 0.  0.
        -13    1    1    2    0    0 -0.47550577381E+03 -0.17960606292E+03  0.23962571854E+03  0.56194712821E+03  0.10566000000E+00 0.  1.
         13    1    3    3    0    0  0.14100684877E+03 -0.31539682069E+03 -0.82213902402E+03  0.89177949734E+03  0.10566000000E+00 0. -1.
          1    1    1    2  502    0  0.34203326950E+02 -0.17020270775E+02 -0.12474524964E+04  0.12480373744E+04  0.00000000000E+00 0. -1.
         -4    1    3    3    0  502  0.30029559809E+03  0.51202315438E+03 -0.20810329477E+03  0.62900885379E+03  0.00000000000E+00 0. -1.
</event>
<event>
 7    1  0.5696597E-006  0.1072248E+04  0.7818608E-02  0.9054991E-01
          4   -1    0    0  502    0  0.00000000000E+00  0.00000000000E+00  0.12142053440E+04  0.12142053440E+04  0.00000000000E+00 0.  1.
          4   -1    0    0  501    0 -0.00000000000E+00 -0.00000000000E+00 -0.71401956049E+03  0.71401956049E+03  0.00000000000E+00 0.  1.
    9000010    2    1    2  502    0 -0.52914717276E+02  0.24678598959E+03  0.26594529011E+03  0.10739739802E+04  0.10094503063E+04 0.  0.
        -13    1    3    3    0    0 -0.41977912316E+02 -0.13508016102E+03 -0.33400336610E+03  0.36272173184E+03  0.10566000000E+00 0.  1.
         13    1    1    2    0    0  0.23299653686E+03  0.10380138033E+03 -0.15649989605E+03  0.29925631384E+03  0.10566000000E+00 0. -1.
          4    1    1    2  501    0 -0.18008181959E+03 -0.35058736992E+03  0.39074038943E+03  0.55499461045E+03  0.00000000000E+00 0.  1.
          4    1    3    3  502    0 -0.10936804960E+02  0.38186615061E+03  0.59994865621E+03  0.71125224834E+03  0.00000000000E+00 0.  1.
</event>
<event>
 7    1  0.5696597E-006  0.1242244E+04  0.7818608E-02  0.8984575E-01
          2   -1    0    0  501    0  0.00000000000E+00  0.00000000000E+00  0.34124382089E+04  0.34124382089E+04  0.00000000000E+00 0. -1.
         -4   -1    0    0    0  501 -0.00000000000E+00 -0.00000000000E+00 -0.57315287860E+03  0.57315287860E+03  0.00000000000E+00 0. -1.
   -9000010    2    1    2    0  502 -0.49916300008E+03  0.42893194054E+03  0.14404764058E+04  0.18558042138E+04  0.96741443762E+03 0.  0.
        -13    1    1    2    0    0 -0.46477677009E+02  0.21281246779E+03 -0.21707538202E+03  0.30752406987E+03  0.10566000000E+00 0.  1.
         13    1    3    3    0    0 -0.33700678111E+03  0.70369585882E+03  0.69484559709E+03  0.10447831580E+04  0.10566000000E+00 0. -1.
          2    1    1    2  502    0  0.54564067709E+03 -0.64174440833E+03  0.16158843066E+04  0.18222628038E+04  0.00000000000E+00 0. -1.
         -4    1    3    3    0  502 -0.16215621897E+03 -0.27476391827E+03  0.74563080871E+03  0.81102105585E+03  0.00000000000E+00 0. -1.
</event>
<event>
 7    1  0.5696597E-006  0.1022780E+04  0.7818608E-02  0.9133113E-01
         -4   -1    0    0    0  501 -0.00000000000E+00  0.00000000000E+00  0.86836109310E+03  0.86836109310E+03  0.00000000000E+00 0. -1.
          1   -1    0    0  501    0  0.00000000000E+00 -0.00000000000E+00 -0.76496418165E+03  0.76496418165E+03  0.00000000000E+00 0. -1.
   -9000010    2    1    2    0  502  0.21395754986E+03  0.21844837462E+02  0.41892004919E+03  0.11051370303E+04  0.99978938690E+03 0.  0.
        -13    1    1    2    0    0 -0.20619192454E+03 -0.67844921410E+02 -0.80709529871E+01  0.21721692971E+03  0.10566000000E+00 0.  1.
         13    1    3    3    0    0  0.43726816018E+03 -0.31738628665E+03  0.44240144526E+03  0.69832410011E+03  0.10566000000E+00 0. -1.
          1    1    1    2  502    0 -0.77656253233E+01  0.46000083948E+02 -0.30745218474E+03  0.31097131470E+03  0.00000000000E+00 0. -1.
         -4    1    3    3    0  502 -0.22331061031E+03  0.33923112411E+03 -0.23481396076E+02  0.40681293023E+03  0.00000000000E+00 0. -1.
</event>
<event>
 7    1  0.5696597E-006  0.9922378E+03  0.7818608E-02  0.9319997E-01
          2   -1    0    0  502    0  0.00000000000E+00  0.00000000000E+00  0.10782597776E+04  0.10782597776E+04  0.00000000000E+00 0. -1.
          4   -1    0    0  501    0 -0.00000000000E+00 -0.00000000000E+00 -0.36757079395E+03  0.36757079395E+03  0.00000000000E+00 0.  1.
    9000010    2    1    2  502    0 -0.84960220195E+02  0.41448343413E+02  0.45518811503E+03  0.10897013755E+04  0.98555398818E+03 0.  0.
        -13    1    3    3    0    0  0.98050226301E+02  0.66677461814E+02 -0.29455897037E+03  0.31752909942E+03  0.10566000000E+00 0.  1.
         13    1    1    2    0    0  0.88451289266E+02 -0.76733592313E+02  0.21002769987E+02  0.11896555078E+03  0.10566000000E+00 0. -1.
          2    1    1    2  501    0 -0.34910690713E+01  0.35285248900E+02  0.23449809867E+03  0.23716364526E+03  0.00000000000E+00 0. -1.
          4    1    3    3  502    0 -0.18301044650E+03 -0.25229118401E+02  0.74974708540E+03  0.77217227612E+03  0.00000000000E+00 0.  1.
</event>
<event>
 7    1  0.5696597E-006  0.1044950E+04  0.7818608E-02  0.9073679E-01
         -4   -1    0    0    0  502 -0.00000000000E+00  0.00000000000E+00  0.10814549559E+04  0.10814549559E+04  0.00000000000E+00 0. -1.
         -2   -1    0    0    0  501  0.00000000000E+00 -0.00000000000E+00 -0.10120696632E+04  0.10120696632E+04  0.00000000000E+00 0. -1.
   -9000010    2    1    2    0  501 -0.33575742218E+02  0.23844562379E+03  0.24793072324E+03  0.10704869734E+04  0.10131579693E+04 0.  0.
        -13    1    1    2    0    0  0.74497696698E+02 -0.24646467336E+03  0.38214847894E+03  0.46079519653E+03  0.10566000000E+00 0.  1.
         13    1    3    3    0    0 -0.47539004383E+03 -0.31355696293E+02  0.27859346152E+03  0.55189962985E+03  0.10566000000E+00 0. -1.
         -2    1    1    2    0  502 -0.40921954480E+02  0.80190495679E+01 -0.56069390946E+03  0.56224244915E+03  0.00000000000E+00 0. -1.
         -4    1    3    3    0  501  0.44181430161E+03  0.26980132008E+03 -0.30662738283E+02  0.51858734360E+03  0.00000000000E+00 0. -1.
</event>
<event>
 7    1  0.5696597E-006  0.1010396E+04  0.7818608E-02  0.9225669E-01
          1   -1    0    0  501    0  0.00000000000E+00  0.00000000000E+00  0.87971904775E+03  0.87971904775E+03  0.00000000000E+00 0.  1.
         -4   -1    0    0    0  501 -0.00000000000E+00 -0.00000000000E+00 -0.93337823404E+03  0.93337823404E+03  0.00000000000E+00 0. -1.
   -9000010    2    1    2    0  502 -0.18122419117E+02 -0.14673689647E+03 -0.29475969731E+03  0.10513330465E+04  0.99827739469E+03 0.  0.
        -13    1    1    2    0    0  0.46472729913E+02  0.14961351238E+03 -0.23629863653E+03  0.28351538671E+03  0.10566000000E+00 0.  1.
         13    1    3    3    0    0 -0.47628324438E+03 -0.24383474933E+03 -0.21302608437E+03  0.57591773514E+03  0.10566000000E+00 0. -1.
          1    1    1    2  502    0 -0.28350310796E+02 -0.28766159090E+01  0.47739914755E+03  0.47824884853E+03  0.00000000000E+00 0.  1.
         -4    1    3    3    0  502  0.45816082526E+03  0.97097852861E+02 -0.81733612939E+02  0.47541531141E+03  0.00000000000E+00 0. -1.
</event>
<event>
 7    1  0.5696597E-006  0.1100062E+04  0.7818608E-02  0.8887245E-01
          2   -1    0    0  501    0  0.00000000000E+00  0.00000000000E+00  0.17341805528E+04  0.17341805528E+04  0.00000000000E+00 0.  1.
         -4   -1    0    0    0  501 -0.00000000000E+00 -0.00000000000E+00 -0.40369659175E+03  0.40369659175E+03  0.00000000000E+00 0. -1.
   -9000010    2    1    2    0  502  0.28675968148E+03 -0.35517819782E+03  0.83464063438E+03  0.13770696104E+04  0.99564705400E+03 0.  0.
        -13    1    1    2    0    0 -0.28278621848E+03  0.37815112705E+03  0.29103819053E+03  0.55467969113E+03  0.10566000000E+00 0.  1.
         13    1    3    3    0    0  0.49539874266E+03  0.12294310799E+02  0.81525984292E+03  0.95405434172E+03  0.10566000000E+00 0. -1.
          2    1    1    2  502    0 -0.39734629988E+01 -0.22972929225E+02  0.20480513614E+03  0.20612784304E+03  0.00000000000E+00 0.  1.
         -4    1    3    3    0  502 -0.20863906118E+03 -0.36747250862E+03  0.19380791458E+02  0.42301526866E+03  0.00000000000E+00 0. -1.
</event>
<event>
 7    1  0.5696597E-006  0.1044378E+04  0.7818608E-02  0.9022415E-01
         -4   -1    0    0    0  501 -0.00000000000E+00  0.00000000000E+00  0.67829955305E+03  0.67829955305E+03  0.00000000000E+00 0. -1.
          1   -1    0    0  501    0  0.00000000000E+00 -0.00000000000E+00 -0.86841019393E+03  0.86841019393E+03  0.00000000000E+00 0. -1.
   -9000010    2    1    2    0  502 -0.13439549842E+03  0.29021994960E+03 -0.47913796517E+02  0.10470698247E+04  0.99587635613E+03 0.  0.
        -13    1    1    2    0    0  0.17380318172E+03 -0.26149229730E+03  0.34931501981E+02  0.31592085800E+03  0.10566000000E+00 0.  1.
         13    1    3    3    0    0 -0.11027930239E+03 -0.26959598052E+03 -0.31267919046E+03  0.42733102457E+03  0.10566000000E+00 0. -1.
          1    1    1    2  502    0 -0.39407683308E+02 -0.28727652295E+02 -0.17712834634E+03  0.18371906430E+03  0.00000000000E+00 0. -1.
         -4    1    3    3    0  502 -0.24116196021E+02  0.55981593012E+03  0.26476539394E+03  0.61973880010E+03  0.00000000000E+00 0. -1.
</event>
<event>
 7    1  0.5696597E-006  0.1075344E+04  0.7818608E-02  0.8941061E-01
         -4   -1    0    0    0  501 -0.00000000000E+00  0.00000000000E+00  0.86486279944E+03  0.86486279944E+03  0.00000000000E+00 0. -1.
          4   -1    0    0  501    0  0.00000000000E+00 -0.00000000000E+00 -0.15426636635E+04  0.15426636635E+04  0.00000000000E+00 0.  1.
   -9000010    2    1    2    0  502 -0.46280365183E+03  0.20811865012E+03  0.28847343991E+03  0.11559538762E+04  0.99775339920E+03 0.  0.
        -13    1    1    2    0    0  0.32435630024E+03 -0.12271053016E+03 -0.87218379722E+02  0.35759186322E+03  0.10566000000E+00 0.  1.
         13    1    3    3    0    0 -0.21926567560E+02 -0.33703805158E+03 -0.10279490951E+03  0.35304706083E+03  0.10566000000E+00 0. -1.
          4    1    1    2  502    0  0.13844735159E+03 -0.85408119958E+02 -0.87905592425E+03  0.89398072355E+03  0.00000000000E+00 0.  1.
         -4    1    3    3    0  502 -0.44087708427E+03  0.54515670170E+03  0.39126834942E+03  0.80290681533E+03  0.00000000000E+00 0. -1.
</event>
<event>
 7    1  0.5696597E-006  0.1390416E+04  0.7818608E-02  0.8538318E-01
         -4   -1    0    0    0  501 -0.00000000000E+00  0.00000000000E+00  0.12905419950E+04  0.12905419950E+04  0.00000000000E+00 0. -1.
          1   -1    0    0  501    0  0.00000000000E+00 -0.00000000000E+00 -0.18875838198E+04  0.18875838198E+04  0.00000000000E+00 0.  1.
   -9000010    2    1    2    0  502  0.79645898718E+03 -0.59791069043E+03  0.44309862273E+03  0.14238239976E+04  0.91602089207E+03 0.  0.
        -13    1    1    2    0    0 -0.93573554258E+03  0.65706149759E+03 -0.60495845940E+03  0.12935631280E+04  0.10566000000E+00 0.  1.
         13    1    3    3    0    0  0.82161433089E+03 -0.79193517308E+03  0.45336786061E+03  0.12279062893E+04  0.10566000000E+00 0. -1.
          1    1    1    2  502    0  0.13927655541E+03 -0.59150807159E+02 -0.43518198815E+03  0.46073868915E+03  0.00000000000E+00 0.  1.
         -4    1    3    3    0  502 -0.25155343713E+02  0.19402448265E+03 -0.10269237883E+02  0.19591770831E+03  0.00000000000E+00 0. -1.
</event>
<event>
 7    1  0.5696597E-006  0.1060050E+04  0.7818608E-02  0.9069290E-01
          4   -1    0    0  501    0  0.00000000000E+00  0.00000000000E+00  0.31111871358E+04  0.31111871358E+04  0.00000000000E+00 0.  1.
          4   -1    0    0  502    0 -0.00000000000E+00 -0.00000000000E+00 -0.70160558763E+03  0.70160558763E+03  0.00000000000E+00 0.  1.
    9000010    2    1    2  501    0  0.28556334526E+02  0.40115902942E+01  0.41510723346E+03  0.11111626326E+04  0.10303090914E+04 0.  0.
        -13    1    3    3    0    0  0.21916074094E+03 -0.11810421014E+03 -0.28320628854E+03  0.37707538750E+03  0.10566000000E+00 0.  1.
         13    1    1    2    0    0 -0.25252664632E+03 -0.76390911890E+02 -0.29748226373E+03  0.39761914807E+03  0.10566000000E+00 0. -1.
          4    1    3    3  501    0 -0.19060440641E+03  0.12211580044E+03  0.69831352200E+03  0.73408724513E+03  0.00000000000E+00 0.  1.
          4    1    1    2  502    0  0.22397031179E+03  0.72379321595E+02  0.22919565785E+04  0.23040109427E+04  0.00000000000E+00 0.  1.
</event>
<event>
 7    1  0.5696597E-006  0.9843287E+03  0.7818608E-02  0.9492821E-01
          3   -1    0    0  501    0  0.00000000000E+00  0.00000000000E+00  0.22061861555E+03  0.22061861555E+03  0.00000000000E+00 0. -1.
         -4   -1    0    0    0  501 -0.00000000000E+00 -0.00000000000E+00 -0.18562248661E+04  0.18562248661E+04  0.00000000000E+00 0. -1.
   -9000010    2    1    2    0  502 -0.41467572282E+02  0.61415680694E+02 -0.15433827334E+04  0.18310026133E+04  0.98236900536E+03 0.  0.
        -13    1    1    2    0    0  0.28155699921E+02 -0.54821215636E+02 -0.16261357566E+03  0.17390024518E+03  0.10566000000E+00 0.  1.
         13    1    3    3    0    0 -0.50602162736E+03 -0.45764715044E+02 -0.81936983959E+03  0.96411578230E+03  0.10566000000E+00 0. -1.
          3    1    1    2  502    0  0.13311872360E+02 -0.65944650580E+01  0.70390058557E+02  0.71940623147E+02  0.00000000000E+00 0. -1.
         -4    1    3    3    0  502  0.46455405507E+03  0.10718039574E+03 -0.72401289381E+03  0.86688683098E+03  0.00000000000E+00 0. -1.
</event>
<event>
 7    1  0.5696597E-006  0.1008307E+04  0.7818608E-02  0.9444525E-01
          4   -1    0    0  501    0 -0.00000000000E+00  0.00000000000E+00  0.12849043252E+04  0.12849043252E+04  0.00000000000E+00 0.  1.
          2   -1    0    0  502    0  0.00000000000E+00 -0.00000000000E+00 -0.51070474642E+03  0.51070474642E+03  0.00000000000E+00 0. -1.
    9000010    2    1    2  502    0  0.77393277332E+01  0.67831601358E+02  0.90435272190E+03  0.13544185904E+04  0.10059497249E+04 0.  0.
        -13    1    3    3    0    0  0.45408700529E+03  0.31869892506E+02  0.75641197951E+03  0.88281922971E+03  0.10566000000E+00 0.  1.
         13    1    1    2    0    0  0.18597868237E+02 -0.66552670228E+02  0.14718617631E+03  0.16260049286E+03  0.10566000000E+00 0. -1.
          2    1    1    2  501    0 -0.26337195970E+02 -0.12789311294E+01 -0.27733931938E+03  0.27858998839E+03  0.00000000000E+00 0. -1.
          4    1    3    3  502    0 -0.44634767756E+03  0.35961708852E+02  0.14794074239E+03  0.47159936071E+03  0.00000000000E+00 0.  1.
</event>
<event>
 7    1  0.5696597E-006  0.1004830E+04  0.7818608E-02  0.9479297E-01
         -4   -1    0    0    0  501 -0.00000000000E+00  0.00000000000E+00  0.21910337658E+03  0.21910337658E+03  0.00000000000E+00 0. -1.
          2   -1    0    0  501    0  0.00000000000E+00 -0.00000000000E+00 -0.33468452772E+04  0.33468452772E+04  0.00000000000E+00 0. -1.
   -9000010    2    1    2    0  502  0.55547845928E+02 -0.32176133888E+02 -0.16397879702E+04  0.19232656147E+04  0.10029582099E+04 0.  0.
        -13    1    1    2    0    0 -0.60925781655E+02  0.69624721859E+01  0.65089059955E+02  0.89426079972E+02  0.10566000000E+00 0.  1.
         13    1    3    3    0    0  0.40739713743E+03  0.30685312466E+03 -0.72917852919E+03  0.88984976614E+03  0.10566000000E+00 0. -1.
          2    1    1    2  502    0  0.53779357276E+01  0.25213661702E+02 -0.15530429904E+04  0.15532569591E+04  0.00000000000E+00 0. -1.
         -4    1    3    3    0  502 -0.35184929150E+03 -0.33902925854E+03 -0.91060944101E+03  0.10334158486E+04  0.00000000000E+00 0. -1.
</event>
<event>
 7    1  0.5696597E-006  0.1021559E+04  0.7818608E-02  0.9153065E-01
          4   -1    0    0  501    0 -0.00000000000E+00  0.00000000000E+00  0.16879782630E+04  0.16879782630E+04  0.00000000000E+00 0.  1.
          2   -1    0    0  502    0  0.00000000000E+00 -0.00000000000E+00 -0.12706516992E+04  0.12706516992E+04  0.00000000000E+00 0. -1.
    9000010    2    1    2  502    0 -0.28511692468E+02 -0.18766985164E+03  0.12399138724E+04  0.16052891493E+04  0.10017654176E+04 0.  0.
        -13    1    3    3    0    0  0.43078491251E+03  0.60731908180E+02  0.29479290320E+03  0.52551581561E+03  0.10566000000E+00 0.  1.
         13    1    1    2    0    0  0.60668197160E+02  0.19340808252E+03  0.22637880675E+03  0.30386624005E+03  0.10566000000E+00 0. -1.
          2    1    1    2  501    0 -0.32156504692E+02 -0.57382308813E+01 -0.10489661154E+04  0.10494745730E+04  0.00000000000E+00 0. -1.
          4    1    3    3  502    0 -0.45929660498E+03 -0.24840175982E+03  0.94512096922E+03  0.10797733337E+04  0.00000000000E+00 0.  1.
</event>
<event>
 7    1  0.5696597E-006  0.1077777E+04  0.7818608E-02  0.8940179E-01
          4   -1    0    0  501    0 -0.00000000000E+00  0.00000000000E+00  0.18802525758E+04  0.18802525758E+04  0.00000000000E+00 0.  1.
          2   -1    0    0  502    0  0.00000000000E+00 -0.00000000000E+00 -0.11383247245E+04  0.11383247245E+04  0.00000000000E+00 0.  1.
    9000010    2    1    2  502    0 -0.11516617742E+02  0.39604769407E+03  0.13866925872E+04  0.17554680974E+04  0.10008823613E+04 0.  0.
        -13    1    3    3    0    0  0.35205700150E+02  0.31560636385E+03 -0.45017647032E+02  0.32073886253E+03  0.10566000000E+00 0.  1.
         13    1    1    2    0    0 -0.31415112972E+01 -0.40244282269E+03  0.17809084109E+03  0.44009823161E+03  0.10566000000E+00 0. -1.
          2    1    1    2  501    0  0.14658129040E+02  0.63951286186E+01 -0.82285557694E+03  0.82301097133E+03  0.00000000000E+00 0.  1.
          4    1    3    3  502    0 -0.46722317892E+02  0.80441330214E+02  0.14317102342E+04  0.14347292349E+04  0.00000000000E+00 0.  1.
</event>
<event>
 7    1  0.5696597E-006  0.1272551E+04  0.7818608E-02  0.8719543E-01
          2   -1    0    0  502    0  0.00000000000E+00  0.00000000000E+00  0.30454501838E+04  0.30454501838E+04  0.00000000000E+00 0. -1.
          4   -1    0    0  501    0 -0.00000000000E+00 -0.00000000000E+00 -0.26664543813E+04  0.26664543813E+04  0.00000000000E+00 0.  1.
    9000010    2    1    2  502    0  0.90085128517E+03  0.29523519700E+03 -0.10205851323E+04  0.17210114936E+04  0.10107372008E+04 0.  0.
        -13    1    3    3    0    0 -0.13630746191E+03  0.26113728304E+03 -0.44696717684E+03  0.53530558852E+03  0.10566000000E+00 0.  1.
         13    1    1    2    0    0 -0.18283106693E+03 -0.58645161830E+03 -0.11621685699E+04  0.13145297622E+04  0.10566000000E+00 0. -1.
          2    1    1    2  501    0 -0.71802021824E+03  0.29121642130E+03  0.25617495048E+04  0.26763633093E+04  0.00000000000E+00 0. -1.
          4    1    3    3  502    0  0.10371587471E+04  0.34097913952E+02 -0.57361795550E+03  0.11857059050E+04  0.00000000000E+00 0.  1.
</event>
<event>
 7    1  0.5696597E-006  0.8015476E+03  0.7818608E-02  0.9611967E-01
          2   -1    0    0  501    0  0.00000000000E+00  0.00000000000E+00  0.60506602917E+03  0.60506602917E+03  0.00000000000E+00 0. -1.
         -4   -1    0    0    0  501 -0.00000000000E+00 -0.00000000000E+00 -0.17741349172E+04  0.17741349172E+04  0.00000000000E+00 0. -1.
   -9000010    2    1    2    0  502 -0.22628545479E+03  0.59092975577E+02 -0.14160459771E+04  0.16352661352E+04  0.78371680896E+03 0.  0.
        -13    1    1    2    0    0  0.59267773556E+02 -0.45843860837E+02 -0.22814684180E+03  0.24013604716E+03  0.10566000000E+00 0.  1.
         13    1    3    3    0    0 -0.23609904743E+03 -0.16276818171E+03 -0.13809754776E+04  0.14104359334E+04  0.10566000000E+00 0. -1.
          2    1    1    2  502    0  0.16701768124E+03 -0.13249114740E+02  0.47512393093E+03  0.50379876402E+03  0.00000000000E+00 0. -1.
         -4    1    3    3    0  502  0.98135926321E+01  0.22186115729E+03 -0.35070499537E+02  0.22483020182E+03  0.00000000000E+00 0. -1.
</event>
<event>
 7    1  0.5696597E-006  0.1208198E+04  0.7818608E-02  0.8732036E-01
          2   -1    0    0  501    0  0.00000000000E+00  0.00000000000E+00  0.25832738091E+04  0.25832738091E+04  0.00000000000E+00 0.  1.
         -4   -1    0    0    0  501 -0.00000000000E+00 -0.00000000000E+00 -0.47087275730E+03  0.47087275730E+03  0.00000000000E+00 0. -1.
   -9000010    2    1    2    0  502  0.37758989931E+03 -0.56520407067E+03  0.10026581970E+04  0.15698477036E+04  0.99853321371E+03 0.  0.
        -13    1    1    2    0    0 -0.36878008999E+03  0.57185891119E+03  0.43100875543E+03  0.80547497012E+03  0.10566000000E+00 0.  1.
         13    1    3    3    0    0  0.52994758445E+03 -0.73984002354E+03  0.55550712689E+03  0.10662063036E+04  0.10566000000E+00 0. -1.
          2    1    1    2  502    0 -0.88098093151E+01 -0.66548405136E+01  0.67873409935E+03  0.67882389267E+03  0.00000000000E+00 0.  1.
         -4    1    3    3    0  502 -0.15235768514E+03  0.17463595287E+03  0.44715107011E+03  0.50364139996E+03  0.00000000000E+00 0. -1.
</event>
<event>
 7    1  0.5696597E-006  0.1061835E+04  0.7818608E-02  0.8980870E-01
          4   -1    0    0  501    0 -0.00000000000E+00  0.00000000000E+00  0.48075573946E+03  0.48075573946E+03  0.00000000000E+00 0.  1.
          2   -1    0    0  502    0  0.00000000000E+00 -0.00000000000E+00 -0.10890622868E+04  0.10890622868E+04  0.00000000000E+00 0.  1.
    9000010    2    1    2  502    0 -0.34271856989E+03  0.77573463943E+02 -0.38983275926E+03  0.11302937833E+04  0.10010598363E+04 0.  0.
        -13    1    3    3    0    0  0.93285002748E+02  0.53320293460E+02  0.29731330628E+03  0.31613345075E+03  0.10566000000E+00 0.  1.
         13    1    1    2    0    0  0.34033181777E+03 -0.10233419820E+03 -0.19522637424E+03  0.40547673505E+03  0.10566000000E+00 0. -1.
          2    1    1    2  501    0  0.23867521229E+01  0.24760734257E+02 -0.23247413832E+02  0.34047507934E+02  0.00000000000E+00 0.  1.
          4    1    3    3  502    0 -0.43600357264E+03  0.24253170483E+02 -0.68714606554E+03  0.81416033250E+03  0.00000000000E+00 0.  1.
</event>
<event>
 6    1  0.5696597E-006  0.1550466E+04  0.7818608E-02  0.8595328E-01
          2   -1    0    0  501    0  0.00000000000E+00  0.00000000000E+00  0.18787472977E+04  0.18787472977E+04  0.00000000000E+00 0.  1.
         -4   -1    0    0    0  501 -0.00000000000E+00 -0.00000000000E+00 -0.80076263901E+03  0.80076263901E+03  0.00000000000E+00 0. -1.
        -13    1    1    2    0    0  0.58149168937E+03 -0.56651134469E+02  0.70584297456E+02  0.58849306712E+03  0.10566000000E+00 0.  1.
         13    1    1    2    0    0 -0.64436886703E+03 -0.11657967037E+03  0.10052638606E+04  0.11997322605E+04  0.10566000000E+00 0. -1.
          2    1    1    2  502    0  0.62481976845E+01  0.45989713680E+02  0.43453665105E+03  0.43700823201E+03  0.00000000000E+00 0.  1.
         -4    1    1    2    0  502  0.56628979980E+02  0.12724109115E+03 -0.43240015043E+03  0.45427637705E+03  0.00000000000E+00 0. -1.
</event>
<event>
 7    1  0.5696597E-006  0.1034982E+04  0.7818608E-02  0.9101133E-01
          2   -1    0    0  501    0  0.00000000000E+00  0.00000000000E+00  0.94960384808E+03  0.94960384808E+03  0.00000000000E+00 0. -1.
         -4   -1    0    0    0  501 -0.00000000000E+00 -0.00000000000E+00 -0.70305509368E+03  0.70305509368E+03  0.00000000000E+00 0. -1.
   -9000010    2    1    2    0  502 -0.17023238705E+02 -0.93447010742E+02  0.11394961885E+03  0.10185590431E+04  0.10076983052E+04 0.  0.
        -13    1    1    2    0    0  0.69924316702E+02  0.24365978085E+03 -0.16085083248E+03  0.30022075269E+03  0.10566000000E+00 0.  1.
         13    1    3    3    0    0 -0.37187356112E+03 -0.25243567822E+03 -0.22508590477E+03  0.50267026249E+03  0.10566000000E+00 0. -1.
          2    1    1    2  502    0 -0.52901077998E+02 -0.15021277011E+03  0.29344996804E+03  0.33387914595E+03  0.00000000000E+00 0. -1.
         -4    1    3    3    0  502  0.35485032242E+03  0.15898866748E+03  0.33903552362E+03  0.51588878063E+03  0.00000000000E+00 0. -1.
</event>
<event>
 7    1  0.5696597E-006  0.1125112E+04  0.7818608E-02  0.8846640E-01
          1   -1    0    0  501    0  0.00000000000E+00  0.00000000000E+00  0.86945666653E+03  0.86945666653E+03  0.00000000000E+00 0.  1.
         -4   -1    0    0    0  501 -0.00000000000E+00 -0.00000000000E+00 -0.27692464157E+04  0.27692464157E+04  0.00000000000E+00 0. -1.
   -9000010    2    1    2    0  502 -0.28240516723E+03  0.42444765851E+03 -0.12615413465E+04  0.16879086651E+04  0.99881960319E+03 0.  0.
        -13    1    1    2    0    0  0.30279072568E+03 -0.42270037338E+03 -0.12421292359E+04  0.13465670719E+04  0.10566000000E+00 0.  1.
         13    1    3    3    0    0  0.23766670534E+03 -0.19000379496E+03 -0.24142840533E+03  0.38842578569E+03  0.10566000000E+00 0. -1.
          1    1    1    2  502    0 -0.20385558449E+02 -0.17472851274E+01  0.60388083319E+03  0.60422734521E+03  0.00000000000E+00 0.  1.
         -4    1    3    3    0  502 -0.52007187257E+03  0.61445145347E+03 -0.10201129411E+04  0.12994828794E+04  0.00000000000E+00 0. -1.
</event>
<event>
 7    1  0.5696597E-006  0.1258569E+04  0.7818608E-02  0.8685097E-01
          2   -1    0    0  501    0  0.00000000000E+00  0.00000000000E+00  0.10746020976E+04  0.10746020976E+04  0.00000000000E+00 0. -1.
         -4   -1    0    0    0  501 -0.00000000000E+00 -0.00000000000E+00 -0.19395833231E+04  0.19395833231E+04  0.00000000000E+00 0. -1.
   -9000010    2    1    2    0  502 -0.23802309391E+03  0.72692314216E+03 -0.85070863821E+03  0.15328111099E+04  0.10201629593E+04 0.  0.
        -13    1    1    2    0    0  0.19405776496E+03 -0.69650115867E+03 -0.57147974913E+03  0.92160804847E+03  0.10566000000E+00 0.  1.
         13    1    3    3    0    0 -0.13736284115E+03  0.67770131197E+02  0.22202288069E+03  0.26973229603E+03  0.10566000000E+00 0. -1.
          2    1    1    2  502    0  0.43965328948E+02 -0.30421983488E+02  0.55720716181E+03  0.55976626229E+03  0.00000000000E+00 0. -1.
         -4    1    3    3    0  502 -0.10066025277E+03  0.65915301096E+03 -0.10727315189E+04  0.12630788138E+04  0.00000000000E+00 0. -1.
</event>
<event>
 7    1  0.6616273E-006  0.1167218E+04  0.7818608E-02  0.8875146E-01
          1   -1    0    0  501    0  0.00000000000E+00  0.00000000000E+00  0.86880506839E+03  0.86880506839E+03  0.00000000000E+00 0. -1.
         -4   -1    0    0    0  501 -0.00000000000E+00 -0.00000000000E+00 -0.13086490998E+04  0.13086490998E+04  0.00000000000E+00 0. -1.
   -9000010    2    1    2    0  502  0.15649217243E+03  0.42375223662E+03 -0.77324758555E+03  0.14123689688E+04  0.10921623128E+04 0.  0.
        -13    1    1    2    0    0 -0.13066774016E+03 -0.36701108295E+03 -0.35275929273E+02  0.39117207937E+03  0.10566000000E+00 0.  1.
         13    1    3    3    0    0  0.60337708989E+02  0.41473482647E+03 -0.10439610564E+04  0.11249445826E+04  0.10566000000E+00 0. -1.
          1    1    1    2  502    0 -0.25824432267E+02 -0.56741153669E+02  0.36867948341E+03  0.37391312000E+03  0.00000000000E+00 0. -1.
         -4    1    3    3    0  502  0.96154463443E+02  0.90174101514E+01  0.27071347084E+03  0.28742438627E+03  0.00000000000E+00 0. -1.
</event>
<event>
 7    1  0.5696597E-006  0.1048839E+04  0.7818608E-02  0.9063861E-01
         -4   -1    0    0    0  501 -0.00000000000E+00  0.00000000000E+00  0.19577582025E+04  0.19577582025E+04  0.00000000000E+00 0. -1.
          2   -1    0    0  501    0  0.00000000000E+00 -0.00000000000E+00 -0.33331274686E+03  0.33331274686E+03  0.00000000000E+00 0.  1.
   -9000010    2    1    2    0  502  0.27129511760E+03 -0.27364272339E+02  0.12642932584E+04  0.16442789065E+04  0.10153156332E+04 0.  0.
        -13    1    1    2    0    0 -0.26077795977E+03  0.17397276625E+02  0.46904146996E+03  0.53694294040E+03  0.10566000000E+00 0.  1.
         13    1    3    3    0    0 -0.28263495608E+03 -0.31824570339E+03  0.51194045212E+03  0.66576713933E+03  0.10566000000E+00 0. -1.
          2    1    1    2  502    0 -0.10517157826E+02  0.99669957140E+01 -0.10888927266E+03  0.10984910247E+03  0.00000000000E+00 0.  1.
         -4    1    3    3    0  502  0.55393007368E+03  0.29088143105E+03  0.75235280623E+03  0.97851176717E+03  0.00000000000E+00 0. -1.
</event>
<event>
 7    1  0.5696597E-006  0.1024001E+04  0.7818608E-02  0.8986629E-01
          4   -1    0    0  501    0 -0.00000000000E+00  0.00000000000E+00  0.42753675466E+03  0.42753675466E+03  0.00000000000E+00 0.  1.
          2   -1    0    0  502    0  0.00000000000E+00 -0.00000000000E+00 -0.23864411676E+04  0.23864411676E+04  0.00000000000E+00 0.  1.
    9000010    2    1    2  502    0  0.40093681493E+03 -0.19357792209E+03 -0.49359565069E+03  0.11583177012E+04  0.94859922467E+03 0.  0.
        -13    1    3    3    0    0  0.32103150334E+03  0.33595208643E+03 -0.40319467936E+03  0.61521621495E+03  0.10566000000E+00 0.  1.
         13    1    1    2    0    0 -0.16546924775E+03  0.34886872163E+03 -0.40953558700E+03  0.56285776628E+03  0.10566000000E+00 0. -1.
          2    1    1    2  501    0 -0.23546756717E+03 -0.15529079954E+03 -0.10557731753E+04  0.10928024548E+04  0.00000000000E+00 0.  1.
          4    1    3    3  502    0  0.79905311586E+02 -0.52953000852E+03 -0.90400971329E+02  0.54310148624E+03  0.00000000000E+00 0.  1.
</event>
<event>
 7    1  0.5696597E-006  0.7512062E+03  0.7818608E-02  0.9825308E-01
          2   -1    0    0  502    0  0.00000000000E+00  0.00000000000E+00  0.11068410763E+03  0.11068410763E+03  0.00000000000E+00 0.  1.
          4   -1    0    0  501    0 -0.00000000000E+00 -0.00000000000E+00 -0.16390514894E+04  0.16390514894E+04  0.00000000000E+00 0.  1.
    9000010    2    1    2  502    0 -0.25770464262E+02  0.46129194593E+02 -0.12291268650E+04  0.14408231308E+04  0.74995094819E+03 0.  0.
        -13    1    3    3    0    0  0.15638758358E+02  0.33844624041E+03 -0.10310690851E+04  0.10853082040E+04  0.10566000000E+00 0.  1.
         13    1    1    2    0    0  0.36781665077E+02 -0.22952406522E+02 -0.24623503498E+03  0.25002281389E+03  0.10566000000E+00 0. -1.
          2    1    1    2  501    0 -0.11011200815E+02 -0.23176788071E+02 -0.53005481837E+02  0.58889652346E+02  0.00000000000E+00 0.  1.
          4    1    3    3  502    0 -0.41409222620E+02 -0.29231704582E+03 -0.19805777994E+03  0.35551492681E+03  0.00000000000E+00 0.  1.
</event>
<event>
 7    1  0.5696597E-006  0.1129039E+04  0.7818608E-02  0.8833395E-01
          4   -1    0    0  501    0  0.00000000000E+00  0.00000000000E+00  0.97408341550E+03  0.97408341550E+03  0.00000000000E+00 0. -1.
         -4   -1    0    0    0  501 -0.00000000000E+00 -0.00000000000E+00 -0.11840993470E+04  0.11840993470E+04  0.00000000000E+00 0.  1.
   -9000010    2    1    2    0  502 -0.39451105910E+03  0.18390102779E+02 -0.43019194948E+02  0.10672336922E+04  0.99053517400E+03 0.  0.
        -13    1    1    2    0    0  0.57354511654E+03  0.12589647782E+03 -0.44018607656E+03  0.73387173061E+03  0.10566000000E+00 0.  1.
         13    1    3    3    0    0 -0.72103515557E+03  0.87353170120E+02  0.24604794176E+02  0.72672393586E+03  0.10566000000E+00 0. -1.
          4    1    1    2  502    0 -0.17903405745E+03 -0.14428658059E+03  0.27318933999E+03  0.35707733973E+03  0.00000000000E+00 0.  1.
         -4    1    3    3    0  502  0.32652409647E+03 -0.68963067342E+02 -0.67623989124E+02  0.34050975630E+03  0.00000000000E+00 0. -1.
</event>
<event>
 7    1  0.5696597E-006  0.1087274E+04  0.7818608E-02  0.8923316E-01
          2   -1    0    0  501    0  0.00000000000E+00  0.00000000000E+00  0.52047306034E+04  0.52047306034E+04  0.00000000000E+00 0. -1.
         -4   -1    0    0    0  501 -0.00000000000E+00 -0.00000000000E+00 -0.15941069505E+04  0.15941069505E+04  0.00000000000E+00 0. -1.
   -9000010    2    1    2    0  502 -0.33228092721E+02 -0.44424794413E+03 -0.53164216998E+03  0.12202785538E+04  0.10039800844E+04 0.  0.
        -13    1    1    2    0    0  0.14276461885E+03  0.38961635065E+03 -0.65736116168E+03  0.77737143319E+03  0.10566000000E+00 0.  1.
         13    1    3    3    0    0  0.22130108726E+03  0.81565028939E+02 -0.58785296698E+03  0.63340204225E+03  0.10566000000E+00 0. -1.
          2    1    1    2  502    0 -0.10953652613E+03  0.54631593477E+02  0.47996269846E+04  0.48011875669E+04  0.00000000000E+00 0. -1.
         -4    1    3    3    0  502 -0.25452917998E+03 -0.52581297306E+03  0.56210797001E+02  0.58687651154E+03  0.00000000000E+00 0. -1.
</event>
<event>
 7    1  0.5696597E-006  0.1040803E+04  0.7818608E-02  0.9325794E-01
         -4   -1    0    0    0  501 -0.00000000000E+00  0.00000000000E+00  0.94633874793E+03  0.94633874793E+03  0.00000000000E+00 0. -1.
          2   -1    0    0  501    0  0.00000000000E+00 -0.00000000000E+00 -0.60223564606E+03  0.60223564606E+03  0.00000000000E+00 0. -1.
   -9000010    2    1    2    0  502  0.80370638477E+02 -0.88774519520E+02  0.57824357407E+03  0.11926764628E+04  0.10362292985E+04 0.  0.
        -13    1    1    2    0    0 -0.38316474351E+02  0.87308538158E+02  0.20732608796E+02  0.97574511392E+02  0.10566000000E+00 0.  1.
         13    1    3    3    0    0 -0.30077240455E+03 -0.39598646120E+03  0.48444656354E+03  0.69423180631E+03  0.10566000000E+00 0. -1.
          2    1    1    2  502    0 -0.42054164127E+02  0.14659813621E+01 -0.25487308100E+03  0.25832341984E+03  0.00000000000E+00 0. -1.
         -4    1    3    3    0  502  0.38114304303E+03  0.30721194168E+03  0.93797010529E+02  0.49844465645E+03  0.00000000000E+00 0. -1.
</event>
<event>
 7    1  0.5696597E-006  0.1050542E+04  0.7818608E-02  0.8999463E-01
          1   -1    0    0  501    0  0.00000000000E+00  0.00000000000E+00  0.43133241988E+03  0.43133241988E+03  0.00000000000E+00 0. -1.
         -4   -1    0    0    0  501 -0.00000000000E+00 -0.00000000000E+00 -0.19768825809E+04  0.19768825809E+04  0.00000000000E+00 0. -1.
   -9000010    2    1    2    0  502  0.57765615531E+01 -0.35024938669E+03 -0.93045033116E+03  0.14061006466E+04  0.99432047553E+03 0.  0.
        -13    1    1    2    0    0  0.16122540415E+02  0.33710905815E+03 -0.77231610456E+03  0.84283724996E+03  0.10566000000E+00 0.  1.
         13    1    3    3    0    0 -0.28943975641E+03 -0.32107009543E+03 -0.10102944803E+04  0.10988886781E+04  0.10566000000E+00 0. -1.
          1    1    1    2  502    0 -0.21899101968E+02  0.13140328541E+02  0.15721627470E+03  0.15927710423E+03  0.00000000000E+00 0. -1.
         -4    1    3    3    0  502  0.29521631797E+03 -0.29179291265E+02  0.79844149142E+02  0.30721196849E+03  0.00000000000E+00 0. -1.
</event>
<event>
 7    1  0.5696597E-006  0.9838525E+03  0.7818608E-02  0.9261555E-01
          4   -1    0    0  501    0 -0.00000000000E+00  0.00000000000E+00  0.13321246115E+04  0.13321246115E+04  0.00000000000E+00 0.  1.
          2   -1    0    0  502    0  0.00000000000E+00 -0.00000000000E+00 -0.21867007253E+04  0.21867007253E+04  0.00000000000E+00 0. -1.
    9000010    2    1    2  502    0 -0.13727812869E+02 -0.15748000985E+03  0.10623656949E+04  0.14491006830E+04  0.97277104878E+03 0.  0.
        -13    1    3    3    0    0 -0.14925010215E+03 -0.24689785630E+03  0.12012693089E+04  0.12354279048E+04  0.10566000000E+00 0.  1.
         13    1    1    2    0    0  0.61858785811E+02  0.13208385911E+03  0.60365653080E+01  0.14597639022E+03  0.10566000000E+00 0. -1.
          2    1    1    2  501    0 -0.48130972942E+02  0.25396150745E+02 -0.19229783740E+04  0.19237482636E+04  0.00000000000E+00 0. -1.
          4    1    3    3  502    0  0.13552228928E+03  0.89417846452E+02 -0.13890361396E+03  0.21367277816E+03  0.00000000000E+00 0.  1.
</event>
<event>
 7    1  0.5696597E-006  0.8955571E+03  0.7818608E-02  0.9268745E-01
         -4   -1    0    0    0  501 -0.00000000000E+00  0.00000000000E+00  0.21361491479E+04  0.21361491479E+04  0.00000000000E+00 0. -1.
          2   -1    0    0  501    0  0.00000000000E+00 -0.00000000000E+00 -0.83274202323E+03  0.83274202323E+03  0.00000000000E+00 0.  1.
   -9000010    2    1    2    0  502 -0.18470958264E+03 -0.11950070760E+02  0.16069992023E+04  0.18391979121E+04  0.87518117528E+03 0.  0.
        -13    1    1    2    0    0  0.18478838340E+03  0.50164420882E+02  0.39030605286E+03  0.43474365070E+03  0.10566000000E+00 0.  1.
         13    1    3    3    0    0  0.11832104598E+02 -0.34772996762E+03  0.12936849947E+04  0.13396555549E+04  0.10566000000E+00 0. -1.
          2    1    1    2  502    0 -0.78800764412E-01 -0.38214350122E+02 -0.69389813043E+03  0.69494960837E+03  0.00000000000E+00 0.  1.
         -4    1    3    3    0  502 -0.19654168724E+03  0.33577989686E+03  0.31331420758E+03  0.49954235719E+03  0.00000000000E+00 0. -1.
</event>
<event>
 7    1  0.5696597E-006  0.1158720E+04  0.7818608E-02  0.8818971E-01
          4   -1    0    0  501    0 -0.00000000000E+00  0.00000000000E+00  0.17006469936E+04  0.17006469936E+04  0.00000000000E+00 0.  1.
          2   -1    0    0  502    0  0.00000000000E+00 -0.00000000000E+00 -0.98804555666E+03  0.98804555666E+03  0.00000000000E+00 0. -1.
    9000010    2    1    2  502    0  0.24660384042E+03  0.47037760835E+03  0.82778559556E+03  0.14234649252E+04  0.10290553204E+04 0.  0.
        -13    1    3    3    0    0  0.55747846490E+02 -0.26128611550E+03 -0.42553480727E+02  0.27053477859E+03  0.10566000000E+00 0.  1.
         13    1    1    2    0    0 -0.35582396858E+03 -0.40332889233E+03  0.44033851435E+03  0.69511359531E+03  0.10566000000E+00 0. -1.
          2    1    1    2  501    0  0.10922012815E+03 -0.67048716016E+02 -0.55552267298E+03  0.57011402974E+03  0.00000000000E+00 0. -1.
          4    1    3    3  502    0  0.19085599393E+03  0.73166372385E+03  0.87033907628E+03  0.11529301466E+04  0.00000000000E+00 0.  1.
</event>
<event>
 7    1  0.5696597E-006  0.9956487E+03  0.7818608E-02  0.9293769E-01
          2   -1    0    0  502    0  0.00000000000E+00  0.00000000000E+00  0.72848179424E+03  0.72848179424E+03  0.00000000000E+00 0.  1.
          4   -1    0    0  501    0 -0.00000000000E+00 -0.00000000000E+00 -0.10634773500E+04  0.10634773500E+04  0.00000000000E+00 0.  1.
    9000010    2    1    2  502    0  0.13885527013E+02  0.10447354481E+03 -0.34106463962E+03  0.10502169579E+04  0.98768569944E+03 0.  0.
        -13    1    3    3    0    0  0.73521957377E+02  0.52353755229E+03 -0.38818856360E+02  0.53009806796E+03  0.10566000000E+00 0.  1.
         13    1    1    2    0    0 -0.71585114240E+02 -0.10446911240E+03 -0.35457451966E+03  0.37651205184E+03  0.10566000000E+00 0. -1.
          2    1    1    2  501    0  0.57699587227E+02 -0.44324082479E-02  0.36064360352E+03  0.36523013449E+03  0.00000000000E+00 0.  1.
          4    1    3    3  502    0 -0.59636430364E+02 -0.41906400748E+03 -0.30224578326E+03  0.52011888996E+03  0.00000000000E+00 0.  1.
</event>
<event>
 7    1  0.5696597E-006  0.1105337E+04  0.7818608E-02  0.8919305E-01
         -4   -1    0    0    0  501 -0.00000000000E+00  0.00000000000E+00  0.14437183560E+04  0.14437183560E+04  0.00000000000E+00 0. -1.
          2   -1    0    0  501    0  0.00000000000E+00 -0.00000000000E+00 -0.15322499403E+04  0.15322499403E+04  0.00000000000E+00 0.  1.
   -9000010    2    1    2    0  502  0.38449228187E+03 -0.14962569751E+03  0.95362494334E+03  0.14622924933E+04  0.10289201326E+04 0.  0.
        -13    1    1    2    0    0 -0.37791612960E+03  0.12570407041E+03  0.67318746410E+02  0.40392318467E+03  0.10566000000E+00 0.  1.
         13    1    3    3    0    0  0.42612389058E+03  0.37946949187E+03  0.57717005588E+03  0.81160578482E+03  0.10566000000E+00 0. -1.
          2    1    1    2  502    0 -0.65761522672E+01  0.23921627103E+02 -0.11094752741E+04  0.11097526184E+04  0.00000000000E+00 0.  1.
         -4    1    3    3    0  502 -0.41631608712E+02 -0.52909518938E+03  0.37645488746E+03  0.65068670846E+03  0.00000000000E+00 0. -1.
</event>
<event>
 7    1  0.5696597E-006  0.9228091E+03  0.7818608E-02  0.9255626E-01
          4   -1    0    0  501    0  0.00000000000E+00  0.00000000000E+00  0.66421026161E+03  0.66421026161E+03  0.00000000000E+00 0.  1.
         -4   -1    0    0    0  501 -0.00000000000E+00 -0.00000000000E+00 -0.19026912543E+04  0.19026912543E+04  0.00000000000E+00 0. -1.
   -9000010    2    1    2    0  502 -0.84355023469E+02 -0.13072254322E+03 -0.62039410192E+03  0.11078580697E+04  0.90457531894E+03 0.  0.
        -13    1    1    2    0    0  0.12617933769E+03  0.13326288658E+03 -0.10293850240E+04  0.10456164502E+04  0.10566000000E+00 0.  1.
         13    1    3    3    0    0 -0.12178134422E+03  0.34964590386E+03 -0.70787858725E+02  0.37695342683E+03  0.10566000000E+00 0. -1.
          4    1    1    2  502    0 -0.41824314220E+02 -0.25403433675E+01  0.41129813323E+03  0.41342699598E+03  0.00000000000E+00 0.  1.
         -4    1    3    3    0  502  0.37426320754E+02 -0.48036844708E+03 -0.54960624319E+03  0.73090464288E+03  0.00000000000E+00 0. -1.
</event>
<event>
 7    1  0.5696597E-006  0.1048239E+04  0.7818608E-02  0.9040081E-01
         -4   -1    0    0    0  501 -0.00000000000E+00  0.00000000000E+00  0.61086352928E+03  0.61086352928E+03  0.00000000000E+00 0. -1.
          2   -1    0    0  501    0  0.00000000000E+00 -0.00000000000E+00 -0.19747282839E+04  0.19747282839E+04  0.00000000000E+00 0. -1.
   -9000010    2    1    2    0  502  0.36900727708E+03  0.17507557935E+03 -0.17234679684E+03  0.11006117541E+04  0.10073852222E+04 0.  0.
        -13    1    1    2    0    0 -0.26721139067E+03 -0.31668506794E+02  0.11353305524E+02  0.26932086874E+03  0.10566000000E+00 0.  1.
         13    1    3    3    0    0  0.30701147841E+03  0.80530881022E+02  0.40372443689E+03  0.51355107125E+03  0.10566000000E+00 0. -1.
          2    1    1    2  502    0 -0.10179588641E+03 -0.14340707255E+03 -0.12028712633E+04  0.12156591903E+04  0.00000000000E+00 0. -1.
         -4    1    3    3    0  502  0.61995798673E+02  0.94544698326E+02 -0.57607123373E+03  0.58706068287E+03  0.00000000000E+00 0. -1.
</event>
<event>
 7    1  0.5696597E-006  0.1027035E+04  0.7818608E-02  0.9126311E-01
         -4   -1    0    0    0  501 -0.00000000000E+00  0.00000000000E+00  0.29781396633E+04  0.29781396633E+04  0.00000000000E+00 0. -1.
          2   -1    0    0  501    0  0.00000000000E+00 -0.00000000000E+00 -0.30271463067E+03  0.30271463067E+03  0.00000000000E+00 0. -1.
   -9000010    2    1    2    0  502  0.12252987652E+03  0.16840969632E+03  0.23068470364E+04  0.25242563064E+04  0.10034696083E+04 0.  0.
        -13    1    1    2    0    0 -0.15097279987E+03 -0.16154015100E+03  0.53957253826E+03  0.58311794853E+03  0.10566000000E+00 0.  1.
         13    1    3    3    0    0 -0.20375692108E+03  0.49087424135E+03  0.15570084207E+04  0.16452202397E+04  0.10566000000E+00 0. -1.
          2    1    1    2  502    0  0.28442923346E+02 -0.68695453132E+01 -0.17099454202E+03  0.17348003903E+03  0.00000000000E+00 0. -1.
         -4    1    3    3    0  502  0.32628679760E+03 -0.32246454503E+03  0.74983861569E+03  0.87903606676E+03  0.00000000000E+00 0. -1.
</event>
<event>
 7    1  0.5949710E-006  0.1234327E+04  0.7818608E-02  0.8842247E-01
         -4   -1    0    0    0  501 -0.00000000000E+00  0.00000000000E+00  0.18480884490E+04  0.18480884490E+04  0.00000000000E+00 0. -1.
          4   -1    0    0  501    0  0.00000000000E+00 -0.00000000000E+00 -0.11093886234E+04  0.11093886234E+04  0.00000000000E+00 0.  1.
   -9000010    2    1    2    0  502 -0.24424849535E+03 -0.33194357020E+03  0.11608184582E+04  0.15711950403E+04  0.97535147528E+03 0.  0.
        -13    1    1    2    0    0 -0.23257600642E+03 -0.32486080119E+03  0.11167383341E+03  0.41484598967E+03  0.10566000000E+00 0.  1.
         13    1    3    3    0    0 -0.49533237836E+03 -0.51749142753E+03  0.62314834668E+03  0.94945532583E+03  0.10566000000E+00 0. -1.
          4    1    1    2  502    0  0.47682450177E+03  0.65680437139E+03 -0.53379246603E+03  0.97143604244E+03  0.00000000000E+00 0.  1.
         -4    1    3    3    0  502  0.25108388301E+03  0.18554785733E+03  0.53767011153E+03  0.62173971443E+03  0.00000000000E+00 0. -1.
</event>
<event>
 7    1  0.5696597E-006  0.1006706E+04  0.7818608E-02  0.9134550E-01
          1   -1    0    0  501    0  0.00000000000E+00  0.00000000000E+00  0.15964933475E+04  0.15964933475E+04  0.00000000000E+00 0. -1.
         -4   -1    0    0    0  501 -0.00000000000E+00 -0.00000000000E+00 -0.48380545873E+03  0.48380545873E+03  0.00000000000E+00 0. -1.
   -9000010    2    1    2    0  502 -0.18181152022E+03 -0.10546242004E+03  0.39857657886E+03  0.10797846344E+04  0.98127153047E+03 0.  0.
        -13    1    1    2    0    0  0.17504698187E+03  0.14446736694E+03 -0.52439010977E+02  0.23294232550E+03  0.10566000000E+00 0.  1.
         13    1    3    3    0    0  0.36184197669E+02  0.97728651265E+02 -0.30145555284E+03  0.31896025919E+03  0.10566000000E+00 0. -1.
          1    1    1    2  502    0  0.67645383468E+01 -0.39004946899E+02  0.76655032087E+03  0.76757184634E+03  0.00000000000E+00 0. -1.
         -4    1    3    3    0  502 -0.21799571789E+03 -0.20319107131E+03  0.70003213170E+03  0.76082437520E+03  0.00000000000E+00 0. -1.
</event>
<event>
 7    1  0.5696597E-006  0.1140222E+04  0.7818608E-02  0.8821906E-01
          1   -1    0    0  501    0  0.00000000000E+00  0.00000000000E+00  0.45564612284E+03  0.45564612284E+03  0.00000000000E+00 0.  1.
         -4   -1    0    0    0  501 -0.00000000000E+00 -0.00000000000E+00 -0.27265290851E+04  0.27265290851E+04  0.00000000000E+00 0. -1.
   -9000010    2    1    2    0  502 -0.39789223588E+03 -0.40761601242E+03 -0.15313909210E+04  0.19144020221E+04  0.99765119363E+03 0.  0.
        -13    1    1    2    0    0  0.38396030582E+03  0.38720627364E+03 -0.92870033481E+03  0.10769580019E+04  0.10566000000E+00 0.  1.
         13    1    3    3    0    0 -0.26772607873E+03 -0.50771517958E+03 -0.16263868351E+04  0.17246988449E+04  0.10566000000E+00 0. -1.
          1    1    1    2  502    0  0.13931930065E+02  0.20409738772E+02  0.18920829353E+03  0.19081518402E+03  0.00000000000E+00 0.  1.
         -4    1    3    3    0  502 -0.13016615715E+03  0.10009916716E+03  0.94995914131E+02  0.18970317719E+03  0.00000000000E+00 0. -1.
</event>
<event>
 7    1  0.5696597E-006  0.1012295E+04  0.7818608E-02  0.9253294E-01
          4   -1    0    0  501    0 -0.00000000000E+00  0.00000000000E+00  0.34334138108E+04  0.34334138108E+04  0.00000000000E+00 0.  1.
          2   -1    0    0  502    0  0.00000000000E+00 -0.00000000000E+00 -0.31598404402E+03  0.31598404402E+03  0.00000000000E+00 0.  1.
    9000010    2    1    2  502    0  0.14548506434E+01  0.50410234004E+02  0.30184692386E+04  0.31810336924E+04  0.10026342800E+04 0.  0.
        -13    1    3    3    0    0  0.91855833067E+02  0.35712457940E+03  0.40360979153E+03  0.54669583340E+03  0.10566000000E+00 0.  1.
         13    1    1    2    0    0 -0.16308741585E+02 -0.16130743383E+03  0.29844718659E+03  0.33964216111E+03  0.10566000000E+00 0. -1.
          2    1    1    2  501    0  0.14853890942E+02  0.11089719982E+03 -0.19948665842E+03  0.22872200133E+03  0.00000000000E+00 0.  1.
          4    1    3    3  502    0 -0.90400982423E+02 -0.30671434539E+03  0.26148594470E+04  0.26343378590E+04  0.00000000000E+00 0.  1.
</event>
<event>
 7    1  0.5696597E-006  0.1085581E+04  0.7818608E-02  0.9251737E-01
          1   -1    0    0  501    0  0.00000000000E+00  0.00000000000E+00  0.70342768308E+03  0.70342768308E+03  0.00000000000E+00 0. -1.
         -4   -1    0    0    0  501 -0.00000000000E+00 -0.00000000000E+00 -0.11031341493E+04  0.11031341493E+04  0.00000000000E+00 0. -1.
   -9000010    2    1    2    0  502 -0.31091697918E+03 -0.34852593332E+02 -0.17148673515E+03  0.10708964336E+04  0.10097164948E+04 0.  0.
        -13    1    1    2    0    0 -0.10724071998E+03 -0.38097859169E+02 -0.28549763820E+03  0.30734497145E+03  0.10566000000E+00 0.  1.
         13    1    3    3    0    0 -0.28427611655E+03  0.12653769813E+03 -0.56484488803E+03  0.64488329036E+03  0.10566000000E+00 0. -1.
          1    1    1    2  502    0  0.41815769916E+03  0.72950452500E+02  0.57277907102E+02  0.42832042740E+03  0.00000000000E+00 0. -1.
         -4    1    3    3    0  502 -0.26640862631E+02 -0.16139029146E+03  0.39335815288E+03  0.42601314319E+03  0.00000000000E+00 0. -1.
</event>
<event>
 7    1  0.5696597E-006  0.1012125E+04  0.7818608E-02  0.9160990E-01
         -4   -1    0    0    0  501 -0.00000000000E+00  0.00000000000E+00  0.34900402986E+03  0.34900402986E+03  0.00000000000E+00 0. -1.
          2   -1    0    0  501    0  0.00000000000E+00 -0.00000000000E+00 -0.20776996522E+04  0.20776996522E+04  0.00000000000E+00 0. -1.
   -9000010    2    1    2    0  502 -0.82177424790E+02 -0.18400661238E+03 -0.16209481247E+04  0.19111994470E+04  0.99226959068E+03 0.  0.
        -13    1    1    2    0    0  0.36828946728E+02  0.19615822601E+03  0.15242291344E+03  0.25113179140E+03  0.10566000000E+00 0.  1.
         13    1    3    3    0    0 -0.35491430589E+03  0.12500217747E+03 -0.18893424945E+03  0.42105328722E+03  0.10566000000E+00 0. -1.
          2    1    1    2  502    0  0.45348478062E+02 -0.12151613631E+02 -0.26017041113E+03  0.26437244373E+03  0.00000000000E+00 0. -1.
         -4    1    3    3    0  502  0.27273688110E+03 -0.30900878985E+03 -0.14320138752E+04  0.14901461597E+04  0.00000000000E+00 0. -1.
</event>
<event>
 7    1  0.5696597E-006  0.1021096E+04  0.7818608E-02  0.9174614E-01
          2   -1    0    0  502    0  0.00000000000E+00  0.00000000000E+00  0.63643781960E+03  0.63643781960E+03  0.00000000000E+00 0.  1.
          4   -1    0    0  501    0 -0.00000000000E+00 -0.00000000000E+00 -0.17651358121E+04  0.17651358121E+04  0.00000000000E+00 0.  1.
    9000010    2    1    2  502    0  0.20017838577E+03  0.10247650065E+02 -0.63119727264E+03  0.12030314939E+04  0.10043397721E+04 0.  0.
        -13    1    3    3    0    0 -0.39118467883E+03 -0.29370463591E+02 -0.41778774116E+03  0.57309221327E+03  0.10566000000E+00 0.  1.
         13    1    1    2    0    0 -0.18339934842E+03 -0.97681651397E+01 -0.83786821600E+03  0.85776097871E+03  0.10566000000E+00 0. -1.
          2    1    1    2  501    0 -0.16779037348E+02 -0.47948492534E+00  0.34036749613E+03  0.34078115913E+03  0.00000000000E+00 0.  1.
          4    1    3    3  502    0  0.59136306460E+03  0.39618113656E+02 -0.21340953148E+03  0.62993928059E+03  0.00000000000E+00 0.  1.
</event>
<event>
 7    1  0.5696597E-006  0.1011454E+04  0.7818608E-02  0.9310108E-01
         -4   -1    0    0    0  501 -0.00000000000E+00  0.00000000000E+00  0.90973623296E+03  0.90973623296E+03  0.00000000000E+00 0. -1.
          1   -1    0    0  501    0  0.00000000000E+00 -0.00000000000E+00 -0.58501054075E+03  0.58501054075E+03  0.00000000000E+00 0. -1.
   -9000010    2    1    2    0  502 -0.43090721196E+02 -0.62730117827E+02  0.61342770592E+02  0.10098999603E+04  0.10051582544E+04 0.  0.
        -13    1    1    2    0    0  0.88383688047E+02  0.71060344308E+02  0.36020201464E+03  0.37763309093E+03  0.10566000000E+00 0.  1.
         13    1    3    3    0    0 -0.37806929545E+03 -0.14566054321E+03 -0.30461474114E+03  0.50689598311E+03  0.10566000000E+00 0. -1.
          1    1    1    2  502    0 -0.45292966851E+02 -0.83302264810E+01 -0.96819093026E+02  0.10721372251E+03  0.00000000000E+00 0. -1.
         -4    1    3    3    0  502  0.33497857425E+03  0.82930425386E+02  0.36595751173E+03  0.50300397717E+03  0.00000000000E+00 0. -1.
</event>
<event>
 7    1  0.5696597E-006  0.1002494E+04  0.7818608E-02  0.9332794E-01
         -4   -1    0    0    0  501 -0.00000000000E+00  0.00000000000E+00  0.25161397382E+03  0.25161397382E+03  0.00000000000E+00 0. -1.
          2   -1    0    0  501    0  0.00000000000E+00 -0.00000000000E+00 -0.23411444921E+04  0.23411444921E+04  0.00000000000E+00 0.  1.
   -9000010    2    1    2    0  502 -0.56255780016E+02 -0.10992953371E+03 -0.79101367783E+03  0.12785384224E+04  0.99684935866E+03 0.  0.
        -13    1    1    2    0    0  0.46367179722E+02  0.89449454210E+02 -0.32103729581E+03  0.33647596746E+03  0.10566000000E+00 0.  1.
         13    1    3    3    0    0 -0.17859140075E+03 -0.52190856206E+03 -0.57766245904E+03  0.79873485170E+03  0.10566000000E+00 0. -1.
          2    1    1    2  502    0  0.98886002946E+01  0.20480079503E+02 -0.97747954462E+03  0.97774407604E+03  0.00000000000E+00 0.  1.
         -4    1    3    3    0  502  0.12233562073E+03  0.41197902834E+03 -0.21335121879E+03  0.47980357070E+03  0.00000000000E+00 0. -1.
</event>
<event>
 7    1  0.5696597E-006  0.9986669E+03  0.7818608E-02  0.9228777E-01
          4   -1    0    0  501    0 -0.00000000000E+00  0.00000000000E+00  0.47657117823E+03  0.47657117823E+03  0.00000000000E+00 0.  1.
          2   -1    0    0  502    0  0.00000000000E+00 -0.00000000000E+00 -0.12024957175E+04  0.12024957175E+04  0.00000000000E+00 0.  1.
    9000010    2    1    2  502    0 -0.12057375168E+03 -0.85811902113E+02 -0.64989402031E+03  0.11900039536E+04  0.98582222531E+03 0.  0.
        -13    1    3    3    0    0  0.18886115461E+03  0.35659233362E+03 -0.47332383243E+03  0.62198238691E+03  0.10566000000E+00 0.  1.
         13    1    1    2    0    0  0.13536726496E+03  0.85405113475E+02  0.17525327223E+03  0.23734373896E+03  0.10566000000E+00 0. -1.
          2    1    1    2  501    0 -0.14793513285E+02  0.40678863829E+00 -0.25128379123E+03  0.25171920317E+03  0.00000000000E+00 0.  1.
          4    1    3    3  502    0 -0.30943490629E+03 -0.44240423573E+03 -0.17657018788E+03  0.56802156673E+03  0.00000000000E+00 0.  1.
</event>
<event>
 7    1  0.5696597E-006  0.1043837E+04  0.7818608E-02  0.8993469E-01
          2   -1    0    0  502    0  0.00000000000E+00  0.00000000000E+00  0.27479331697E+04  0.27479331697E+04  0.00000000000E+00 0.  1.
          4   -1    0    0  501    0 -0.00000000000E+00 -0.00000000000E+00 -0.36830948854E+03  0.36830948854E+03  0.00000000000E+00 0.  1.
    9000010    2    1    2  502    0  0.23369573666E+03  0.22068804010E+03  0.81904373897E+03  0.13184586235E+04  0.98192850405E+03 0.  0.
        -13    1    3    3    0    0  0.61318419800E+03  0.20344504036E+03  0.43887123635E+03  0.78102030600E+03  0.10566000000E+00 0.  1.
         13    1    1    2    0    0 -0.26072816406E+03 -0.25205657085E+03  0.15963291569E+03  0.39622514986E+03  0.10566000000E+00 0. -1.
          2    1    1    2  501    0  0.27032427401E+02  0.31368530751E+02  0.14009470265E+04  0.14015588850E+04  0.00000000000E+00 0.  1.
          4    1    3    3  502    0 -0.37948846134E+03  0.17242999741E+02  0.38017250262E+03  0.53743831746E+03  0.00000000000E+00 0.  1.
</event>
<event>
 7    1  0.5696597E-006  0.1104177E+04  0.7818608E-02  0.8872764E-01
          2   -1    0    0  501    0  0.00000000000E+00  0.00000000000E+00  0.11243307450E+04  0.11243307450E+04  0.00000000000E+00 0. -1.
         -4   -1    0    0    0  501 -0.00000000000E+00 -0.00000000000E+00 -0.14811872330E+04  0.14811872330E+04  0.00000000000E+00 0. -1.
   -9000010    2    1    2    0  502 -0.18944442421E+03 -0.43335610905E+03 -0.78400853704E+03  0.13476652525E+04  0.98886072807E+03 0.  0.
        -13    1    1    2    0    0  0.20335193650E+03  0.45801223078E+03 -0.26380111566E+03  0.56631992143E+03  0.10566000000E+00 0.  1.
         13    1    3    3    0    0 -0.32591177652E+03 -0.32567122758E+03  0.78878246923E+02  0.46744200020E+03  0.10566000000E+00 0. -1.
          2    1    1    2  502    0 -0.13907512287E+02 -0.24656121724E+02  0.69095316472E+03  0.69153280405E+03  0.00000000000E+00 0. -1.
         -4    1    3    3    0  502  0.13646735231E+03 -0.10768488147E+03 -0.86288678397E+03  0.88022325230E+03  0.00000000000E+00 0. -1.
</event>
<event>
 7    1  0.5696597E-006  0.1014630E+04  0.7818608E-02  0.9195253E-01
          1   -1    0    0  501    0  0.00000000000E+00  0.00000000000E+00  0.12461727761E+04  0.12461727761E+04  0.00000000000E+00 0. -1.
         -4   -1    0    0    0  501 -0.00000000000E+00 -0.00000000000E+00 -0.89158323303E+03  0.89158323303E+03  0.00000000000E+00 0. -1.
   -9000010    2    1    2    0  502 -0.11801900467E+03 -0.71216742920E+02 -0.34501431555E+03  0.10665264023E+04  0.99972165072E+03 0.  0.
        -13    1    1    2    0    0  0.17726393471E+03  0.23596252014E+02 -0.14067024641E+03  0.22752453724E+03  0.10566000000E+00 0.  1.
         13    1    3    3    0    0  0.21364965639E+03 -0.58820120824E+01 -0.60398608182E+03  0.64068710923E+03  0.10566000000E+00 0. -1.
          1    1    1    2  502    0 -0.59244930039E+02  0.47620490906E+02  0.84027410506E+03  0.84370506964E+03  0.00000000000E+00 0. -1.
         -4    1    3    3    0  502 -0.33166866107E+03 -0.65334730838E+02  0.25897176627E+03  0.42583929306E+03  0.00000000000E+00 0. -1.
</event>
<event>
 7    1  0.5696597E-006  0.1021891E+04  0.7818608E-02  0.9105975E-01
         -4   -1    0    0    0  501 -0.00000000000E+00  0.00000000000E+00  0.21340559435E+04  0.21340559435E+04  0.00000000000E+00 0. -1.
          2   -1    0    0  501    0  0.00000000000E+00 -0.00000000000E+00 -0.62898314547E+03  0.62898314547E+03  0.00000000000E+00 0. -1.
   -9000010    2    1    2    0  502  0.24270412489E+03 -0.77570415722E+00  0.17102465095E+04  0.19925398433E+04  0.99315960937E+03 0.  0.
        -13    1    1    2    0    0 -0.23973904088E+03 -0.91604981587E+01  0.23168256172E+03  0.33351992896E+03  0.10566000000E+00 0.  1.
         13    1    3    3    0    0  0.22194987857E+03 -0.44650135045E+03  0.51552004848E+03  0.71720717795E+03  0.10566000000E+00 0. -1.
          2    1    1    2  502    0 -0.29650840086E+01  0.99362023159E+01 -0.43685627320E+03  0.43697931675E+03  0.00000000000E+00 0. -1.
         -4    1    3    3    0  502  0.20754246321E+02  0.44572564629E+03  0.11947264610E+04  0.12753326653E+04  0.00000000000E+00 0. -1.
</event>
<event>
 7    1  0.5696597E-006  0.1454201E+04  0.7818608E-02  0.8678339E-01
         -4   -1    0    0    0  501 -0.00000000000E+00  0.00000000000E+00  0.46563352709E+04  0.46563352709E+04  0.00000000000E+00 0. -1.
          2   -1    0    0  501    0  0.00000000000E+00 -0.00000000000E+00 -0.24642207351E+04  0.24642207351E+04  0.00000000000E+00 0.  1.
   -9000010    2    1    2    0  502  0.15408457743E+03 -0.93178571992E+03  0.25690204295E+04  0.29097704086E+04  0.98738603340E+03 0.  0.
        -13    1    1    2    0    0 -0.48282139783E+03 -0.94949566464E+02  0.17545237851E+04  0.18222199774E+04  0.10566000000E+00 0.  1.
         13    1    3    3    0    0  0.52750240466E+03 -0.31204086709E+03  0.14845023097E+04  0.16060434017E+04  0.10566000000E+00 0. -1.
          2    1    1    2  502    0  0.32873682041E+03  0.10267352864E+04 -0.21314296788E+04  0.23885656200E+04  0.00000000000E+00 0.  1.
         -4    1    3    3    0  502 -0.37341782723E+03 -0.61974485283E+03  0.10845181198E+04  0.13037270069E+04  0.00000000000E+00 0. -1.
</event>
<event>
 7    1  0.5696597E-006  0.1017784E+04  0.7818608E-02  0.9358054E-01
          4   -1    0    0  501    0 -0.00000000000E+00  0.00000000000E+00  0.12137566659E+04  0.12137566659E+04  0.00000000000E+00 0.  1.
          2   -1    0    0  502    0  0.00000000000E+00 -0.00000000000E+00 -0.66178878294E+03  0.66178878294E+03  0.00000000000E+00 0.  1.
    9000010    2    1    2  502    0 -0.23230978840E+03  0.18535226879E+03  0.55672000072E+03  0.11778698963E+04  0.99454363011E+03 0.  0.
        -13    1    3    3    0    0 -0.31290050149E+03 -0.36405163272E+03  0.30036111017E+03  0.56626594705E+03  0.10566000000E+00 0.  1.
         13    1    1    2    0    0  0.87860387885E+02 -0.28405851712E+02  0.30663540348E+03  0.32023682175E+03  0.10566000000E+00 0. -1.
          2    1    1    2  501    0  0.14444940052E+03 -0.15694641708E+03 -0.31138752119E+03  0.37743873079E+03  0.00000000000E+00 0.  1.
          4    1    3    3  502    0  0.80590713084E+02  0.54940390151E+03  0.25635889055E+03  0.61160394930E+03  0.00000000000E+00 0.  1.
</event>
<event>
 7    1  0.5696597E-006  0.9924210E+03  0.7818608E-02  0.9342198E-01
         -2   -1    0    0    0  501  0.00000000000E+00  0.00000000000E+00  0.17997228892E+04  0.17997228892E+04  0.00000000000E+00 0.  1.
         -4   -1    0    0    0  502 -0.00000000000E+00 -0.00000000000E+00 -0.18370241211E+04  0.18370241211E+04  0.00000000000E+00 0. -1.
   -9000010    2    1    2    0  501  0.11180616733E+03  0.85908995655E+01 -0.14843620909E+04  0.17859542061E+04  0.98677615844E+03 0.  0.
        -13    1    1    2    0    0 -0.10438948942E+03  0.13942288844E+02 -0.18803778028E+03  0.21552208911E+03  0.10566000000E+00 0.  1.
         13    1    3    3    0    0  0.45837274453E+03 -0.28056316454E+03 -0.88943550430E+03  0.10391904492E+04  0.10566000000E+00 0. -1.
         -2    1    1    2    0  502 -0.74166779136E+01 -0.22533188409E+02  0.16350986393E+04  0.16352707151E+04  0.00000000000E+00 0.  1.
         -4    1    3    3    0  501 -0.34656657720E+03  0.28915406411E+03 -0.59492658660E+03  0.74676375693E+03  0.00000000000E+00 0. -1.
</event>
<event>
 7    1  0.5696597E-006  0.9416505E+03  0.7818608E-02  0.9161721E-01
         -4   -1    0    0    0  501 -0.00000000000E+00  0.00000000000E+00  0.34292467910E+03  0.34292467910E+03  0.00000000000E+00 0. -1.
          2   -1    0    0  501    0  0.00000000000E+00 -0.00000000000E+00 -0.25333578735E+04  0.25333578735E+04  0.00000000000E+00 0. -1.
   -9000010    2    1    2    0  502  0.20203359211E+03  0.15014551944E+03 -0.91122881766E+03  0.13112550937E+04  0.90867525186E+03 0.  0.
        -13    1    1    2    0    0 -0.18437714224E+03 -0.16382561725E+03  0.36327515800E+02  0.24930596266E+03  0.10566000000E+00 0.  1.
         13    1    3    3    0    0  0.13425512620E+03 -0.27166019017E+03 -0.82028461573E+03  0.87446587115E+03  0.10566000000E+00 0. -1.
          2    1    1    2  502    0 -0.17656449864E+02  0.13680097805E+02 -0.13155318925E+04  0.13157214962E+04  0.00000000000E+00 0. -1.
         -4    1    3    3    0  502  0.67778465907E+02  0.42180570961E+03 -0.90944201933E+02  0.43678922258E+03  0.00000000000E+00 0. -1.
</event>
<event>
 7    1  0.5696597E-006  0.1005373E+04  0.7818608E-02  0.9386190E-01
         -4   -1    0    0    0  501 -0.00000000000E+00  0.00000000000E+00  0.79437508431E+03  0.79437508431E+03  0.00000000000E+00 0. -1.
          3   -1    0    0  501    0  0.00000000000E+00 -0.00000000000E+00 -0.55719698658E+03  0.55719698658E+03  0.00000000000E+00 0. -1.
   -9000010    2    1    2    0  502 -0.30876567484E+02 -0.80336876207E+02  0.44014697461E+03  0.10974840387E+04  0.10016658524E+04 0.  0.
        -13    1    1    2    0    0  0.70473190817E+01  0.86678851316E+02 -0.52438756529E+02  0.10155157469E+03  0.10566000000E+00 0.  1.
         13    1    3    3    0    0 -0.15490132010E+03 -0.52189535455E+03  0.20173788316E+03  0.58057502938E+03  0.10566000000E+00 0. -1.
          3    1    1    2  502    0  0.23829248402E+02 -0.63419751084E+01 -0.15053012035E+03  0.15253645748E+03  0.00000000000E+00 0. -1.
         -4    1    3    3    0  502  0.12402475261E+03  0.44155847834E+03  0.23840909145E+03  0.51690900935E+03  0.00000000000E+00 0. -1.
</event>
<event>
 7    1  0.5696597E-006  0.1003207E+04  0.7818608E-02  0.9305723E-01
         -4   -1    0    0    0  501 -0.00000000000E+00  0.00000000000E+00  0.25186261704E+04  0.25186261704E+04  0.00000000000E+00 0. -1.
          1   -1    0    0  501    0  0.00000000000E+00 -0.00000000000E+00 -0.16741024545E+03  0.16741024545E+03  0.00000000000E+00 0.  1.
   -9000010    2    1    2    0  502  0.48206773093E+02 -0.11536343431E+03  0.23331651566E+04  0.25400652503E+04  0.99631280871E+03 0.  0.
        -13    1    1    2    0    0 -0.44021397473E+02  0.10561975826E+03  0.40306623006E+02  0.12131797802E+03  0.10566000000E+00 0.  1.
         13    1    3    3    0    0  0.10204665733E+03 -0.50446931573E+03  0.75497031087E+03  0.91371931809E+03  0.10566000000E+00 0. -1.
          1    1    1    2  502    0 -0.41853756200E+01  0.97436760497E+01 -0.22255854629E+02  0.24653187569E+02  0.00000000000E+00 0.  1.
         -4    1    3    3    0  502 -0.53839884238E+02  0.38910588143E+03  0.15781948457E+04  0.16263459322E+04  0.00000000000E+00 0. -1.
</event>
<event>
 7    1  0.5696597E-006  0.1173122E+04  0.7818608E-02  0.8775114E-01
         -4   -1    0    0    0  502 -0.00000000000E+00  0.00000000000E+00  0.24744896537E+04  0.24744896537E+04  0.00000000000E+00 0. -1.
         -2   -1    0    0    0  501  0.00000000000E+00 -0.00000000000E+00 -0.11503617847E+04  0.11503617847E+04  0.00000000000E+00 0.  1.
   -9000010    2    1    2    0  501  0.38500798546E+03 -0.48154499585E+03  0.20075862654E+04  0.23248189255E+04  0.99712772081E+03 0.  0.
        -13    1    1    2    0    0 -0.39836651695E+03  0.47645597154E+03 -0.46462480424E+01  0.62106986195E+03  0.10566000000E+00 0.  1.
         13    1    3    3    0    0  0.51014830843E+02 -0.20822028328E+03 -0.51922585883E+02  0.22057689232E+03  0.10566000000E+00 0. -1.
         -2    1    1    2    0  502  0.13358531489E+02  0.50890243063E+01 -0.67881214842E+03  0.67896265094E+03  0.00000000000E+00 0.  1.
         -4    1    3    3    0  501  0.33399315462E+03 -0.27332471257E+03  0.20595088513E+04  0.21042420332E+04  0.00000000000E+00 0. -1.
</event>
<event>
 7    1  0.5696597E-006  0.1195332E+04  0.7818608E-02  0.8930977E-01
         -4   -1    0    0    0  501 -0.00000000000E+00  0.00000000000E+00  0.19320752917E+04  0.19320752917E+04  0.00000000000E+00 0. -1.
          4   -1    0    0  501    0  0.00000000000E+00 -0.00000000000E+00 -0.59853570143E+03  0.59853570143E+03  0.00000000000E+00 0. -1.
   -9000010    2    1    2    0  502  0.55518134337E+03  0.55795193638E+02  0.90258931727E+03  0.15043301929E+04  0.10663031586E+04 0.  0.
        -13    1    1    2    0    0 -0.11650409487E+03  0.28116774733E+03  0.35553029782E+03  0.46800674151E+03  0.10566000000E+00 0.  1.
         13    1    3    3    0    0  0.25921435929E+03 -0.48210943066E+03  0.23020517669E+03  0.59381480424E+03  0.10566000000E+00 0. -1.
          4    1    1    2  502    0 -0.43867724850E+03 -0.33696294097E+03  0.75419975149E+02  0.55827405868E+03  0.00000000000E+00 0. -1.
         -4    1    3    3    0  502  0.29596698407E+03  0.53790462430E+03  0.67238414058E+03  0.91051538867E+03  0.00000000000E+00 0. -1.
</event>
<event>
 7    1  0.5696597E-006  0.1421345E+04  0.7818608E-02  0.8532102E-01
         -4   -1    0    0    0  501 -0.00000000000E+00  0.00000000000E+00  0.22279417267E+04  0.22279417267E+04  0.00000000000E+00 0. -1.
          2   -1    0    0  501    0  0.00000000000E+00 -0.00000000000E+00 -0.91869933435E+03  0.91869933435E+03  0.00000000000E+00 0. -1.
   -9000010    2    1    2    0  502  0.84515124592E+03 -0.53737766846E+03  0.63211924205E+03  0.15520381954E+04  0.10030914399E+04 0.  0.
        -13    1    1    2    0    0 -0.84723143897E+03  0.54920968700E+03  0.91130464031E+03  0.13601134328E+04  0.10566000000E+00 0.  1.
         13    1    3    3    0    0  0.10109407025E+02  0.73946847329E+02 -0.20677892301E+03  0.21983600821E+03  0.10566000000E+00 0. -1.
          2    1    1    2  502    0  0.20801930409E+01 -0.11832018538E+02 -0.23418148998E+03  0.23448943284E+03  0.00000000000E+00 0. -1.
         -4    1    3    3    0  502  0.83504183890E+03 -0.61132451579E+03  0.83889816505E+03  0.13322021872E+04  0.00000000000E+00 0. -1.
</event>
<event>
 7    1  0.5696597E-006  0.1012906E+04  0.7818608E-02  0.9145526E-01
          2   -1    0    0  501    0  0.00000000000E+00  0.00000000000E+00  0.20471736775E+04  0.20471736775E+04  0.00000000000E+00 0. -1.
         -4   -1    0    0    0  501 -0.00000000000E+00 -0.00000000000E+00 -0.26952797605E+03  0.26952797605E+03  0.00000000000E+00 0. -1.
   -9000010    2    1    2    0  502  0.20049683608E+03 -0.10032787973E+03  0.17106693161E+04  0.19894527132E+04  0.99058968514E+03 0.  0.
        -13    1    1    2    0    0 -0.19069457404E+03  0.89987167714E+02 -0.43966042664E+02  0.21539529938E+03  0.10566000000E+00 0.  1.
         13    1    3    3    0    0  0.46766434385E+03  0.28177753428E+03  0.84111129028E+03  0.10027844889E+04  0.10566000000E+00 0. -1.
          2    1    1    2  502    0 -0.98022620426E+01  0.10340712016E+02  0.11094242796E+03  0.11185364093E+03  0.00000000000E+00 0. -1.
         -4    1    3    3    0  502 -0.26716750777E+03 -0.38210541401E+03  0.86955802585E+03  0.98666822435E+03  0.00000000000E+00 0. -1.
</event>
<event>
 7    1  0.5696597E-006  0.1380607E+04  0.7818608E-02  0.8562375E-01
          2   -1    0    0  502    0  0.00000000000E+00  0.00000000000E+00  0.22900305069E+04  0.22900305069E+04  0.00000000000E+00 0. -1.
          4   -1    0    0  501    0 -0.00000000000E+00 -0.00000000000E+00 -0.20435720844E+04  0.20435720844E+04  0.00000000000E+00 0.  1.
    9000010    2    1    2  502    0  0.25505119945E+03 -0.91754756546E+03 -0.59118739131E+03  0.14974902765E+04  0.99299040644E+03 0.  0.
        -13    1    3    3    0    0 -0.16410901833E+03 -0.15175332746E+03 -0.58307382304E+03  0.62444850594E+03  0.10566000000E+00 0.  1.
         13    1    1    2    0    0 -0.29556276416E+03  0.91649007736E+03 -0.76691224741E+03  0.12310425727E+04  0.10566000000E+00 0. -1.
          2    1    1    2  501    0  0.40511564705E+02  0.10574880921E+01  0.16045580612E+04  0.16050697421E+04  0.00000000000E+00 0. -1.
          4    1    3    3  502    0  0.41916021779E+03 -0.76579423799E+03 -0.81135682757E+01  0.87304177054E+03  0.00000000000E+00 0.  1.
</event>
<event>
 7    1  0.5696597E-006  0.8763454E+03  0.7818608E-02  0.9409734E-01
          2   -1    0    0  502    0  0.00000000000E+00  0.00000000000E+00  0.12799683696E+04  0.12799683696E+04  0.00000000000E+00 0. -1.
          4   -1    0    0  501    0 -0.00000000000E+00 -0.00000000000E+00 -0.10363785882E+04  0.10363785882E+04  0.00000000000E+00 0.  1.
    9000010    2    1    2  502    0  0.10995433550E+02  0.12197421546E+03 -0.65562209695E+03  0.10947956838E+04  0.86818122910E+03 0.  0.
        -13    1    3    3    0    0 -0.26362482510E+03  0.38250209522E+03 -0.50829086703E+03  0.68859677456E+03  0.10566000000E+00 0.  1.
         13    1    1    2    0    0 -0.33872190894E+02 -0.11433447350E+03 -0.13895340622E+03  0.18310586395E+03  0.10566000000E+00 0. -1.
          2    1    1    2  501    0  0.22876757344E+02 -0.76397419556E+01  0.10381652845E+04  0.10384454100E+04  0.00000000000E+00 0. -1.
          4    1    3    3  502    0  0.27462025865E+03 -0.26052787976E+03 -0.14733122991E+03  0.40619890928E+03  0.00000000000E+00 0.  1.
</event>
<event>
 7    1  0.5696597E-006  0.1020375E+04  0.7818608E-02  0.9148936E-01
          1   -1    0    0  501    0  0.00000000000E+00  0.00000000000E+00  0.26290213785E+04  0.26290213785E+04  0.00000000000E+00 0. -1.
         -4   -1    0    0    0  501 -0.00000000000E+00 -0.00000000000E+00 -0.72181349407E+03  0.72181349407E+03  0.00000000000E+00 0. -1.
   -9000010    2    1    2    0  502 -0.35375842403E+02 -0.15979012456E+03 -0.80294586840E+02  0.10162393983E+04  0.99975544999E+03 0.  0.
        -13    1    1    2    0    0 -0.11196092776E+03  0.18474622931E+03 -0.10260474561E+03  0.23915301289E+03  0.10566000000E+00 0.  1.
         13    1    3    3    0    0  0.42119317830E+03 -0.15984646691E+03  0.18633291750E+03  0.48751877270E+03  0.10566000000E+00 0. -1.
          1    1    1    2  502    0  0.14733677016E+03 -0.24956104749E+02  0.20901072169E+04  0.20954424614E+04  0.00000000000E+00 0. -1.
         -4    1    3    3    0  502 -0.45656902070E+03  0.56342348917E-01 -0.26662750434E+03  0.52872062557E+03  0.00000000000E+00 0. -1.
</event>
<event>
 7    1  0.5696597E-006  0.1191653E+04  0.7818608E-02  0.8764685E-01
          2   -1    0    0  502    0  0.00000000000E+00  0.00000000000E+00  0.14070112701E+04  0.14070112701E+04  0.00000000000E+00 0. -1.
          4   -1    0    0  501    0 -0.00000000000E+00 -0.00000000000E+00 -0.10119643562E+04  0.10119643562E+04  0.00000000000E+00 0.  1.
    9000010    2    1    2  502    0  0.16933925075E+03  0.59128999793E+03  0.61906589826E+03  0.13422325406E+04  0.10198264377E+04 0.  0.
        -13    1    3    3    0    0 -0.18722810802E+01  0.19199661953E+03  0.83520110336E+03  0.85698722369E+03  0.10566000000E+00 0.  1.
         13    1    1    2    0    0 -0.14674089003E+03 -0.59898630752E+03 -0.50356757566E+03  0.79617699026E+03  0.10566000000E+00 0. -1.
          2    1    1    2  501    0 -0.22598360723E+02  0.76963095878E+01  0.27954859127E+03  0.28056609554E+03  0.00000000000E+00 0. -1.
          4    1    3    3  502    0  0.17121153183E+03  0.39929337840E+03 -0.21613520510E+03  0.48524531688E+03  0.00000000000E+00 0.  1.
</event>
<event>
 7    1  0.5696597E-006  0.8503590E+03  0.7818608E-02  0.9356562E-01
          2   -1    0    0  501    0  0.00000000000E+00  0.00000000000E+00  0.24298250910E+04  0.24298250910E+04  0.00000000000E+00 0.  1.
         -4   -1    0    0    0  501 -0.00000000000E+00 -0.00000000000E+00 -0.10276922072E+04  0.10276922072E+04  0.00000000000E+00 0. -1.
   -9000010    2    1    2    0  502  0.11244352482E+03  0.24053942533E+03 -0.62125479046E+03  0.10664869567E+04  0.82518734402E+03 0.  0.
        -13    1    1    2    0    0  0.68595893276E+02 -0.14367297243E+03 -0.14356085656E+03  0.21437595547E+03  0.10566000000E+00 0.  1.
         13    1    3    3    0    0  0.43531876658E+02  0.50531362390E+03 -0.16293187504E+03  0.53271351574E+03  0.10566000000E+00 0. -1.
          2    1    1    2  502    0 -0.18103941810E+03 -0.96866452902E+02  0.21669485308E+04  0.21766543859E+04  0.00000000000E+00 0.  1.
         -4    1    3    3    0  502  0.68911648165E+02 -0.26477419856E+03 -0.45832291542E+03  0.53377344096E+03  0.00000000000E+00 0. -1.
</event>
<event>
 7    1  0.5696597E-006  0.1089228E+04  0.7818608E-02  0.8897872E-01
         -4   -1    0    0    0  501 -0.00000000000E+00  0.00000000000E+00  0.84022713834E+03  0.84022713834E+03  0.00000000000E+00 0.  1.
          4   -1    0    0  501    0  0.00000000000E+00 -0.00000000000E+00 -0.13093177593E+04  0.13093177593E+04  0.00000000000E+00 0. -1.
   -9000010    2    1    2    0  502 -0.49155841296E+03  0.30639654060E+03 -0.10585562484E+03  0.11491335667E+04  0.98681002596E+03 0.  0.
        -13    1    1    2    0    0  0.44474913263E+03  0.15279760167E+03 -0.17061042531E+03  0.50025676051E+03  0.10566000000E+00 0.  1.
         13    1    3    3    0    0  0.20179620458E+03 -0.19017932712E+03 -0.10441257004E+03  0.29629694665E+03  0.10566000000E+00 0. -1.
          4    1    1    2  502    0  0.46809280337E+02 -0.45919414227E+03 -0.19262457077E+03  0.50015457039E+03  0.00000000000E+00 0.  1.
         -4    1    3    3    0  502 -0.69335461755E+03  0.49657586772E+03 -0.14430547944E+01  0.85283662004E+03  0.00000000000E+00 0. -1.
</event>
<event>
 7    1  0.5696597E-006  0.1232137E+04  0.7818608E-02  0.8710195E-01
         -4   -1    0    0    0  501 -0.00000000000E+00  0.00000000000E+00  0.32530635173E+04  0.32530635173E+04  0.00000000000E+00 0. -1.
          2   -1    0    0  501    0  0.00000000000E+00 -0.00000000000E+00 -0.66846011859E+03  0.66846011859E+03  0.00000000000E+00 0.  1.
   -9000010    2    1    2    0  502  0.37717798135E+03 -0.60538984996E+03  0.12229800480E+04  0.17395829499E+04  0.10107959942E+04 0.  0.
        -13    1    1    2    0    0 -0.38838179531E+03  0.58515704070E+03  0.17017760225E+04  0.18410026679E+04  0.10566000000E+00 0.  1.
         13    1    3    3    0    0  0.69493702862E+03 -0.20738391544E+03  0.77356466249E+03  0.10603527056E+04  0.10566000000E+00 0. -1.
          2    1    1    2  502    0  0.11203813955E+02  0.20232809259E+02 -0.34015267181E+03  0.34093801806E+03  0.00000000000E+00 0.  1.
         -4    1    3    3    0  502 -0.31775904726E+03 -0.39800593451E+03  0.44941538548E+03  0.67923024427E+03  0.00000000000E+00 0. -1.
</event>
<event>
 7    1  0.5696597E-006  0.1036606E+04  0.7818608E-02  0.9113940E-01
          2   -1    0    0  501    0  0.00000000000E+00  0.00000000000E+00  0.11279485846E+04  0.11279485846E+04  0.00000000000E+00 0. -1.
         -4   -1    0    0    0  501 -0.00000000000E+00 -0.00000000000E+00 -0.14606951256E+04  0.14606951256E+04  0.00000000000E+00 0. -1.
   -9000010    2    1    2    0  502  0.17068381326E+03 -0.89886940125E+02 -0.89987714774E+03  0.13680824075E+04  0.10122539043E+04 0.  0.
        -13    1    1    2    0    0 -0.18747696703E+03  0.13119730754E+03 -0.28599574790E+03  0.36627029044E+03  0.10566000000E+00 0.  1.
         13    1    3    3    0    0  0.31363185843E+03  0.34155522441E+03 -0.14305840972E+03  0.48527377190E+03  0.10566000000E+00 0. -1.
          2    1    1    2  502    0  0.16793153770E+02 -0.41310367411E+02  0.85312635466E+03  0.85429101218E+03  0.00000000000E+00 0. -1.
         -4    1    3    3    0  502 -0.14294804517E+03 -0.43144216453E+03 -0.75681873802E+03  0.88280863565E+03  0.00000000000E+00 0. -1.
</event>
<event>
 7    1  0.5696597E-006  0.9936592E+03  0.7818608E-02  0.9157117E-01
          1   -1    0    0  501    0  0.00000000000E+00  0.00000000000E+00  0.12498428209E+04  0.12498428209E+04  0.00000000000E+00 0. -1.
         -4   -1    0    0    0  501 -0.00000000000E+00 -0.00000000000E+00 -0.36939926480E+03  0.36939926480E+03  0.00000000000E+00 0. -1.
   -9000010    2    1    2    0  502  0.10697944899E+03 -0.19975175914E+03  0.46001896855E+03  0.10975013456E+04  0.97033313066E+03 0.  0.
        -13    1    1    2    0    0 -0.81455917696E+02  0.19429498620E+03  0.17206834281E+03  0.27201678984E+03  0.10566000000E+00 0.  1.
         13    1    3    3    0    0  0.28724212306E+03 -0.41536736881E+03  0.59940835438E+03  0.78379109130E+03  0.10566000000E+00 0. -1.
          1    1    1    2  502    0 -0.25523531292E+02  0.54567729380E+01  0.24835624472E+03  0.24972395022E+03  0.00000000000E+00 0. -1.
         -4    1    3    3    0  502 -0.18026267407E+03  0.21561560967E+03 -0.13938938583E+03  0.31371025434E+03  0.00000000000E+00 0. -1.
</event>
<event>
 7    1  0.5696597E-006  0.1119250E+04  0.7818608E-02  0.8852146E-01
          2   -1    0    0  501    0  0.00000000000E+00  0.00000000000E+00  0.93630146961E+03  0.93630146961E+03  0.00000000000E+00 0.  1.
         -4   -1    0    0    0  501 -0.00000000000E+00 -0.00000000000E+00 -0.17792164188E+04  0.17792164188E+04  0.00000000000E+00 0. -1.
   -9000010    2    1    2    0  502 -0.22901095411E+03  0.42171276406E+03 -0.39038751535E+03  0.11709422843E+04  0.99419100206E+03 0.  0.
        -13    1    1    2    0    0  0.20727327364E+03 -0.47727166201E+03 -0.92877800706E+03  0.10646027648E+04  0.10566000000E+00 0.  1.
         13    1    3    3    0    0  0.32204276880E+03  0.44229946279E+03 -0.13664585504E+03  0.56392593537E+03  0.10566000000E+00 0. -1.
          2    1    1    2  502    0  0.21737680471E+02  0.55558897951E+02  0.47625057325E+03  0.47997283925E+03  0.00000000000E+00 0.  1.
         -4    1    3    3    0  502 -0.55105372291E+03 -0.20586698730E+02 -0.25374166031E+03  0.60701634894E+03  0.00000000000E+00 0. -1.
</event>
<event>
 7    1  0.5696597E-006  0.1492710E+04  0.7818608E-02  0.8462256E-01
         -4   -1    0    0    0  501 -0.00000000000E+00  0.00000000000E+00  0.30142252787E+04  0.30142252787E+04  0.00000000000E+00 0. -1.
          1   -1    0    0  501    0  0.00000000000E+00 -0.00000000000E+00 -0.76948246441E+03  0.76948246441E+03  0.00000000000E+00 0.  1.
   -9000010    2    1    2    0  502  0.10817422257E+04 -0.47682281760E+03  0.43431511802E+03  0.15456932907E+04  0.89610930403E+03 0.  0.
        -13    1    1    2    0    0 -0.11207405995E+04  0.42325965936E+03  0.18114338114E+04  0.21717506060E+04  0.10566000000E+00 0.  1.
         13    1    3    3    0    0  0.51089603769E+03 -0.19872987036E+03 -0.25835503499E+03  0.60601621923E+03  0.10566000000E+00 0. -1.
          1    1    1    2  502    0  0.38998373802E+02  0.53563158244E+02 -0.10061150517E+01  0.66263846461E+02  0.00000000000E+00 0.  1.
         -4    1    3    3    0  502  0.57084618803E+03 -0.27809294724E+03  0.69267015302E+03  0.93967707143E+03  0.00000000000E+00 0. -1.
</event>
<event>
 7    1  0.5696597E-006  0.1442320E+04  0.7818608E-02  0.8516922E-01
          2   -1    0    0  501    0  0.00000000000E+00  0.00000000000E+00  0.39670245904E+04  0.39670245904E+04  0.00000000000E+00 0. -1.
         -4   -1    0    0    0  501 -0.00000000000E+00 -0.00000000000E+00 -0.26342657830E+04  0.26342657830E+04  0.00000000000E+00 0. -1.
   -9000010    2    1    2    0  502 -0.41649798131E+03  0.11828824081E+04 -0.18172217282E+04  0.24269737136E+04  0.10075838612E+04 0.  0.
        -13    1    1    2    0    0 -0.24166806829E+03 -0.82080872442E+03 -0.78835416860E+02  0.85927030173E+03  0.10566000000E+00 0.  1.
         13    1    3    3    0    0 -0.14613855642E+03  0.12363401853E+03  0.10299732121E+03  0.21737135862E+03  0.10566000000E+00 0. -1.
          2    1    1    2  502    0  0.65816604961E+03 -0.36207368367E+03  0.32288159524E+04  0.33150463581E+04  0.00000000000E+00 0. -1.
         -4    1    3    3    0  502 -0.27035942490E+03  0.10592483896E+04 -0.19202190494E+04  0.22096023550E+04  0.00000000000E+00 0. -1.
</event>
<event>
 7    1  0.5696597E-006  0.1084963E+04  0.7818608E-02  0.8920243E-01
         -2   -1    0    0    0  501  0.00000000000E+00  0.00000000000E+00  0.43661353462E+03  0.43661353462E+03  0.00000000000E+00 0. -1.
         -4   -1    0    0    0  502 -0.00000000000E+00 -0.00000000000E+00 -0.16158360526E+04  0.16158360526E+04  0.00000000000E+00 0. -1.
   -9000010    2    1    2    0  501 -0.13485565169E+03  0.37240232107E+03 -0.98238892351E+03  0.14553871886E+04  0.99809535431E+03 0.  0.
        -13    1    1    2    0    0  0.14453740990E+03 -0.41645733072E+03 -0.26572286276E+03  0.51471975106E+03  0.10566000000E+00 0.  1.
         13    1    3    3    0    0 -0.72045061992E+02  0.57126962813E+03 -0.10809328702E+04  0.12247266471E+04  0.10566000000E+00 0. -1.
         -2    1    1    2    0  502 -0.96817582098E+01  0.44055009655E+02  0.68889268287E+02  0.82342647534E+02  0.00000000000E+00 0. -1.
         -4    1    3    3    0  501 -0.62810589695E+02 -0.19886730706E+03  0.98543946711E+02  0.23066054155E+03  0.00000000000E+00 0. -1.
</event>
<event>
 7    1  0.5696597E-006  0.1157892E+04  0.7818608E-02  0.8810647E-01
          2   -1    0    0  502    0  0.00000000000E+00  0.00000000000E+00  0.23870802366E+04  0.23870802366E+04  0.00000000000E+00 0.  1.
          4   -1    0    0  501    0 -0.00000000000E+00 -0.00000000000E+00 -0.21000785661E+04  0.21000785661E+04  0.00000000000E+00 0.  1.
    9000010    2    1    2  502    0 -0.45931023276E+03  0.16373079661E+02 -0.28319229022E+02  0.11167464549E+04  0.10173921063E+04 0.  0.
        -13    1    3    3    0    0 -0.67257969388E+03 -0.22475151810E+03 -0.21951835887E+03  0.74233753142E+03  0.10566000000E+00 0.  1.
         13    1    1    2    0    0  0.56148019774E+03 -0.15415543679E+02 -0.14744046065E+04  0.15777726726E+04  0.10566000000E+00 0. -1.
          2    1    1    2  501    0 -0.10216996498E+03 -0.95753598189E+00  0.17897255060E+04  0.17926396753E+04  0.00000000000E+00 0.  1.
          4    1    3    3  502    0  0.21326946112E+03  0.24112459776E+03  0.19119912985E+03  0.37440892344E+03  0.00000000000E+00 0.  1.
</event>
<event>
 7    1  0.5696597E-006  0.1134543E+04  0.7818608E-02  0.8866486E-01
          2   -1    0    0  502    0  0.00000000000E+00  0.00000000000E+00  0.84987259992E+03  0.84987259992E+03  0.00000000000E+00 0.  1.
          4   -1    0    0  501    0 -0.00000000000E+00 -0.00000000000E+00 -0.18211380832E+04  0.18211380832E+04  0.00000000000E+00 0.  1.
    9000010    2    1    2  502    0 -0.35876794358E+03 -0.43906023050E+03 -0.11691731000E+04  0.16611794374E+04  0.10349217661E+04 0.  0.
        -13    1    3    3    0    0  0.32547916305E+03  0.17554773202E+02 -0.17219547802E+03  0.36864094924E+03  0.10566000000E+00 0.  1.
         13    1    1    2    0    0  0.19652399944E+02  0.44347765528E+03 -0.20009926558E+03  0.48692748414E+03  0.10566000000E+00 0. -1.
          2    1    1    2  501    0  0.33911554363E+03 -0.44174247815E+01  0.39800688230E+03  0.52290376163E+03  0.00000000000E+00 0.  1.
          4    1    3    3  502    0 -0.68424710663E+03 -0.45661500370E+03 -0.99697762200E+03  0.12925384881E+04  0.00000000000E+00 0.  1.
</event>
<event>
 7    1  0.5696597E-006  0.1082914E+04  0.7818608E-02  0.9374040E-01
         -4   -1    0    0    0  501 -0.00000000000E+00  0.00000000000E+00  0.13654359203E+04  0.13654359203E+04  0.00000000000E+00 0. -1.
          2   -1    0    0  501    0  0.00000000000E+00 -0.00000000000E+00 -0.99344681544E+03  0.99344681544E+03  0.00000000000E+00 0.  1.
   -9000010    2    1    2    0  502  0.20238726422E+02  0.56079257923E+02  0.11086207800E+04  0.15492196506E+04  0.10805031248E+04 0.  0.
        -13    1    1    2    0    0 -0.20395188395E+02 -0.71560072595E+02 -0.15577095617E+01  0.74426106459E+02  0.10566000000E+00 0.  1.
         13    1    3    3    0    0 -0.34155781234E+03 -0.30387923969E+03  0.18342199360E+03  0.49259310834E+03  0.10566000000E+00 0. -1.
          2    1    1    2  502    0  0.15646197262E+00  0.15480814672E+02 -0.73507396552E+03  0.73523697873E+03  0.00000000000E+00 0.  1.
         -4    1    3    3    0  502  0.36179653876E+03  0.35995849761E+03  0.92519878635E+03  0.10566265422E+04  0.00000000000E+00 0. -1.
</event>
<event>
 7    1  0.5696597E-006  0.1003348E+04  0.7818608E-02  0.9269641E-01
          4   -1    0    0  501    0 -0.00000000000E+00  0.00000000000E+00  0.53828523626E+03  0.53828523626E+03  0.00000000000E+00 0.  1.
          2   -1    0    0  502    0  0.00000000000E+00 -0.00000000000E+00 -0.10983291014E+04  0.10983291014E+04  0.00000000000E+00 0. -1.
    9000010    2    1    2  502    0  0.13182705575E+03 -0.19361514270E+02  0.29696044132E+02  0.10036052249E+04  0.99427780398E+03 0.  0.
        -13    1    3    3    0    0 -0.29757093571E+03 -0.25619773761E+03 -0.22339422004E+03  0.45176402164E+03  0.10566000000E+00 0.  1.
         13    1    1    2    0    0 -0.13504794379E+03  0.88455691139E+01 -0.19083932304E+03  0.23395693962E+03  0.10566000000E+00 0. -1.
          2    1    1    2  501    0  0.32208880453E+01  0.10515945156E+02 -0.39890058626E+03  0.39905217321E+03  0.00000000000E+00 0. -1.
          4    1    3    3  502    0  0.42939799146E+03  0.23683622334E+03  0.25309026417E+03  0.55184120322E+03  0.00000000000E+00 0.  1.
</event>
<event>
 7    1  0.5696597E-006  0.1020446E+04  0.7818608E-02  0.9187860E-01
         -4   -1    0    0    0  501 -0.00000000000E+00  0.00000000000E+00  0.55131094838E+03  0.55131094838E+03  0.00000000000E+00 0. -1.
          2   -1    0    0  501    0  0.00000000000E+00 -0.00000000000E+00 -0.23356485851E+04  0.23356485851E+04  0.00000000000E+00 0. -1.
   -9000010    2    1    2    0  502  0.78558954100E+02  0.20156857223E+03  0.21768482661E+02  0.10285199771E+04  0.10052751254E+04 0.  0.
        -13    1    1    2    0    0  0.75203532812E+01 -0.15976143126E+03 -0.23407486416E+03  0.28349836653E+03  0.10566000000E+00 0.  1.
         13    1    3    3    0    0  0.21985172153E+03  0.29788942915E+03  0.44096896807E+03  0.57578340843E+03  0.10566000000E+00 0. -1.
          2    1    1    2  502    0 -0.86079307381E+02 -0.41807140973E+02 -0.15720312552E+04  0.15749411899E+04  0.00000000000E+00 0. -1.
         -4    1    3    3    0  502 -0.14129276743E+03 -0.96320856915E+02 -0.41920048541E+03  0.45273656863E+03  0.00000000000E+00 0. -1.
</event>
<event>
 7    1  0.5696597E-006  0.1111459E+04  0.7818608E-02  0.8885235E-01
          4   -1    0    0  501    0 -0.00000000000E+00  0.00000000000E+00  0.18938595968E+04  0.18938595968E+04  0.00000000000E+00 0.  1.
          2   -1    0    0  502    0  0.00000000000E+00 -0.00000000000E+00 -0.43955718224E+03  0.43955718224E+03  0.00000000000E+00 0. -1.
    9000010    2    1    2  502    0 -0.40178748305E+03 -0.30908820292E+03  0.10182705418E+04  0.15231612813E+04  0.10130037975E+04 0.  0.
        -13    1    3    3    0    0 -0.50954274989E+03 -0.60851043662E+03  0.58683733521E+03  0.98706475705E+03  0.10566000000E+00 0.  1.
         13    1    1    2    0    0  0.36539044764E+03  0.24847182226E+03  0.53167064452E+03  0.69131910945E+03  0.10566000000E+00 0. -1.
          2    1    1    2  501    0  0.36397035412E+02  0.60616380663E+02 -0.95638771768E+02  0.11893638828E+03  0.00000000000E+00 0. -1.
          4    1    3    3  502    0  0.10775526684E+03  0.29942223370E+03  0.43143320654E+03  0.53609652422E+03  0.00000000000E+00 0.  1.
</event>
<event>
 7    1  0.5696597E-006  0.9948124E+03  0.7818608E-02  0.9228646E-01
          2   -1    0    0  501    0  0.00000000000E+00  0.00000000000E+00  0.88586988020E+03  0.88586988020E+03  0.00000000000E+00 0. -1.
         -4   -1    0    0    0  501 -0.00000000000E+00 -0.00000000000E+00 -0.24630036708E+04  0.24630036708E+04  0.00000000000E+00 0. -1.
   -9000010    2    1    2    0  502 -0.78158362696E+02 -0.11165120396E+03 -0.20639569584E+04  0.22895479814E+04  0.98159916054E+03 0.  0.
        -13    1    1    2    0    0  0.14116787945E+03  0.92999243431E+02 -0.25972331058E+03  0.30989262445E+03  0.10566000000E+00 0.  1.
         13    1    3    3    0    0 -0.70741976124E+02 -0.38887559064E+03 -0.19501139155E+04  0.19897670584E+04  0.10566000000E+00 0. -1.
          2    1    1    2  502    0 -0.63009516752E+02  0.18651960533E+02  0.74654647841E+03  0.74943294513E+03  0.00000000000E+00 0. -1.
         -4    1    3    3    0  502 -0.74163865713E+01  0.27722438668E+03 -0.11384304288E+03  0.29978092296E+03  0.00000000000E+00 0. -1.
</event>
<event>
 7    1  0.5696597E-006  0.1087709E+04  0.7818608E-02  0.8910629E-01
          1   -1    0    0  501    0  0.00000000000E+00  0.00000000000E+00  0.65381161361E+03  0.65381161361E+03  0.00000000000E+00 0. -1.
         -4   -1    0    0    0  501 -0.00000000000E+00 -0.00000000000E+00 -0.26208737301E+04  0.26208737301E+04  0.00000000000E+00 0. -1.
   -9000010    2    1    2    0  502 -0.44836527177E+03 -0.15455564220E+03 -0.14569011809E+04  0.18269244749E+04  0.99507443071E+03 0.  0.
        -13    1    1    2    0    0  0.37657075413E+03  0.21114040459E+03 -0.92615787249E+03  0.10218386464E+04  0.10566000000E+00 0.  1.
         13    1    3    3    0    0 -0.25931366477E+03  0.27633036246E+03 -0.10169647445E+03  0.39235727346E+03  0.10566000000E+00 0. -1.
          1    1    1    2  502    0  0.71794517638E+02 -0.56584762391E+02  0.41599693686E+03  0.42592222245E+03  0.00000000000E+00 0. -1.
         -4    1    3    3    0  502 -0.18905160700E+03 -0.43088600466E+03 -0.13552047064E+04  0.14345672014E+04  0.00000000000E+00 0. -1.
</event>
<event>
 7    1  0.5696597E-006  0.1510698E+04  0.7818608E-02  0.8465225E-01
         -4   -1    0    0    0  501 -0.00000000000E+00  0.00000000000E+00  0.11852299617E+04  0.11852299617E+04  0.00000000000E+00 0. -1.
          2   -1    0    0  501    0  0.00000000000E+00 -0.00000000000E+00 -0.25703736451E+04  0.25703736451E+04  0.00000000000E+00 0.  1.
   -9000010    2    1    2    0  502 -0.84634613768E+03  0.77146054690E+03 -0.56361828888E+03  0.16188082289E+04  0.99570143429E+03 0.  0.
        -13    1    1    2    0    0  0.85857358557E+03 -0.73810170018E+03  0.16975013966E+03  0.11448833315E+04  0.10566000000E+00 0.  1.
         13    1    3    3    0    0 -0.62195338328E+03  0.99628818798E+03 -0.55995496557E+03  0.13011401689E+04  0.10566000000E+00 0. -1.
          2    1    1    2  502    0 -0.12227447891E+02 -0.33358846722E+02 -0.99127553417E+03  0.99191204639E+03  0.00000000000E+00 0.  1.
         -4    1    3    3    0  502 -0.22439275440E+03 -0.22482764108E+03 -0.36633233103E+01  0.31766806002E+03  0.00000000000E+00 0. -1.
</event>
<event>
 7    1  0.5696597E-006  0.1021894E+04  0.7818608E-02  0.9121148E-01
         -4   -1    0    0    0  501 -0.00000000000E+00  0.00000000000E+00  0.12911361525E+04  0.12911361525E+04  0.00000000000E+00 0. -1.
          1   -1    0    0  501    0  0.00000000000E+00 -0.00000000000E+00 -0.73413147101E+03  0.73413147101E+03  0.00000000000E+00 0. -1.
   -9000010    2    1    2    0  502  0.10038018216E+03  0.17360461137E+03  0.87170455492E+03  0.13390266060E+04  0.99644803099E+03 0.  0.
        -13    1    1    2    0    0 -0.63162624789E+02 -0.22825018472E+03  0.10665083287E+03  0.25973462479E+03  0.10566000000E+00 0.  1.
         13    1    3    3    0    0  0.33565948703E+03 -0.25649977817E+03  0.70374473182E+03  0.82080209927E+03  0.10566000000E+00 0. -1.
          1    1    1    2  502    0 -0.37217557372E+02  0.54645573353E+02 -0.42135070634E+03  0.42650639268E+03  0.00000000000E+00 0. -1.
         -4    1    3    3    0  502 -0.23527930487E+03  0.43010438955E+03  0.16795982310E+03  0.51822450674E+03  0.00000000000E+00 0. -1.
</event>
<event>
 7    1  0.5696597E-006  0.1132965E+04  0.7818608E-02  0.8847244E-01
          4   -1    0    0  501    0 -0.00000000000E+00  0.00000000000E+00  0.19314011744E+04  0.19314011744E+04  0.00000000000E+00 0.  1.
          2   -1    0    0  502    0  0.00000000000E+00 -0.00000000000E+00 -0.10173029752E+04  0.10173029752E+04  0.00000000000E+00 0.  1.
    9000010    2    1    2  502    0  0.42672573222E+02  0.51869886167E+03  0.80592860709E+03  0.13957176914E+04  0.10137245665E+04 0.  0.
        -13    1    3    3    0    0  0.18601643659E+03  0.36836437582E+03  0.10182449241E+04  0.10986888389E+04  0.10566000000E+00 0.  1.
         13    1    1    2    0    0 -0.55163052643E+02 -0.49920216543E+03  0.75442696697E+03  0.90631441785E+03  0.10566000000E+00 0. -1.
          2    1    1    2  501    0  0.12490479421E+02 -0.19496696239E+02 -0.64625737481E+03  0.64667204033E+03  0.00000000000E+00 0.  1.
          4    1    3    3  502    0 -0.14334386337E+03  0.15033448585E+03 -0.21231631698E+03  0.29702885256E+03  0.00000000000E+00 0.  1.
</event>
<event>
 7    1  0.5696597E-006  0.1276818E+04  0.7818608E-02  0.8660596E-01
         -4   -1    0    0    0  501 -0.00000000000E+00  0.00000000000E+00  0.29091284249E+04  0.29091284249E+04  0.00000000000E+00 0. -1.
          2   -1    0    0  501    0  0.00000000000E+00 -0.00000000000E+00 -0.24266146049E+04  0.24266146049E+04  0.00000000000E+00 0. -1.
   -9000010    2    1    2    0  502  0.82513054216E+03 -0.24508279981E+03  0.62518727216E+03  0.14646129693E+04  0.10066409660E+04 0.  0.
        -13    1    1    2    0    0 -0.73712931736E+03 -0.32477350425E+03  0.17318047601E+04  0.19099699469E+04  0.10566000000E+00 0.  1.
         13    1    3    3    0    0  0.56160022117E+03 -0.44461046974E+03  0.81372718931E+03  0.10840780544E+04  0.10566000000E+00 0. -1.
          2    1    1    2  502    0 -0.88001224802E+02  0.56985630406E+03 -0.18744782123E+04  0.19611601136E+04  0.00000000000E+00 0. -1.
         -4    1    3    3    0  502  0.26353032099E+03  0.19952766992E+03 -0.18853991715E+03  0.38053491496E+03  0.00000000000E+00 0. -1.
</event>
<event>
 7    1  0.5696597E-006  0.1094325E+04  0.7818608E-02  0.8904594E-01
          2   -1    0    0  501    0  0.00000000000E+00  0.00000000000E+00  0.33714006522E+04  0.33714006522E+04  0.00000000000E+00 0. -1.
         -4   -1    0    0    0  501 -0.00000000000E+00 -0.00000000000E+00 -0.45233631177E+03  0.45233631177E+03  0.00000000000E+00 0. -1.
   -9000010    2    1    2    0  502  0.26981089830E+03  0.75565471119E+02  0.10806930916E+04  0.14994644835E+04  0.10009935653E+04 0.  0.
        -13    1    1    2    0    0 -0.33873545457E+03 -0.33934548138E+03  0.14039591021E+02  0.47968133713E+03  0.10566000000E+00 0.  1.
         13    1    3    3    0    0  0.33433134745E+03  0.15236081064E+02  0.12577931838E+04  0.13015580250E+04  0.10566000000E+00 0. -1.
          2    1    1    2  502    0  0.68924556270E+02  0.26378001026E+03  0.18243316578E+04  0.18445911433E+04  0.00000000000E+00 0. -1.
         -4    1    3    3    0  502 -0.64520449151E+02  0.60329390055E+02 -0.17710009221E+03  0.19790645852E+03  0.00000000000E+00 0. -1.
</event>
<event>
 7    1  0.5696597E-006  0.1324344E+04  0.7818608E-02  0.8599316E-01
          4   -1    0    0  501    0 -0.00000000000E+00  0.00000000000E+00  0.74891940742E+03  0.74891940742E+03  0.00000000000E+00 0.  1.
          2   -1    0    0  502    0  0.00000000000E+00 -0.00000000000E+00 -0.18818953121E+04  0.18818953121E+04  0.00000000000E+00 0.  1.
    9000010    2    1    2  502    0 -0.47275992793E+03 -0.79774520277E+03 -0.43797672665E+03  0.13984926301E+04  0.95081999626E+03 0.  0.
        -13    1    3    3    0    0  0.21596784165E+03 -0.82874994544E+02 -0.32571303116E+03  0.39949889009E+03  0.10566000000E+00 0.  1.
         13    1    1    2    0    0  0.47622313378E+03  0.78392390961E+03 -0.51532936995E+03  0.10520881807E+04  0.10566000000E+00 0. -1.
          2    1    1    2  501    0 -0.34632058567E+01  0.13821293160E+02 -0.17966980808E+03  0.18023390878E+03  0.00000000000E+00 0.  1.
          4    1    3    3  502    0 -0.68872776958E+03 -0.71487020823E+03 -0.11226369548E+03  0.99899373998E+03  0.00000000000E+00 0.  1.
</event>
<event>
 7    1  0.5696597E-006  0.9979421E+03  0.7818608E-02  0.9198335E-01
          2   -1    0    0  501    0  0.00000000000E+00  0.00000000000E+00  0.96009901100E+03  0.96009901100E+03  0.00000000000E+00 0.  1.
         -4   -1    0    0    0  501 -0.00000000000E+00 -0.00000000000E+00 -0.13948481929E+04  0.13948481929E+04  0.00000000000E+00 0. -1.
   -9000010    2    1    2    0  502  0.64194863150E+02  0.17035601031E+03 -0.98185087577E+03  0.14002401951E+04  0.98158000748E+03 0.  0.
        -13    1    1    2    0    0 -0.75547599211E+02 -0.16299790221E+03 -0.16413389269E+03  0.24334276600E+03  0.10566000000E+00 0.  1.
         13    1    3    3    0    0  0.46042119977E+03  0.18715607782E+02 -0.83054893443E+03  0.94981550778E+03  0.10566000000E+00 0. -1.
          2    1    1    2  502    0  0.11352736061E+02 -0.73581081038E+01  0.71123558654E+03  0.71136424280E+03  0.00000000000E+00 0.  1.
         -4    1    3    3    0  502 -0.39622633662E+03  0.15164040253E+03 -0.15130194134E+03  0.45042468734E+03  0.00000000000E+00 0. -1.
</event>
<event>
 7    1  0.5696597E-006  0.1160269E+04  0.7818608E-02  0.8799443E-01
         -4   -1    0    0    0  501 -0.00000000000E+00  0.00000000000E+00  0.12801144174E+04  0.12801144174E+04  0.00000000000E+00 0. -1.
          2   -1    0    0  501    0  0.00000000000E+00 -0.00000000000E+00 -0.20697274622E+04  0.20697274622E+04  0.00000000000E+00 0. -1.
   -9000010    2    1    2    0  502 -0.45416757520E+03 -0.76107614096E+03  0.29827721275E+02  0.13419101109E+04  0.10071385079E+04 0.  0.
        -13    1    1    2    0    0  0.34591943900E+03  0.39016773328E+03  0.44516798584E+03  0.68561334960E+03  0.10566000000E+00 0.  1.
         13    1    3    3    0    0  0.68695079904E+02 -0.11251677084E+03 -0.38810157928E+03  0.40988032976E+03  0.10566000000E+00 0. -1.
          2    1    1    2  502    0  0.10824813619E+03  0.37090840767E+03 -0.12646087520E+04  0.13223184191E+04  0.00000000000E+00 0. -1.
         -4    1    3    3    0  502 -0.52286265510E+03 -0.64855937012E+03  0.41792930056E+03  0.93202978114E+03  0.00000000000E+00 0. -1.
</event>
<event>
 7    1  0.5696597E-006  0.1519053E+04  0.7818608E-02  0.8458734E-01
          2   -1    0    0  502    0  0.00000000000E+00  0.00000000000E+00  0.15051080493E+04  0.15051080493E+04  0.00000000000E+00 0. -1.
          4   -1    0    0  501    0 -0.00000000000E+00 -0.00000000000E+00 -0.16000730706E+04  0.16000730706E+04  0.00000000000E+00 0.  1.
    9000010    2    1    2  502    0 -0.61200849285E+03 -0.94729160472E+03  0.14662967850E+03  0.15085480570E+04  0.99111109261E+03 0.  0.
        -13    1    3    3    0    0 -0.41704723343E+03 -0.11298411220E+04  0.23530828301E+03  0.12271264625E+04  0.10566000000E+00 0.  1.
         13    1    1    2    0    0  0.65934710531E+03  0.95649942991E+03 -0.54938400935E+03  0.12850885439E+04  0.10566000000E+00 0. -1.
          2    1    1    2  501    0 -0.47338612458E+02 -0.92078251915E+01  0.30778930956E+03  0.31154451906E+03  0.00000000000E+00 0. -1.
          4    1    3    3  502    0 -0.19496125942E+03  0.18254951725E+03 -0.88678604504E+02  0.28142159445E+03  0.00000000000E+00 0.  1.
</event>
<event>
 7    1  0.5696597E-006  0.1044941E+04  0.7818608E-02  0.9022258E-01
         -4   -1    0    0    0  501 -0.00000000000E+00  0.00000000000E+00  0.76614995945E+03  0.76614995945E+03  0.00000000000E+00 0. -1.
          2   -1    0    0  501    0  0.00000000000E+00 -0.00000000000E+00 -0.26920715658E+04  0.26920715658E+04  0.00000000000E+00 0. -1.
   -9000010    2    1    2    0  502  0.56558469009E+02 -0.27635614792E+03 -0.62436839636E+03  0.12093589033E+04  0.99656484069E+03 0.  0.
        -13    1    1    2    0    0 -0.86031416339E+02  0.30422538384E+03  0.42063222996E+03  0.52619955608E+03  0.10566000000E+00 0.  1.
         13    1    3    3    0    0  0.26471612587E+03 -0.13009717388E+02  0.19160119562E+03  0.32703961437E+03  0.10566000000E+00 0. -1.
          2    1    1    2  502    0  0.29472947331E+02 -0.27869235919E+02 -0.17221854400E+04  0.17226630659E+04  0.00000000000E+00 0. -1.
         -4    1    3    3    0  502 -0.20815765686E+03 -0.26334643053E+03 -0.81596959198E+03  0.88231928893E+03  0.00000000000E+00 0. -1.
</event>
<event>
 7    1  0.5696597E-006  0.1102641E+04  0.7818608E-02  0.8854267E-01
          2   -1    0    0  502    0  0.00000000000E+00  0.00000000000E+00  0.21571861139E+04  0.21571861139E+04  0.00000000000E+00 0. -1.
          4   -1    0    0  501    0 -0.00000000000E+00 -0.00000000000E+00 -0.19319299834E+04  0.19319299834E+04  0.00000000000E+00 0.  1.
    9000010    2    1    2  502    0 -0.84321645584E+02  0.23563972851E+03 -0.54429236958E+03  0.11360820719E+04  0.96529377344E+03 0.  0.
        -13    1    3    3    0    0  0.14096049560E+03 -0.65132128750E+02 -0.70898481272E+03  0.72579028056E+03  0.10566000000E+00 0.  1.
         13    1    1    2    0    0  0.45937851771E+03 -0.43026146306E+03 -0.97363927400E+03  0.11593649107E+04  0.10566000000E+00 0. -1.
          2    1    1    2  501    0 -0.37505687212E+03  0.19462173456E+03  0.17431877741E+04  0.17936691146E+04  0.00000000000E+00 0. -1.
          4    1    3    3  502    0 -0.22528214118E+03  0.30077185726E+03  0.16469244314E+03  0.41029179139E+03  0.00000000000E+00 0.  1.
</event>
<event>
 7    1  0.5696597E-006  0.1292399E+04  0.7818608E-02  0.9002826E-01
          2   -1    0    0  501    0  0.00000000000E+00  0.00000000000E+00  0.30615766548E+04  0.30615766548E+04  0.00000000000E+00 0.  1.
         -4   -1    0    0    0  501 -0.00000000000E+00 -0.00000000000E+00 -0.90550900212E+03  0.90550900212E+03  0.00000000000E+00 0. -1.
   -9000010    2    1    2    0  502 -0.67743343979E+03  0.23286445828E+03  0.31491412897E+03  0.12636084065E+04  0.99216600173E+03 0.  0.
        -13    1    1    2    0    0 -0.72060604973E+02  0.16456413595E+03 -0.32819679308E+03  0.37414867604E+03  0.10566000000E+00 0.  1.
         13    1    3    3    0    0 -0.93602612909E+03  0.12900342771E+03  0.23373399128E+03  0.97335419481E+03  0.10566000000E+00 0. -1.
          2    1    1    2  502    0  0.74949404477E+03 -0.39742859424E+03  0.21693503168E+04  0.23293285745E+04  0.00000000000E+00 0.  1.
         -4    1    3    3    0  502  0.25859268930E+03  0.10386103057E+03  0.81180137690E+02  0.29025421166E+03  0.00000000000E+00 0. -1.
</event>
<event>
 7    1  0.5696597E-006  0.1382736E+04  0.7818608E-02  0.8560025E-01
          4   -1    0    0  501    0 -0.00000000000E+00  0.00000000000E+00  0.29013594516E+04  0.29013594516E+04  0.00000000000E+00 0.  1.
          2   -1    0    0  502    0  0.00000000000E+00 -0.00000000000E+00 -0.14305076973E+04  0.14305076973E+04  0.00000000000E+00 0. -1.
    9000010    2    1    2  502    0  0.96543377679E+03 -0.95317683972E+02  0.16629977856E+04  0.21651141836E+04  0.99045946638E+03 0.  0.
        -13    1    3    3    0    0  0.95346629890E+03 -0.19851175010E+03  0.70696873813E+03  0.12034573968E+04  0.10566000000E+00 0.  1.
         13    1    1    2    0    0 -0.95338843950E+03  0.11285478352E+03  0.75377096565E+03  0.12205967387E+04  0.10566000000E+00 0. -1.
          2    1    1    2  501    0 -0.12045337291E+02 -0.17537099548E+02 -0.94591699701E+03  0.94615622666E+03  0.00000000000E+00 0. -1.
          4    1    3    3  502    0  0.11967477887E+02  0.10319406613E+03  0.95602904751E+03  0.96165678675E+03  0.00000000000E+00 0.  1.
</event>
<event>
 7    1  0.5696597E-006  0.1053962E+04  0.7818608E-02  0.8998535E-01
         -4   -1    0    0    0  501 -0.00000000000E+00  0.00000000000E+00  0.21748370131E+03  0.21748370131E+03  0.00000000000E+00 0. -1.
          1   -1    0    0  501    0  0.00000000000E+00 -0.00000000000E+00 -0.27911612540E+04  0.27911612540E+04  0.00000000000E+00 0.  1.
   -9000010    2    1    2    0  502 -0.35813388288E+03  0.30699535434E+01 -0.13929377362E+04  0.17509387668E+04  0.99861991056E+03 0.  0.
        -13    1    1    2    0    0  0.31907365226E+03 -0.83353147493E+02 -0.77478535951E+03  0.84204994343E+03  0.10566000000E+00 0.  1.
         13    1    3    3    0    0 -0.62785507097E+03 -0.18043595491E+03 -0.12146336624E+04  0.13791642647E+04  0.10566000000E+00 0. -1.
          1    1    1    2  502    0  0.39060230620E+02  0.80283193950E+02 -0.40595445706E+03  0.41565624505E+03  0.00000000000E+00 0.  1.
         -4    1    3    3    0  502  0.26972118809E+03  0.18350590845E+03 -0.17830407375E+03  0.37177450216E+03  0.00000000000E+00 0. -1.
</event>
<event>
 7    1  0.5696597E-006  0.1054254E+04  0.7818608E-02  0.9013763E-01
          2   -1    0    0  502    0  0.00000000000E+00  0.00000000000E+00  0.91339448983E+03  0.91339448983E+03  0.00000000000E+00 0.  1.
          4   -1    0    0  501    0 -0.00000000000E+00 -0.00000000000E+00 -0.14797983576E+04  0.14797983576E+04  0.00000000000E+00 0.  1.
    9000010    2    1    2  502    0  0.25087684548E+03  0.18051861025E+03 -0.70433984505E+03  0.12660159563E+04  0.10055722868E+04 0.  0.
        -13    1    3    3    0    0  0.16158860934E+03 -0.45336429808E+02  0.23893003757E+03  0.29198261002E+03  0.10566000000E+00 0.  1.
         13    1    1    2    0    0 -0.25453574068E+03 -0.19070915112E+03 -0.44343551485E+03  0.54570458180E+03  0.10566000000E+00 0. -1.
          2    1    1    2  501    0  0.36588951923E+01  0.10190540866E+02  0.58137149213E+03  0.58147230931E+03  0.00000000000E+00 0.  1.
          4    1    3    3  502    0  0.89288236145E+02  0.22585504006E+03 -0.94326988262E+03  0.97403334629E+03  0.00000000000E+00 0.  1.
</event>
<event>
 7    1  0.5696597E-006  0.1087308E+04  0.7818608E-02  0.8912767E-01
          2   -1    0    0  501    0  0.00000000000E+00  0.00000000000E+00  0.14468042726E+04  0.14468042726E+04  0.00000000000E+00 0.  1.
         -4   -1    0    0    0  501 -0.00000000000E+00 -0.00000000000E+00 -0.10458752599E+04  0.10458752599E+04  0.00000000000E+00 0. -1.
   -9000010    2    1    2    0  502 -0.51816931907E+03 -0.58868921274E+02  0.40210093480E+02  0.11250955855E+04  0.99612159482E+03 0.  0.
        -13    1    1    2    0    0  0.41452301758E+03 -0.10043078032E+03 -0.39924344621E+03  0.58421829331E+03  0.10566000000E+00 0.  1.
         13    1    3    3    0    0 -0.45739423265E+03  0.43236018496E+03  0.21440175858E+02  0.62976543722E+03  0.10566000000E+00 0. -1.
          2    1    1    2  502    0  0.10364630150E+03  0.15929970159E+03  0.75996236541E+03  0.78336565382E+03  0.00000000000E+00 0.  1.
         -4    1    3    3    0  502 -0.60775086418E+02 -0.49122910624E+03  0.18769917621E+02  0.49533014824E+03  0.00000000000E+00 0. -1.
</event>
<event>
 7    1  0.5696597E-006  0.1123517E+04  0.7818608E-02  0.8801446E-01
          2   -1    0    0  502    0  0.00000000000E+00  0.00000000000E+00  0.35370528793E+04  0.35370528793E+04  0.00000000000E+00 0.  1.
          4   -1    0    0  501    0 -0.00000000000E+00 -0.00000000000E+00 -0.28288977129E+03  0.28288977129E+03  0.00000000000E+00 0.  1.
    9000010    2    1    2  502    0 -0.39105839068E+03 -0.48591597602E+03  0.22644713205E+04  0.25265248503E+04  0.93083642888E+03 0.  0.
        -13    1    3    3    0    0  0.93663084490E+02 -0.55413808612E+03  0.76546663702E+03  0.94962149062E+03  0.10566000000E+00 0.  1.
         13    1    1    2    0    0  0.24968235918E+03  0.58561357008E+03  0.63700513855E+03  0.90058874724E+03  0.10566000000E+00 0. -1.
          2    1    1    2  501    0  0.14137603150E+03 -0.99697594058E+02  0.35268664901E+03  0.39282905307E+03  0.00000000000E+00 0.  1.
          4    1    3    3  502    0 -0.48472147517E+03  0.68222110105E+02  0.14990046835E+04  0.15769033597E+04  0.00000000000E+00 0.  1.
</event>
<event>
 7    1  0.5696597E-006  0.1026772E+04  0.7818608E-02  0.9083361E-01
          2   -1    0    0  502    0  0.00000000000E+00  0.00000000000E+00  0.13097781817E+04  0.13097781817E+04  0.00000000000E+00 0.  1.
          4   -1    0    0  501    0 -0.00000000000E+00 -0.00000000000E+00 -0.90858679602E+03  0.90858679602E+03  0.00000000000E+00 0.  1.
    9000010    2    1    2  502    0  0.14112555145E+03 -0.21799328048E+03 -0.49831170811E+03  0.11413604599E+04  0.99345440231E+03 0.  0.
        -13    1    3    3    0    0  0.16455088943E+03 -0.61102911622E+03 -0.32062829424E+03  0.70939135202E+03  0.10566000000E+00 0.  1.
         13    1    1    2    0    0 -0.15350779949E+03  0.20917209656E+03  0.10110198396E+03  0.27845867343E+03  0.10566000000E+00 0. -1.
          2    1    1    2  501    0  0.12382248041E+02  0.88211839203E+01  0.79840110978E+03  0.79854584430E+03  0.00000000000E+00 0.  1.
          4    1    3    3  502    0 -0.23425337981E+02  0.39303583574E+03 -0.17768341387E+03  0.43196910792E+03  0.00000000000E+00 0.  1.
</event>
<event>
 7    1  0.5696597E-006  0.1161028E+04  0.7818608E-02  0.8788469E-01
          2   -1    0    0  501    0  0.00000000000E+00  0.00000000000E+00  0.54285331028E+03  0.54285331028E+03  0.00000000000E+00 0. -1.
         -4   -1    0    0    0  501 -0.00000000000E+00 -0.00000000000E+00 -0.25390215429E+04  0.25390215429E+04  0.00000000000E+00 0. -1.
   -9000010    2    1    2    0  502  0.16892550186E+02  0.37670562250E+03 -0.63169556361E+03  0.12354711867E+04  0.99255089737E+03 0.  0.
        -13    1    1    2    0    0 -0.13619775943E+03 -0.64385046949E+03 -0.14045644041E+04  0.15510945920E+04  0.10566000000E+00 0.  1.
         13    1    3    3    0    0 -0.48750447071E+03  0.18264623275E+03 -0.33286661564E+03  0.61791621623E+03  0.10566000000E+00 0. -1.
          2    1    1    2  502    0  0.11930520925E+03  0.26714484700E+03  0.40091735149E+02  0.29530907446E+03  0.00000000000E+00 0. -1.
         -4    1    3    3    0  502  0.50439702090E+03  0.19405938974E+03 -0.29882894797E+03  0.61755497049E+03  0.00000000000E+00 0. -1.
</event>
<event>
 7    1  0.5696597E-006  0.1225956E+04  0.7818608E-02  0.8952534E-01
          2   -1    0    0  501    0  0.00000000000E+00  0.00000000000E+00  0.10242129760E+04  0.10242129760E+04  0.00000000000E+00 0. -1.
         -4   -1    0    0    0  501 -0.00000000000E+00 -0.00000000000E+00 -0.12785314364E+04  0.12785314364E+04  0.00000000000E+00 0. -1.
   -9000010    2    1    2    0  502  0.12262241865E+03  0.21377804069E+03 -0.12638147559E+03  0.12300360159E+04  0.11984485867E+04 0.  0.
        -13    1    1    2    0    0 -0.57308001305E+02 -0.25296094401E+03 -0.56888906633E+03  0.62522654067E+03  0.10566000000E+00 0.  1.
         13    1    3    3    0    0  0.99408270448E+02 -0.10270286437E+03 -0.62382727581E+03  0.63999247167E+03  0.10566000000E+00 0. -1.
          2    1    1    2  502    0 -0.65314417350E+02  0.39182903312E+02  0.44095208158E+03  0.44748185580E+03  0.00000000000E+00 0. -1.
         -4    1    3    3    0  502  0.23214148206E+02  0.31648090506E+03  0.49744580023E+03  0.59004354425E+03  0.00000000000E+00 0. -1.
</event>
<event>
 7    1  0.5696597E-006  0.1022070E+04  0.7818608E-02  0.9481645E-01
          2   -1    0    0  501    0  0.00000000000E+00  0.00000000000E+00  0.29051225574E+04  0.29051225574E+04  0.00000000000E+00 0. -1.
         -4   -1    0    0    0  501 -0.00000000000E+00 -0.00000000000E+00 -0.26032046088E+03  0.26032046088E+03  0.00000000000E+00 0. -1.
   -9000010    2    1    2    0  502  0.87591843945E+02 -0.95353772942E+00  0.19479343631E+04  0.22007752196E+04  0.10204362029E+04 0.  0.
        -13    1    1    2    0    0 -0.56728048471E+02  0.10397136023E+02 -0.12735929176E+03  0.13980905651E+03  0.10566000000E+00 0.  1.
         13    1    3    3    0    0  0.93903114015E+01  0.16087791194E+03 -0.69392628042E+02  0.17545719845E+03  0.10566000000E+00 0. -1.
          2    1    1    2  502    0 -0.30863795474E+02 -0.94435982939E+01  0.82422702517E+03  0.82485874211E+03  0.00000000000E+00 0. -1.
         -4    1    3    3    0  502  0.78201532543E+02 -0.16183144967E+03  0.20173269911E+04  0.20253180212E+04  0.00000000000E+00 0. -1.
</event>
<event>
 7    1  0.5696597E-006  0.1373360E+04  0.7818608E-02  0.8570493E-01
          1   -1    0    0  501    0  0.00000000000E+00  0.00000000000E+00  0.59865448075E+03  0.59865448075E+03  0.00000000000E+00 0.  1.
         -4   -1    0    0    0  501 -0.00000000000E+00 -0.00000000000E+00 -0.27366232594E+04  0.27366232594E+04  0.00000000000E+00 0. -1.
   -9000010    2    1    2    0  502  0.86483390436E+03  0.41412072959E+03 -0.15531578180E+04  0.20820049328E+04  0.10015047037E+04 0.  0.
        -13    1    1    2    0    0 -0.84661421242E+03 -0.36802569459E+03 -0.67958972661E+03  0.11463161624E+04  0.10566000000E+00 0.  1.
         13    1    3    3    0    0  0.76438290428E+03  0.70908882721E+03 -0.98671881447E+03  0.14355146183E+04  0.10566000000E+00 0. -1.
          1    1    1    2  502    0 -0.18219691938E+02 -0.46095035000E+02  0.94778765961E+02  0.10695664497E+03  0.00000000000E+00 0.  1.
         -4    1    3    3    0  502  0.10045100008E+03 -0.29496809762E+03 -0.56643900357E+03  0.64649031454E+03  0.00000000000E+00 0. -1.
</event>
<event>
 7    1  0.5696597E-006  0.1110972E+04  0.7818608E-02  0.8870327E-01
         -4   -1    0    0    0  501 -0.00000000000E+00  0.00000000000E+00  0.10900541258E+04  0.10900541258E+04  0.00000000000E+00 0. -1.
          1   -1    0    0  501    0  0.00000000000E+00 -0.00000000000E+00 -0.64068037007E+03  0.64068037007E+03  0.00000000000E+00 0.  1.
   -9000010    2    1    2    0  502  0.21575831024E+03  0.43843660721E+03  0.20491421295E+03  0.11303175026E+04  0.99842351486E+03 0.  0.
        -13    1    1    2    0    0 -0.19844923905E+03 -0.44462307508E+03  0.27908630034E+03  0.56121382161E+03  0.10566000000E+00 0.  1.
         13    1    3    3    0    0  0.17007508479E+03  0.69663705165E+03  0.38336827697E+03  0.81314203135E+03  0.10566000000E+00 0. -1.
          1    1    1    2  502    0 -0.17309071185E+02  0.61864678655E+01 -0.34626757558E+02  0.39203171669E+02  0.00000000000E+00 0.  1.
         -4    1    3    3    0  502  0.45683225452E+02 -0.25820044443E+03 -0.17845406402E+03  0.31717547124E+03  0.00000000000E+00 0. -1.
</event>
<event>
 7    1  0.5696597E-006  0.1096458E+04  0.7818608E-02  0.8919286E-01
         -4   -1    0    0    0  501 -0.00000000000E+00  0.00000000000E+00  0.18440813511E+04  0.18440813511E+04  0.00000000000E+00 0. -1.
          1   -1    0    0  501    0  0.00000000000E+00 -0.00000000000E+00 -0.57516324773E+03  0.57516324773E+03  0.00000000000E+00 0. -1.
   -9000010    2    1    2    0  502 -0.22868234327E+03  0.47079845500E+03  0.10255571400E+04  0.15351632186E+04  0.10153875423E+04 0.  0.
        -13    1    1    2    0    0  0.31849745650E+03 -0.23152067467E+03  0.41821767452E+03  0.57441142663E+03  0.10566000000E+00 0.  1.
         13    1    3    3    0    0  0.20082056551E+03  0.38561257681E+03  0.10070608381E+04  0.10969035973E+04  0.10566000000E+00 0. -1.
          1    1    1    2  502    0 -0.89815113233E+02 -0.23927778033E+03 -0.17485671112E+03  0.30966995358E+03  0.00000000000E+00 0. -1.
         -4    1    3    3    0  502 -0.42950290878E+03  0.85185878186E+02  0.18496301846E+02  0.43825962132E+03  0.00000000000E+00 0. -1.
</event>
<event>
 7    1  0.5696597E-006  0.1024668E+04  0.7818608E-02  0.9049605E-01
          1   -1    0    0  501    0  0.00000000000E+00  0.00000000000E+00  0.40294756378E+03  0.40294756378E+03  0.00000000000E+00 0. -1.
         -4   -1    0    0    0  501 -0.00000000000E+00 -0.00000000000E+00 -0.37033506994E+04  0.37033506994E+04  0.00000000000E+00 0. -1.
   -9000010    2    1    2    0  502 -0.11358815507E+03  0.21658292660E+03 -0.25253929627E+04  0.27199586168E+04  0.98018101781E+03 0.  0.
        -13    1    1    2    0    0  0.22459037645E+03 -0.21922246863E+03 -0.10467515972E+04  0.10927892045E+04  0.10566000000E+00 0.  1.
         13    1    3    3    0    0  0.14200073151E+03  0.41390892160E+03 -0.48117349672E+03  0.65039430213E+03  0.10566000000E+00 0. -1.
          1    1    1    2  502    0 -0.11100222138E+03  0.26395420328E+01  0.27174142427E+03  0.29355044200E+03  0.00000000000E+00 0. -1.
         -4    1    3    3    0  502 -0.25558888658E+03 -0.19732599500E+03 -0.20442194660E+04  0.20695643146E+04  0.00000000000E+00 0. -1.
</event>
<event>
 7    1  0.5696597E-006  0.1049912E+04  0.7818608E-02  0.9079796E-01
          4   -1    0    0  501    0 -0.00000000000E+00  0.00000000000E+00  0.38653018397E+03  0.38653018397E+03  0.00000000000E+00 0.  1.
          2   -1    0    0  502    0  0.00000000000E+00 -0.00000000000E+00 -0.12912787675E+04  0.12912787675E+04  0.00000000000E+00 0.  1.
    9000010    2    1    2  502    0  0.23793770255E+03  0.31222979705E+02 -0.75342705866E+03  0.12911162973E+04  0.10206565219E+04 0.  0.
        -13    1    3    3    0    0  0.35448722142E+02  0.47505213232E+03 -0.62649163255E+03  0.78703425412E+03  0.10566000000E+00 0.  1.
         13    1    1    2    0    0 -0.24584742064E+03 -0.22993443980E+02 -0.12324502011E+02  0.24722774362E+03  0.10566000000E+00 0. -1.
          2    1    1    2  501    0  0.79097180927E+01 -0.82295357253E+01 -0.13899702284E+03  0.13946491049E+03  0.00000000000E+00 0.  1.
          4    1    3    3  502    0  0.20248898040E+03 -0.44382915262E+03 -0.12693542610E+03  0.50408204322E+03  0.00000000000E+00 0.  1.
</event>
<event>
 7    1  0.5696597E-006  0.1186030E+04  0.7818608E-02  0.9175579E-01
          1   -1    0    0  501    0  0.00000000000E+00  0.00000000000E+00  0.14395027868E+04  0.14395027868E+04  0.00000000000E+00 0.  1.
         -4   -1    0    0    0  501 -0.00000000000E+00 -0.00000000000E+00 -0.60540220436E+03  0.60540220436E+03  0.00000000000E+00 0. -1.
   -9000010    2    1    2    0  502 -0.10712520736E+03  0.83241370940E+02 -0.10122107966E+02  0.11880476604E+04  0.11802329645E+04 0.  0.
        -13    1    1    2    0    0  0.70352163609E+02 -0.74210640552E+02  0.48615503543E+03  0.49679309147E+03  0.10566000000E+00 0.  1.
         13    1    3    3    0    0 -0.15816227197E+03  0.30928172671E+03 -0.52150636108E+03  0.62660943702E+03  0.10566000000E+00 0. -1.
          1    1    1    2  502    0  0.36773043747E+02 -0.90307303886E+01  0.35806765495E+03  0.36006423922E+03  0.00000000000E+00 0.  1.
         -4    1    3    3    0  502  0.51037064618E+02 -0.22604035577E+03  0.51138425311E+03  0.56143822343E+03  0.00000000000E+00 0. -1.
</event>
<event>
 7    1  0.5696597E-006  0.1001928E+04  0.7818608E-02  0.9322078E-01
          2   -1    0    0  502    0  0.00000000000E+00  0.00000000000E+00  0.23668296249E+03  0.23668296249E+03  0.00000000000E+00 0.  1.
          4   -1    0    0  501    0 -0.00000000000E+00 -0.00000000000E+00 -0.23447884260E+04  0.23447884260E+04  0.00000000000E+00 0.  1.
    9000010    2    1    2  502    0 -0.56959721374E+02 -0.14732519869E+03 -0.18868182566E+04  0.21393027911E+04  0.99578319646E+03 0.  0.
        -13    1    3    3    0    0  0.33912736281E+02 -0.49467282669E+03 -0.16137931137E+04  0.16882474653E+04  0.10566000000E+00 0.  1.
         13    1    1    2    0    0  0.59692140506E+02  0.89635173145E+02 -0.31454804420E+03  0.33247270441E+03  0.10566000000E+00 0. -1.
          2    1    1    2  501    0 -0.27324191324E+01  0.57690025540E+02  0.93260837320E+02  0.10969589299E+03  0.00000000000E+00 0.  1.
          4    1    3    3  502    0 -0.90872457654E+02  0.34734762800E+03 -0.27302514294E+03  0.45105532578E+03  0.00000000000E+00 0.  1.
</event>
<event>
 7    1  0.5696597E-006  0.1519618E+04  0.7818608E-02  0.8500354E-01
          4   -1    0    0  501    0 -0.00000000000E+00  0.00000000000E+00  0.21754611648E+04  0.21754611648E+04  0.00000000000E+00 0.  1.
          2   -1    0    0  502    0  0.00000000000E+00 -0.00000000000E+00 -0.10960156619E+04  0.10960156619E+04  0.00000000000E+00 0.  1.
    9000010    2    1    2  502    0 -0.29590781809E+03 -0.91410674625E+03  0.12638301834E+04  0.19811491503E+04  0.11851298001E+04 0.  0.
        -13    1    3    3    0    0 -0.11952012039E+03 -0.62124074246E+03  0.14570356624E+04  0.15884514635E+04  0.10566000000E+00 0.  1.
         13    1    1    2    0    0  0.26644257593E+03  0.90202728757E+03  0.15172329325E+03  0.95271446020E+03  0.10566000000E+00 0. -1.
          2    1    1    2  501    0  0.29465242160E+02  0.12079458684E+02 -0.33610797366E+03  0.33761321623E+03  0.00000000000E+00 0.  1.
          4    1    3    3  502    0 -0.17638769770E+03 -0.29286600379E+03 -0.19320547906E+03  0.39269768679E+03  0.00000000000E+00 0.  1.
</event>
<event>
 7    1  0.5696597E-006  0.9655961E+03  0.7818608E-02  0.9042540E-01
         -4   -1    0    0    0  501 -0.00000000000E+00  0.00000000000E+00  0.75874794654E+03  0.75874794654E+03  0.00000000000E+00 0. -1.
          2   -1    0    0  501    0  0.00000000000E+00 -0.00000000000E+00 -0.21737579816E+04  0.21737579816E+04  0.00000000000E+00 0. -1.
   -9000010    2    1    2    0  502 -0.33843049307E+03  0.89579766151E+02  0.51117802308E+02  0.96061148341E+03  0.89308547139E+03 0.  0.
        -13    1    1    2    0    0  0.36394445006E+03 -0.78614732270E+02  0.11564017532E+03  0.38988267488E+03  0.10566000000E+00 0.  1.
         13    1    3    3    0    0 -0.34731488694E+03  0.28639214099E+03 -0.31184507453E+03  0.54762710924E+03  0.10566000000E+00 0. -1.
          2    1    1    2  502    0 -0.25513956987E+02 -0.10965033881E+02 -0.15817680127E+04  0.15820117698E+04  0.00000000000E+00 0. -1.
         -4    1    3    3    0  502  0.88843938630E+01 -0.19681237484E+03  0.36296287684E+03  0.41298437417E+03  0.00000000000E+00 0. -1.
</event>
<event>
 7    1  0.5696597E-006  0.1092778E+04  0.7818608E-02  0.8953518E-01
          2   -1    0    0  501    0  0.00000000000E+00  0.00000000000E+00  0.11170056283E+04  0.11170056283E+04  0.00000000000E+00 0. -1.
         -4   -1    0    0    0  501 -0.00000000000E+00 -0.00000000000E+00 -0.18787489478E+04  0.18787489478E+04  0.00000000000E+00 0. -1.
   -9000010    2    1    2    0  502 -0.54025632723E+03 -0.50652295885E+03 -0.79049412858E+03  0.14822487388E+04  0.10117993622E+04 0.  0.
        -13    1    1    2    0    0  0.31697988130E+03  0.17723548403E+03 -0.63971157718E+03  0.73560830276E+03  0.10566000000E+00 0.  1.
         13    1    3    3    0    0  0.20249449935E+02 -0.56913971848E+03 -0.79961477595E+02  0.57508600091E+03  0.10566000000E+00 0. -1.
          2    1    1    2  502    0  0.22327644593E+03  0.32928747483E+03  0.66846238630E+03  0.77789753457E+03  0.00000000000E+00 0. -1.
         -4    1    3    3    0  502 -0.56050577716E+03  0.62616759630E+02 -0.71053265098E+03  0.90716273784E+03  0.00000000000E+00 0. -1.
</event>
<event>
 7    1  0.5696597E-006  0.1007002E+04  0.7818608E-02  0.9228656E-01
          4   -1    0    0  501    0 -0.00000000000E+00  0.00000000000E+00  0.28568598561E+03  0.28568598561E+03  0.00000000000E+00 0.  1.
          2   -1    0    0  502    0  0.00000000000E+00 -0.00000000000E+00 -0.13476452296E+04  0.13476452296E+04  0.00000000000E+00 0.  1.
    9000010    2    1    2  502    0 -0.47985070311E+02 -0.13838203556E+03 -0.80236891595E+03  0.12864792275E+04  0.99487726415E+03 0.  0.
        -13    1    3    3    0    0 -0.26253681443E+03 -0.40854790485E+03 -0.88516457152E+02  0.49363158716E+03  0.10566000000E+00 0.  1.
         13    1    1    2    0    0  0.65853104351E+02  0.14270188297E+03 -0.10016263348E+03  0.18636797758E+03  0.10566000000E+00 0. -1.
          2    1    1    2  501    0 -0.17868034040E+02 -0.43198474109E+01 -0.15942769455E+03  0.16048401014E+03  0.00000000000E+00 0.  1.
          4    1    3    3  502    0  0.21455174412E+03  0.27016586929E+03 -0.71385245880E+03  0.79284764033E+03  0.00000000000E+00 0.  1.
</event>
<event>
 7    1  0.5696597E-006  0.1010209E+04  0.7818608E-02  0.9005016E-01
         -4   -1    0    0    0  501 -0.00000000000E+00  0.00000000000E+00  0.22028616926E+04  0.22028616926E+04  0.00000000000E+00 0. -1.
          1   -1    0    0  501    0  0.00000000000E+00 -0.00000000000E+00 -0.25501282442E+04  0.25501282442E+04  0.00000000000E+00 0. -1.
   -9000010    2    1    2    0  502 -0.20352934377E+03 -0.31306826908E+03  0.21346840754E+03  0.10327185914E+04  0.93888390823E+03 0.  0.
        -13    1    1    2    0    0  0.13330648536E+03  0.34863017252E+03  0.15569802700E+04  0.16010937476E+04  0.10566000000E+00 0.  1.
         13    1    3    3    0    0 -0.48937829228E+03 -0.28320551563E+03 -0.13471079437E+03  0.58124305270E+03  0.10566000000E+00 0. -1.
          1    1    1    2  502    0  0.70222858419E+02 -0.35561903438E+02 -0.21177152292E+04  0.21191775978E+04  0.00000000000E+00 0. -1.
         -4    1    3    3    0  502  0.28584894850E+03 -0.29862753456E+02  0.34817920191E+03  0.45147553870E+03  0.00000000000E+00 0. -1.
</event>
<event>
 7    1  0.5696597E-006  0.1003583E+04  0.7818608E-02  0.9188848E-01
          2   -1    0    0  502    0  0.00000000000E+00  0.00000000000E+00  0.10595610037E+04  0.10595610037E+04  0.00000000000E+00 0.  1.
          4   -1    0    0  501    0 -0.00000000000E+00 -0.00000000000E+00 -0.24965649331E+04  0.24965649331E+04  0.00000000000E+00 0.  1.
    9000010    2    1    2  502    0 -0.17451769392E+03 -0.15904564333E+02 -0.23302181380E+04  0.25365530064E+04  0.98664846985E+03 0.  0.
        -13    1    3    3    0    0  0.12489336409E+03 -0.61435333017E+02  0.41762784960E+02  0.14531618598E+03  0.10566000000E+00 0.  1.
         13    1    1    2    0    0  0.19644954123E+03 -0.64242740755E-01  0.90315360944E+02  0.21621586890E+03  0.10566000000E+00 0. -1.
          2    1    1    2  501    0 -0.21931847309E+02  0.15968807074E+02  0.80289884767E+03  0.80335706153E+03  0.00000000000E+00 0.  1.
          4    1    3    3  502    0 -0.29941105800E+03  0.45530768684E+02 -0.23719809229E+04  0.23912368204E+04  0.00000000000E+00 0.  1.
</event>
<event>
 7    1  0.5696597E-006  0.1010148E+04  0.7818608E-02  0.9283728E-01
          2   -1    0    0  502    0  0.00000000000E+00  0.00000000000E+00  0.13263442516E+04  0.13263442516E+04  0.00000000000E+00 0.  1.
          4   -1    0    0  501    0 -0.00000000000E+00 -0.00000000000E+00 -0.12839565748E+04  0.12839565748E+04  0.00000000000E+00 0.  1.
    9000010    2    1    2  502    0  0.67551359452E+02 -0.11135538434E+03 -0.10118994941E+04  0.14302703743E+04  0.10023819381E+04 0.  0.
        -13    1    3    3    0    0  0.12091454513E+02 -0.46594677482E+03 -0.96061349725E+03  0.10677222965E+04  0.10566000000E+00 0.  1.
         13    1    1    2    0    0 -0.76061317203E+02  0.97544115597E+02 -0.19100232036E+01  0.12370868124E+03  0.10566000000E+00 0. -1.
          2    1    1    2  501    0  0.85099577505E+01  0.13811268741E+02  0.10561971942E+04  0.10563217708E+04  0.00000000000E+00 0.  1.
          4    1    3    3  502    0  0.55459904939E+02  0.35459139048E+03 -0.51285996820E+02  0.36254807782E+03  0.00000000000E+00 0.  1.
</event>
<event>
 7    1  0.5696597E-006  0.1054947E+04  0.7818608E-02  0.9044038E-01
          4   -1    0    0  501    0 -0.00000000000E+00  0.00000000000E+00  0.73403776311E+03  0.73403776311E+03  0.00000000000E+00 0.  1.
          2   -1    0    0  502    0  0.00000000000E+00 -0.00000000000E+00 -0.24794110496E+04  0.24794110496E+04  0.00000000000E+00 0. -1.
    9000010    2    1    2  502    0  0.23148266044E+02  0.98720662719E+02  0.19871630859E+03  0.10119973539E+04  0.98710124181E+03 0.  0.
        -13    1    3    3    0    0  0.26753365133E+03  0.44495234887E+03 -0.48365296660E+02  0.52143653539E+03  0.10566000000E+00 0.  1.
         13    1    1    2    0    0  0.33916277228E+02  0.27776527422E+03 -0.69164234322E+02  0.28824913512E+03  0.10566000000E+00 0. -1.
          2    1    1    2  501    0 -0.57064543272E+02 -0.37648593694E+03 -0.18749253608E+04  0.19132023237E+04  0.00000000000E+00 0. -1.
          4    1    3    3  502    0 -0.24438538528E+03 -0.34623168615E+03  0.24708160525E+03  0.49056081854E+03  0.00000000000E+00 0.  1.
</event>
<event>
 7    1  0.5696597E-006  0.1206373E+04  0.7818608E-02  0.8743796E-01
         -4   -1    0    0    0  501 -0.00000000000E+00  0.00000000000E+00  0.19586325588E+04  0.19586325588E+04  0.00000000000E+00 0. -1.
          1   -1    0    0  501    0  0.00000000000E+00 -0.00000000000E+00 -0.77503052033E+03  0.77503052033E+03  0.00000000000E+00 0. -1.
   -9000010    2    1    2    0  502 -0.58330591010E+03  0.50832203761E+03  0.12874334285E+03  0.12839340278E+04  0.10165011858E+04 0.  0.
        -13    1    1    2    0    0  0.47350525295E+03 -0.41847051374E+03  0.11258578597E+04  0.12910773512E+04  0.10566000000E+00 0.  1.
         13    1    3    3    0    0 -0.29043495233E+03  0.35989722668E+03 -0.43283058435E+03  0.63341992487E+03  0.10566000000E+00 0. -1.
          1    1    1    2  502    0  0.10980065715E+03 -0.89851523864E+02 -0.70999164066E+02  0.15865170011E+03  0.00000000000E+00 0. -1.
         -4    1    3    3    0  502 -0.29287095777E+03  0.14842481093E+03  0.56157392720E+03  0.65051410293E+03  0.00000000000E+00 0. -1.
</event>
<event>
 7    1  0.5696597E-006  0.1024679E+04  0.7818608E-02  0.9094310E-01
          4   -1    0    0  501    0  0.00000000000E+00  0.00000000000E+00  0.30522425239E+04  0.30522425239E+04  0.00000000000E+00 0.  1.
         -4   -1    0    0    0  501 -0.00000000000E+00 -0.00000000000E+00 -0.96742615905E+03  0.96742615905E+03  0.00000000000E+00 0. -1.
   -9000010    2    1    2    0  502 -0.91962318256E+02 -0.15875676347E+03  0.64057606595E+03  0.11964521825E+04  0.99373001906E+03 0.  0.
        -13    1    1    2    0    0  0.22456863142E+03  0.11507248948E+03 -0.66401460897E+03  0.71034369156E+03  0.10566000000E+00 0.  1.
         13    1    3    3    0    0 -0.39233431802E+03  0.15716349793E+03  0.63218272836E+03  0.76044828580E+03  0.10566000000E+00 0. -1.
          4    1    1    2  502    0 -0.13260631316E+03  0.43684273993E+02  0.21082549079E+04  0.21128728089E+04  0.00000000000E+00 0.  1.
         -4    1    3    3    0  502  0.30037199977E+03 -0.31592026140E+03  0.83933375937E+01  0.43600389668E+03  0.00000000000E+00 0. -1.
</event>
<event>
 7    1  0.5696597E-006  0.1129129E+04  0.7818608E-02  0.8882420E-01
          2   -1    0    0  502    0  0.00000000000E+00  0.00000000000E+00  0.94296281089E+03  0.94296281089E+03  0.00000000000E+00 0.  1.
          4   -1    0    0  501    0 -0.00000000000E+00 -0.00000000000E+00 -0.22195095949E+04  0.22195095949E+04  0.00000000000E+00 0.  1.
    9000010    2    1    2  502    0  0.26506677257E+03  0.40327193393E+03 -0.48595665280E+03  0.12446665057E+04  0.10393037070E+04 0.  0.
        -13    1    3    3    0    0  0.58822590088E+02 -0.35501444870E+03 -0.14210733453E+03  0.38689774047E+03  0.10566000000E+00 0.  1.
         13    1    1    2    0    0 -0.70629241205E+02 -0.43535606974E+03 -0.12993759486E+04  0.13721884944E+04  0.10566000000E+00 0. -1.
          2    1    1    2  501    0 -0.19443753136E+03  0.32084135810E+02  0.50878581742E+03  0.54561740568E+03  0.00000000000E+00 0.  1.
          4    1    3    3  502    0  0.20624418248E+03  0.75828638264E+03 -0.34384931827E+03  0.85776876521E+03  0.00000000000E+00 0.  1.
</event>
<event>
 7    1  0.5696597E-006  0.9283331E+03  0.7818608E-02  0.9321230E-01
          4   -1    0    0  501    0 -0.00000000000E+00  0.00000000000E+00  0.18447609607E+04  0.18447609607E+04  0.00000000000E+00 0.  1.
          2   -1    0    0  502    0  0.00000000000E+00 -0.00000000000E+00 -0.21151423057E+04  0.21151423057E+04  0.00000000000E+00 0. -1.
    9000010    2    1    2  502    0 -0.17116738152E+03 -0.13192615363E+03  0.15260633126E+04  0.17938359090E+04  0.91775555116E+03 0.  0.
        -13    1    3    3    0    0 -0.14382873553E+03 -0.50616218873E+03  0.62030037095E+03  0.81342450654E+03  0.10566000000E+00 0.  1.
         13    1    1    2    0    0  0.13011952680E+03  0.13512166665E+02  0.15940154277E+03  0.20620992436E+03  0.10566000000E+00 0. -1.
          2    1    1    2  501    0  0.41047854722E+02  0.11841398696E+03 -0.19558462003E+04  0.19598574331E+04  0.00000000000E+00 0. -1.
          4    1    3    3  502    0 -0.27338645990E+02  0.37423603510E+03  0.90576294166E+03  0.98041140243E+03  0.00000000000E+00 0.  1.
</event>
<event>
 7    1  0.5696597E-006  0.9867351E+03  0.7818608E-02  0.9447302E-01
         -4   -1    0    0    0  501 -0.00000000000E+00  0.00000000000E+00  0.24039311856E+04  0.24039311856E+04  0.00000000000E+00 0. -1.
          2   -1    0    0  501    0  0.00000000000E+00 -0.00000000000E+00 -0.75417008653E+03  0.75417008653E+03  0.00000000000E+00 0. -1.
   -9000010    2    1    2    0  502  0.45889072316E+02  0.45289638676E+02  0.22760804240E+04  0.24805337004E+04  0.98404694200E+03 0.  0.
        -13    1    1    2    0    0 -0.54642158403E+02 -0.55064973179E+02 -0.33328728476E+02  0.84431818955E+02  0.10566000000E+00 0.  1.
         13    1    3    3    0    0  0.48478242776E+03  0.12212408103E+03  0.15501185286E+04  0.16287405433E+04  0.10566000000E+00 0. -1.
          2    1    1    2  502    0  0.87530860874E+01  0.97753345035E+01 -0.59299059647E+03  0.59313575274E+03  0.00000000000E+00 0. -1.
         -4    1    3    3    0  502 -0.43889335544E+03 -0.76834442349E+02  0.72596189541E+03  0.85179315715E+03  0.00000000000E+00 0. -1.
</event>
<event>
 7    1  0.5696597E-006  0.1047522E+04  0.7818608E-02  0.8989272E-01
         -4   -1    0    0    0  501 -0.00000000000E+00  0.00000000000E+00  0.52220836435E+03  0.52220836435E+03  0.00000000000E+00 0. -1.
          2   -1    0    0  501    0  0.00000000000E+00 -0.00000000000E+00 -0.17655468313E+04  0.17655468313E+04  0.00000000000E+00 0. -1.
   -9000010    2    1    2    0  502 -0.26900154814E+03  0.24471993279E+03 -0.12077399208E+04  0.16003595879E+04  0.98502051555E+03 0.  0.
        -13    1    1    2    0    0  0.26964409910E+03 -0.23233360460E+03  0.22852684364E+03  0.42297916430E+03  0.10566000000E+00 0.  1.
         13    1    3    3    0    0 -0.23293513980E+03  0.57405801631E+03 -0.10804106362E+04  0.12454270510E+04  0.10566000000E+00 0. -1.
          2    1    1    2  502    0 -0.64255095955E+00 -0.12386328196E+02 -0.26412538986E+03  0.26441644345E+03  0.00000000000E+00 0. -1.
         -4    1    3    3    0  502 -0.36066408344E+02 -0.32933808352E+03 -0.12732928461E+03  0.35493253695E+03  0.00000000000E+00 0. -1.
</event>
<event>
 7    1  0.5696597E-006  0.1162877E+04  0.7818608E-02  0.8805256E-01
          4   -1    0    0  501    0 -0.00000000000E+00  0.00000000000E+00  0.38195502849E+03  0.38195502849E+03  0.00000000000E+00 0.  1.
          2   -1    0    0  502    0  0.00000000000E+00 -0.00000000000E+00 -0.36789933864E+04  0.36789933864E+04  0.00000000000E+00 0. -1.
    9000010    2    1    2  502    0 -0.59641359388E+03 -0.98422677601E+02 -0.11822420617E+04  0.16744069553E+04  0.10200716452E+04 0.  0.
        -13    1    3    3    0    0 -0.39069143247E+03  0.38467829246E+03 -0.95725447406E+03  0.11031560739E+04  0.10566000000E+00 0.  1.
         13    1    1    2    0    0  0.48616396690E+03 -0.35905113537E+03 -0.90307182532E+03  0.10866516707E+04  0.10566000000E+00 0. -1.
          2    1    1    2  501    0  0.11024962698E+03  0.45747381297E+03 -0.12117244709E+04  0.12998897889E+04  0.00000000000E+00 0. -1.
          4    1    3    3  502    0 -0.20572216141E+03 -0.48310097006E+03 -0.22498758759E+03  0.57125088144E+03  0.00000000000E+00 0.  1.
</event>
<event>
 7    1  0.5696597E-006  0.8265257E+03  0.7818608E-02  0.9395087E-01
          4   -1    0    0  501    0 -0.00000000000E+00  0.00000000000E+00  0.30824796750E+03  0.30824796750E+03  0.00000000000E+00 0.  1.
          2   -1    0    0  502    0  0.00000000000E+00 -0.00000000000E+00 -0.15814890201E+04  0.15814890201E+04  0.00000000000E+00 0.  1.
    9000010    2    1    2  502    0 -0.66074282567E+01 -0.29979239581E+03 -0.55973302003E+03  0.10194303604E+04  0.79750740891E+03 0.  0.
        -13    1    3    3    0    0 -0.49163931198E+02 -0.19593323402E+03 -0.76188435368E+03  0.78820980955E+03  0.10566000000E+00 0.  1.
         13    1    1    2    0    0  0.10302331979E+03  0.10928197595E+03 -0.28598024975E+02  0.15288627435E+03  0.10566000000E+00 0. -1.
          2    1    1    2  501    0 -0.96415891533E+02  0.19051041985E+03 -0.68491000759E+03  0.71742035287E+03  0.00000000000E+00 0.  1.
          4    1    3    3  502    0  0.42556502941E+02 -0.10385916178E+03  0.20215133365E+03  0.23122055083E+03  0.00000000000E+00 0.  1.
</event>
<event>
 7    1  0.5696597E-006  0.1047822E+04  0.7818608E-02  0.9093327E-01
          2   -1    0    0  502    0  0.00000000000E+00  0.00000000000E+00  0.26446850050E+04  0.26446850050E+04  0.00000000000E+00 0. -1.
          4   -1    0    0  501    0 -0.00000000000E+00 -0.00000000000E+00 -0.21078609513E+03  0.21078609513E+03  0.00000000000E+00 0.  1.
    9000010    2    1    2  502    0 -0.36734608146E+02  0.23473007773E+03  0.12111047209E+04  0.16019028896E+04  0.10212103515E+04 0.  0.
        -13    1    3    3    0    0 -0.69982446354E+02  0.63840687253E+03  0.77983700255E+03  0.10102507804E+04  0.10566000000E+00 0.  1.
         13    1    1    2    0    0  0.47032213776E+02 -0.22810032144E+03  0.87217847893E+03  0.90273866432E+03  0.10566000000E+00 0. -1.
          2    1    1    2  501    0 -0.10297605629E+02 -0.66297562826E+01  0.35061571005E+03  0.35082954619E+03  0.00000000000E+00 0. -1.
          4    1    3    3  502    0  0.33247838207E+02 -0.40367679480E+03  0.43126771835E+03  0.59165210918E+03  0.00000000000E+00 0.  1.
</event>
<event>
 7    1  0.5696597E-006  0.9622066E+03  0.7818608E-02  0.9382756E-01
          4   -1    0    0  501    0 -0.00000000000E+00  0.00000000000E+00  0.75376617803E+03  0.75376617803E+03  0.00000000000E+00 0.  1.
          2   -1    0    0  502    0  0.00000000000E+00 -0.00000000000E+00 -0.12927049054E+04  0.12927049054E+04  0.00000000000E+00 0.  1.
    9000010    2    1    2  502    0  0.62658148479E+02 -0.67112957345E+02  0.36227060233E+03  0.10274143099E+04  0.95703186059E+03 0.  0.
        -13    1    3    3    0    0  0.31723679617E+03  0.16117483334E+03 -0.17032614953E+03  0.39449654007E+03  0.10566000000E+00 0.  1.
         13    1    1    2    0    0 -0.57772819609E+02  0.82575957996E+02  0.15707810594E+02  0.10199624504E+03  0.10566000000E+00 0. -1.
          2    1    1    2  501    0 -0.48853288694E+01 -0.15463000651E+02 -0.91691714034E+03  0.91706052858E+03  0.00000000000E+00 0.  1.
          4    1    3    3  502    0 -0.25457864769E+03 -0.22828779069E+03  0.53259675185E+03  0.63291776979E+03  0.00000000000E+00 0.  1.
</event>
<event>
 7    1  0.5696597E-006  0.9948361E+03  0.7818608E-02  0.9386427E-01
          4   -1    0    0  501    0 -0.00000000000E+00  0.00000000000E+00  0.36218656808E+03  0.36218656808E+03  0.00000000000E+00 0.  1.
          2   -1    0    0  502    0  0.00000000000E+00 -0.00000000000E+00 -0.16473906645E+04  0.16473906645E+04  0.00000000000E+00 0.  1.
    9000010    2    1    2  502    0 -0.16033318967E+02  0.89015492061E+02 -0.36435267726E+03  0.10595853529E+04  0.99085186659E+03 0.  0.
        -13    1    3    3    0    0  0.48427135946E+03  0.24798602443E+02 -0.23502650990E+03  0.53886101343E+03  0.10566000000E+00 0.  1.
         13    1    1    2    0    0  0.51812273456E+01 -0.88612086427E+02 -0.12099880593E+03  0.15006554960E+03  0.10566000000E+00 0. -1.
          2    1    1    2  501    0  0.10852091621E+02 -0.40340563346E+00 -0.79985261319E+03  0.79992633002E+03  0.00000000000E+00 0.  1.
          4    1    3    3  502    0 -0.50030467842E+03  0.64216889617E+02 -0.12932616736E+03  0.52072433948E+03  0.00000000000E+00 0.  1.
</event>
<event>
 7    1  0.5696597E-006  0.1122113E+04  0.7818608E-02  0.8864357E-01
          2   -1    0    0  501    0  0.00000000000E+00  0.00000000000E+00  0.13427426913E+04  0.13427426913E+04  0.00000000000E+00 0. -1.
         -4   -1    0    0    0  501 -0.00000000000E+00 -0.00000000000E+00 -0.25878163504E+04  0.25878163504E+04  0.00000000000E+00 0. -1.
   -9000010    2    1    2    0  502 -0.40734941453E+03  0.27171065640E+03 -0.22403488545E+04  0.25065969903E+04  0.10119808574E+04 0.  0.
        -13    1    1    2    0    0  0.39147346932E+03 -0.26943010516E+03  0.49221910898E+02  0.47777281884E+03  0.10566000000E+00 0.  1.
         13    1    3    3    0    0 -0.81291126545E+02 -0.26538876268E+03 -0.15437047129E+04  0.15684590191E+04  0.10566000000E+00 0. -1.
          2    1    1    2  502    0  0.15875945209E+02 -0.22805512382E+01  0.94605328449E+03  0.94618923247E+03  0.00000000000E+00 0. -1.
         -4    1    3    3    0  502 -0.32605828799E+03  0.53709941908E+03 -0.69664414156E+03  0.93813797125E+03  0.00000000000E+00 0. -1.
</event>
<event>
 7    1  0.5696597E-006  0.9984799E+03  0.7818608E-02  0.9434851E-01
          4   -1    0    0  501    0  0.00000000000E+00  0.00000000000E+00  0.23187442423E+04  0.23187442423E+04  0.00000000000E+00 0.  1.
          4   -1    0    0  502    0 -0.00000000000E+00 -0.00000000000E+00 -0.51480409681E+03  0.51480409681E+03  0.00000000000E+00 0.  1.
    9000010    2    1    2  501    0  0.14184430990E+03 -0.40898949491E+02  0.20462320400E+03  0.10271068585E+04  0.99563312064E+03 0.  0.
        -13    1    3    3    0    0  0.36385603031E+03  0.28071112871E+03  0.38233161242E+03  0.59780215925E+03  0.10566000000E+00 0.  1.
         13    1    1    2    0    0 -0.72638694561E+02  0.11477863357E+02 -0.89563988626E+02  0.11588718875E+03  0.10566000000E+00 0. -1.
          4    1    3    3  501    0 -0.22201172041E+03 -0.32161007820E+03 -0.17770840842E+03  0.42930469928E+03  0.00000000000E+00 0.  1.
          4    1    1    2  502    0 -0.69205615340E+02  0.29421086135E+02  0.16888809301E+04  0.16905542919E+04  0.00000000000E+00 0.  1.
</event>
<event>
 7    1  0.5696597E-006  0.1116491E+04  0.7818608E-02  0.8952529E-01
          2   -1    0    0  501    0  0.00000000000E+00  0.00000000000E+00  0.20063102894E+04  0.20063102894E+04  0.00000000000E+00 0. -1.
         -4   -1    0    0    0  501 -0.00000000000E+00 -0.00000000000E+00 -0.54102574893E+03  0.54102574893E+03  0.00000000000E+00 0. -1.
   -9000010    2    1    2    0  502 -0.10171470453E+03 -0.16553582095E+03  0.45325726128E+03  0.11716874928E+04  0.10628553273E+04 0.  0.
        -13    1    1    2    0    0 -0.59128154191E+02  0.39463031582E+03  0.85944479889E+02  0.40818585175E+03  0.10566000000E+00 0.  1.
         13    1    3    3    0    0 -0.47580798246E+02 -0.34530634416E+02 -0.35056609653E+03  0.35546152573E+03  0.10566000000E+00 0. -1.
          2    1    1    2  502    0  0.16084285872E+03 -0.22909449487E+03  0.92608279925E+03  0.96746269378E+03  0.00000000000E+00 0. -1.
         -4    1    3    3    0  502 -0.54133906283E+02 -0.13100518654E+03  0.80382335781E+03  0.81622596704E+03  0.00000000000E+00 0. -1.
</event>
<event>
 7    1  0.5696597E-006  0.1008579E+04  0.7818608E-02  0.9358340E-01
          2   -1    0    0  502    0  0.00000000000E+00  0.00000000000E+00  0.12411485469E+04  0.12411485469E+04  0.00000000000E+00 0.  1.
          4   -1    0    0  501    0 -0.00000000000E+00 -0.00000000000E+00 -0.40202671715E+03  0.40202671715E+03  0.00000000000E+00 0.  1.
    9000010    2    1    2  502    0 -0.79552655293E+02 -0.55321949432E+01  0.47626902683E+03  0.11141982302E+04  0.10041146748E+04 0.  0.
        -13    1    3    3    0    0  0.20710086138E+03  0.41988468021E+03  0.35372275631E+03  0.58678250737E+03  0.10566000000E+00 0.  1.
         13    1    1    2    0    0  0.90103966647E+02  0.31354060222E+02 -0.55048342502E+02  0.11014596259E+03  0.10566000000E+00 0. -1.
          2    1    1    2  501    0 -0.10551311354E+02 -0.25821865279E+02  0.41790114541E+03  0.41883107124E+03  0.00000000000E+00 0.  1.
          4    1    3    3  502    0 -0.28665351667E+03 -0.42541687516E+03  0.12254627051E+03  0.52741572285E+03  0.00000000000E+00 0.  1.
</event>
<event>
 7    1  0.5696597E-006  0.9922935E+03  0.7818608E-02  0.9518068E-01
          4   -1    0    0  501    0 -0.00000000000E+00  0.00000000000E+00  0.57593365429E+03  0.57593365429E+03  0.00000000000E+00 0.  1.
          2   -1    0    0  502    0  0.00000000000E+00 -0.00000000000E+00 -0.61612891623E+03  0.61612891623E+03  0.00000000000E+00 0.  1.
    9000010    2    1    2  502    0 -0.11962602001E+02  0.12227873218E+03 -0.37353888652E+02  0.99612291202E+03  0.98781088811E+03 0.  0.
        -13    1    3    3    0    0 -0.86739874360E+02 -0.24753037973E+03 -0.39638252974E+03  0.47530434012E+03  0.10566000000E+00 0.  1.
         13    1    1    2    0    0 -0.35812817949E+02 -0.42126977992E+02  0.61420287229E+02  0.82642017470E+02  0.10566000000E+00 0. -1.
          2    1    1    2  501    0  0.47775419949E+02 -0.80151754183E+02 -0.64261660518E+02  0.11329764103E+03  0.00000000000E+00 0.  1.
          4    1    3    3  502    0  0.74777272359E+02  0.36980911191E+03  0.35902864109E+03  0.52081857190E+03  0.00000000000E+00 0.  1.
</event>
<event>
 7    1  0.5696597E-006  0.1070048E+04  0.7818608E-02  0.8994723E-01
          4   -1    0    0  501    0 -0.00000000000E+00  0.00000000000E+00  0.64471802117E+03  0.64471802117E+03  0.00000000000E+00 0.  1.
          2   -1    0    0  502    0  0.00000000000E+00 -0.00000000000E+00 -0.12671390508E+04  0.12671390508E+04  0.00000000000E+00 0.  1.
    9000010    2    1    2  502    0  0.25473038187E+03 -0.81875619386E+00 -0.14856278910E+03  0.10606516096E+04  0.10188339888E+04 0.  0.
        -13    1    3    3    0    0  0.83894645156E+02  0.50701775249E+03 -0.88809690710E+02  0.52152898783E+03  0.10566000000E+00 0.  1.
         13    1    1    2    0    0 -0.34303086996E+03 -0.56241062565E+02  0.18155800924E+02  0.34808458618E+03  0.10566000000E+00 0. -1.
          2    1    1    2  501    0  0.88300488092E+02  0.57059818759E+02 -0.49201404149E+03  0.50312087627E+03  0.00000000000E+00 0.  1.
          4    1    3    3  502    0  0.17083573672E+03 -0.50783650868E+03 -0.59753098386E+02  0.53912262173E+03  0.00000000000E+00 0.  1.
</event>
<event>
 7    1  0.5696597E-006  0.1130681E+04  0.7818608E-02  0.9254223E-01
          2   -1    0    0  501    0  0.00000000000E+00  0.00000000000E+00  0.18160591029E+04  0.18160591029E+04  0.00000000000E+00 0. -1.
         -4   -1    0    0    0  501 -0.00000000000E+00 -0.00000000000E+00 -0.58070552599E+03  0.58070552599E+03  0.00000000000E+00 0. -1.
   -9000010    2    1    2    0  502  0.46718127132E+02 -0.40808937717E+02  0.33203995739E+03  0.11758332547E+04  0.11262705522E+04 0.  0.
        -13    1    1    2    0    0 -0.98819559696E+02 -0.21437586511E+02 -0.14097636569E+03  0.17349127454E+03  0.10566000000E+00 0.  1.
         13    1    3    3    0    0 -0.24344825934E+03 -0.51470828399E+03  0.12574413427E+03  0.58309799438E+03  0.10566000000E+00 0. -1.
          2    1    1    2  502    0  0.52101432564E+02  0.62246524228E+02  0.10442899852E+04  0.10474400996E+04  0.00000000000E+00 0. -1.
         -4    1    3    3    0  502  0.29016638647E+03  0.47389934627E+03  0.20629582312E+03  0.59273526036E+03  0.00000000000E+00 0. -1.
</event>
<event>
 7    1  0.5696597E-006  0.1196110E+04  0.7818608E-02  0.9172596E-01
         -4   -1    0    0    0  501 -0.00000000000E+00  0.00000000000E+00  0.27602284389E+04  0.27602284389E+04  0.00000000000E+00 0. -1.
          2   -1    0    0  501    0  0.00000000000E+00 -0.00000000000E+00 -0.58615686822E+03  0.58615686822E+03  0.00000000000E+00 0. -1.
   -9000010    2    1    2    0  502  0.49404553760E+03  0.41369701565E+03  0.16414838389E+04  0.20050345112E+04  0.95418446006E+03 0.  0.
        -13    1    1    2    0    0  0.11551271286E+03 -0.10171854983E+01  0.59169530411E+03  0.60286612574E+03  0.10566000000E+00 0.  1.
         13    1    3    3    0    0  0.77829057311E+03  0.28387667658E+03  0.13056917059E+04  0.15463353535E+04  0.10566000000E+00 0. -1.
          2    1    1    2  502    0 -0.60955825046E+03 -0.41267983015E+03 -0.59107572354E+02  0.73848467014E+03  0.00000000000E+00 0. -1.
         -4    1    3    3    0  502 -0.28424503550E+03  0.12982033907E+03  0.33579213306E+03  0.45869915769E+03  0.00000000000E+00 0. -1.
</event>
<event>
 7    1  0.5696597E-006  0.1036143E+04  0.7818608E-02  0.9151872E-01
         -4   -1    0    0    0  501 -0.00000000000E+00  0.00000000000E+00  0.66287016470E+03  0.66287016470E+03  0.00000000000E+00 0. -1.
          2   -1    0    0  501    0  0.00000000000E+00 -0.00000000000E+00 -0.97465541247E+03  0.97465541247E+03  0.00000000000E+00 0. -1.
   -9000010    2    1    2    0  502  0.17972855844E+03 -0.72137557706E+02 -0.25722383357E+03  0.10677704423E+04  0.10180684825E+04 0.  0.
        -13    1    1    2    0    0 -0.19240785018E+03 -0.24463974067E+02  0.21116941127E+03  0.28672599857E+03  0.10566000000E+00 0.  1.
         13    1    3    3    0    0  0.34458365713E+01  0.35631369961E+03 -0.44307606421E+03  0.56858397459E+03  0.10566000000E+00 0. -1.
          2    1    1    2  502    0  0.12679291738E+02  0.96601531774E+02 -0.26573082547E+03  0.28302913628E+03  0.00000000000E+00 0. -1.
         -4    1    3    3    0  502  0.17628272187E+03 -0.42845125732E+03  0.18585223064E+03  0.49918646773E+03  0.00000000000E+00 0. -1.
</event>
<event>
 7    1  0.5696597E-006  0.1265451E+04  0.7818608E-02  0.8672250E-01
          2   -1    0    0  502    0  0.00000000000E+00  0.00000000000E+00  0.17093830175E+04  0.17093830175E+04  0.00000000000E+00 0.  1.
          4   -1    0    0  501    0 -0.00000000000E+00 -0.00000000000E+00 -0.18098017093E+04  0.18098017093E+04  0.00000000000E+00 0.  1.
    9000010    2    1    2  502    0  0.47160135566E+03 -0.59888071466E+03 -0.11278856905E+04  0.16930985533E+04  0.10066730510E+04 0.  0.
        -13    1    3    3    0    0 -0.21801677361E+03 -0.28193922860E+03 -0.28979701617E+02  0.35757639249E+03  0.10566000000E+00 0.  1.
         13    1    1    2    0    0 -0.31207661320E+03  0.72418565526E+03  0.10036084489E+02  0.78863008436E+03  0.10566000000E+00 0. -1.
          2    1    1    2  501    0 -0.15952474246E+03 -0.12530494061E+03  0.10174309142E+04  0.10374560891E+04  0.00000000000E+00 0.  1.
          4    1    3    3  502    0  0.68961812927E+03 -0.31694148606E+03 -0.10989059889E+04  0.13355221609E+04  0.00000000000E+00 0.  1.
</event>
<event>
 7    1  0.5696597E-006  0.1532716E+04  0.7818608E-02  0.8521575E-01
         -4   -1    0    0    0  501 -0.00000000000E+00  0.00000000000E+00  0.14073895538E+04  0.14073895538E+04  0.00000000000E+00 0. -1.
          2   -1    0    0  501    0  0.00000000000E+00 -0.00000000000E+00 -0.15234267482E+04  0.15234267482E+04  0.00000000000E+00 0. -1.
   -9000010    2    1    2    0  502  0.59223226041E+03  0.62458573917E+03 -0.72207803334E+03  0.17036273885E+04  0.12806651385E+04 0.  0.
        -13    1    1    2    0    0 -0.61364583037E+03 -0.57264705590E+03  0.71630386005E+03  0.11034387554E+04  0.10566000000E+00 0.  1.
         13    1    3    3    0    0  0.37873551793E+02  0.86320385743E+03 -0.15965766678E+03  0.87866141780E+03  0.10566000000E+00 0. -1.
          2    1    1    2  502    0  0.21413569959E+02 -0.51938683265E+02 -0.11026302112E+03  0.12375015808E+03  0.00000000000E+00 0. -1.
         -4    1    3    3    0  502  0.55435870862E+03 -0.23861811826E+03 -0.56242036655E+03  0.82496597075E+03  0.00000000000E+00 0. -1.
</event>
<event>
 7    1  0.5696597E-006  0.1058529E+04  0.7818608E-02  0.8990912E-01
         -4   -1    0    0    0  501 -0.00000000000E+00  0.00000000000E+00  0.24795598235E+04  0.24795598235E+04  0.00000000000E+00 0. -1.
          2   -1    0    0  501    0  0.00000000000E+00 -0.00000000000E+00 -0.50383239929E+03  0.50383239929E+03  0.00000000000E+00 0. -1.
   -9000010    2    1    2    0  502  0.80024658581E+02  0.34404219372E+03  0.12849576343E+04  0.16669223482E+04  0.10013715674E+04 0.  0.
        -13    1    1    2    0    0 -0.41864598567E+02 -0.33927676232E+03  0.97316879768E+03  0.10314644376E+04  0.10566000000E+00 0.  1.
         13    1    3    3    0    0  0.18307581835E+03  0.53705446510E+02 -0.12211021091E+03  0.22652140080E+03  0.10566000000E+00 0. -1.
          2    1    1    2  502    0 -0.38160060013E+02 -0.47654313989E+01 -0.28239900777E+03  0.28500543698E+03  0.00000000000E+00 0. -1.
         -4    1    3    3    0  502 -0.10305115977E+03  0.29033674721E+03  0.14070678452E+04  0.14404009474E+04  0.00000000000E+00 0. -1.
</event>
<event>
 7    1  0.5696597E-006  0.9825993E+03  0.7818608E-02  0.9417210E-01
         -4   -1    0    0    0  502 -0.00000000000E+00  0.00000000000E+00  0.16651974441E+04  0.16651974441E+04  0.00000000000E+00 0. -1.
         -2   -1    0    0    0  501  0.00000000000E+00 -0.00000000000E+00 -0.57798188326E+03  0.57798188326E+03  0.00000000000E+00 0. -1.
   -9000010    2    1    2    0  501  0.56514101776E+02  0.50334374102E+02  0.99699525693E+03  0.13994449764E+04  0.97914212790E+03 0.  0.
        -13    1    1    2    0    0 -0.82365238514E+02  0.97333494547E+01  0.46040614637E+03  0.46781684598E+03  0.10566000000E+00 0.  1.
         13    1    3    3    0    0 -0.29921183985E+03 -0.20258678440E+03  0.87433788906E+03  0.94606336243E+03  0.10566000000E+00 0. -1.
         -2    1    1    2    0  502  0.25851136738E+02 -0.60067723557E+02 -0.37018584241E+03  0.37591750505E+03  0.00000000000E+00 0. -1.
         -4    1    3    3    0  501  0.35572594162E+03  0.25292115850E+03  0.12265736786E+03  0.45338161393E+03  0.00000000000E+00 0. -1.
</event>
<event>
 7    1  0.5696597E-006  0.1141763E+04  0.7818608E-02  0.8811902E-01
          2   -1    0    0  502    0  0.00000000000E+00  0.00000000000E+00  0.12351185824E+04  0.12351185824E+04  0.00000000000E+00 0.  1.
          4   -1    0    0  501    0 -0.00000000000E+00 -0.00000000000E+00 -0.79577212338E+03  0.79577212338E+03  0.00000000000E+00 0.  1.
    9000010    2    1    2  502    0 -0.26591123898E+03  0.33351133571E+03  0.39398215009E+03  0.11453494571E+04  0.98725115662E+03 0.  0.
        -13    1    3    3    0    0 -0.51583156608E+03 -0.13313674716E+03  0.28758921510E+03  0.60540496018E+03  0.10566000000E+00 0.  1.
         13    1    1    2    0    0  0.36087563594E+03 -0.53624495575E+03  0.10262086499E+03  0.65446232151E+03  0.10566000000E+00 0. -1.
          2    1    1    2  501    0 -0.94964396967E+02  0.20273362004E+03 -0.57256556029E+02  0.23107892720E+03  0.00000000000E+00 0.  1.
          4    1    3    3  502    0  0.24992032711E+03  0.46664808287E+03  0.10639293499E+03  0.53994449693E+03  0.00000000000E+00 0.  1.
</event>
<event>
 7    1  0.5696597E-006  0.1009783E+04  0.7818608E-02  0.9236512E-01
          2   -1    0    0  501    0  0.00000000000E+00  0.00000000000E+00  0.23742789433E+04  0.23742789433E+04  0.00000000000E+00 0. -1.
         -4   -1    0    0    0  501 -0.00000000000E+00 -0.00000000000E+00 -0.88206202375E+03  0.88206202375E+03  0.00000000000E+00 0. -1.
   -9000010    2    1    2    0  502 -0.14036403801E+03 -0.55765499670E+02 -0.57471907001E+03  0.11620245055E+04  0.99859255341E+03 0.  0.
        -13    1    1    2    0    0  0.14621568700E+03  0.31431030208E+02  0.39766876978E+03  0.42486162266E+03  0.10566000000E+00 0.  1.
         13    1    3    3    0    0  0.15839508554E+03  0.39935687060E+03 -0.10330241511E+03  0.44186685025E+03  0.10566000000E+00 0. -1.
          2    1    1    2  502    0 -0.58516489901E+01  0.24334469462E+02  0.16692672198E+04  0.16694548390E+04  0.00000000000E+00 0. -1.
         -4    1    3    3    0  502 -0.29875912355E+03 -0.45512237027E+03 -0.47141665490E+03  0.72015765520E+03  0.00000000000E+00 0. -1.
</event>
<event>
 7    1  0.5696597E-006  0.1122251E+04  0.7818608E-02  0.8897211E-01
         -4   -1    0    0    0  501 -0.00000000000E+00  0.00000000000E+00  0.17189845256E+04  0.17189845256E+04  0.00000000000E+00 0. -1.
          2   -1    0    0  501    0  0.00000000000E+00 -0.00000000000E+00 -0.87569361753E+03  0.87569361753E+03  0.00000000000E+00 0.  1.
   -9000010    2    1    2    0  502 -0.14629821753E+03  0.38417316376E+03  0.72860810229E+03  0.13343888102E+04  0.10395823883E+04 0.  0.
        -13    1    1    2    0    0  0.17125890611E+03 -0.38937676177E+03  0.62133567609E+03  0.75299529154E+03  0.10566000000E+00 0.  1.
         13    1    3    3    0    0 -0.59122348894E+03  0.30027631427E+03  0.47226613104E+03  0.81409237097E+03  0.10566000000E+00 0. -1.
          2    1    1    2  502    0 -0.24960688582E+02  0.52035980053E+01 -0.50665287031E+03  0.50729404136E+03  0.00000000000E+00 0.  1.
         -4    1    3    3    0  502  0.44492527141E+03  0.83896849492E+02  0.25634197125E+03  0.52029643927E+03  0.00000000000E+00 0. -1.
</event>
<event>
 7    1  0.5696597E-006  0.1009579E+04  0.7818608E-02  0.9222207E-01
          2   -1    0    0  502    0  0.00000000000E+00  0.00000000000E+00  0.91570880672E+03  0.91570880672E+03  0.00000000000E+00 0. -1.
          4   -1    0    0  501    0 -0.00000000000E+00 -0.00000000000E+00 -0.75319793428E+03  0.75319793428E+03  0.00000000000E+00 0.  1.
    9000010    2    1    2  502    0 -0.15486616831E+03  0.38130222846E+02 -0.31153787254E+03  0.10567034835E+04  0.99706015973E+03 0.  0.
        -13    1    3    3    0    0 -0.33195201730E+02 -0.41233476381E+03 -0.40712338177E+03  0.58040618365E+03  0.10566000000E+00 0.  1.
         13    1    1    2    0    0  0.15643109804E+03 -0.24682709275E+02  0.21925106719E+02  0.15987697157E+03  0.10566000000E+00 0. -1.
          2    1    1    2  501    0 -0.15649297295E+01 -0.13447513571E+02  0.45212363826E+03  0.45232628589E+03  0.00000000000E+00 0. -1.
          4    1    3    3  502    0 -0.12167096658E+03  0.45046498666E+03  0.95585509229E+02  0.47629729989E+03  0.00000000000E+00 0.  1.
</event>
<event>
 7    1  0.5696597E-006  0.1134371E+04  0.7818608E-02  0.9160110E-01
         -4   -1    0    0    0  501 -0.00000000000E+00  0.00000000000E+00  0.15579852172E+04  0.15579852172E+04  0.00000000000E+00 0. -1.
          1   -1    0    0  501    0  0.00000000000E+00 -0.00000000000E+00 -0.19280410287E+04  0.19280410287E+04  0.00000000000E+00 0. -1.
   -9000010    2    1    2    0  502  0.14057906341E+03  0.61354610227E+03  0.11997167408E+04  0.16623726021E+04  0.96330738468E+03 0.  0.
        -13    1    1    2    0    0 -0.14138246287E+03 -0.15091624878E+02  0.15824286453E+01  0.14219449073E+03  0.10566000000E+00 0.  1.
         13    1    3    3    0    0  0.37227203040E+03  0.54222530694E+03  0.12521172148E+04  0.14143522471E+04  0.10566000000E+00 0. -1.
          1    1    1    2  502    0  0.80339946372E+00 -0.59845447739E+03 -0.15713549810E+04  0.16814591530E+04  0.00000000000E+00 0. -1.
         -4    1    3    3    0  502 -0.23169296699E+03  0.71320795325E+02 -0.52400474037E+02  0.24802035497E+03  0.00000000000E+00 0. -1.
</event>
<event>
 7    1  0.5696597E-006  0.1028789E+04  0.7818608E-02  0.9538065E-01
         -4   -1    0    0    0  501 -0.00000000000E+00  0.00000000000E+00  0.27236613677E+03  0.27236613677E+03  0.00000000000E+00 0. -1.
          2   -1    0    0  501    0  0.00000000000E+00 -0.00000000000E+00 -0.20798675544E+04  0.20798675544E+04  0.00000000000E+00 0. -1.
   -9000010    2    1    2    0  502 -0.96063057806E+02 -0.15020588548E+02 -0.84700409858E+03  0.13349832408E+04  0.10272831065E+04 0.  0.
        -13    1    1    2    0    0  0.45478743135E+02 -0.78836165629E+01  0.82707817859E+01  0.46892264635E+02  0.10566000000E+00 0.  1.
         13    1    3    3    0    0 -0.10322431805E+03  0.16292393205E+03  0.19711899037E+03  0.27578138987E+03  0.10566000000E+00 0. -1.
          2    1    1    2  502    0  0.50584314671E+02  0.22904205111E+02 -0.96876810078E+03  0.97035818572E+03  0.00000000000E+00 0. -1.
         -4    1    3    3    0  502  0.71612602443E+01 -0.17794452059E+03 -0.10441230890E+04  0.10592018509E+04  0.00000000000E+00 0. -1.
</event>
<event>
 7    1  0.5696597E-006  0.1003114E+04  0.7818608E-02  0.9112143E-01
         -4   -1    0    0    0  501 -0.00000000000E+00  0.00000000000E+00  0.92474486224E+03  0.92474486224E+03  0.00000000000E+00 0. -1.
          1   -1    0    0  501    0  0.00000000000E+00 -0.00000000000E+00 -0.75312746270E+03  0.75312746270E+03  0.00000000000E+00 0.  1.
   -9000010    2    1    2    0  502 -0.22139411156E+03 -0.93329619393E+02  0.27322638034E+03  0.10377790841E+04  0.97190894743E+03 0.  0.
        -13    1    1    2    0    0  0.23208084656E+03  0.91515249806E+02  0.21133948328E+03  0.32695710520E+03  0.10566000000E+00 0.  1.
         13    1    3    3    0    0 -0.27573350538E+03  0.19294277167E+03 -0.26325786519E+03  0.42727110115E+03  0.10566000000E+00 0. -1.
          1    1    1    2  502    0 -0.10686734994E+02  0.18143695866E+01 -0.31294846408E+03  0.31313613558E+03  0.00000000000E+00 0.  1.
         -4    1    3    3    0  502  0.54339393820E+02 -0.28627239106E+03  0.53648424553E+03  0.61050798300E+03  0.00000000000E+00 0. -1.
</event>
<event>
 7    1  0.5696597E-006  0.1024542E+04  0.7818608E-02  0.9115589E-01
          2   -1    0    0  502    0  0.00000000000E+00  0.00000000000E+00  0.10240232082E+04  0.10240232082E+04  0.00000000000E+00 0. -1.
          4   -1    0    0  501    0 -0.00000000000E+00 -0.00000000000E+00 -0.64168998354E+03  0.64168998354E+03  0.00000000000E+00 0.  1.
    9000010    2    1    2  502    0 -0.18573313263E+03 -0.12721165894E+03  0.47367527562E+03  0.11277863738E+04  0.99842587880E+03 0.  0.
        -13    1    3    3    0    0 -0.54336055657E+03 -0.29558242929E+02  0.23579966659E+02  0.54467459106E+03  0.10566000000E+00 0.  1.
         13    1    1    2    0    0  0.19890843632E+03  0.11574529885E+03 -0.27207523291E+03  0.35635162940E+03  0.10566000000E+00 0. -1.
          2    1    1    2  501    0 -0.13175303683E+02  0.11466360091E+02  0.18073318196E+03  0.18157518857E+03  0.00000000000E+00 0. -1.
          4    1    3    3  502    0  0.35762742393E+03 -0.97653416015E+02  0.45009530896E+03  0.58311178273E+03  0.00000000000E+00 0.  1.
</event>
<event>
 7    1  0.5696597E-006  0.9879901E+03  0.7818608E-02  0.9328471E-01
          4   -1    0    0  501    0  0.00000000000E+00  0.00000000000E+00  0.11727256519E+03  0.11727256519E+03  0.00000000000E+00 0. -1.
         -4   -1    0    0    0  501 -0.00000000000E+00 -0.00000000000E+00 -0.33500140412E+04  0.33500140412E+04  0.00000000000E+00 0. -1.
   -9000010    2    1    2    0  502 -0.72565981930E+02  0.55647979356E+02 -0.27823648649E+04  0.29518327752E+04  0.98152940460E+03 0.  0.
        -13    1    1    2    0    0  0.10702615976E+03 -0.41682582761E+02 -0.46234087226E+03  0.47639388105E+03  0.10566000000E+00 0.  1.
         13    1    3    3    0    0 -0.20253452837E+02 -0.41668956831E+01  0.82913336927E+02  0.85452899166E+02  0.10566000000E+00 0. -1.
          4    1    1    2  502    0 -0.34460177832E+02 -0.13965396595E+02  0.11964261151E+02  0.39059950117E+02  0.00000000000E+00 0. -1.
         -4    1    3    3    0  502 -0.52312529093E+02  0.59814875039E+02 -0.28652782018E+04  0.28663798761E+04  0.00000000000E+00 0. -1.
</event>
<event>
 7    1  0.5696597E-006  0.1173833E+04  0.7818608E-02  0.9022092E-01
          2   -1    0    0  501    0  0.00000000000E+00  0.00000000000E+00  0.29140606846E+04  0.29140606846E+04  0.00000000000E+00 0.  1.
         -4   -1    0    0    0  501 -0.00000000000E+00 -0.00000000000E+00 -0.52380949650E+03  0.52380949650E+03  0.00000000000E+00 0. -1.
   -9000010    2    1    2    0  502  0.17047290415E+03 -0.12232930501E+03  0.17783640230E+03  0.11850413174E+04  0.11526802107E+04 0.  0.
        -13    1    1    2    0    0 -0.17294463093E+03  0.15882021343E+03  0.66951489053E+03  0.70949552879E+03  0.10566000000E+00 0.  1.
         13    1    3    3    0    0 -0.47580813878E+03 -0.18361635794E+03 -0.70130756465E+01  0.51005641475E+03  0.10566000000E+00 0. -1.
          2    1    1    2  502    0  0.24717267856E+01 -0.36490908419E+02  0.15428998952E+04  0.15433333349E+04  0.00000000000E+00 0.  1.
         -4    1    3    3    0  502  0.64628104292E+03  0.61287052925E+02  0.18484947794E+03  0.67498490264E+03  0.00000000000E+00 0. -1.
</event>
<event>
 7    1  0.5696597E-006  0.1018702E+04  0.7818608E-02  0.9237612E-01
          2   -1    0    0  502    0  0.00000000000E+00  0.00000000000E+00  0.51814162031E+03  0.51814162031E+03  0.00000000000E+00 0. -1.
          4   -1    0    0  501    0 -0.00000000000E+00 -0.00000000000E+00 -0.13625197539E+04  0.13625197539E+04  0.00000000000E+00 0.  1.
    9000010    2    1    2  502    0 -0.15672121219E+03 -0.29076828371E+03 -0.73047598849E+03  0.12821729853E+04  0.10006321309E+04 0.  0.
        -13    1    3    3    0    0  0.12343924638E+03  0.29302285668E+03 -0.16639490257E+02  0.31839680571E+03  0.10566000000E+00 0.  1.
         13    1    1    2    0    0  0.79024688223E+02  0.12204427091E+03 -0.30135032263E+03  0.33459189100E+03  0.10566000000E+00 0. -1.
          2    1    1    2  501    0  0.77696523971E+02  0.16872401281E+03  0.18744817754E+03  0.26389649789E+03  0.00000000000E+00 0. -1.
          4    1    3    3  502    0 -0.28016045857E+03 -0.58379114039E+03 -0.71383649823E+03  0.96377617960E+03  0.00000000000E+00 0.  1.
</event>
<event>
 7    1  0.5696597E-006  0.1000995E+04  0.7818608E-02  0.9406499E-01
          4   -1    0    0  502    0  0.00000000000E+00  0.00000000000E+00  0.34045042437E+04  0.34045042437E+04  0.00000000000E+00 0.  1.
          4   -1    0    0  501    0 -0.00000000000E+00 -0.00000000000E+00 -0.99480818484E+02  0.99480818484E+02  0.00000000000E+00 0.  1.
    9000010    2    1    2  502    0 -0.43823543040E+02  0.30027531060E+02  0.27424787085E+04  0.29188071092E+04  0.99770903495E+03 0.  0.
        -13    1    3    3    0    0 -0.29772531476E+03  0.26693183848E+03  0.45761091606E+03  0.60770118570E+03  0.10566000000E+00 0.  1.
         13    1    1    2    0    0  0.54230848733E+02 -0.62475726973E+02  0.15060773501E+03  0.17183393851E+03  0.10566000000E+00 0. -1.
          4    1    1    2  501    0 -0.10407305692E+02  0.32448195913E+02  0.41193698164E+03  0.41334401444E+03  0.00000000000E+00 0.  1.
          4    1    3    3  502    0  0.25390177172E+03 -0.23690430742E+03  0.22848677925E+04  0.23111059235E+04  0.00000000000E+00 0.  1.
</event>
<event>
 7    1  0.5696597E-006  0.1313230E+04  0.7818608E-02  0.8870803E-01
         -4   -1    0    0    0  501 -0.00000000000E+00  0.00000000000E+00  0.29690303121E+04  0.29690303121E+04  0.00000000000E+00 0. -1.
          2   -1    0    0  501    0  0.00000000000E+00 -0.00000000000E+00 -0.16272519002E+04  0.16272519002E+04  0.00000000000E+00 0.  1.
   -9000010    2    1    2    0  502  0.12846507331E+03 -0.80478944226E+03  0.17380287724E+04  0.21706602338E+04  0.10133274473E+04 0.  0.
        -13    1    1    2    0    0  0.28501045153E+03  0.73860153933E+02  0.86311137205E+03  0.91194711006E+03  0.10566000000E+00 0.  1.
         13    1    3    3    0    0  0.47906246624E+03 -0.11278880298E+03  0.44896301389E+03  0.66617562222E+03  0.10566000000E+00 0. -1.
          2    1    1    2  502    0 -0.41347552484E+03  0.73092928833E+03 -0.12593617326E+04  0.15136748685E+04  0.00000000000E+00 0.  1.
         -4    1    3    3    0  502 -0.35059739293E+03 -0.69200063928E+03  0.12890657585E+04  0.15044846116E+04  0.00000000000E+00 0. -1.
</event>
<event>
 7    1  0.5696597E-006  0.1142664E+04  0.7818608E-02  0.8823116E-01
          2   -1    0    0  501    0  0.00000000000E+00  0.00000000000E+00  0.40873208961E+03  0.40873208961E+03  0.00000000000E+00 0. -1.
         -4   -1    0    0    0  501 -0.00000000000E+00 -0.00000000000E+00 -0.29061596725E+04  0.29061596725E+04  0.00000000000E+00 0. -1.
   -9000010    2    1    2    0  502 -0.27113626827E+03 -0.47974074104E+03 -0.10772220626E+04  0.15722263652E+04  0.10039035395E+04 0.  0.
        -13    1    1    2    0    0  0.28110974162E+03  0.46666739942E+03 -0.15339068986E+04  0.16277811688E+04  0.10566000000E+00 0.  1.
         13    1    3    3    0    0 -0.25682238421E+03  0.28306230472E+03 -0.36703105893E+03  0.52989981578E+03  0.10566000000E+00 0. -1.
          2    1    1    2  502    0 -0.99734733451E+01  0.13073341621E+02  0.11370137838E+03  0.11488422815E+03  0.00000000000E+00 0. -1.
         -4    1    3    3    0  502 -0.14313884060E+02 -0.76280304576E+03 -0.71019100370E+03  0.10423265494E+04  0.00000000000E+00 0. -1.
</event>
<event>
 7    1  0.5696597E-006  0.1153536E+04  0.7818608E-02  0.8796296E-01
         -4   -1    0    0    0  502 -0.00000000000E+00  0.00000000000E+00  0.86679831173E+03  0.86679831173E+03  0.00000000000E+00 0. -1.
         -2   -1    0    0    0  501  0.00000000000E+00 -0.00000000000E+00 -0.19147265082E+04  0.19147265082E+04  0.00000000000E+00 0.  1.
   -9000010    2    1    2    0  501  0.63669010142E+01  0.61494771141E+03  0.30320006534E+03  0.12032452417E+04  0.98877075545E+03 0.  0.
        -13    1    1    2    0    0  0.61855492833E+02 -0.56014732621E+03 -0.60413414649E+03  0.82617746712E+03  0.10566000000E+00 0.  1.
         13    1    3    3    0    0  0.36213226339E+03 -0.67466756092E+02  0.22029249031E+03  0.42920896055E+03  0.10566000000E+00 0. -1.
         -2    1    1    2    0  502 -0.68222393847E+02 -0.54800385200E+02 -0.74699411535E+03  0.75210211116E+03  0.00000000000E+00 0.  1.
         -4    1    3    3    0  501 -0.35576536237E+03  0.68241446751E+03  0.82907575022E+02  0.77403628114E+03  0.00000000000E+00 0. -1.
</event>
<event>
 7    1  0.5696597E-006  0.1023845E+04  0.7818608E-02  0.9196623E-01
         -4   -1    0    0    0  501 -0.00000000000E+00  0.00000000000E+00  0.15422363667E+04  0.15422363667E+04  0.00000000000E+00 0. -1.
          2   -1    0    0  501    0  0.00000000000E+00 -0.00000000000E+00 -0.57477013961E+03  0.57477013961E+03  0.00000000000E+00 0. -1.
   -9000010    2    1    2    0  502  0.15818311477E+03 -0.65471694444E+02  0.78969784642E+03  0.12934627995E+04  0.10100073686E+04 0.  0.
        -13    1    1    2    0    0 -0.16111254788E+03  0.46281414099E+02  0.48631123911E+03  0.51439076083E+03  0.10566000000E+00 0.  1.
         13    1    3    3    0    0 -0.16916022538E+03  0.14050858864E+02 -0.19158806983E+03  0.25596602929E+03  0.10566000000E+00 0. -1.
          2    1    1    2  502    0  0.29294331042E+01  0.19190280344E+02 -0.30854285849E+03  0.30915294591E+03  0.00000000000E+00 0. -1.
         -4    1    3    3    0  502  0.32734334015E+03 -0.79522553308E+02  0.98128591624E+03  0.10374967702E+04  0.00000000000E+00 0. -1.
</event>
<event>
 7    1  0.5696597E-006  0.1123166E+04  0.7818608E-02  0.8923812E-01
          2   -1    0    0  501    0  0.00000000000E+00  0.00000000000E+00  0.89688982787E+03  0.89688982787E+03  0.00000000000E+00 0. -1.
         -4   -1    0    0    0  501 -0.00000000000E+00 -0.00000000000E+00 -0.17507262809E+04  0.17507262809E+04  0.00000000000E+00 0. -1.
   -9000010    2    1    2    0  502  0.70636433986E+02 -0.36237673313E+03 -0.94742498693E+03  0.14671939094E+04  0.10577038619E+04 0.  0.
        -13    1    1    2    0    0 -0.61394723687E+02  0.37509525007E+03 -0.47683351055E+03  0.60978354084E+03  0.10566000000E+00 0.  1.
         13    1    3    3    0    0 -0.22530283208E+03 -0.23687658855E+03  0.12319717620E+03  0.34935574953E+03  0.10566000000E+00 0. -1.
          2    1    1    2  502    0 -0.92417102996E+01 -0.12718516943E+02  0.57042204441E+03  0.57063865855E+03  0.00000000000E+00 0. -1.
         -4    1    3    3    0  502  0.29593926606E+03 -0.12550014458E+03 -0.10706221631E+04  0.11178381599E+04  0.00000000000E+00 0. -1.
</event>
<event>
 7    1  0.5696597E-006  0.1180596E+04  0.7818608E-02  0.8757955E-01
         -4   -1    0    0    0  501 -0.00000000000E+00  0.00000000000E+00  0.13764141643E+04  0.13764141643E+04  0.00000000000E+00 0. -1.
          2   -1    0    0  501    0  0.00000000000E+00 -0.00000000000E+00 -0.16228619081E+04  0.16228619081E+04  0.00000000000E+00 0.  1.
   -9000010    2    1    2    0  502  0.56537753087E+03  0.33916159118E+03 -0.43761855553E+03  0.12626873539E+04  0.98396494670E+03 0.  0.
        -13    1    1    2    0    0 -0.48622725288E+03 -0.43568385860E+03  0.84675882757E+03  0.10692230307E+04  0.10566000000E+00 0.  1.
         13    1    3    3    0    0  0.60203531541E+03 -0.58486592703E+02 -0.58069545421E+03  0.83849533345E+03  0.10566000000E+00 0. -1.
          2    1    1    2  502    0 -0.79150277986E+02  0.96522267419E+02 -0.65558801583E+03  0.66736568769E+03  0.00000000000E+00 0.  1.
         -4    1    3    3    0  502 -0.36657784536E+02  0.39764818389E+03  0.14307689868E+03  0.42419202049E+03  0.00000000000E+00 0. -1.
</event>
<event>
 7    1  0.5696597E-006  0.1008806E+04  0.7818608E-02  0.9171293E-01
         -4   -1    0    0    0  502 -0.00000000000E+00  0.00000000000E+00  0.16345592074E+04  0.16345592074E+04  0.00000000000E+00 0. -1.
         -2   -1    0    0    0  501  0.00000000000E+00 -0.00000000000E+00 -0.62165643045E+03  0.62165643045E+03  0.00000000000E+00 0. -1.
   -9000010    2    1    2    0  501  0.38377996692E+02 -0.24068724306E+02  0.11228077077E+04  0.14976599232E+04  0.99006864548E+03 0.  0.
        -13    1    1    2    0    0 -0.19351488084E+03  0.11901106982E+03  0.26065566510E+03  0.34576441512E+03  0.10566000000E+00 0.  1.
         13    1    3    3    0    0 -0.24531982511E+03 -0.32753337672E+03  0.97385772577E+03  0.10563421845E+04  0.10566000000E+00 0. -1.
         -2    1    1    2    0  502  0.15513688415E+03 -0.94942345518E+02 -0.37056059588E+03  0.41279129959E+03  0.00000000000E+00 0. -1.
         -4    1    3    3    0  501  0.28369782180E+03  0.30346465242E+03  0.14894998196E+03  0.44131773870E+03  0.00000000000E+00 0. -1.
</event>
<event>
 7    1  0.5696597E-006  0.1044653E+04  0.7818608E-02  0.9154144E-01
          2   -1    0    0  502    0  0.00000000000E+00  0.00000000000E+00  0.19949495212E+04  0.19949495212E+04  0.00000000000E+00 0.  1.
          4   -1    0    0  501    0 -0.00000000000E+00 -0.00000000000E+00 -0.39845860773E+03  0.39845860773E+03  0.00000000000E+00 0.  1.
    9000010    2    1    2  502    0 -0.21434606596E+03 -0.24495724836E+02  0.10796805052E+04  0.15062626299E+04  0.10278972908E+04 0.  0.
        -13    1    3    3    0    0 -0.56113369120E+02 -0.37753798989E+03  0.24588617898E+02  0.38247647680E+03  0.10566000000E+00 0.  1.
         13    1    1    2    0    0  0.17533833343E+03  0.60457380275E+02 -0.13738009809E+03  0.23080712406E+03  0.10566000000E+00 0. -1.
          2    1    1    2  501    0  0.39007732533E+02 -0.35961655439E+02  0.65419050634E+03  0.65633837496E+03  0.00000000000E+00 0.  1.
          4    1    3    3  502    0 -0.15823269684E+03  0.35304226506E+03  0.10550918873E+04  0.11237861531E+04  0.00000000000E+00 0.  1.
</event>
<event>
 7    1  0.5696597E-006  0.1047939E+04  0.7818608E-02  0.9013661E-01
         -2   -1    0    0    0  501  0.00000000000E+00  0.00000000000E+00  0.24500460203E+03  0.24500460203E+03  0.00000000000E+00 0. -1.
         -4   -1    0    0    0  502 -0.00000000000E+00 -0.00000000000E+00 -0.31106888757E+04  0.31106888757E+04  0.00000000000E+00 0. -1.
   -9000010    2    1    2    0  501 -0.22823054797E+03  0.22629780453E+03 -0.12466380675E+04  0.16283548794E+04  0.99706231632E+03 0.  0.
        -13    1    1    2    0    0  0.21908900902E+03 -0.23689162371E+03 -0.16563550124E+04  0.16874920958E+04  0.10566000000E+00 0.  1.
         13    1    3    3    0    0 -0.48624093952E+03 -0.13099256665E+03 -0.30513413155E+03  0.58880909740E+03  0.10566000000E+00 0. -1.
         -2    1    1    2    0  502  0.91415389509E+01  0.10593819178E+02  0.37308806216E+02  0.39846502487E+02  0.00000000000E+00 0. -1.
         -4    1    3    3    0  501  0.25801039156E+03  0.35729037119E+03 -0.94150393594E+03  0.10395457820E+04  0.00000000000E+00 0. -1.
</event>
<event>
 7    1  0.5696597E-006  0.9992157E+03  0.7818608E-02  0.9149307E-01
         -4   -1    0    0    0  501 -0.00000000000E+00  0.00000000000E+00  0.11104017158E+04  0.11104017158E+04  0.00000000000E+00 0. -1.
          2   -1    0    0  501    0  0.00000000000E+00 -0.00000000000E+00 -0.11540855959E+04  0.11540855959E+04  0.00000000000E+00 0. -1.
   -9000010    2    1    2    0  502  0.53960035626E+02  0.15914926649E+03 -0.45884214158E+03  0.10909219760E+04  0.97536376416E+03 0.  0.
        -13    1    1    2    0    0 -0.32575461829E+02 -0.21557049868E+03  0.77685637245E+03  0.80686903224E+03  0.10566000000E+00 0.  1.
         13    1    3    3    0    0 -0.23299417465E+03 -0.31814592532E+03 -0.44627062767E+02  0.39685602064E+03  0.10566000000E+00 0. -1.
          2    1    1    2  502    0 -0.21384573796E+02  0.56421232196E+02 -0.36169811094E+03  0.36669630336E+03  0.00000000000E+00 0. -1.
         -4    1    3    3    0  502  0.28695421028E+03  0.47729519181E+03 -0.41421507881E+03  0.69406595540E+03  0.00000000000E+00 0. -1.
</event>
<event>
 7    1  0.5696597E-006  0.1006398E+04  0.7818608E-02  0.9237408E-01
          4   -1    0    0  501    0 -0.00000000000E+00  0.00000000000E+00  0.84699119677E+03  0.84699119677E+03  0.00000000000E+00 0.  1.
          2   -1    0    0  502    0  0.00000000000E+00 -0.00000000000E+00 -0.75416446498E+03  0.75416446498E+03  0.00000000000E+00 0.  1.
    9000010    2    1    2  502    0  0.21427790424E+03 -0.22616385007E+03  0.31556481512E+03  0.10866126977E+04  0.99200851555E+03 0.  0.
        -13    1    3    3    0    0 -0.52586375114E+02  0.31231036023E+03  0.36543014590E+03  0.48357242544E+03  0.10566000000E+00 0.  1.
         13    1    1    2    0    0 -0.82238016198E+02  0.12653547942E+03  0.79076110411E+02  0.17037418015E+03  0.10566000000E+00 0. -1.
          2    1    1    2  501    0 -0.13203988804E+03  0.99628370645E+02 -0.30181419374E+03  0.34416878391E+03  0.00000000000E+00 0.  1.
          4    1    3    3  502    0  0.26686427935E+03 -0.53847421029E+03 -0.49865330778E+02  0.60304027225E+03  0.00000000000E+00 0.  1.
</event>
<event>
 7    1  0.5696597E-006  0.1064354E+04  0.7818608E-02  0.9001749E-01
          4   -1    0    0  501    0 -0.00000000000E+00  0.00000000000E+00  0.18135459635E+04  0.18135459635E+04  0.00000000000E+00 0.  1.
          2   -1    0    0  502    0  0.00000000000E+00 -0.00000000000E+00 -0.18235616672E+04  0.18235616672E+04  0.00000000000E+00 0. -1.
    9000010    2    1    2  502    0  0.17107652017E+03 -0.26793219623E+03  0.12927026880E+04  0.16735089358E+04  0.10141484512E+04 0.  0.
        -13    1    3    3    0    0  0.45795813561E+03  0.49732962649E+02  0.20421808462E+03  0.50388893498E+03  0.10566000000E+00 0.  1.
         13    1    1    2    0    0 -0.10251367111E+03  0.31185179569E+03  0.24757923790E+03  0.41116430468E+03  0.10566000000E+00 0. -1.
          2    1    1    2  501    0 -0.68562849061E+02 -0.43919599454E+02 -0.15502976296E+04  0.15524343902E+04  0.00000000000E+00 0. -1.
          4    1    3    3  502    0 -0.28688161544E+03 -0.31766515888E+03  0.10884846034E+04  0.11696200008E+04  0.00000000000E+00 0.  1.
</event>
<event>
 7    1  0.5696597E-006  0.1053496E+04  0.7818608E-02  0.8985489E-01
         -4   -1    0    0    0  501 -0.00000000000E+00  0.00000000000E+00  0.19606459571E+04  0.19606459571E+04  0.00000000000E+00 0. -1.
          2   -1    0    0  501    0  0.00000000000E+00 -0.00000000000E+00 -0.49684688958E+03  0.49684688958E+03  0.00000000000E+00 0.  1.
   -9000010    2    1    2    0  502 -0.82516810481E+02 -0.35457670500E+03  0.12398977254E+04  0.16288428426E+04  0.99158911489E+03 0.  0.
        -13    1    1    2    0    0  0.76269538191E+02  0.34497896529E+03  0.46682798077E+03  0.58545358804E+03  0.10566000000E+00 0.  1.
         13    1    3    3    0    0 -0.52510103235E+03 -0.12690663417E+03  0.79560055896E+03  0.96167387848E+03  0.10566000000E+00 0. -1.
          2    1    1    2  502    0  0.62472722895E+01  0.95977397091E+01 -0.24292663863E+03  0.24319641604E+03  0.00000000000E+00 0.  1.
         -4    1    3    3    0  502  0.44258422187E+03 -0.22767007083E+03  0.44429716639E+03  0.66716896410E+03  0.00000000000E+00 0. -1.
</event>
<event>
 7    1  0.5696597E-006  0.1041899E+04  0.7818608E-02  0.8979126E-01
          4   -1    0    0  501    0 -0.00000000000E+00  0.00000000000E+00  0.15269480864E+04  0.15269480864E+04  0.00000000000E+00 0.  1.
          2   -1    0    0  502    0  0.00000000000E+00 -0.00000000000E+00 -0.67648916019E+03  0.67648916019E+03  0.00000000000E+00 0. -1.
    9000010    2    1    2  502    0 -0.14499912992E+03  0.34812984752E+03  0.10542887817E+04  0.14821670609E+04  0.97112060151E+03 0.  0.
        -13    1    3    3    0    0 -0.42612442919E+02  0.66157263902E+03  0.90080156993E+03  0.11184532429E+04  0.10566000000E+00 0.  1.
         13    1    1    2    0    0  0.13393970857E+03 -0.35321818535E+03  0.12065201909E+03  0.39656002429E+03  0.10566000000E+00 0. -1.
          2    1    1    2  501    0  0.11059421349E+02  0.50883378206E+01 -0.32448187460E+03  0.32471016142E+03  0.00000000000E+00 0. -1.
          4    1    3    3  502    0 -0.10238668700E+03 -0.31344279149E+03  0.15348721182E+03  0.36371381800E+03  0.00000000000E+00 0.  1.
</event>
<event>
 7    1  0.5696597E-006  0.9007505E+03  0.7818608E-02  0.9034336E-01
          4   -1    0    0  501    0 -0.00000000000E+00  0.00000000000E+00  0.79882985647E+03  0.79882985647E+03  0.00000000000E+00 0.  1.
          2   -1    0    0  502    0  0.00000000000E+00 -0.00000000000E+00 -0.98042501726E+03  0.98042501726E+03  0.00000000000E+00 0.  1.
    9000010    2    1    2  502    0  0.40485455104E+03  0.48380458413E+02  0.16783552309E+03  0.88731530697E+03  0.77000767199E+03 0.  0.
        -13    1    3    3    0    0  0.42871666823E+03  0.28043837566E+03 -0.11057472313E+03  0.52409011126E+03  0.10566000000E+00 0.  1.
         13    1    1    2    0    0 -0.51283776849E+03  0.84891620372E+02 -0.19614705341E+02  0.52018642026E+03  0.10566000000E+00 0. -1.
          2    1    1    2  501    0  0.10798321745E+03 -0.13327207878E+03 -0.32981597854E+03  0.37175314650E+03  0.00000000000E+00 0.  1.
          4    1    3    3  502    0 -0.23862117192E+02 -0.23205791725E+03  0.27841024622E+03  0.36322519571E+03  0.00000000000E+00 0.  1.
</event>
<event>
 7    1  0.5696597E-006  0.9819862E+03  0.7818608E-02  0.8927643E-01
         -4   -1    0    0    0  501 -0.00000000000E+00  0.00000000000E+00  0.94860585955E+03  0.94860585955E+03  0.00000000000E+00 0. -1.
          2   -1    0    0  501    0  0.00000000000E+00 -0.00000000000E+00 -0.11976285481E+04  0.11976285481E+04  0.00000000000E+00 0.  1.
   -9000010    2    1    2    0  502  0.36107266909E+01  0.55703348659E+03  0.24216655334E+03  0.10116987354E+04  0.80906758004E+03 0.  0.
        -13    1    1    2    0    0  0.17000465304E+02 -0.55606708390E+03  0.80809154573E+02  0.56216523215E+03  0.10566000000E+00 0.  1.
         13    1    3    3    0    0 -0.53760383354E+02  0.66070566226E+03  0.42962243466E+03  0.78993518626E+03  0.10566000000E+00 0. -1.
          2    1    1    2  502    0 -0.20611191995E+02 -0.96640269193E+00 -0.57199839642E+03  0.57237044008E+03  0.00000000000E+00 0.  1.
         -4    1    3    3    0  502  0.57371110044E+02 -0.10367217567E+03 -0.18745588132E+03  0.22176354912E+03  0.00000000000E+00 0. -1.
</event>
<event>
 7    1  0.5696597E-006  0.1015768E+04  0.7818608E-02  0.9158530E-01
          2   -1    0    0  501    0  0.00000000000E+00  0.00000000000E+00  0.11186010278E+04  0.11186010278E+04  0.00000000000E+00 0. -1.
         -4   -1    0    0    0  501 -0.00000000000E+00 -0.00000000000E+00 -0.22927230376E+04  0.22927230376E+04  0.00000000000E+00 0. -1.
   -9000010    2    1    2    0  502 -0.33805274676E+02 -0.18670669160E+03 -0.18157470907E+04  0.20796680916E+04  0.99603197165E+03 0.  0.
        -13    1    1    2    0    0  0.84749885027E+02  0.18394760495E+03 -0.31455387967E+03  0.37411685174E+03  0.10566000000E+00 0.  1.
         13    1    3    3    0    0 -0.50529179232E+03 -0.14110197714E+03 -0.77111322415E+03  0.93265490883E+03  0.10566000000E+00 0. -1.
          2    1    1    2  502    0 -0.50944610351E+02  0.27590866519E+01  0.95617896047E+03  0.95753912208E+03  0.00000000000E+00 0. -1.
         -4    1    3    3    0  502  0.47148651765E+03 -0.45604714460E+02 -0.10446338665E+04  0.11470131827E+04  0.00000000000E+00 0. -1.
</event>
<event>
 7    1  0.5696597E-006  0.1038187E+04  0.7818608E-02  0.9066307E-01
          4   -1    0    0  501    0 -0.00000000000E+00  0.00000000000E+00  0.11648083411E+04  0.11648083411E+04  0.00000000000E+00 0.  1.
          2   -1    0    0  502    0  0.00000000000E+00 -0.00000000000E+00 -0.19624810550E+04  0.19624810550E+04  0.00000000000E+00 0.  1.
    9000010    2    1    2  502    0 -0.93430795406E+02  0.23540388470E+03 -0.10648038518E+03  0.10397929078E+04  0.10028394270E+04 0.  0.
        -13    1    3    3    0    0  0.23776454408E+03  0.50163354978E+03  0.10527083408E+03  0.56502226182E+03  0.10566000000E+00 0.  1.
         13    1    1    2    0    0  0.86935098493E+01 -0.26981580971E+03  0.67046451456E+03  0.72277162695E+03  0.10566000000E+00 0. -1.
          2    1    1    2  501    0  0.84737285557E+02  0.34411925006E+02 -0.13616568433E+04  0.13647248613E+04  0.00000000000E+00 0.  1.
          4    1    3    3  502    0 -0.33119533948E+03 -0.26622966507E+03 -0.21175121926E+03  0.47477064602E+03  0.00000000000E+00 0.  1.
</event>
<event>
 7    1  0.5696597E-006  0.1136193E+04  0.7818608E-02  0.8844572E-01
         -4   -1    0    0    0  501 -0.00000000000E+00  0.00000000000E+00  0.43827010882E+03  0.43827010882E+03  0.00000000000E+00 0. -1.
          2   -1    0    0  501    0  0.00000000000E+00 -0.00000000000E+00 -0.54998836498E+04  0.54998836498E+04  0.00000000000E+00 0. -1.
   -9000010    2    1    2    0  502  0.42664949354E+03  0.31712246897E+03 -0.16425326657E+04  0.20035234913E+04  0.10166594178E+04 0.  0.
        -13    1    1    2    0    0 -0.37900601392E+03 -0.33252586521E+03  0.10865498685E+02  0.50431843100E+03  0.10566000000E+00 0.  1.
         13    1    3    3    0    0  0.74537111927E+03  0.80807377319E+02 -0.11080860270E+04  0.13378948360E+04  0.10566000000E+00 0. -1.
          2    1    1    2  502    0 -0.47643479621E+02  0.15403396244E+02 -0.34299463740E+04  0.34303118363E+04  0.00000000000E+00 0. -1.
         -4    1    3    3    0  502 -0.31872162573E+03  0.23631509165E+03 -0.53444663863E+03  0.66562865533E+03  0.00000000000E+00 0. -1.
</event>
<event>
 7    1  0.5696597E-006  0.1085120E+04  0.7818608E-02  0.8916811E-01
          2   -1    0    0  502    0  0.00000000000E+00  0.00000000000E+00  0.21192263817E+04  0.21192263817E+04  0.00000000000E+00 0. -1.
          4   -1    0    0  501    0 -0.00000000000E+00 -0.00000000000E+00 -0.11135176208E+04  0.11135176208E+04  0.00000000000E+00 0.  1.
    9000010    2    1    2  502    0 -0.41705973529E+03 -0.12880280308E+03 -0.78304352635E+03  0.13398475706E+04  0.99574362333E+03 0.  0.
        -13    1    3    3    0    0  0.48202854281E+01  0.36398696596E+03 -0.60830806991E+02  0.36906658584E+03  0.10566000000E+00 0.  1.
         13    1    1    2    0    0  0.39213442308E+03  0.13833657201E+03  0.78106064625E+03  0.88485148878E+03  0.10566000000E+00 0. -1.
          2    1    1    2  501    0  0.24925312206E+02 -0.95337689287E+01  0.10076916410E+04  0.10080449431E+04  0.00000000000E+00 0. -1.
          4    1    3    3  502    0 -0.42188002071E+03 -0.49278976905E+03 -0.72221271936E+03  0.97078098475E+03  0.00000000000E+00 0.  1.
</event>
<event>
 7    1  0.5696597E-006  0.8890968E+03  0.7818608E-02  0.9402459E-01
         -4   -1    0    0    0  501 -0.00000000000E+00  0.00000000000E+00  0.10214818737E+04  0.10214818737E+04  0.00000000000E+00 0. -1.
          2   -1    0    0  501    0  0.00000000000E+00 -0.00000000000E+00 -0.87581830671E+03  0.87581830671E+03  0.00000000000E+00 0.  1.
   -9000010    2    1    2    0  502 -0.17914266488E+02 -0.91275912914E+02 -0.22494239753E+02  0.88649196158E+03  0.88131140575E+03 0.  0.
        -13    1    1    2    0    0 -0.52970637658E+01  0.11763290336E+03  0.58285294087E+03  0.59462855690E+03  0.10566000000E+00 0.  1.
         13    1    3    3    0    0  0.30032015875E+03 -0.35900646498E+03 -0.43578879078E+02  0.47008187533E+03  0.10566000000E+00 0. -1.
          2    1    1    2  502    0  0.23211330254E+02 -0.26356990446E+02 -0.41469513409E+03  0.41617966197E+03  0.00000000000E+00 0.  1.
         -4    1    3    3    0  502 -0.31823442524E+03  0.26773055206E+03  0.21084639325E+02  0.41641008625E+03  0.00000000000E+00 0. -1.
</event>
<event>
 7    1  0.5696597E-006  0.1048412E+04  0.7818608E-02  0.9039554E-01
         -4   -1    0    0    0  501 -0.00000000000E+00  0.00000000000E+00  0.15021723098E+04  0.15021723098E+04  0.00000000000E+00 0. -1.
          1   -1    0    0  501    0  0.00000000000E+00 -0.00000000000E+00 -0.71007970974E+03  0.71007970974E+03  0.00000000000E+00 0. -1.
   -9000010    2    1    2    0  502 -0.30593176472E+03  0.51596721095E+02  0.96595965037E+03  0.14297724571E+04  0.10074297824E+04 0.  0.
        -13    1    1    2    0    0  0.28220166796E+03 -0.36631397496E+02  0.23719534597E+03  0.37046090752E+03  0.10566000000E+00 0.  1.
         13    1    3    3    0    0 -0.42674599043E+03 -0.29686700570E+03  0.92185945214E+03  0.10583321880E+04  0.10566000000E+00 0. -1.
          1    1    1    2  502    0  0.23730096753E+02 -0.14965323599E+02 -0.41106239628E+03  0.41201865496E+03  0.00000000000E+00 0. -1.
         -4    1    3    3    0  502  0.12081422571E+03  0.34846372679E+03  0.44100198223E+02  0.37144026910E+03  0.00000000000E+00 0. -1.
</event>
<event>
 7    1  0.5696597E-006  0.1308734E+04  0.7818608E-02  0.8621624E-01
          2   -1    0    0  501    0  0.00000000000E+00  0.00000000000E+00  0.16488305216E+04  0.16488305216E+04  0.00000000000E+00 0. -1.
         -4   -1    0    0    0  501 -0.00000000000E+00 -0.00000000000E+00 -0.17012227200E+04  0.17012227200E+04  0.00000000000E+00 0. -1.
   -9000010    2    1    2    0  502 -0.78516175904E+03 -0.37298026183E+03 -0.91355302002E+03  0.15980819424E+04  0.98167892446E+03 0.  0.
        -13    1    1    2    0    0  0.78349604184E+03  0.35701515802E+03 -0.29169004356E+02  0.86149678619E+03  0.10566000000E+00 0.  1.
         13    1    3    3    0    0 -0.11689356295E+02 -0.37770913100E+03  0.28744018002E+02  0.37898160698E+03  0.10566000000E+00 0. -1.
          2    1    1    2  502    0  0.16657171984E+01  0.15965103808E+02  0.89032982604E+03  0.89047451299E+03  0.00000000000E+00 0. -1.
         -4    1    3    3    0  502 -0.77347240274E+03  0.47288691699E+01 -0.94229703802E+03  0.12191003354E+04  0.00000000000E+00 0. -1.
</event>
<event>
 7    1  0.5696597E-006  0.1132556E+04  0.7818608E-02  0.8844180E-01
          4   -1    0    0  501    0 -0.00000000000E+00  0.00000000000E+00  0.27608003551E+04  0.27608003551E+04  0.00000000000E+00 0.  1.
          2   -1    0    0  502    0  0.00000000000E+00 -0.00000000000E+00 -0.54035626088E+03  0.54035626088E+03  0.00000000000E+00 0.  1.
    9000010    2    1    2  502    0 -0.64338138373E+01  0.52900363539E+03  0.16269395593E+04  0.19865296650E+04  0.10096937853E+04 0.  0.
        -13    1    3    3    0    0  0.44301012997E+03  0.13710110028E+03  0.36276485776E+03  0.58877248589E+03  0.10566000000E+00 0.  1.
         13    1    1    2    0    0 -0.69861840160E+02 -0.50375607816E+03  0.88037309584E+03  0.10167141496E+04  0.10566000000E+00 0. -1.
          2    1    1    2  501    0  0.76295653997E+02 -0.25247557230E+02 -0.28686856094E+03  0.29791280137E+03  0.00000000000E+00 0.  1.
          4    1    3    3  502    0 -0.44944394381E+03  0.39190253511E+03  0.12641747016E+04  0.13977571791E+04  0.00000000000E+00 0.  1.
</event>
<event>
 7    1  0.5696597E-006  0.1005935E+04  0.7818608E-02  0.9159033E-01
         -4   -1    0    0    0  501 -0.00000000000E+00  0.00000000000E+00  0.54777656936E+03  0.54777656936E+03  0.00000000000E+00 0. -1.
          1   -1    0    0  501    0  0.00000000000E+00 -0.00000000000E+00 -0.15864998683E+04  0.15864998683E+04  0.00000000000E+00 0. -1.
   -9000010    2    1    2    0  502 -0.21891188704E+03  0.26166671037E+02 -0.73801619001E+03  0.12503015660E+04  0.98487511910E+03 0.  0.
        -13    1    1    2    0    0  0.20213199555E+03 -0.28947238763E+02  0.25574516104E+03  0.32726271529E+03  0.10566000000E+00 0.  1.
         13    1    3    3    0    0 -0.20132723328E+03  0.42322190683E+02  0.21466008781E+03  0.29732606200E+03  0.10566000000E+00 0. -1.
          1    1    1    2  502    0  0.16779891482E+02  0.27805677260E+01 -0.55645226994E+03  0.55671215636E+03  0.00000000000E+00 0. -1.
         -4    1    3    3    0  502 -0.17584653761E+02 -0.16155519647E+02 -0.95267627783E+03  0.95297550398E+03  0.00000000000E+00 0. -1.
</event>
<event>
 7    1  0.5696597E-006  0.1005535E+04  0.7818608E-02  0.9382354E-01
         -4   -1    0    0    0  501 -0.00000000000E+00  0.00000000000E+00  0.11512429639E+04  0.11512429639E+04  0.00000000000E+00 0. -1.
          2   -1    0    0  501    0  0.00000000000E+00 -0.00000000000E+00 -0.86500257750E+03  0.86500257750E+03  0.00000000000E+00 0. -1.
   -9000010    2    1    2    0  502 -0.90069175180E+02 -0.53824084927E+02  0.51064608142E+03  0.11287924929E+04  0.10012010703E+04 0.  0.
        -13    1    1    2    0    0  0.29181562165E+01  0.87403588534E+02  0.32172235158E+03  0.33339643909E+03  0.10566000000E+00 0.  1.
         13    1    3    3    0    0  0.23692389068E+03  0.23312508023E+03  0.59883691969E+03  0.68489846003E+03  0.10566000000E+00 0. -1.
          2    1    1    2  502    0  0.87151018964E+02 -0.33579503607E+02 -0.54612804656E+03  0.55405660939E+03  0.00000000000E+00 0. -1.
         -4    1    3    3    0  502 -0.32699306586E+03 -0.28694916516E+03 -0.88190838271E+02  0.44389403292E+03  0.00000000000E+00 0. -1.
</event>
<event>
 7    1  0.5696597E-006  0.1031823E+04  0.7818608E-02  0.9110944E-01
          2   -1    0    0  502    0  0.00000000000E+00  0.00000000000E+00  0.39668224341E+04  0.39668224341E+04  0.00000000000E+00 0.  1.
          4   -1    0    0  501    0 -0.00000000000E+00 -0.00000000000E+00 -0.26099247583E+03  0.26099247583E+03  0.00000000000E+00 0.  1.
    9000010    2    1    2  502    0 -0.16546130273E+03 -0.33759721981E+02  0.87954107354E+03  0.13466551065E+04  0.10056690879E+04 0.  0.
        -13    1    3    3    0    0 -0.84883589456E+02 -0.50228203692E+03  0.27927504937E+03  0.58093634138E+03  0.10566000000E+00 0.  1.
         13    1    1    2    0    0  0.11789792654E+03 -0.19653744561E+03  0.59664853370E+03  0.63915285538E+03  0.10566000000E+00 0. -1.
          2    1    1    2  501    0  0.47563376186E+02  0.23029716759E+03  0.22296403510E+04  0.22420069480E+04  0.00000000000E+00 0.  1.
          4    1    3    3  502    0 -0.80577713273E+02  0.46852231494E+03  0.60026602417E+03  0.76571876511E+03  0.00000000000E+00 0.  1.
</event>
<event>
 7    1  0.5696597E-006  0.1760003E+04  0.7818608E-02  0.8313585E-01
          2   -1    0    0  501    0  0.00000000000E+00  0.00000000000E+00  0.19546093682E+04  0.19546093682E+04  0.00000000000E+00 0.  1.
         -4   -1    0    0    0  501 -0.00000000000E+00 -0.00000000000E+00 -0.20505026271E+04  0.20505026271E+04  0.00000000000E+00 0. -1.
   -9000010    2    1    2    0  502  0.11962302773E+04 -0.56941724957E+03 -0.11728647682E+03  0.16573780727E+04  0.98891004527E+03 0.  0.
        -13    1    1    2    0    0 -0.15154481165E+04  0.37603915426E+03 -0.55835708709E+03  0.16582373434E+04  0.10566000000E+00 0.  1.
         13    1    3    3    0    0  0.90741069892E+03 -0.75630435867E+03  0.18958836771E+03  0.11963838096E+04  0.10566000000E+00 0. -1.
          2    1    1    2  502    0  0.31921783915E+03  0.19337809530E+03  0.57975030495E+03  0.68949657915E+03  0.00000000000E+00 0.  1.
         -4    1    3    3    0  502  0.28881957842E+03  0.18688710910E+03 -0.30687484453E+03  0.46099426312E+03  0.00000000000E+00 0. -1.
</event>
<event>
 7    1  0.5696597E-006  0.1033855E+04  0.7818608E-02  0.8944470E-01
          4   -1    0    0  501    0 -0.00000000000E+00  0.00000000000E+00  0.94360212617E+03  0.94360212617E+03  0.00000000000E+00 0.  1.
          2   -1    0    0  502    0  0.00000000000E+00 -0.00000000000E+00 -0.11844458122E+04  0.11844458122E+04  0.00000000000E+00 0.  1.
    9000010    2    1    2  502    0 -0.50945014781E+03 -0.34194573046E+03 -0.93750977675E+02  0.11146024057E+04  0.92578774089E+03 0.  0.
        -13    1    3    3    0    0 -0.64572774861E+03 -0.47286255304E+03 -0.28131157279E+03  0.84835106621E+03  0.10566000000E+00 0.  1.
         13    1    1    2    0    0  0.61556860428E+02  0.44077218529E+03  0.14687482807E+03  0.46865935676E+03  0.10566000000E+00 0. -1.
          2    1    1    2  501    0  0.44789328738E+03 -0.98826454831E+02 -0.29396753645E+03  0.54478617598E+03  0.00000000000E+00 0.  1.
          4    1    3    3  502    0  0.13627760080E+03  0.13091682258E+03  0.18756059512E+03  0.26625133944E+03  0.00000000000E+00 0.  1.
</event>
<event>
 7    1  0.5696597E-006  0.1058061E+04  0.7818608E-02  0.9036056E-01
          1   -1    0    0  501    0  0.00000000000E+00  0.00000000000E+00  0.74566606602E+03  0.74566606602E+03  0.00000000000E+00 0. -1.
         -4   -1    0    0    0  501 -0.00000000000E+00 -0.00000000000E+00 -0.16845742531E+04  0.16845742531E+04  0.00000000000E+00 0. -1.
   -9000010    2    1    2    0  502  0.27688595331E+03 -0.69442622599E+02 -0.24890236088E+03  0.10867004118E+04  0.10185662918E+04 0.  0.
        -13    1    1    2    0    0 -0.27003009168E+03  0.95702584857E+02 -0.99597994886E+03  0.10363644653E+04  0.10566000000E+00 0.  1.
         13    1    3    3    0    0 -0.57611062456E+02  0.33263353346E+03  0.20434227013E+03  0.39461357887E+03  0.10566000000E+00 0. -1.
          1    1    1    2  502    0 -0.68558616244E+01 -0.26259962258E+02  0.30597412265E+03  0.30717544204E+03  0.00000000000E+00 0. -1.
         -4    1    3    3    0  502  0.33449701576E+03 -0.40207615606E+03 -0.45324463101E+03  0.69208683297E+03  0.00000000000E+00 0. -1.
</event>
<event>
 7    1  0.5696597E-006  0.1018070E+04  0.7818608E-02  0.9185527E-01
         -4   -1    0    0    0  501 -0.00000000000E+00  0.00000000000E+00  0.95834010755E+03  0.95834010755E+03  0.00000000000E+00 0. -1.
          2   -1    0    0  501    0  0.00000000000E+00 -0.00000000000E+00 -0.75399277890E+03  0.75399277890E+03  0.00000000000E+00 0.  1.
   -9000010    2    1    2    0  502 -0.13114245889E+03  0.11945618124E+03  0.50094312121E+03  0.11345234795E+04  0.10023629038E+04 0.  0.
        -13    1    1    2    0    0  0.14821888565E+03 -0.99592526896E+02  0.83277046959E+02  0.19703448224E+03  0.10566000000E+00 0.  1.
         13    1    3    3    0    0  0.23367142239E+03  0.56387728451E+02 -0.21886155248E+03  0.32508814171E+03  0.10566000000E+00 0. -1.
          2    1    1    2  502    0 -0.17076426761E+02 -0.19863654343E+02 -0.37987283952E+03  0.38077492475E+03  0.00000000000E+00 0.  1.
         -4    1    3    3    0  502 -0.36481388128E+03  0.63068452788E+02  0.71980467370E+03  0.80943533774E+03  0.00000000000E+00 0. -1.
</event>
<event>
 7    1  0.5696597E-006  0.1026310E+04  0.7818608E-02  0.9150614E-01
          2   -1    0    0  501    0  0.00000000000E+00  0.00000000000E+00  0.78381407977E+03  0.78381407977E+03  0.00000000000E+00 0.  1.
         -4   -1    0    0    0  501 -0.00000000000E+00 -0.00000000000E+00 -0.18467071472E+04  0.18467071472E+04  0.00000000000E+00 0. -1.
   -9000010    2    1    2    0  502 -0.68613220869E+02 -0.30502095165E+03 -0.74781997938E+03  0.12925125949E+04  0.10067812729E+04 0.  0.
        -13    1    1    2    0    0 -0.46615460333E+02  0.19005330688E+03 -0.80151404314E+03  0.82505638178E+03  0.10566000000E+00 0.  1.
         13    1    3    3    0    0  0.45150841972E+03 -0.20821334005E+03 -0.21515789943E+03  0.54176155355E+03  0.10566000000E+00 0. -1.
          2    1    1    2  502    0  0.11522868120E+03  0.11496764477E+03  0.48644095508E+03  0.51295225030E+03  0.00000000000E+00 0.  1.
         -4    1    3    3    0  502 -0.52012164059E+03 -0.96807611603E+02 -0.53266207995E+03  0.75075104135E+03  0.00000000000E+00 0. -1.
</event>
<event>
 6    1  0.5696597E-006  0.6418342E+03  0.7818608E-02  0.9322542E-01
         -4   -1    0    0    0  501 -0.00000000000E+00  0.00000000000E+00  0.43131716358E+03  0.43131716358E+03  0.00000000000E+00 0. -1.
          2   -1    0    0  501    0  0.00000000000E+00 -0.00000000000E+00 -0.18642309064E+04  0.18642309064E+04  0.00000000000E+00 0. -1.
        -13    1    1    2    0    0  0.13740581173E+03  0.39994286871E+03  0.15026000208E+03  0.44879030150E+03  0.10566000000E+00 0.  1.
         13    1    1    2    0    0 -0.15860940824E+03 -0.35430855842E+03 -0.15720658624E+03  0.41881430357E+03  0.10566000000E+00 0. -1.
          2    1    1    2  502    0 -0.48827302966E+01 -0.12237442859E+02 -0.95055706943E+03  0.95064837785E+03  0.00000000000E+00 0. -1.
         -4    1    1    2    0  502  0.26086326804E+02 -0.33396867427E+02 -0.47541008923E+03  0.47729508707E+03  0.00000000000E+00 0. -1.
</event>
<event>
 7    1  0.5696597E-006  0.1350148E+04  0.7818608E-02  0.8589689E-01
          2   -1    0    0  502    0  0.00000000000E+00  0.00000000000E+00  0.17150276428E+04  0.17150276428E+04  0.00000000000E+00 0. -1.
          4   -1    0    0  501    0 -0.00000000000E+00 -0.00000000000E+00 -0.15090038265E+04  0.15090038265E+04  0.00000000000E+00 0.  1.
    9000010    2    1    2  502    0 -0.64056486735E+03  0.63650279676E+03 -0.42506815624E+03  0.14122978096E+04  0.99922119979E+03 0.  0.
        -13    1    3    3    0    0 -0.50644594574E+03  0.28662393030E+03  0.25538134711E+03  0.63550013139E+03  0.10566000000E+00 0.  1.
         13    1    1    2    0    0  0.73259499397E+03 -0.54870460153E+03 -0.22800654463E+03  0.94327045989E+03  0.10566000000E+00 0. -1.
          2    1    1    2  501    0 -0.92030126624E+02 -0.87798195221E+02  0.85909851712E+03  0.86846319981E+03  0.00000000000E+00 0. -1.
          4    1    3    3  502    0 -0.13411892161E+03  0.34987886645E+03 -0.68044950336E+03  0.77679767825E+03  0.00000000000E+00 0.  1.
</event>
<event>
 7    1  0.5696597E-006  0.1140521E+04  0.7818608E-02  0.8862055E-01
         -4   -1    0    0    0  501 -0.00000000000E+00  0.00000000000E+00  0.15320956679E+04  0.15320956679E+04  0.00000000000E+00 0. -1.
          2   -1    0    0  501    0  0.00000000000E+00 -0.00000000000E+00 -0.24454761867E+04  0.24454761867E+04  0.00000000000E+00 0. -1.
   -9000010    2    1    2    0  502  0.15233589886E+03 -0.62997590922E+03 -0.62600582995E+03  0.13442691504E+04  0.99754718053E+03 0.  0.
        -13    1    1    2    0    0 -0.44231887493E+03  0.14717465875E+03  0.10681474173E+04  0.11654378077E+04  0.10566000000E+00 0.  1.
         13    1    3    3    0    0  0.49977999643E+03 -0.36600597467E+03 -0.49768021806E+02  0.62146382476E+03  0.10566000000E+00 0. -1.
          2    1    1    2  502    0  0.28998297607E+03  0.48280125047E+03 -0.13555221062E+04  0.14678648965E+04  0.00000000000E+00 0. -1.
         -4    1    3    3    0  502 -0.34744409757E+03 -0.26396993455E+03 -0.57623780815E+03  0.72280532567E+03  0.00000000000E+00 0. -1.
</event>
<event>
 7    1  0.5696597E-006  0.1091904E+04  0.7818608E-02  0.8924697E-01
         -4   -1    0    0    0  501 -0.00000000000E+00  0.00000000000E+00  0.55343152148E+03  0.55343152148E+03  0.00000000000E+00 0. -1.
          2   -1    0    0  501    0  0.00000000000E+00 -0.00000000000E+00 -0.20864420345E+04  0.20864420345E+04  0.00000000000E+00 0.  1.
   -9000010    2    1    2    0  502 -0.17012960884E+03 -0.17648965778E+03 -0.74956011029E+03  0.12830836689E+04  0.10121119796E+04 0.  0.
        -13    1    1    2    0    0  0.41336730415E+03  0.15905855044E+03  0.88251580446E+02  0.45161986584E+03  0.10566000000E+00 0.  1.
         13    1    3    3    0    0  0.16124497850E+03 -0.50896093152E+03 -0.56869266603E+03  0.78003367394E+03  0.10566000000E+00 0. -1.
          2    1    1    2  502    0 -0.24323769531E+03  0.17431107339E+02 -0.87170198321E+03  0.90517002130E+03  0.00000000000E+00 0.  1.
         -4    1    3    3    0  502 -0.33137458734E+03  0.33247127375E+03 -0.18086744425E+03  0.50304999493E+03  0.00000000000E+00 0. -1.
</event>
<event>
 7    1  0.5696597E-006  0.1032917E+04  0.7818608E-02  0.9141308E-01
         -4   -1    0    0    0  501 -0.00000000000E+00  0.00000000000E+00  0.23589717896E+04  0.23589717896E+04  0.00000000000E+00 0. -1.
          2   -1    0    0  501    0  0.00000000000E+00 -0.00000000000E+00 -0.10318115542E+04  0.10318115542E+04  0.00000000000E+00 0.  1.
   -9000010    2    1    2    0  502  0.18922973508E+03  0.42119821794E+03  0.93592499722E+03  0.14433247428E+04  0.99700294946E+03 0.  0.
        -13    1    1    2    0    0 -0.11874796268E+03 -0.16430098163E+03  0.11373183287E+04  0.11552440794E+04  0.10566000000E+00 0.  1.
         13    1    3    3    0    0 -0.29450743172E+03 -0.10013483581E+03  0.63029468335E+02  0.31738673212E+03  0.10566000000E+00 0. -1.
          2    1    1    2  502    0 -0.70481772399E+02 -0.25689723632E+03 -0.74608309049E+03  0.79221452157E+03  0.00000000000E+00 0.  1.
         -4    1    3    3    0  502  0.48373716680E+03  0.52133305375E+03  0.87289552889E+03  0.11259380107E+04  0.00000000000E+00 0. -1.
</event>
<event>
 6    1  0.5696597E-006  0.5283437E+03  0.7818608E-02  0.9690510E-01
          2   -1    0    0  502    0  0.00000000000E+00  0.00000000000E+00  0.13869341973E+04  0.13869341973E+04  0.00000000000E+00 0.  1.
          4   -1    0    0  501    0 -0.00000000000E+00 -0.00000000000E+00 -0.27835030654E+03  0.27835030654E+03  0.00000000000E+00 0.  1.
        -13    1    1    2    0    0 -0.17439722805E+03  0.31280330372E+03  0.53924327032E+02  0.36217142927E+03  0.10566000000E+00 0.  1.
         13    1    1    2    0    0  0.80131883533E+02 -0.18812722145E+03  0.33154541648E+03  0.38953221248E+03  0.10566000000E+00 0. -1.
          2    1    1    2  501    0  0.27667941755E+02  0.25345905091E+02  0.74679916010E+03  0.74774120886E+03  0.00000000000E+00 0.  1.
          4    1    1    2  502    0  0.66597402762E+02 -0.15002198736E+03 -0.23685012866E+02  0.16583965322E+03  0.00000000000E+00 0.  1.
</event>
<event>
 7    1  0.5696597E-006  0.9175031E+03  0.7818608E-02  0.9331784E-01
          1   -1    0    0  501    0  0.00000000000E+00  0.00000000000E+00  0.26736964179E+04  0.26736964179E+04  0.00000000000E+00 0. -1.
         -4   -1    0    0    0  501 -0.00000000000E+00 -0.00000000000E+00 -0.59167815158E+03  0.59167815158E+03  0.00000000000E+00 0. -1.
   -9000010    2    1    2    0  502  0.43430643030E+03 -0.18190938072E+03 -0.79968696942E+02  0.90957651338E+03  0.77409388514E+03 0.  0.
        -13    1    1    2    0    0 -0.50052342643E+02 -0.12978666928E+03  0.12221399920E+01  0.13910902673E+03  0.10566000000E+00 0.  1.
         13    1    3    3    0    0 -0.20951872112E+03 -0.92055880833E+02 -0.11976506562E+03  0.25829452530E+03  0.10566000000E+00 0. -1.
          1    1    1    2  502    0 -0.38425408765E+03  0.31169605000E+03  0.21607648233E+04  0.22166890294E+04  0.00000000000E+00 0. -1.
         -4    1    3    3    0  502  0.64382515141E+03 -0.89853499885E+02  0.39796368677E+02  0.65128198808E+03  0.00000000000E+00 0. -1.
</event>
<event>
 7    1  0.5696597E-006  0.1073846E+04  0.7818608E-02  0.8942317E-01
          4   -1    0    0  501    0 -0.00000000000E+00  0.00000000000E+00  0.28995238185E+04  0.28995238185E+04  0.00000000000E+00 0.  1.
          2   -1    0    0  502    0  0.00000000000E+00 -0.00000000000E+00 -0.73517581690E+03  0.73517581690E+03  0.00000000000E+00 0. -1.
    9000010    2    1    2  502    0  0.21450910140E+03 -0.34714425791E+03  0.17826039778E+04  0.20824996618E+04  0.99629544295E+03 0.  0.
        -13    1    3    3    0    0  0.42578296079E+03  0.21397127851E+03  0.75697799516E+03  0.89447779964E+03  0.10566000000E+00 0.  1.
         13    1    1    2    0    0 -0.20396091018E+03  0.34253448044E+03  0.92581893789E+03  0.10080032937E+04  0.10566000000E+00 0. -1.
          2    1    1    2  501    0 -0.10548191222E+02  0.46097774678E+01 -0.54407491401E+03  0.54419667992E+03  0.00000000000E+00 0. -1.
          4    1    3    3  502    0 -0.21127385939E+03 -0.56111553642E+03  0.10256259826E+04  0.11880218622E+04  0.00000000000E+00 0.  1.
</event>
<event>
 7    1  0.5696597E-006  0.1010740E+04  0.7818608E-02  0.9190340E-01
         -4   -1    0    0    0  501 -0.00000000000E+00  0.00000000000E+00  0.65302569135E+03  0.65302569135E+03  0.00000000000E+00 0. -1.
          1   -1    0    0  501    0  0.00000000000E+00 -0.00000000000E+00 -0.16327469688E+04  0.16327469688E+04  0.00000000000E+00 0. -1.
   -9000010    2    1    2    0  502  0.73374302178E+02 -0.15164613610E+03 -0.65099145650E+03  0.12007671303E+04  0.99482233893E+03 0.  0.
        -13    1    1    2    0    0 -0.74258345597E+02  0.16277082807E+03  0.35692787893E+03  0.39925701782E+03  0.10566000000E+00 0.  1.
         13    1    3    3    0    0 -0.14875958920E+02  0.38148968250E+03 -0.38118783140E+02  0.38367789199E+03  0.10566000000E+00 0. -1.
          1    1    1    2  502    0  0.88404341904E+00 -0.11124691961E+02 -0.68565769983E+03  0.68574851195E+03  0.00000000000E+00 0. -1.
         -4    1    3    3    0  502  0.88250261098E+02 -0.53313581861E+03 -0.61287267336E+03  0.81708923834E+03  0.00000000000E+00 0. -1.
</event>
<event>
 7    1  0.5696597E-006  0.1311751E+04  0.7818608E-02  0.8709004E-01
         -4   -1    0    0    0  501 -0.00000000000E+00  0.00000000000E+00  0.18209805724E+04  0.18209805724E+04  0.00000000000E+00 0. -1.
          2   -1    0    0  501    0  0.00000000000E+00 -0.00000000000E+00 -0.13182905406E+04  0.13182905406E+04  0.00000000000E+00 0.  1.
   -9000010    2    1    2    0  502  0.57067467667E+03 -0.10215794741E+03 -0.58894884976E+03  0.14349763445E+04  0.11731114733E+04 0.  0.
        -13    1    1    2    0    0 -0.58162062433E+03  0.82223390355E+02  0.13357103884E+04  0.14591660253E+04  0.10566000000E+00 0.  1.
         13    1    3    3    0    0  0.15721256329E+02 -0.57052897415E+03 -0.16508819733E+03  0.59414189577E+03  0.10566000000E+00 0. -1.
          2    1    1    2  502    0  0.10945947657E+02  0.19934557059E+02 -0.24407150678E+03  0.24512874323E+03  0.00000000000E+00 0.  1.
         -4    1    3    3    0  502  0.55495342034E+03  0.46837102674E+03 -0.42386065244E+03  0.84083444870E+03  0.00000000000E+00 0. -1.
</event>
<event>
 7    1  0.5696597E-006  0.1054576E+04  0.7818608E-02  0.9094176E-01
          2   -1    0    0  502    0  0.00000000000E+00  0.00000000000E+00  0.53532023924E+03  0.53532023924E+03  0.00000000000E+00 0.  1.
          4   -1    0    0  501    0 -0.00000000000E+00 -0.00000000000E+00 -0.16832497563E+04  0.16832497563E+04  0.00000000000E+00 0.  1.
    9000010    2    1    2  502    0  0.16546918237E+03 -0.19255630605E+03 -0.13150199932E+04  0.16891545393E+04  0.10293238042E+04 0.  0.
        -13    1    3    3    0    0  0.40063242928E+02  0.20925725992E+03 -0.12441996204E+04  0.12623099345E+04  0.10566000000E+00 0.  1.
         13    1    1    2    0    0 -0.87723279177E+02  0.20528878433E+03 -0.10459807941E+03  0.24653524710E+03  0.10566000000E+00 0. -1.
          2    1    1    2  501    0 -0.77745903193E+02 -0.12732478282E+02  0.27168855555E+03  0.28288020907E+03  0.00000000000E+00 0.  1.
          4    1    3    3  502    0  0.12540593944E+03 -0.40181356597E+03 -0.70820372781E+02  0.42684460480E+03  0.00000000000E+00 0.  1.
</event>
<event>
 7    1  0.5696597E-006  0.1225553E+04  0.7818608E-02  0.8708652E-01
          4   -1    0    0  501    0 -0.00000000000E+00  0.00000000000E+00  0.17414729873E+04  0.17414729873E+04  0.00000000000E+00 0.  1.
          2   -1    0    0  502    0  0.00000000000E+00 -0.00000000000E+00 -0.70446748740E+03  0.70446748740E+03  0.00000000000E+00 0.  1.
    9000010    2    1    2  502    0  0.68795585194E+03 -0.20670136998E+02  0.49396290915E+03  0.13038940814E+04  0.99117602429E+03 0.  0.
        -13    1    3    3    0    0  0.34568072946E+03 -0.43909768423E+03 -0.18311560761E+02  0.55913975663E+03  0.10566000000E+00 0.  1.
         13    1    1    2    0    0 -0.71883065917E+03  0.17094614569E+03  0.62531233065E+03  0.96796468082E+03  0.10566000000E+00 0. -1.
          2    1    1    2  501    0  0.30874807229E+02 -0.15027600869E+03 -0.82269739901E+02  0.17408171246E+03  0.00000000000E+00 0.  1.
          4    1    3    3  502    0  0.34227512248E+03  0.41842754724E+03  0.51227446991E+03  0.74475432478E+03  0.00000000000E+00 0.  1.
</event>
<event>
 7    1  0.5696597E-006  0.1418215E+04  0.7818608E-02  0.8535426E-01
          2   -1    0    0  502    0  0.00000000000E+00  0.00000000000E+00  0.14024190032E+04  0.14024190032E+04  0.00000000000E+00 0. -1.
          4   -1    0    0  501    0 -0.00000000000E+00 -0.00000000000E+00 -0.17935980601E+04  0.17935980601E+04  0.00000000000E+00 0.  1.
    9000010    2    1    2  502    0  0.42924863919E+03  0.91068606333E+03 -0.98517720402E+03  0.17315526997E+04  0.10070238967E+04 0.  0.
        -13    1    3    3    0    0  0.39402770512E+03 -0.50949207689E+02 -0.69719403002E+02  0.40337880520E+03  0.10566000000E+00 0.  1.
         13    1    1    2    0    0 -0.40589900331E+03 -0.89908639830E+03  0.12455284441E+03  0.99429561737E+03  0.10566000000E+00 0. -1.
          2    1    1    2  501    0 -0.23349635876E+02 -0.11599665027E+02  0.46944530266E+03  0.47016874621E+03  0.00000000000E+00 0. -1.
          4    1    3    3  502    0  0.35220934070E+02  0.96163527102E+03 -0.91545780102E+03  0.13281738945E+04  0.00000000000E+00 0.  1.
</event>
<event>
 7    1  0.5696597E-006  0.1249596E+04  0.7818608E-02  0.8681698E-01
         -4   -1    0    0    0  501 -0.00000000000E+00  0.00000000000E+00  0.96723462317E+03  0.96723462317E+03  0.00000000000E+00 0. -1.
          1   -1    0    0  501    0  0.00000000000E+00 -0.00000000000E+00 -0.16770168653E+04  0.16770168653E+04  0.00000000000E+00 0. -1.
   -9000010    2    1    2    0  502 -0.57991658523E+03 -0.48761309851E+03 -0.14341743561E+03  0.12538045784E+04  0.98862914192E+03 0.  0.
        -13    1    1    2    0    0  0.56031237288E+03  0.52527288782E+03  0.52791454363E+02  0.76983667794E+03  0.10566000000E+00 0.  1.
         13    1    3    3    0    0 -0.32481610919E+03 -0.23681370476E+03  0.42321547817E+03  0.58369305947E+03  0.10566000000E+00 0. -1.
          1    1    1    2  502    0  0.19604212353E+02 -0.37659789309E+02 -0.61915626092E+03  0.62061023220E+03  0.00000000000E+00 0. -1.
         -4    1    3    3    0  502 -0.25510047605E+03 -0.25079939375E+03 -0.56663291378E+03  0.67011151890E+03  0.00000000000E+00 0. -1.
</event>
<event>
 7    1  0.5696597E-006  0.1046206E+04  0.7818608E-02  0.9004849E-01
          4   -1    0    0  501    0  0.00000000000E+00  0.00000000000E+00  0.15137828056E+04  0.15137828056E+04  0.00000000000E+00 0. -1.
         -4   -1    0    0    0  501 -0.00000000000E+00 -0.00000000000E+00 -0.99147720467E+03  0.99147720467E+03  0.00000000000E+00 0. -1.
   -9000010    2    1    2    0  502 -0.91817097099E+02 -0.29776370561E+03 -0.52959173561E+02  0.10400069975E+04  0.99081596525E+03 0.  0.
        -13    1    1    2    0    0  0.66336386902E+02  0.33273324307E+03 -0.37976254991E+03  0.50924604343E+03  0.10566000000E+00 0.  1.
         13    1    3    3    0    0  0.25447159287E+03 -0.42821800108E+03 -0.31248494228E+03  0.58802491303E+03  0.10566000000E+00 0. -1.
          4    1    1    2  502    0  0.25480710197E+02 -0.34969537455E+02  0.95502732444E+03  0.95600696941E+03  0.00000000000E+00 0. -1.
         -4    1    3    3    0  502 -0.34628868997E+03  0.13045429547E+03  0.25952576872E+03  0.45198208442E+03  0.00000000000E+00 0. -1.
</event>
<event>
 7    1  0.5696597E-006  0.1151061E+04  0.7818608E-02  0.8816246E-01
          4   -1    0    0  501    0 -0.00000000000E+00  0.00000000000E+00  0.72890950551E+03  0.72890950551E+03  0.00000000000E+00 0.  1.
          2   -1    0    0  502    0  0.00000000000E+00 -0.00000000000E+00 -0.26952157377E+04  0.26952157377E+04  0.00000000000E+00 0.  1.
    9000010    2    1    2  502    0 -0.55279255410E+03 -0.39358011875E+02 -0.87784201597E+03  0.14493526195E+04  0.10113791325E+04 0.  0.
        -13    1    3    3    0    0 -0.19737036661E+03 -0.47865485459E+03 -0.67118650202E+03  0.84767733431E+03  0.10566000000E+00 0.  1.
         13    1    1    2    0    0  0.54912302220E+03 -0.78043511093E+01  0.27244307491E+03  0.61304342558E+03  0.10566000000E+00 0. -1.
          2    1    1    2  501    0  0.36695318983E+01  0.47162362984E+02 -0.13609072912E+04  0.13617291981E+04  0.00000000000E+00 0.  1.
          4    1    3    3  502    0 -0.35542218749E+03  0.43929684272E+03 -0.20665551395E+03  0.60167528521E+03  0.00000000000E+00 0.  1.
</event>
<event>
 7    1  0.5696597E-006  0.1095079E+04  0.7818608E-02  0.8965238E-01
          4   -1    0    0  501    0 -0.00000000000E+00  0.00000000000E+00  0.23920309872E+04  0.23920309872E+04  0.00000000000E+00 0.  1.
          2   -1    0    0  502    0  0.00000000000E+00 -0.00000000000E+00 -0.76330146359E+03  0.76330146359E+03  0.00000000000E+00 0.  1.
    9000010    2    1    2  502    0  0.14187802717E+03 -0.32277879731E+03  0.16968454140E+04  0.20210026299E+04  0.10396401994E+04 0.  0.
        -13    1    3    3    0    0 -0.17319217611E+03 -0.41439732478E+03  0.16239078099E+04  0.16848730690E+04  0.10566000000E+00 0.  1.
         13    1    1    2    0    0 -0.11260438257E+03  0.32228452450E+03  0.47801999111E+03  0.58740972478E+03  0.10566000000E+00 0. -1.
          2    1    1    2  501    0 -0.29273644602E+02  0.49427280683E+00 -0.54613588148E+03  0.54692009619E+03  0.00000000000E+00 0.  1.
          4    1    3    3  502    0  0.31507020328E+03  0.91618527469E+02  0.72937604162E+02  0.33612956084E+03  0.00000000000E+00 0.  1.
</event>
<event>
 7    1  0.5696597E-006  0.9906010E+03  0.7818608E-02  0.9234377E-01
          4   -1    0    0  501    0 -0.00000000000E+00  0.00000000000E+00  0.82597819376E+03  0.82597819376E+03  0.00000000000E+00 0.  1.
          2   -1    0    0  502    0  0.00000000000E+00 -0.00000000000E+00 -0.62460089718E+03  0.62460089718E+03  0.00000000000E+00 0.  1.
    9000010    2    1    2  502    0  0.73695149487E+02 -0.14714652139E+03  0.51413791509E+02  0.99266531138E+03  0.97757760236E+03 0.  0.
        -13    1    3    3    0    0 -0.44004175770E+03  0.30732789783E+02  0.79759274125E+02  0.44826644516E+03  0.10566000000E+00 0.  1.
         13    1    1    2    0    0 -0.81300953204E+02  0.13770933578E+03  0.28260792982E+03  0.32471673703E+03  0.10566000000E+00 0. -1.
          2    1    1    2  501    0  0.76058037167E+01  0.94371856160E+01 -0.13264442475E+03  0.13319704253E+03  0.00000000000E+00 0.  1.
          4    1    3    3  502    0  0.51373690719E+03 -0.17787931118E+03 -0.28345482616E+02  0.54439886621E+03  0.00000000000E+00 0.  1.
</event>
<event>
 7    1  0.5696597E-006  0.1014636E+04  0.7818608E-02  0.9688169E-01
          2   -1    0    0  501    0  0.00000000000E+00  0.00000000000E+00  0.21209897103E+04  0.21209897103E+04  0.00000000000E+00 0. -1.
         -4   -1    0    0    0  501 -0.00000000000E+00 -0.00000000000E+00 -0.76599129046E+03  0.76599129046E+03  0.00000000000E+00 0. -1.
   -9000010    2    1    2    0  502 -0.65337584515E+02 -0.79189789834E+01 -0.39957675459E+03  0.10916661683E+04  0.10137759762E+04 0.  0.
        -13    1    1    2    0    0  0.24134307165E+02  0.14684272097E+02 -0.10207504820E+02  0.30038258072E+02  0.10566000000E+00 0.  1.
         13    1    3    3    0    0  0.26774172759E+03  0.34736507118E+03 -0.41586570290E+03  0.60439425823E+03  0.10566000000E+00 0. -1.
          2    1    1    2  502    0  0.41203277351E+02 -0.67652931133E+01  0.17647826792E+04  0.17652765744E+04  0.00000000000E+00 0. -1.
         -4    1    3    3    0  502 -0.33307931211E+03 -0.35528405017E+03  0.16288948313E+02  0.48727191002E+03  0.00000000000E+00 0. -1.
</event>
<event>
 7    1  0.5696597E-006  0.1018208E+04  0.7818608E-02  0.9265521E-01
         -2   -1    0    0    0  501  0.00000000000E+00  0.00000000000E+00  0.39326378850E+03  0.39326378850E+03  0.00000000000E+00 0. -1.
         -4   -1    0    0    0  502 -0.00000000000E+00 -0.00000000000E+00 -0.15345006597E+04  0.15345006597E+04  0.00000000000E+00 0. -1.
   -9000010    2    1    2    0  501 -0.15550507654E+03 -0.33212425274E+02 -0.80343886732E+03  0.13001641559E+04  0.10097662723E+04 0.  0.
        -13    1    1    2    0    0  0.12988202495E+03 -0.59598268197E+01 -0.46984468215E+03  0.48750271430E+03  0.10566000000E+00 0.  1.
         13    1    3    3    0    0  0.25958249252E+03  0.31764430429E+03 -0.58479374190E+03  0.71432815022E+03  0.10566000000E+00 0. -1.
         -2    1    1    2    0  502  0.25623051598E+02  0.39172252094E+02  0.13204667829E+03  0.14009757798E+03  0.00000000000E+00 0. -1.
         -4    1    3    3    0  501 -0.41508756906E+03 -0.35085672957E+03 -0.21864512542E+03  0.58583600567E+03  0.00000000000E+00 0. -1.
</event>
<event>
 7    1  0.5696597E-006  0.1042225E+04  0.7818608E-02  0.9079056E-01
         -4   -1    0    0    0  501 -0.00000000000E+00  0.00000000000E+00  0.19349252001E+04  0.19349252001E+04  0.00000000000E+00 0. -1.
          2   -1    0    0  501    0  0.00000000000E+00 -0.00000000000E+00 -0.47634693616E+03  0.47634693616E+03  0.00000000000E+00 0. -1.
   -9000010    2    1    2    0  502 -0.18089561437E+03  0.18021711268E+03  0.17065898846E+04  0.20000510501E+04  0.10112139922E+04 0.  0.
        -13    1    1    2    0    0  0.12755766647E+03 -0.21837154766E+03 -0.15235852911E+03  0.29524603919E+03  0.10566000000E+00 0.  1.
         13    1    3    3    0    0  0.23060240026E+03  0.37180681294E+03  0.13608778063E+04  0.14294775927E+04  0.10566000000E+00 0. -1.
          2    1    1    2  502    0  0.53337947898E+02  0.38154434983E+02 -0.95653091515E+02  0.11597504693E+03  0.00000000000E+00 0. -1.
         -4    1    3    3    0  502 -0.41149801463E+03 -0.19158970026E+03  0.34571207829E+03  0.57057345747E+03  0.00000000000E+00 0. -1.
</event>
<event>
 7    1  0.5696597E-006  0.1046344E+04  0.7818608E-02  0.9058160E-01
          2   -1    0    0  502    0  0.00000000000E+00  0.00000000000E+00  0.10730021843E+04  0.10730021843E+04  0.00000000000E+00 0.  1.
          4   -1    0    0  501    0 -0.00000000000E+00 -0.00000000000E+00 -0.32047382945E+04  0.32047382945E+04  0.00000000000E+00 0.  1.
    9000010    2    1    2  502    0  0.49022350505E+02 -0.26975902324E+03 -0.16562898576E+04  0.19595522690E+04  0.10106314269E+04 0.  0.
        -13    1    3    3    0    0  0.47828311323E+03 -0.37172803299E+03 -0.93916082381E+03  0.11175685800E+04  0.10566000000E+00 0.  1.
         13    1    1    2    0    0 -0.77436242146E+02  0.25959335754E+03 -0.13834298569E+04  0.14097032536E+04  0.10566000000E+00 0. -1.
          2    1    1    2  501    0  0.28413891641E+02  0.10165665705E+02  0.90798360431E+03  0.90848495623E+03  0.00000000000E+00 0.  1.
          4    1    3    3  502    0 -0.42926076273E+03  0.10196900975E+03 -0.71712903376E+03  0.84198368893E+03  0.00000000000E+00 0.  1.
</event>
<event>
 7    1  0.5696597E-006  0.1014024E+04  0.7818608E-02  0.9082158E-01
         -4   -1    0    0    0  501 -0.00000000000E+00  0.00000000000E+00  0.15728882407E+04  0.15728882407E+04  0.00000000000E+00 0. -1.
          2   -1    0    0  501    0  0.00000000000E+00 -0.00000000000E+00 -0.11490445008E+04  0.11490445008E+04  0.00000000000E+00 0. -1.
   -9000010    2    1    2    0  502  0.20711262224E+03  0.14551694652E+03 -0.17271897026E+03  0.10241601920E+04  0.97724174912E+03 0.  0.
        -13    1    1    2    0    0 -0.25813463051E+03 -0.83817171893E+02  0.11280751248E+04  0.11602638942E+04  0.10566000000E+00 0.  1.
         13    1    3    3    0    0  0.18068451369E+03 -0.25808509993E+03  0.27686369598E+03  0.41941426968E+03  0.10566000000E+00 0. -1.
          2    1    1    2  502    0  0.51022008265E+02 -0.61699774624E+02 -0.53151241471E+03  0.53750865528E+03  0.00000000000E+00 0. -1.
         -4    1    3    3    0  502  0.26428108550E+02  0.40360204645E+03 -0.44958266624E+03  0.60474592235E+03  0.00000000000E+00 0. -1.
</event>
<event>
 7    1  0.5696597E-006  0.1125165E+04  0.7818608E-02  0.8823543E-01
         -4   -1    0    0    0  501 -0.00000000000E+00  0.00000000000E+00  0.26739004021E+04  0.26739004021E+04  0.00000000000E+00 0. -1.
          2   -1    0    0  501    0  0.00000000000E+00 -0.00000000000E+00 -0.24117305660E+04  0.24117305660E+04  0.00000000000E+00 0. -1.
   -9000010    2    1    2    0  502 -0.77943640090E+03 -0.55040198857E+03  0.64233257054E+03  0.15044817916E+04  0.96974784256E+03 0.  0.
        -13    1    1    2    0    0  0.52801211964E+03  0.99823583136E+02  0.15199921062E+04  0.16121840962E+04  0.10566000000E+00 0.  1.
         13    1    3    3    0    0 -0.61553953763E+03  0.13837849286E+03  0.17009243236E+03  0.65342863143E+03  0.10566000000E+00 0. -1.
          2    1    1    2  502    0  0.25142428126E+03  0.45057840544E+03 -0.19001548406E+04  0.19689650802E+04  0.00000000000E+00 0. -1.
         -4    1    3    3    0  502 -0.16389686327E+03 -0.68878048143E+03  0.47224013818E+03  0.85105316021E+03  0.00000000000E+00 0. -1.
</event>
<event>
 7    1  0.5696597E-006  0.1413954E+04  0.7818608E-02  0.8537893E-01
          4   -1    0    0  501    0 -0.00000000000E+00  0.00000000000E+00  0.23628465435E+04  0.23628465435E+04  0.00000000000E+00 0.  1.
          2   -1    0    0  502    0  0.00000000000E+00 -0.00000000000E+00 -0.31844339503E+04  0.31844339503E+04  0.00000000000E+00 0. -1.
    9000010    2    1    2  502    0 -0.49735886891E+03  0.77337591911E+03 -0.55964675107E+03  0.14713395394E+04  0.10030749711E+04 0.  0.
        -13    1    3    3    0    0  0.30171834218E+03  0.32793483495E+03 -0.16922102279E+03  0.47666652882E+03  0.10566000000E+00 0.  1.
         13    1    1    2    0    0  0.96580421568E+03 -0.35954853293E+03  0.17159506816E+04  0.20016342531E+04  0.10566000000E+00 0. -1.
          2    1    1    2  501    0 -0.46844534677E+03 -0.41382738618E+03 -0.19778913374E+04  0.20743067012E+04  0.00000000000E+00 0. -1.
          4    1    3    3  502    0 -0.79907721109E+03  0.44544108417E+03 -0.39042572827E+03  0.99467301061E+03  0.00000000000E+00 0.  1.
</event>
<event>
 7    1  0.5696597E-006  0.1006117E+04  0.7818608E-02  0.9369902E-01
          4   -1    0    0  501    0  0.00000000000E+00  0.00000000000E+00  0.24596427567E+04  0.24596427567E+04  0.00000000000E+00 0. -1.
         -4   -1    0    0    0  501 -0.00000000000E+00 -0.00000000000E+00 -0.29722259346E+03  0.29722259346E+03  0.00000000000E+00 0. -1.
   -9000010    2    1    2    0  502  0.88853438838E+01  0.81640805810E+02  0.15830118117E+04  0.18752542069E+04  0.10019519820E+04 0.  0.
        -13    1    1    2    0    0 -0.33067002435E+02 -0.85364938644E+02 -0.13700749965E+03  0.16477762446E+03  0.10566000000E+00 0.  1.
         13    1    3    3    0    0 -0.74127010256E+02 -0.38733131197E+03  0.12029211521E+04  0.12659145581E+04  0.10566000000E+00 0. -1.
          4    1    1    2  502    0  0.24181658552E+02  0.37241328342E+01  0.71641585127E+03  0.71683351884E+03  0.00000000000E+00 0. -1.
         -4    1    3    3    0  502  0.83012354140E+02  0.46897211778E+03  0.38009065952E+03  0.60933964884E+03  0.00000000000E+00 0. -1.
</event>
<event>
 7    1  0.5696597E-006  0.8780741E+03  0.7818608E-02  0.9023255E-01
         -4   -1    0    0    0  501 -0.00000000000E+00  0.00000000000E+00  0.10082195050E+04  0.10082195050E+04  0.00000000000E+00 0. -1.
          2   -1    0    0  501    0  0.00000000000E+00 -0.00000000000E+00 -0.96731223228E+03  0.96731223228E+03  0.00000000000E+00 0.  1.
   -9000010    2    1    2    0  502 -0.28374692564E+03 -0.40272639480E+03  0.47151284200E+03  0.97865829292E+03  0.70195927749E+03 0.  0.
        -13    1    1    2    0    0  0.27313909604E+03  0.49975147536E+03 -0.14746395676E+02  0.56971393722E+03  0.10566000000E+00 0.  1.
         13    1    3    3    0    0 -0.36914240758E+03 -0.49781328826E+03  0.55006238298E+03  0.82864517339E+03  0.10566000000E+00 0. -1.
          2    1    1    2  502    0  0.10607829596E+02 -0.97025080557E+02 -0.41585917359E+03  0.42715950717E+03  0.00000000000E+00 0.  1.
         -4    1    3    3    0  502  0.85395481943E+02  0.95086893462E+02 -0.78549540978E+02  0.15001311953E+03  0.00000000000E+00 0. -1.
</event>
<event>
 7    1  0.5696597E-006  0.1057224E+04  0.7818608E-02  0.9050233E-01
         -4   -1    0    0    0  501 -0.00000000000E+00  0.00000000000E+00  0.13124829925E+04  0.13124829925E+04  0.00000000000E+00 0. -1.
          4   -1    0    0  501    0  0.00000000000E+00 -0.00000000000E+00 -0.95639826365E+03  0.95639826365E+03  0.00000000000E+00 0.  1.
   -9000010    2    1    2    0  502  0.26409880624E+03  0.26997184929E+03  0.28756317864E+03  0.10997087394E+04  0.99198475334E+03 0.  0.
        -13    1    1    2    0    0  0.10855927352E+03 -0.24853932560E+03  0.51812251613E+03  0.58481438518E+03  0.10566000000E+00 0.  1.
         13    1    3    3    0    0  0.20444797037E+03 -0.11697541843E+03 -0.30753067798E+03  0.38737236629E+03  0.10566000000E+00 0. -1.
          4    1    1    2  502    0 -0.37265807975E+03 -0.21432523684E+02 -0.44960096589E+03  0.58435813164E+03  0.00000000000E+00 0.  1.
         -4    1    3    3    0  502  0.59650835867E+02  0.38694726771E+03  0.59509385662E+03  0.71233637307E+03  0.00000000000E+00 0. -1.
</event>
<event>
 7    1  0.5696597E-006  0.1361658E+04  0.7818608E-02  0.8579413E-01
          4   -1    0    0  501    0 -0.00000000000E+00  0.00000000000E+00  0.23070186531E+04  0.23070186531E+04  0.00000000000E+00 0.  1.
          2   -1    0    0  502    0  0.00000000000E+00 -0.00000000000E+00 -0.13341849723E+04  0.13341849723E+04  0.00000000000E+00 0. -1.
    9000010    2    1    2  502    0  0.92452510092E+03  0.33091719740E+02  0.16658987624E+04  0.21509615938E+04  0.99778523097E+03 0.  0.
        -13    1    3    3    0    0  0.10105606835E+04  0.32076162864E+03  0.13118998609E+04  0.16867727096E+04  0.10566000000E+00 0.  1.
         13    1    1    2    0    0 -0.92975718632E+03 -0.17548652559E+02 -0.14408739176E+03  0.94101943037E+03  0.10566000000E+00 0. -1.
          2    1    1    2  501    0  0.52320853938E+01 -0.15543067181E+02 -0.54897768988E+03  0.54922260117E+03  0.00000000000E+00 0. -1.
          4    1    3    3  502    0 -0.86035582610E+02 -0.28766990890E+03  0.35399890148E+03  0.46418888420E+03  0.00000000000E+00 0.  1.
</event>
<event>
 7    1  0.5696597E-006  0.1027806E+04  0.7818608E-02  0.9106674E-01
         -4   -1    0    0    0  501 -0.00000000000E+00  0.00000000000E+00  0.30106800133E+04  0.30106800133E+04  0.00000000000E+00 0. -1.
          2   -1    0    0  501    0  0.00000000000E+00 -0.00000000000E+00 -0.30445359081E+03  0.30445359081E+03  0.00000000000E+00 0. -1.
   -9000010    2    1    2    0  502  0.15513786395E+02 -0.23335266898E+03  0.19496755846E+04  0.22037918246E+04  0.10003846136E+04 0.  0.
        -13    1    1    2    0    0 -0.25596535386E+02  0.23469122143E+03  0.91886531706E+03  0.94870893013E+03  0.10566000000E+00 0.  1.
         13    1    3    3    0    0 -0.42541644483E+02  0.77671733698E+02 -0.97844214671E+02  0.13197041805E+03  0.10566000000E+00 0. -1.
          2    1    1    2  502    0  0.10082748992E+02 -0.13385524469E+01 -0.16231447919E+03  0.16263284940E+03  0.00000000000E+00 0. -1.
         -4    1    3    3    0  502  0.58055430878E+02 -0.31102440268E+03  0.20475197993E+04  0.20718214066E+04  0.00000000000E+00 0. -1.
</event>
<event>
 6    1  0.5696597E-006  0.1025894E+04  0.7818608E-02  0.8823522E-01
         -4   -1    0    0    0  501 -0.00000000000E+00  0.00000000000E+00  0.62294527048E+03  0.62294527048E+03  0.00000000000E+00 0. -1.
          2   -1    0    0  501    0  0.00000000000E+00 -0.00000000000E+00 -0.15636650484E+04  0.15636650484E+04  0.00000000000E+00 0.  1.
        -13    1    1    2    0    0  0.73805028691E+03 -0.89096329842E+02 -0.27504368726E+03  0.79265719139E+03  0.10566000000E+00 0.  1.
         13    1    1    2    0    0 -0.69710740909E+03  0.40417774808E+03 -0.23709306061E+03  0.83995923853E+03  0.10566000000E+00 0. -1.
          2    1    1    2  502    0  0.76858641556E+01 -0.10380459861E+03 -0.25775247192E+03  0.27797626515E+03  0.00000000000E+00 0.  1.
         -4    1    1    2    0  502 -0.48628741980E+02 -0.21127681962E+03 -0.17083055810E+03  0.27601762378E+03  0.00000000000E+00 0. -1.
</event>
<event>
 7    1  0.5696597E-006  0.2118377E+04  0.7818608E-02  0.8148615E-01
          2   -1    0    0  502    0  0.00000000000E+00  0.00000000000E+00  0.29731634553E+04  0.29731634553E+04  0.00000000000E+00 0. -1.
          4   -1    0    0  501    0 -0.00000000000E+00 -0.00000000000E+00 -0.18799140301E+04  0.18799140301E+04  0.00000000000E+00 0.  1.
    9000010    2    1    2  502    0  0.43578711825E+03  0.18289628518E+04 -0.32678516389E+03  0.21650360660E+04  0.10225346440E+04 0.  0.
        -13    1    3    3    0    0  0.64866277763E+03  0.74839518948E+03  0.73754041667E+02  0.99312558549E+03  0.10566000000E+00 0.  1.
         13    1    1    2    0    0 -0.38970422539E+03 -0.17777179227E+04  0.67692998267E+03  0.19417478231E+04  0.10566000000E+00 0. -1.
          2    1    1    2  501    0 -0.46082892862E+02 -0.51244929072E+02  0.74310460639E+03  0.74629359625E+03  0.00000000000E+00 0. -1.
          4    1    3    3  502    0 -0.21287565938E+03  0.10805676623E+04 -0.40053920556E+03  0.11719104805E+04  0.00000000000E+00 0.  1.
</event>
<event>
 7    1  0.5696597E-006  0.1453077E+04  0.7818608E-02  0.8646501E-01
         -4   -1    0    0    0  501 -0.00000000000E+00  0.00000000000E+00  0.16082179472E+04  0.16082179472E+04  0.00000000000E+00 0. -1.
          2   -1    0    0  501    0  0.00000000000E+00 -0.00000000000E+00 -0.26981331841E+04  0.26981331841E+04  0.00000000000E+00 0. -1.
   -9000010    2    1    2    0  502  0.25538304099E+03  0.85847872112E+03  0.94734655482E+03  0.16005607775E+04  0.92850584018E+03 0.  0.
        -13    1    1    2    0    0 -0.49219247319E+03  0.28111082287E+03 -0.38688047866E+03  0.68626033059E+03  0.10566000000E+00 0.  1.
         13    1    3    3    0    0  0.53354908164E+02 -0.19528034246E+03  0.68787475127E+02  0.21380572087E+03  0.10566000000E+00 0. -1.
          2    1    1    2  502    0  0.23680943220E+03 -0.11395895440E+04 -0.16503813131E+04  0.20195300232E+04  0.00000000000E+00 0. -1.
         -4    1    3    3    0  502  0.20202813283E+03  0.10537590636E+04  0.87855907969E+03  0.13867550566E+04  0.00000000000E+00 0. -1.
</event>
<event>
 7    1  0.5696597E-006  0.1020772E+04  0.7818608E-02  0.9261708E-01
          4   -1    0    0  501    0 -0.00000000000E+00  0.00000000000E+00  0.27375387924E+03  0.27375387924E+03  0.00000000000E+00 0.  1.
          2   -1    0    0  502    0  0.00000000000E+00 -0.00000000000E+00 -0.35055637123E+04  0.35055637123E+04  0.00000000000E+00 0.  1.
    9000010    2    1    2  502    0 -0.12252101135E+03 -0.22029570437E+02 -0.18746505462E+04  0.21341098540E+04  0.10122319390E+04 0.  0.
        -13    1    3    3    0    0 -0.19517701287E+03 -0.35611663219E+03 -0.17045115409E+04  0.17522193716E+04  0.10566000000E+00 0.  1.
         13    1    1    2    0    0  0.12440578210E+03  0.43823979263E+02  0.11372717596E+03  0.17415861017E+03  0.10566000000E+00 0. -1.
          2    1    1    2  501    0 -0.18847707528E+01 -0.21794408826E+02 -0.14708864629E+04  0.14710491275E+04  0.00000000000E+00 0.  1.
          4    1    3    3  502    0  0.72656001523E+02  0.33408706175E+03 -0.17013900525E+03  0.38189048233E+03  0.00000000000E+00 0.  1.
</event>
<event>
 7    1  0.5696597E-006  0.1103153E+04  0.7818608E-02  0.8903286E-01
         -4   -1    0    0    0  501 -0.00000000000E+00  0.00000000000E+00  0.11349842505E+04  0.11349842505E+04  0.00000000000E+00 0. -1.
          2   -1    0    0  501    0  0.00000000000E+00 -0.00000000000E+00 -0.16868888889E+04  0.16868888889E+04  0.00000000000E+00 0. -1.
   -9000010    2    1    2    0  502  0.17189258489E+03  0.50647523663E+03 -0.12204797100E+04  0.16745737054E+04  0.10141805295E+04 0.  0.
        -13    1    1    2    0    0  0.16628493500E+03 -0.40215603183E+03  0.66335392177E+03  0.79335905506E+03  0.10566000000E+00 0.  1.
         13    1    3    3    0    0  0.29167149409E+03  0.67479116687E+03 -0.41742975291E+03  0.84537742407E+03  0.10566000000E+00 0. -1.
          2    1    1    2  502    0 -0.33817751989E+03 -0.10431920479E+03  0.52211498661E+01  0.35394037895E+03  0.00000000000E+00 0. -1.
         -4    1    3    3    0  502 -0.11977890920E+03 -0.16831593024E+03 -0.80304995707E+03  0.82919628135E+03  0.00000000000E+00 0. -1.
</event>
<event>
 7    1  0.5696597E-006  0.1011472E+04  0.7818608E-02  0.9302303E-01
          2   -1    0    0  501    0  0.00000000000E+00  0.00000000000E+00  0.33481184872E+04  0.33481184872E+04  0.00000000000E+00 0. -1.
         -4   -1    0    0    0  501 -0.00000000000E+00 -0.00000000000E+00 -0.25779416281E+03  0.25779416281E+03  0.00000000000E+00 0. -1.
   -9000010    2    1    2    0  502  0.74150949244E+02  0.10840383540E+02  0.10573715457E+04  0.14605678073E+04  0.10047924446E+04 0.  0.
        -13    1    1    2    0    0 -0.11742294026E+03 -0.12492093345E+02  0.63254222916E+01  0.11825490022E+03  0.10566000000E+00 0.  1.
         13    1    3    3    0    0 -0.29950735473E+03 -0.24782490640E+03  0.10090453529E+03  0.40162616470E+03  0.10566000000E+00 0. -1.
          2    1    1    2  502    0  0.43271991018E+02  0.16517098052E+01  0.20266273565E+04  0.20270899426E+04  0.00000000000E+00 0. -1.
         -4    1    3    3    0  502  0.37365830397E+03  0.25866528994E+03  0.95646701040E+03  0.10589416426E+04  0.00000000000E+00 0. -1.
</event>
<event>
 7    1  0.5696597E-006  0.1147398E+04  0.7818608E-02  0.8840279E-01
          4   -1    0    0  501    0 -0.00000000000E+00  0.00000000000E+00  0.20369815301E+04  0.20369815301E+04  0.00000000000E+00 0.  1.
          2   -1    0    0  502    0  0.00000000000E+00 -0.00000000000E+00 -0.60683438291E+03  0.60683438291E+03  0.00000000000E+00 0. -1.
    9000010    2    1    2  502    0 -0.42443289196E+03  0.24737797198E+03  0.71397326284E+03  0.13476272488E+04  0.10319894577E+04 0.  0.
        -13    1    3    3    0    0  0.20477646642E+03  0.33797410920E+03  0.47433242038E+01  0.39519920290E+03  0.10566000000E+00 0.  1.
         13    1    1    2    0    0  0.42975133839E+03 -0.26249021916E+03  0.94287350423E+03  0.10689236568E+04  0.10566000000E+00 0. -1.
          2    1    1    2  501    0 -0.53184464379E+01  0.15112247179E+02 -0.22669961993E+03  0.22726500734E+03  0.00000000000E+00 0. -1.
          4    1    3    3  502    0 -0.62920935837E+03 -0.90596137217E+02  0.70922993864E+03  0.95242804589E+03  0.00000000000E+00 0.  1.
</event>
<event>
 7    1  0.5696597E-006  0.9966632E+03  0.7818608E-02  0.9050003E-01
          2   -1    0    0  502    0  0.00000000000E+00  0.00000000000E+00  0.11083180801E+04  0.11083180801E+04  0.00000000000E+00 0.  1.
          4   -1    0    0  501    0 -0.00000000000E+00 -0.00000000000E+00 -0.21900266349E+04  0.21900266349E+04  0.00000000000E+00 0.  1.
    9000010    2    1    2  502    0  0.12761382359E+03 -0.32461209671E+03 -0.10931681144E+04  0.14849329074E+04  0.94252369299E+03 0.  0.
        -13    1    3    3    0    0 -0.99081519943E+02 -0.45711513836E+03 -0.12834822372E+03  0.48502028309E+03  0.10566000000E+00 0.  1.
         13    1    1    2    0    0 -0.19556022077E+03  0.25590076372E+03 -0.86946695865E+03  0.92720105920E+03  0.10566000000E+00 0. -1.
          2    1    1    2  501    0  0.67946397173E+02  0.68711332983E+02  0.88092651819E+03  0.88621074842E+03  0.00000000000E+00 0.  1.
          4    1    3    3  502    0  0.22669534354E+03  0.13250304165E+03 -0.96481989065E+03  0.99991262430E+03  0.00000000000E+00 0.  1.
</event>
<event>
 7    1  0.5696597E-006  0.1170273E+04  0.7818608E-02  0.9038975E-01
          1   -1    0    0  501    0  0.00000000000E+00  0.00000000000E+00  0.10526899916E+04  0.10526899916E+04  0.00000000000E+00 0. -1.
         -4   -1    0    0    0  501 -0.00000000000E+00 -0.00000000000E+00 -0.10933338406E+04  0.10933338406E+04  0.00000000000E+00 0. -1.
   -9000010    2    1    2    0  502 -0.17677281550E+03  0.69270465176E+02 -0.52117826324E+03  0.12780663115E+04  0.11514250687E+04 0.  0.
        -13    1    1    2    0    0  0.18630894920E+03 -0.10194200771E+03 -0.13489048182E+03  0.25159223107E+03  0.10566000000E+00 0.  1.
         13    1    3    3    0    0  0.12883120201E+03  0.25013533789E+03 -0.78615489296E+03  0.83498783989E+03  0.10566000000E+00 0. -1.
          1    1    1    2  502    0 -0.95361336975E+01  0.32671542531E+02  0.61542489608E+03  0.61636528962E+03  0.00000000000E+00 0. -1.
         -4    1    3    3    0  502 -0.30560401751E+03 -0.18086487272E+03  0.26497662972E+03  0.44307847160E+03  0.00000000000E+00 0. -1.
</event>
<event>
 7    1  0.5696597E-006  0.1040760E+04  0.7818608E-02  0.9004448E-01
          2   -1    0    0  502    0  0.00000000000E+00  0.00000000000E+00  0.63369929199E+03  0.63369929199E+03  0.00000000000E+00 0. -1.
          4   -1    0    0  501    0 -0.00000000000E+00 -0.00000000000E+00 -0.24907558722E+04  0.24907558722E+04  0.00000000000E+00 0.  1.
    9000010    2    1    2  502    0  0.22209400459E+01 -0.33876894975E+03 -0.16064187255E+04  0.19135656595E+04  0.98304785124E+03 0.  0.
        -13    1    3    3    0    0 -0.26130917423E+03 -0.29320115223E+03 -0.13087015372E+03  0.41397633810E+03  0.10566000000E+00 0.  1.
         13    1    1    2    0    0 -0.19088936845E+02  0.34209004174E+03 -0.69042645969E+03  0.77076500412E+03  0.10566000000E+00 0. -1.
          2    1    1    2  501    0  0.16867996799E+02 -0.33210919955E+01  0.43978860494E+03  0.44012450057E+03  0.00000000000E+00 0. -1.
          4    1    3    3  502    0  0.26353011428E+03 -0.45567797519E+02 -0.14755485718E+04  0.14995893214E+04  0.00000000000E+00 0.  1.
</event>
<event>
 7    1  0.5696597E-006  0.1023413E+04  0.7818608E-02  0.9170148E-01
          2   -1    0    0  502    0  0.00000000000E+00  0.00000000000E+00  0.10939050177E+04  0.10939050177E+04  0.00000000000E+00 0.  1.
          4   -1    0    0  501    0 -0.00000000000E+00 -0.00000000000E+00 -0.52828271864E+03  0.52828271864E+03  0.00000000000E+00 0.  1.
    9000010    2    1    2  502    0 -0.17152248127E+03  0.63788162224E+02  0.42992521535E+03  0.11095194024E+04  0.10063342995E+04 0.  0.
        -13    1    3    3    0    0 -0.16344635021E+03 -0.11854276154E+03 -0.29750104103E+03  0.35954690415E+03  0.10566000000E+00 0.  1.
         13    1    1    2    0    0  0.17934133548E+03 -0.50852192882E+02 -0.14213982441E+03  0.23442056433E+03  0.10566000000E+00 0. -1.
          2    1    1    2  501    0 -0.78188542159E+01 -0.12935969343E+02  0.27783690808E+03  0.27824776958E+03  0.00000000000E+00 0.  1.
          4    1    3    3  502    0 -0.80761310563E+01  0.18233092376E+03  0.72742625638E+03  0.74997249824E+03  0.00000000000E+00 0.  1.
</event>
<event>
 7    1  0.5696597E-006  0.1184305E+04  0.7818608E-02  0.8972008E-01
         -4   -1    0    0    0  501 -0.00000000000E+00  0.00000000000E+00  0.95419293022E+03  0.95419293022E+03  0.00000000000E+00 0. -1.
          1   -1    0    0  501    0  0.00000000000E+00 -0.00000000000E+00 -0.66431980302E+03  0.66431980302E+03  0.00000000000E+00 0. -1.
   -9000010    2    1    2    0  502  0.91347041647E+02 -0.26000673157E+03  0.38312019919E+03  0.12471205553E+04  0.11543746402E+04 0.  0.
        -13    1    1    2    0    0 -0.55765761047E+02  0.25581498522E+03  0.10093556775E+02  0.26201720902E+03  0.10566000000E+00 0.  1.
         13    1    3    3    0    0  0.43058751688E+03  0.20401464875E+03  0.46588226658E+03  0.66638868844E+03  0.10566000000E+00 0. -1.
          1    1    1    2  502    0 -0.35581280600E+02  0.41917463493E+01 -0.10334062877E+03  0.10937496889E+03  0.00000000000E+00 0. -1.
         -4    1    3    3    0  502 -0.33924047523E+03 -0.46402138032E+03 -0.82762067386E+02  0.58073186690E+03  0.00000000000E+00 0. -1.
</event>
<event>
 7    1  0.5696597E-006  0.1018318E+04  0.7818608E-02  0.9262676E-01
         -4   -1    0    0    0  501 -0.00000000000E+00  0.00000000000E+00  0.22980033826E+03  0.22980033826E+03  0.00000000000E+00 0. -1.
          2   -1    0    0  501    0  0.00000000000E+00 -0.00000000000E+00 -0.19484535351E+04  0.19484535351E+04  0.00000000000E+00 0. -1.
   -9000010    2    1    2    0  502 -0.84371139093E+02  0.81342618974E+02 -0.12048872886E+04  0.15763803885E+04  0.10096963109E+04 0.  0.
        -13    1    1    2    0    0  0.99094065782E+02 -0.89201766727E+02 -0.57329247960E+02  0.14513181214E+03  0.10566000000E+00 0.  1.
         13    1    3    3    0    0 -0.36988190287E+03 -0.86699026266E+02 -0.11850927438E+04  0.12444975556E+04  0.10566000000E+00 0. -1.
          2    1    1    2  502    0 -0.14722926689E+02  0.78591477530E+01 -0.45643666026E+03  0.45674167272E+03  0.00000000000E+00 0. -1.
         -4    1    3    3    0  502  0.28551076378E+03  0.16804164524E+03 -0.19794544790E+02  0.33188283290E+03  0.00000000000E+00 0. -1.
</event>
<event>
 7    1  0.5696597E-006  0.1184016E+04  0.7818608E-02  0.8748306E-01
          2   -1    0    0  502    0  0.00000000000E+00  0.00000000000E+00  0.18963506493E+04  0.18963506493E+04  0.00000000000E+00 0. -1.
          4   -1    0    0  501    0 -0.00000000000E+00 -0.00000000000E+00 -0.76964471996E+03  0.76964471996E+03  0.00000000000E+00 0.  1.
    9000010    2    1    2  502    0  0.86092189896E+03  0.25186039743E+03  0.58484259559E+03  0.14471559621E+04  0.97344714353E+03 0.  0.
        -13    1    3    3    0    0  0.56924649153E+03  0.43655659727E+03  0.77249606523E+03  0.10542169666E+04  0.10566000000E+00 0.  1.
         13    1    1    2    0    0 -0.57385872046E+03 -0.19819500155E+03  0.43731369647E+01  0.60713608456E+03  0.10566000000E+00 0. -1.
          2    1    1    2  501    0 -0.28706317851E+03 -0.53665395874E+02  0.53749019679E+03  0.61170332255E+03  0.00000000000E+00 0. -1.
          4    1    3    3  502    0  0.29167540744E+03 -0.18469619984E+03 -0.18765346964E+03  0.39293899553E+03  0.00000000000E+00 0.  1.
</event>
<event>
 7    1  0.5696597E-006  0.1029062E+04  0.7818608E-02  0.9172972E-01
         -4   -1    0    0    0  501 -0.00000000000E+00  0.00000000000E+00  0.46594886720E+03  0.46594886720E+03  0.00000000000E+00 0. -1.
          2   -1    0    0  501    0  0.00000000000E+00 -0.00000000000E+00 -0.33413451194E+04  0.33413451194E+04  0.00000000000E+00 0.  1.
   -9000010    2    1    2    0  502 -0.38162338652E+02  0.59749257490E+02 -0.33104091107E+03  0.10680698598E+04  0.10129949668E+04 0.  0.
        -13    1    1    2    0    0  0.20146671786E+03 -0.17787745070E+02 -0.13437746343E+02  0.20269638988E+03  0.10566000000E+00 0.  1.
         13    1    3    3    0    0 -0.47848177427E+02 -0.87213411978E+02  0.35382679903E+03  0.36754461251E+03  0.10566000000E+00 0. -1.
          2    1    1    2  502    0 -0.16330437921E+03 -0.41961512421E+02 -0.25309175948E+04  0.25365277369E+04  0.00000000000E+00 0.  1.
         -4    1    3    3    0  502  0.96858387748E+01  0.14696266947E+03 -0.68486771010E+03  0.70052524725E+03  0.00000000000E+00 0. -1.
</event>
<event>
 7    1  0.5696597E-006  0.1059713E+04  0.7818608E-02  0.9061105E-01
         -4   -1    0    0    0  501 -0.00000000000E+00  0.00000000000E+00  0.14534695011E+04  0.14534695011E+04  0.00000000000E+00 0. -1.
          2   -1    0    0  501    0  0.00000000000E+00 -0.00000000000E+00 -0.14601687906E+04  0.14601687906E+04  0.00000000000E+00 0. -1.
   -9000010    2    1    2    0  502  0.21112462964E+01  0.12567145880E+03  0.21050597396E+03  0.10238199296E+04  0.99403053793E+03 0.  0.
        -13    1    1    2    0    0  0.65243789873E+02  0.24946680207E+03  0.78039364912E+03  0.82189092719E+03  0.10566000000E+00 0.  1.
         13    1    3    3    0    0  0.21884198978E+03  0.33242093364E+03  0.47816617143E+03  0.62212409717E+03  0.10566000000E+00 0. -1.
          2    1    1    2  502    0 -0.67355036170E+02 -0.37513826086E+03 -0.99759891265E+03  0.10679274349E+04  0.00000000000E+00 0. -1.
         -4    1    3    3    0  502 -0.21673074348E+03 -0.20674947484E+03 -0.26766019747E+03  0.40169583247E+03  0.00000000000E+00 0. -1.
</event>
<event>
 7    1  0.5696597E-006  0.1067739E+04  0.7818608E-02  0.9039132E-01
          2   -1    0    0  502    0  0.00000000000E+00  0.00000000000E+00  0.17280470524E+04  0.17280470524E+04  0.00000000000E+00 0. -1.
          4   -1    0    0  501    0 -0.00000000000E+00 -0.00000000000E+00 -0.23475756106E+04  0.23475756106E+04  0.00000000000E+00 0.  1.
    9000010    2    1    2  502    0 -0.20759595875E+03  0.12695641394E+03 -0.13238726476E+04  0.16959235179E+04  0.10316509965E+04 0.  0.
        -13    1    3    3    0    0 -0.47863018508E+03 -0.23115411326E+03 -0.38866693638E+03  0.65846873635E+03  0.10566000000E+00 0.  1.
         13    1    1    2    0    0  0.24940834286E+03 -0.12579908412E+03 -0.81409392779E+03  0.86068511401E+03  0.10566000000E+00 0. -1.
          2    1    1    2  501    0 -0.41812384110E+02 -0.11573298198E+01  0.15184380171E+04  0.15190140311E+04  0.00000000000E+00 0. -1.
          4    1    3    3  502    0  0.27103422634E+03  0.35811052721E+03 -0.93520571120E+03  0.10374547816E+04  0.00000000000E+00 0.  1.
</event>
<event>
 7    1  0.5696597E-006  0.1003147E+04  0.7818608E-02  0.9268645E-01
          2   -1    0    0  502    0  0.00000000000E+00  0.00000000000E+00  0.52650692267E+03  0.52650692267E+03  0.00000000000E+00 0.  1.
          4   -1    0    0  501    0 -0.00000000000E+00 -0.00000000000E+00 -0.93693849095E+03  0.93693849095E+03  0.00000000000E+00 0.  1.
    9000010    2    1    2  502    0  0.88785817856E+02  0.75015459961E+02 -0.13651372492E+03  0.10100345633E+04  0.99399375317E+03 0.  0.
        -13    1    3    3    0    0  0.16149340313E+03  0.38602659422E+03 -0.41274726917E+03  0.58775587625E+03  0.10566000000E+00 0.  1.
         13    1    1    2    0    0 -0.11248335453E+03 -0.76042354286E+02 -0.34910083000E+03  0.37457488618E+03  0.10566000000E+00 0. -1.
          2    1    1    2  501    0  0.23697536675E+02  0.10268943252E+01  0.75182986637E+02  0.78835964103E+02  0.00000000000E+00 0.  1.
          4    1    3    3  502    0 -0.72707585276E+02 -0.31101113426E+03  0.27623354425E+03  0.42227868708E+03  0.00000000000E+00 0.  1.
</event>
<event>
 7    1  0.5696597E-006  0.1718024E+04  0.7818608E-02  0.8339166E-01
         -4   -1    0    0    0  501  0.00000000000E+00  0.00000000000E+00  0.17310555703E+04  0.17310555703E+04  0.00000000000E+00 0. -1.
         -4   -1    0    0    0  502 -0.00000000000E+00 -0.00000000000E+00 -0.40350562068E+04  0.40350562068E+04  0.00000000000E+00 0. -1.
   -9000010    2    1    2    0  501  0.12067912657E+04 -0.74559823364E+03 -0.18534522729E+04  0.25447307743E+04  0.10139563604E+04 0.  0.
        -13    1    1    2    0    0 -0.11978304088E+04  0.65356149810E+03 -0.15802773578E+04  0.20878737650E+04  0.10566000000E+00 0.  1.
         13    1    3    3    0    0  0.61182696502E+02 -0.46739074974E+03 -0.94628948895E+03  0.10571949883E+04  0.10566000000E+00 0. -1.
         -4    1    3    3    0  501  0.11456085692E+04 -0.27820748390E+03 -0.90716278395E+03  0.14875357860E+04  0.00000000000E+00 0. -1.
         -4    1    1    2    0  502 -0.89608569353E+01  0.92036735542E+02  0.11297289942E+04  0.11335072378E+04  0.00000000000E+00 0. -1.
</event>
<event>
 7    1  0.5696597E-006  0.1012522E+04  0.7818608E-02  0.9246652E-01
         -4   -1    0    0    0  501 -0.00000000000E+00  0.00000000000E+00  0.35996215896E+03  0.35996215896E+03  0.00000000000E+00 0. -1.
          1   -1    0    0  501    0  0.00000000000E+00 -0.00000000000E+00 -0.13708048579E+04  0.13708048579E+04  0.00000000000E+00 0. -1.
   -9000010    2    1    2    0  502 -0.72231545368E+02 -0.10118272728E+03 -0.50709314770E+03  0.11301966500E+04  0.10023700249E+04 0.  0.
        -13    1    1    2    0    0  0.23647168120E+02  0.14548030032E+03 -0.72350326971E+02  0.16418979054E+03  0.10566000000E+00 0.  1.
         13    1    3    3    0    0 -0.49405776617E+03 -0.21604386165E+03 -0.13443017633E+03  0.55573330829E+03  0.10566000000E+00 0. -1.
          1    1    1    2  502    0  0.48584377248E+02 -0.44297573044E+02 -0.43139922429E+03  0.43638057635E+03  0.00000000000E+00 0. -1.
         -4    1    3    3    0  502  0.42182622081E+03  0.11486113437E+03 -0.37266297137E+03  0.57446334172E+03  0.00000000000E+00 0. -1.
</event>
<event>
 7    1  0.5696597E-006  0.1057241E+04  0.7818608E-02  0.9032340E-01
          2   -1    0    0  501    0  0.00000000000E+00  0.00000000000E+00  0.88905339868E+03  0.88905339868E+03  0.00000000000E+00 0. -1.
         -4   -1    0    0    0  501 -0.00000000000E+00 -0.00000000000E+00 -0.13247536598E+04  0.13247536598E+04  0.00000000000E+00 0. -1.
   -9000010    2    1    2    0  502 -0.17665945158E+03  0.21346002759E+03  0.10929664713E+03  0.10590487501E+04  0.10162995389E+04 0.  0.
        -13    1    1    2    0    0  0.18864232219E+03 -0.22286026015E+03 -0.82458632480E+03  0.87475438809E+03  0.10566000000E+00 0.  1.
         13    1    3    3    0    0  0.19859515436E+03 -0.12181565438E+03 -0.32121193831E+03  0.39680752193E+03  0.10566000000E+00 0. -1.
          2    1    1    2  502    0 -0.11982870608E+02  0.94002325557E+01  0.27958941651E+03  0.28000392030E+03  0.00000000000E+00 0. -1.
         -4    1    3    3    0  502 -0.37525460593E+03  0.33527568197E+03  0.43050858544E+03  0.66224122820E+03  0.00000000000E+00 0. -1.
</event>
<event>
 7    1  0.5696597E-006  0.9705555E+03  0.7818608E-02  0.9364854E-01
          4   -1    0    0  501    0 -0.00000000000E+00  0.00000000000E+00  0.38527268870E+03  0.38527268870E+03  0.00000000000E+00 0.  1.
          2   -1    0    0  502    0  0.00000000000E+00 -0.00000000000E+00 -0.16546378945E+04  0.16546378945E+04  0.00000000000E+00 0.  1.
    9000010    2    1    2  502    0 -0.15875275549E+02  0.16186441789E+02 -0.56611207587E+03  0.11172302783E+04  0.96291566975E+03 0.  0.
        -13    1    3    3    0    0 -0.14663969859E+03  0.22534305218E+03 -0.75828622894E+03  0.80453757434E+03  0.10566000000E+00 0.  1.
         13    1    1    2    0    0 -0.19340677737E+02  0.10199436589E+03  0.79197096511E+02  0.13057221660E+03  0.10566000000E+00 0. -1.
          2    1    1    2  501    0  0.35215953286E+02 -0.11818080767E+03 -0.78245022648E+03  0.79210808832E+03  0.00000000000E+00 0.  1.
          4    1    3    3  502    0  0.13076442304E+03 -0.20915661039E+03  0.19217415307E+03  0.31269270396E+03  0.00000000000E+00 0.  1.
</event>
<event>
 7    1  0.5696597E-006  0.9669880E+03  0.7818608E-02  0.9150915E-01
          4   -1    0    0  501    0 -0.00000000000E+00  0.00000000000E+00  0.47370464626E+03  0.47370464626E+03  0.00000000000E+00 0.  1.
          2   -1    0    0  502    0  0.00000000000E+00 -0.00000000000E+00 -0.33544750351E+04  0.33544750351E+04  0.00000000000E+00 0.  1.
    9000010    2    1    2  502    0 -0.25482395129E+03 -0.16006490564E+03 -0.13287017663E+04  0.16536178850E+04  0.93725541108E+03 0.  0.
        -13    1    3    3    0    0 -0.15534837388E+03  0.21457354564E+03  0.47723752740E+01  0.26494850535E+03  0.10566000000E+00 0.  1.
         13    1    1    2    0    0  0.22626289142E+03  0.68327234295E+02  0.26492278339E+03  0.35503182858E+03  0.10566000000E+00 0. -1.
          2    1    1    2  501    0  0.28561059871E+02  0.91737671345E+02 -0.18169914060E+04  0.18195299678E+04  0.00000000000E+00 0.  1.
          4    1    3    3  502    0 -0.99475577405E+02 -0.37463845129E+03 -0.13334741416E+04  0.13886693796E+04  0.00000000000E+00 0.  1.
</event>
<event>
 7    1  0.5696597E-006  0.1212879E+04  0.7818608E-02  0.8726736E-01
          2   -1    0    0  501    0  0.00000000000E+00  0.00000000000E+00  0.17101682320E+04  0.17101682320E+04  0.00000000000E+00 0.  1.
         -4   -1    0    0    0  501 -0.00000000000E+00 -0.00000000000E+00 -0.24727270247E+04  0.24727270247E+04  0.00000000000E+00 0. -1.
   -9000010    2    1    2    0  502  0.43017370470E+03 -0.82018510576E+02 -0.10463573505E+03  0.10957467646E+04  0.99896740830E+03 0.  0.
        -13    1    1    2    0    0 -0.71414574458E+03 -0.14381882825E+03 -0.17717755143E+04  0.19156921684E+04  0.10566000000E+00 0.  1.
         13    1    3    3    0    0 -0.13190491863E+03 -0.28843317950E+03 -0.32837138205E+03  0.45653081200E+03  0.10566000000E+00 0. -1.
          2    1    1    2  502    0  0.28397203988E+03  0.22583733882E+03  0.11138524566E+04  0.11714563236E+04  0.00000000000E+00 0.  1.
         -4    1    3    3    0  502  0.56207862333E+03  0.20641466893E+03  0.22373564699E+03  0.63921595262E+03  0.00000000000E+00 0. -1.
</event>
<event>
 7    1  0.5696597E-006  0.9955085E+03  0.7818608E-02  0.9367909E-01
          2   -1    0    0  502    0  0.00000000000E+00  0.00000000000E+00  0.35237326431E+04  0.35237326431E+04  0.00000000000E+00 0.  1.
          4   -1    0    0  501    0 -0.00000000000E+00 -0.00000000000E+00 -0.96131837283E+02  0.96131837283E+02  0.00000000000E+00 0.  1.
    9000010    2    1    2  502    0 -0.11264591762E+03  0.11104764646E+00  0.28767752693E+04  0.30447523323E+04  0.99095494352E+03 0.  0.
        -13    1    3    3    0    0  0.41076869435E+03 -0.16250165614E+03  0.14714498910E+04  0.15363276022E+04  0.10566000000E+00 0.  1.
         13    1    1    2    0    0  0.82499988958E+02  0.46691566654E+02  0.21881714024E+03  0.23846866167E+03  0.10566000000E+00 0. -1.
          2    1    1    2  501    0  0.30145928664E+02 -0.46802614300E+02  0.33200839633E+03  0.33664348642E+03  0.00000000000E+00 0.  1.
          4    1    3    3  502    0 -0.52341461198E+03  0.16261270378E+03  0.14053253783E+04  0.15084247301E+04  0.00000000000E+00 0.  1.
</event>
<event>
 7    1  0.5696597E-006  0.1143928E+04  0.7818608E-02  0.8820160E-01
          2   -1    0    0  502    0  0.00000000000E+00  0.00000000000E+00  0.21298263648E+04  0.21298263648E+04  0.00000000000E+00 0. -1.
          4   -1    0    0  501    0 -0.00000000000E+00 -0.00000000000E+00 -0.13993581820E+04  0.13993581820E+04  0.00000000000E+00 0.  1.
    9000010    2    1    2  502    0 -0.33867219189E+03  0.47556517689E+03  0.18423254503E+03  0.11747416236E+04  0.10026041894E+04 0.  0.
        -13    1    3    3    0    0 -0.17176853828E+03 -0.30970177140E+03  0.16073703435E+02  0.35451092093E+03  0.10566000000E+00 0.  1.
         13    1    1    2    0    0  0.55303637580E+03 -0.11536912112E+03 -0.78025361646E+03  0.96330420130E+03  0.10566000000E+00 0. -1.
          2    1    1    2  501    0 -0.21436418391E+03 -0.36019605577E+03  0.13264892543E+04  0.13911387219E+04  0.00000000000E+00 0. -1.
          4    1    3    3  502    0 -0.16690365361E+03  0.78526694829E+03  0.16815884159E+03  0.82023070272E+03  0.00000000000E+00 0.  1.
</event>
<event>
 7    1  0.5696597E-006  0.1123019E+04  0.7818608E-02  0.8866074E-01
          2   -1    0    0  501    0  0.00000000000E+00  0.00000000000E+00  0.99238113912E+03  0.99238113912E+03  0.00000000000E+00 0. -1.
         -4   -1    0    0    0  501 -0.00000000000E+00 -0.00000000000E+00 -0.18079057159E+04  0.18079057159E+04  0.00000000000E+00 0. -1.
   -9000010    2    1    2    0  502 -0.10585188004E+03  0.43887664096E+03 -0.47623153310E+03  0.12088088451E+04  0.10151871869E+04 0.  0.
        -13    1    1    2    0    0  0.18916475005E+03 -0.44751400057E+03 -0.90095372590E+03  0.10236062284E+04  0.10566000000E+00 0.  1.
         13    1    3    3    0    0 -0.42536694189E+03  0.19880267579E+03 -0.62555906376E+03  0.78216602622E+03  0.10566000000E+00 0. -1.
          2    1    1    2  502    0 -0.83312870008E+02  0.86373596162E+01  0.56166068223E+03  0.56787178153E+03  0.00000000000E+00 0. -1.
         -4    1    3    3    0  502  0.31951506184E+03  0.24007396517E+03  0.14932753066E+03  0.42664281889E+03  0.00000000000E+00 0. -1.
</event>
<event>
 7    1  0.5696597E-006  0.1029987E+04  0.7818608E-02  0.9149558E-01
          2   -1    0    0  501    0  0.00000000000E+00  0.00000000000E+00  0.21601703560E+04  0.21601703560E+04  0.00000000000E+00 0.  1.
         -4   -1    0    0    0  501 -0.00000000000E+00 -0.00000000000E+00 -0.13452040310E+04  0.13452040310E+04  0.00000000000E+00 0. -1.
   -9000010    2    1    2    0  502 -0.76953956337E+02 -0.15901919962E+03 -0.67661190256E+03  0.12291058246E+04  0.10107860526E+04 0.  0.
        -13    1    1    2    0    0  0.96014702484E+02  0.17536853432E+03 -0.36678429873E+03  0.41773637486E+03  0.10566000000E+00 0.  1.
         13    1    3    3    0    0 -0.86915697492E+02  0.42217298912E+03 -0.38881441153E+03  0.58048344420E+03  0.10566000000E+00 0. -1.
          2    1    1    2  502    0 -0.19060746147E+02 -0.16349334701E+02  0.18583625263E+04  0.18585321875E+04  0.00000000000E+00 0.  1.
         -4    1    3    3    0  502  0.99617411547E+01 -0.58119218874E+03 -0.28779749103E+03  0.64862238042E+03  0.00000000000E+00 0. -1.
</event>
<event>
 7    1  0.5696597E-006  0.1784499E+04  0.7818608E-02  0.8300351E-01
         -4   -1    0    0    0  501 -0.00000000000E+00  0.00000000000E+00  0.28275246483E+04  0.28275246483E+04  0.00000000000E+00 0. -1.
          4   -1    0    0  501    0  0.00000000000E+00 -0.00000000000E+00 -0.13202808129E+04  0.13202808129E+04  0.00000000000E+00 0. -1.
   -9000010    2    1    2    0  502 -0.13405715455E+04 -0.62242707489E+03  0.78544737419E+03  0.19425420132E+04  0.98589774491E+03 0.  0.
        -13    1    1    2    0    0  0.13442397277E+04  0.65129338828E+03  0.10816626309E+04  0.18442227581E+04  0.10566000000E+00 0.  1.
         13    1    3    3    0    0 -0.12231371731E+03 -0.44175182653E+03  0.50000391713E+03  0.67831353370E+03  0.10566000000E+00 0. -1.
          4    1    1    2  502    0 -0.36681821880E+01 -0.28866313385E+02 -0.35986616971E+03  0.36104068983E+03  0.00000000000E+00 0. -1.
         -4    1    3    3    0  502 -0.12182578282E+04 -0.18067524836E+03  0.28544345706E+03  0.12642284795E+04  0.00000000000E+00 0. -1.
</event>
<event>
 7    1  0.5696597E-006  0.1113143E+04  0.7818608E-02  0.8874673E-01
         -4   -1    0    0    0  502 -0.00000000000E+00  0.00000000000E+00  0.14010808502E+04  0.14010808502E+04  0.00000000000E+00 0. -1.
         -2   -1    0    0    0  501  0.00000000000E+00 -0.00000000000E+00 -0.10754802249E+04  0.10754802249E+04  0.00000000000E+00 0.  1.
   -9000010    2    1    2    0  501 -0.14420190631E+03 -0.45149296562E+03  0.54649251510E+03  0.12393870080E+04  0.10063726937E+04 0.  0.
        -13    1    1    2    0    0  0.13528359282E+03  0.45668547985E+03  0.39647417223E+03  0.61972175886E+03  0.10566000000E+00 0.  1.
         13    1    3    3    0    0 -0.38748611853E+03  0.60771538913E+02 -0.73611862310E+02  0.39907065719E+03  0.10566000000E+00 0. -1.
         -2    1    1    2    0  502  0.89183134929E+01 -0.51925142318E+01 -0.61736606196E+03  0.61745230827E+03  0.00000000000E+00 0.  1.
         -4    1    3    3    0  501  0.24328421222E+03 -0.51226450453E+03  0.62010437741E+03  0.84031635079E+03  0.00000000000E+00 0. -1.
</event>
<event>
 7    1  0.5696597E-006  0.1120717E+04  0.7818608E-02  0.9032372E-01
          4   -1    0    0  501    0 -0.00000000000E+00  0.00000000000E+00  0.77016399318E+03  0.77016399318E+03  0.00000000000E+00 0.  1.
          2   -1    0    0  502    0  0.00000000000E+00 -0.00000000000E+00 -0.16388465389E+04  0.16388465389E+04  0.00000000000E+00 0.  1.
    9000010    2    1    2  502    0  0.18900914907E+01 -0.29656123603E+03 -0.29820079013E+03  0.10890244432E+04  0.10045388930E+04 0.  0.
        -13    1    3    3    0    0 -0.74641795816E+02  0.20676791015E+03  0.25535731236E+03  0.33694470539E+03  0.10566000000E+00 0.  1.
         13    1    1    2    0    0 -0.49718731083E+02 -0.23947175170E+03  0.24289043518E+03  0.34469471529E+03  0.10566000000E+00 0. -1.
          2    1    1    2  501    0  0.47828639593E+02  0.53603298773E+03 -0.81337219073E+03  0.97529137356E+03  0.00000000000E+00 0.  1.
          4    1    3    3  502    0  0.76531887307E+02 -0.50332914618E+03 -0.55355810248E+03  0.75207973779E+03  0.00000000000E+00 0.  1.
</event>
<event>
 7    1  0.5696597E-006  0.1167275E+04  0.7818608E-02  0.8822986E-01
         -4   -1    0    0    0  501 -0.00000000000E+00  0.00000000000E+00  0.18892596997E+04  0.18892596997E+04  0.00000000000E+00 0. -1.
          2   -1    0    0  501    0  0.00000000000E+00 -0.00000000000E+00 -0.15888354394E+04  0.15888354394E+04  0.00000000000E+00 0.  1.
   -9000010    2    1    2    0  502  0.33118113020E+03  0.22635523004E+03  0.74562310378E+03  0.13479632016E+04  0.10488724178E+04 0.  0.
        -13    1    1    2    0    0 -0.46372617083E+03 -0.28641070637E+03  0.74943144913E+03  0.92667176624E+03  0.10566000000E+00 0.  1.
         13    1    3    3    0    0  0.40444355937E+03 -0.28716079992E+03  0.77374627959E+02  0.50201868685E+03  0.10566000000E+00 0. -1.
          2    1    1    2  502    0  0.13254504063E+03  0.60055476325E+02 -0.11946302926E+04  0.12034601714E+04  0.00000000000E+00 0.  1.
         -4    1    3    3    0  502 -0.73262429172E+02  0.51351602996E+03  0.66824847583E+03  0.84594451473E+03  0.00000000000E+00 0. -1.
</event>
<event>
 7    1  0.5696597E-006  0.1086154E+04  0.7818608E-02  0.9212926E-01
          2   -1    0    0  501    0  0.00000000000E+00  0.00000000000E+00  0.10653705477E+04  0.10653705477E+04  0.00000000000E+00 0. -1.
         -4   -1    0    0    0  501 -0.00000000000E+00 -0.00000000000E+00 -0.61688492288E+03  0.61688492288E+03  0.00000000000E+00 0. -1.
   -9000010    2    1    2    0  502  0.51959742072E+02 -0.75678269851E+02  0.31962789203E+03  0.11270710188E+04  0.10768937165E+04 0.  0.
        -13    1    1    2    0    0  0.92445157142E+02  0.94115606839E+02 -0.17446990551E+03  0.21873183039E+03  0.10566000000E+00 0.  1.
         13    1    3    3    0    0  0.27530424442E+03 -0.91472212210E+02  0.65926562042E+03  0.72027131141E+03  0.10566000000E+00 0. -1.
          2    1    1    2  502    0 -0.14440489921E+03 -0.18437336988E+02  0.30332763831E+03  0.33645262144E+03  0.00000000000E+00 0. -1.
         -4    1    3    3    0  502 -0.22334450235E+03  0.15793942359E+02 -0.33963772839E+03  0.40679970734E+03  0.00000000000E+00 0. -1.
</event>
<event>
 7    1  0.5696597E-006  0.1115267E+04  0.7818608E-02  0.8916975E-01
          2   -1    0    0  502    0  0.00000000000E+00  0.00000000000E+00  0.86777904785E+03  0.86777904785E+03  0.00000000000E+00 0.  1.
          4   -1    0    0  501    0 -0.00000000000E+00 -0.00000000000E+00 -0.15537991608E+04  0.15537991608E+04  0.00000000000E+00 0.  1.
    9000010    2    1    2  502    0  0.20418682151E+03  0.26048550209E+03 -0.83612125341E+03  0.13522911271E+04  0.10099740527E+04 0.  0.
        -13    1    3    3    0    0  0.35837524488E+03 -0.17090011893E+03  0.21084308336E+01  0.39704423360E+03  0.10566000000E+00 0.  1.
         13    1    1    2    0    0 -0.32427584884E+03  0.22894383105E+03 -0.21078766474E+03  0.44944583064E+03  0.10566000000E+00 0. -1.
          2    1    1    2  501    0  0.12008902733E+03 -0.48942933314E+03  0.36088880521E+03  0.61984125092E+03  0.00000000000E+00 0.  1.
          4    1    3    3  502    0 -0.15418842337E+03  0.43138562102E+03 -0.83822968424E+03  0.95524689346E+03  0.00000000000E+00 0.  1.
</event>
<event>
 7    1  0.5696597E-006  0.1092410E+04  0.7818608E-02  0.8902593E-01
          2   -1    0    0  501    0  0.00000000000E+00  0.00000000000E+00  0.13378931756E+04  0.13378931756E+04  0.00000000000E+00 0.  1.
         -4   -1    0    0    0  501 -0.00000000000E+00 -0.00000000000E+00 -0.13831069870E+04  0.13831069870E+04  0.00000000000E+00 0. -1.
   -9000010    2    1    2    0  502 -0.29970216446E+03  0.33777630533E+03 -0.10568939290E+04  0.15209776509E+04  0.99620982613E+03 0.  0.
        -13    1    1    2    0    0  0.28446470267E+03 -0.33691335884E+03  0.42263307032E+03  0.61077778424E+03  0.10566000000E+00 0.  1.
         13    1    3    3    0    0 -0.62308316838E+03  0.36280230706E+03 -0.50308011950E+03  0.87917448014E+03  0.10566000000E+00 0. -1.
          2    1    1    2  502    0  0.15237461791E+02 -0.86294649637E+00  0.58904704729E+03  0.58924472746E+03  0.00000000000E+00 0.  1.
         -4    1    3    3    0  502  0.32338100392E+03 -0.25026001730E+02 -0.55381380947E+03  0.64180317077E+03  0.00000000000E+00 0. -1.
</event>
<event>
 7    1  0.5696597E-006  0.1013023E+04  0.7818608E-02  0.9143147E-01
          2   -1    0    0  502    0  0.00000000000E+00  0.00000000000E+00  0.20809821614E+04  0.20809821614E+04  0.00000000000E+00 0.  1.
          4   -1    0    0  501    0 -0.00000000000E+00 -0.00000000000E+00 -0.22144559294E+03  0.22144559294E+03  0.00000000000E+00 0.  1.
    9000010    2    1    2  502    0 -0.22493390828E+03 -0.23411571565E+02  0.11889644231E+04  0.15638014941E+04  0.99030063554E+03 0.  0.
        -13    1    3    3    0    0 -0.45710043717E+03 -0.93520655529E+02  0.12320932547E+04  0.13174751315E+04  0.10566000000E+00 0.  1.
         13    1    1    2    0    0  0.20953336928E+03  0.18234764062E+02  0.29283572757E+03  0.36054058574E+03  0.10566000000E+00 0. -1.
          2    1    1    2  501    0  0.15400538996E+02  0.51768075028E+01  0.37773641787E+03  0.37808567458E+03  0.00000000000E+00 0.  1.
          4    1    3    3  502    0  0.23216652889E+03  0.70109083964E+02 -0.43128831615E+02  0.24632636259E+03  0.00000000000E+00 0.  1.
</event>
<event>
 7    1  0.5696597E-006  0.1019040E+04  0.7818608E-02  0.9255714E-01
          4   -1    0    0  501    0 -0.00000000000E+00  0.00000000000E+00  0.21069138117E+03  0.21069138117E+03  0.00000000000E+00 0.  1.
          2   -1    0    0  502    0  0.00000000000E+00 -0.00000000000E+00 -0.24612646007E+04  0.24612646007E+04  0.00000000000E+00 0.  1.
    9000010    2    1    2  502    0 -0.99097837213E+02 -0.22772687620E+02 -0.14056464476E+04  0.17338569518E+04  0.10099896124E+04 0.  0.
        -13    1    3    3    0    0 -0.31940377498E+03 -0.37075431579E+02 -0.14693166138E+04  0.15040893198E+04  0.10566000000E+00 0.  1.
         13    1    1    2    0    0  0.11168556818E+03  0.81574168900E+02 -0.59809832499E+02  0.15068257497E+03  0.10566000000E+00 0. -1.
          2    1    1    2  501    0 -0.12587730965E+02 -0.58801481280E+02 -0.78511693938E+03  0.78741645504E+03  0.00000000000E+00 0.  1.
          4    1    3    3  502    0  0.22030593776E+03  0.14302743959E+02  0.63670166152E+02  0.22976763209E+03  0.00000000000E+00 0.  1.
</event>
<event>
 7    1  0.5696597E-006  0.1037917E+04  0.7818608E-02  0.9111246E-01
         -4   -1    0    0    0  501 -0.00000000000E+00  0.00000000000E+00  0.26294042599E+04  0.26294042599E+04  0.00000000000E+00 0. -1.
          5   -1    0    0  501    0  0.00000000000E+00 -0.00000000000E+00 -0.29025262418E+03  0.29025262418E+03  0.00000000000E+00 0. -1.
   -9000010    2    1    2    0  502  0.93949064762E+02  0.17396746596E+03  0.11449090125E+04  0.15416214521E+04  0.10132566055E+04 0.  0.
        -13    1    1    2    0    0 -0.16364694798E+03 -0.15696616030E+03  0.12602862474E+04  0.12805233834E+04  0.10566000000E+00 0.  1.
         13    1    3    3    0    0  0.52128306975E+03  0.27996668358E+03  0.67693429223E+03  0.89908699795E+03  0.10566000000E+00 0. -1.
          5    1    1    2  502    0  0.69697883218E+02 -0.17001305655E+02 -0.66043624146E+02  0.97512048535E+02  0.00000000000E+00 0. -1.
         -4    1    3    3    0  502 -0.42733400499E+03 -0.10599921763E+03  0.46797472026E+03  0.64253445414E+03  0.00000000000E+00 0. -1.
</event>
<event>
 7    1  0.5696597E-006  0.9946852E+03  0.7818608E-02  0.9279377E-01
          4   -1    0    0  501    0 -0.00000000000E+00  0.00000000000E+00  0.58820755820E+03  0.58820755820E+03  0.00000000000E+00 0.  1.
          2   -1    0    0  502    0  0.00000000000E+00 -0.00000000000E+00 -0.18551361230E+04  0.18551361230E+04  0.00000000000E+00 0. -1.
    9000010    2    1    2  502    0 -0.76552553531E+02  0.89426456030E+02 -0.15138461857E+03  0.10042167241E+04  0.98573654788E+03 0.  0.
        -13    1    3    3    0    0  0.28108324262E+03 -0.24010847351E+03 -0.32057774133E+03  0.48931581594E+03  0.10566000000E+00 0.  1.
         13    1    1    2    0    0  0.11971053173E+03 -0.60845124146E+02  0.13329850908E+03  0.18921216723E+03  0.10566000000E+00 0. -1.
          2    1    1    2  501    0 -0.43157978200E+02 -0.28581331884E+02 -0.12488424553E+04  0.12499147898E+04  0.00000000000E+00 0. -1.
          4    1    3    3  502    0 -0.35763579615E+03  0.32953492954E+03  0.16919312277E+03  0.51490090820E+03  0.00000000000E+00 0.  1.
</event>
<event>
 7    1  0.5696597E-006  0.1158025E+04  0.7818608E-02  0.8799980E-01
         -4   -1    0    0    0  501 -0.00000000000E+00  0.00000000000E+00  0.21229434591E+04  0.21229434591E+04  0.00000000000E+00 0. -1.
          3   -1    0    0  501    0  0.00000000000E+00 -0.00000000000E+00 -0.81296520875E+03  0.81296520875E+03  0.00000000000E+00 0. -1.
   -9000010    2    1    2    0  502 -0.32683557692E+03 -0.49460702177E+03  0.40909818501E+03  0.12351482267E+04  0.10033803948E+04 0.  0.
        -13    1    1    2    0    0  0.29856608034E+03  0.49250213626E+03  0.12364450767E+04  0.13640001824E+04  0.10566000000E+00 0.  1.
         13    1    3    3    0    0 -0.31860086994E+03  0.77557030704E+02 -0.21213031369E+03  0.39053922785E+03  0.10566000000E+00 0. -1.
          3    1    1    2  502    0  0.28269496584E+02  0.21048855091E+01 -0.33556501143E+03  0.33676025876E+03  0.00000000000E+00 0. -1.
         -4    1    3    3    0  502 -0.82347069799E+01 -0.57216405248E+03  0.62122849869E+03  0.84460899884E+03  0.00000000000E+00 0. -1.
</event>
<event>
 7    1  0.5696597E-006  0.1058430E+04  0.7818608E-02  0.9003521E-01
          4   -1    0    0  501    0 -0.00000000000E+00  0.00000000000E+00  0.63513225057E+03  0.63513225057E+03  0.00000000000E+00 0.  1.
          2   -1    0    0  502    0  0.00000000000E+00 -0.00000000000E+00 -0.20310953425E+04  0.20310953425E+04  0.00000000000E+00 0.  1.
    9000010    2    1    2  502    0 -0.16307288435E+01 -0.40031639194E+03 -0.13689672515E+04  0.17459184368E+04  0.10069279912E+04 0.  0.
        -13    1    3    3    0    0 -0.61826810830E+02  0.10844639194E+02  0.15451632449E+03  0.16677969431E+03  0.10566000000E+00 0.  1.
         13    1    1    2    0    0 -0.13714495200E+02  0.32305834201E+03  0.38390083082E+03  0.50193091037E+03  0.10566000000E+00 0. -1.
          2    1    1    2  501    0  0.15345224043E+02  0.77258049926E+02 -0.41089667132E+03  0.41837824594E+03  0.00000000000E+00 0.  1.
          4    1    3    3  502    0  0.60196081987E+02 -0.41116103113E+03 -0.15234835760E+04  0.15791387425E+04  0.00000000000E+00 0.  1.
</event>
<event>
 7    1  0.5696597E-006  0.1038349E+04  0.7818608E-02  0.9078924E-01
          2   -1    0    0  501    0  0.00000000000E+00  0.00000000000E+00  0.19610567679E+04  0.19610567679E+04  0.00000000000E+00 0. -1.
         -4   -1    0    0    0  501 -0.00000000000E+00 -0.00000000000E+00 -0.14563228785E+04  0.14563228785E+04  0.00000000000E+00 0. -1.
   -9000010    2    1    2    0  502 -0.23862473095E+03 -0.99107080106E+02 -0.16390202760E+03  0.10519541729E+04  0.10064689422E+04 0.  0.
        -13    1    1    2    0    0  0.24619715030E+03  0.67462384982E+02 -0.82901185605E+03  0.86742427845E+03  0.10566000000E+00 0.  1.
         13    1    3    3    0    0  0.27756316971E+03  0.20981267184E+03 -0.27087794851E+03  0.44095072808E+03  0.10566000000E+00 0. -1.
          2    1    1    2  502    0 -0.75724193527E+01  0.31644695123E+02  0.14976477731E+04  0.14980011951E+04  0.00000000000E+00 0. -1.
         -4    1    3    3    0  502 -0.51618790065E+03 -0.30891975194E+03  0.10697592091E+03  0.61100344482E+03  0.00000000000E+00 0. -1.
</event>
<event>
 7    1  0.5696597E-006  0.1216111E+04  0.7818608E-02  0.8716380E-01
          1   -1    0    0  501    0  0.00000000000E+00  0.00000000000E+00  0.13356146908E+04  0.13356146908E+04  0.00000000000E+00 0.  1.
         -4   -1    0    0    0  501 -0.00000000000E+00 -0.00000000000E+00 -0.18432266354E+04  0.18432266354E+04  0.00000000000E+00 0. -1.
   -9000010    2    1    2    0  502 -0.39914826135E+03 -0.57506539088E+03  0.56568932756E+02  0.12095643584E+04  0.98479762121E+03 0.  0.
        -13    1    1    2    0    0  0.42163003764E+03  0.57831399222E+03 -0.11654064434E+04  0.13676224449E+04  0.10566000000E+00 0.  1.
         13    1    3    3    0    0 -0.58913291559E+03 -0.73916911473E+03 -0.25132217374E+02  0.94555814836E+03  0.10566000000E+00 0. -1.
          1    1    1    2  502    0 -0.22481776293E+02 -0.32486013397E+01  0.60122556604E+03  0.60165452291E+03  0.00000000000E+00 0.  1.
         -4    1    3    3    0  502  0.18998465424E+03  0.16410372385E+03  0.81701150130E+02  0.26400621009E+03  0.00000000000E+00 0. -1.
</event>
<event>
 7    1  0.5696597E-006  0.1111163E+04  0.7818608E-02  0.8871719E-01
          1   -1    0    0  501    0  0.00000000000E+00  0.00000000000E+00  0.27017159192E+04  0.27017159192E+04  0.00000000000E+00 0. -1.
         -4   -1    0    0    0  501 -0.00000000000E+00 -0.00000000000E+00 -0.88351831541E+03  0.88351831541E+03  0.00000000000E+00 0. -1.
   -9000010    2    1    2    0  502 -0.34844280941E+03 -0.27546431758E+03  0.27981445376E+03  0.11295310652E+04  0.10001256507E+04 0.  0.
        -13    1    1    2    0    0  0.37415647895E+03  0.31905011872E+03 -0.32642867514E+03  0.59020482895E+03  0.10566000000E+00 0.  1.
         13    1    3    3    0    0 -0.99835718766E+02  0.26730676823E+03 -0.21245700295E+03  0.35575000822E+03  0.10566000000E+00 0. -1.
          1    1    1    2  502    0 -0.25713669540E+02 -0.43585801146E+02  0.18648118252E+04  0.18654983404E+04  0.00000000000E+00 0. -1.
         -4    1    3    3    0  502 -0.24860709065E+03 -0.54277108581E+03  0.49227145671E+03  0.77378105702E+03  0.00000000000E+00 0. -1.
</event>
<event>
 7    1  0.5696597E-006  0.1069965E+04  0.7818608E-02  0.9187944E-01
          2   -1    0    0  502    0  0.00000000000E+00  0.00000000000E+00  0.23040895147E+04  0.23040895147E+04  0.00000000000E+00 0.  1.
          4   -1    0    0  501    0 -0.00000000000E+00 -0.00000000000E+00 -0.24256905820E+03  0.24256905820E+03  0.00000000000E+00 0.  1.
    9000010    2    1    2  502    0  0.46921820112E+02 -0.12447032430E+03  0.12953365047E+04  0.16784830798E+04  0.10591101312E+04 0.  0.
        -13    1    3    3    0    0  0.30488732371E+03 -0.29061354541E+03  0.13052055374E+04  0.13714860623E+04  0.10566000000E+00 0.  1.
         13    1    1    2    0    0 -0.20084917162E+02  0.15246323595E+03  0.66708671238E+02  0.16762607254E+03  0.10566000000E+00 0. -1.
          2    1    1    2  501    0 -0.26836902949E+02 -0.27992911645E+02  0.69947528060E+03  0.70054942055E+03  0.00000000000E+00 0.  1.
          4    1    3    3  502    0 -0.25796550360E+03  0.16614322111E+03 -0.98690327631E+01  0.30699701753E+03  0.00000000000E+00 0.  1.
</event>
<event>
 7    1  0.5696597E-006  0.9936500E+03  0.7818608E-02  0.9197185E-01
          1   -1    0    0  501    0  0.00000000000E+00  0.00000000000E+00  0.74674261132E+03  0.74674261132E+03  0.00000000000E+00 0.  1.
         -4   -1    0    0    0  501 -0.00000000000E+00 -0.00000000000E+00 -0.89215284753E+03  0.89215284753E+03  0.00000000000E+00 0. -1.
   -9000010    2    1    2    0  502  0.10252159895E+03 -0.16722082476E+03 -0.14157688977E+03  0.10061424456E+04  0.97662947050E+03 0.  0.
        -13    1    1    2    0    0 -0.89371798554E+02  0.15894400717E+03 -0.29195038787E+03  0.34421730917E+03  0.10566000000E+00 0.  1.
         13    1    3    3    0    0  0.20059707933E+03 -0.16682938589E+03  0.38799850832E+03  0.46756185243E+03  0.10566000000E+00 0. -1.
          1    1    1    2  502    0 -0.13149800396E+02  0.82768175948E+01  0.28811704143E+03  0.28853570407E+03  0.00000000000E+00 0.  1.
         -4    1    3    3    0  502 -0.98075480377E+02 -0.39143887739E+00 -0.52957539809E+03  0.53858059317E+03  0.00000000000E+00 0. -1.
</event>
<event>
 7    1  0.5696597E-006  0.1022886E+04  0.7818608E-02  0.9228808E-01
          2   -1    0    0  502    0  0.00000000000E+00  0.00000000000E+00  0.11045616155E+04  0.11045616155E+04  0.00000000000E+00 0. -1.
          4   -1    0    0  501    0 -0.00000000000E+00 -0.00000000000E+00 -0.15033279480E+04  0.15033279480E+04  0.00000000000E+00 0.  1.
    9000010    2    1    2  502    0 -0.13134587805E+03 -0.77314595433E+02 -0.10068326228E+04  0.14356760475E+04  0.10120397703E+04 0.  0.
        -13    1    3    3    0    0 -0.29010672994E+03 -0.29548836655E+03 -0.22143307495E+02  0.41468738436E+03  0.10566000000E+00 0.  1.
         13    1    1    2    0    0  0.64243008717E+02  0.13609282342E+03 -0.25954943582E+03  0.30002390163E+03  0.10566000000E+00 0. -1.
          2    1    1    2  501    0  0.67102869334E+02 -0.58778227986E+02  0.86761572616E+03  0.87218961438E+03  0.00000000000E+00 0. -1.
          4    1    3    3  502    0  0.15876085189E+03  0.21817377111E+03 -0.98468931535E+03  0.10209886631E+04  0.00000000000E+00 0.  1.
</event>
<event>
 7    1  0.5696597E-006  0.1100912E+04  0.7818608E-02  0.8893102E-01
          4   -1    0    0  501    0 -0.00000000000E+00  0.00000000000E+00  0.15958140561E+04  0.15958140561E+04  0.00000000000E+00 0.  1.
          2   -1    0    0  502    0  0.00000000000E+00 -0.00000000000E+00 -0.73924515083E+03  0.73924515083E+03  0.00000000000E+00 0.  1.
    9000010    2    1    2  502    0  0.12051407580E+02 -0.45946994717E+03  0.95847915466E+03  0.14609819115E+04  0.10022614365E+04 0.  0.
        -13    1    3    3    0    0  0.33718704113E+03 -0.62320687310E+03  0.46411476771E+03  0.84704453021E+03  0.10566000000E+00 0.  1.
         13    1    1    2    0    0 -0.21162026948E+01  0.45334278111E+03  0.25287173483E+03  0.51910334321E+03  0.10566000000E+00 0. -1.
          2    1    1    2  501    0 -0.99352048852E+01  0.61271660619E+01 -0.35478198418E+03  0.35497395222E+03  0.00000000000E+00 0.  1.
          4    1    3    3  502    0 -0.32513563355E+03  0.16373692593E+03  0.49436438695E+03  0.61393738134E+03  0.00000000000E+00 0.  1.
</event>
<event>
 7    1  0.5696597E-006  0.1015471E+04  0.7818608E-02  0.9329941E-01
          2   -1    0    0  502    0  0.00000000000E+00  0.00000000000E+00  0.11926163846E+04  0.11926163846E+04  0.00000000000E+00 0.  1.
          4   -1    0    0  501    0 -0.00000000000E+00 -0.00000000000E+00 -0.83979578498E+03  0.83979578498E+03  0.00000000000E+00 0.  1.
    9000010    2    1    2  502    0  0.22700616351E+03 -0.54481836957E+01  0.54854972385E+03  0.11686055402E+04  0.10065637725E+04 0.  0.
        -13    1    3    3    0    0  0.77378978810E+02  0.41246883360E+03  0.58862057712E+03  0.72290541569E+03  0.10566000000E+00 0.  1.
         13    1    1    2    0    0 -0.10016098731E+03 -0.25339791788E+02 -0.51165295660E+03  0.52197996857E+03  0.10566000000E+00 0. -1.
          2    1    1    2  501    0 -0.12684517619E+03  0.30787975484E+02  0.31592383233E+03  0.34182666074E+03  0.00000000000E+00 0.  1.
          4    1    3    3  502    0  0.14962718470E+03 -0.41791701730E+03 -0.40070853276E+02  0.44570012455E+03  0.00000000000E+00 0.  1.
</event>
<event>
 7    1  0.5696597E-006  0.8132622E+03  0.7818608E-02  0.9352802E-01
         -4   -1    0    0    0  502 -0.00000000000E+00  0.00000000000E+00  0.21825600916E+04  0.21825600916E+04  0.00000000000E+00 0. -1.
         -2   -1    0    0    0  501  0.00000000000E+00 -0.00000000000E+00 -0.72533006811E+03  0.72533006811E+03  0.00000000000E+00 0. -1.
   -9000010    2    1    2    0  501  0.27435463770E+02 -0.17413368328E+03  0.17499472458E+04  0.19289153751E+04  0.79203782527E+03 0.  0.
        -13    1    1    2    0    0 -0.51590186256E+02  0.18000921225E+03  0.31730887022E+03  0.36844238912E+03  0.10566000000E+00 0.  1.
         13    1    3    3    0    0 -0.21040659295E+02 -0.60905787228E+02 -0.75532915949E+02  0.99284726002E+02  0.10566000000E+00 0. -1.
         -2    1    1    2    0  502  0.24154722485E+02 -0.58755289702E+01 -0.61002609253E+03  0.61053239555E+03  0.00000000000E+00 0. -1.
         -4    1    3    3    0  501  0.48476123065E+02 -0.11322789605E+03  0.18254801618E+04  0.18296306491E+04  0.00000000000E+00 0. -1.
</event>
<event>
 7    1  0.5696597E-006  0.1011516E+04  0.7818608E-02  0.9128395E-01
         -4   -1    0    0    0  501 -0.00000000000E+00  0.00000000000E+00  0.19716314524E+03  0.19716314524E+03  0.00000000000E+00 0. -1.
          1   -1    0    0  501    0  0.00000000000E+00 -0.00000000000E+00 -0.24494738979E+04  0.24494738979E+04  0.00000000000E+00 0. -1.
   -9000010    2    1    2    0  502  0.18270487606E+03 -0.89244678765E+02 -0.14720463698E+04  0.17832154026E+04  0.98569314340E+03 0.  0.
        -13    1    1    2    0    0 -0.21827260821E+03  0.78939650139E+02 -0.28856495237E+03  0.37032977568E+03  0.10566000000E+00 0.  1.
         13    1    3    3    0    0 -0.18230030169E+03  0.34807280413E+03 -0.86883904730E+03  0.95355617467E+03  0.10566000000E+00 0. -1.
          1    1    1    2  502    0  0.35567732153E+02  0.10305028627E+02 -0.49169943051E+03  0.49309186482E+03  0.00000000000E+00 0. -1.
         -4    1    3    3    0  502  0.36500517775E+03 -0.43731748290E+03 -0.60320732246E+03  0.82965922793E+03  0.00000000000E+00 0. -1.
</event>
<event>
 7    1  0.5696597E-006  0.1078303E+04  0.7818608E-02  0.8947181E-01
          2   -1    0    0  501    0  0.00000000000E+00  0.00000000000E+00  0.12428989878E+04  0.12428989878E+04  0.00000000000E+00 0.  1.
         -4   -1    0    0    0  501 -0.00000000000E+00 -0.00000000000E+00 -0.17809914467E+04  0.17809914467E+04  0.00000000000E+00 0. -1.
   -9000010    2    1    2    0  502 -0.23139042966E+03  0.23635079212E+03 -0.97318490196E+03  0.14383150353E+04  0.10061103615E+04 0.  0.
        -13    1    1    2    0    0  0.22663449285E+03 -0.33818177667E+03 -0.50009676718E+03  0.64484641205E+03  0.10566000000E+00 0.  1.
         13    1    3    3    0    0 -0.28107048620E+03 -0.43934574890E+02 -0.10930419483E+04  0.11294563192E+04  0.10566000000E+00 0. -1.
          2    1    1    2  502    0  0.47559368112E+01  0.10183098456E+03  0.93518921026E+03  0.94072898719E+03  0.00000000000E+00 0.  1.
         -4    1    3    3    0  502  0.49680056538E+02  0.28028536701E+03  0.11985704632E+03  0.30885871613E+03  0.00000000000E+00 0. -1.
</event>
<event>
 7    1  0.5696597E-006  0.1463751E+04  0.7818608E-02  0.8498900E-01
         -4   -1    0    0    0  501 -0.00000000000E+00  0.00000000000E+00  0.26599971181E+04  0.26599971181E+04  0.00000000000E+00 0. -1.
          2   -1    0    0  501    0  0.00000000000E+00 -0.00000000000E+00 -0.19788727113E+04  0.19788727113E+04  0.00000000000E+00 0. -1.
   -9000010    2    1    2    0  502  0.26813717739E+03  0.10332002454E+04  0.15449617736E+04  0.21262964825E+04  0.99741142793E+03 0.  0.
        -13    1    1    2    0    0 -0.38124456825E+03 -0.10098931186E+04  0.46742220441E+03  0.11763141843E+04  0.10566000000E+00 0.  1.
         13    1    3    3    0    0 -0.25068735973E+03 -0.53791251758E+02  0.26487258852E+03  0.36863959419E+03  0.10566000000E+00 0. -1.
          2    1    1    2  502    0  0.11310739086E+03 -0.23307126830E+02 -0.13312595712E+04  0.13362591627E+04  0.00000000000E+00 0. -1.
         -4    1    3    3    0  502  0.51882453712E+03  0.10869914971E+04  0.12800891851E+04  0.17576568883E+04  0.00000000000E+00 0. -1.
</event>
<event>
 7    1  0.5696597E-006  0.9961666E+03  0.7818608E-02  0.9254427E-01
          2   -1    0    0  501    0  0.00000000000E+00  0.00000000000E+00  0.17196811233E+04  0.17196811233E+04  0.00000000000E+00 0. -1.
         -4   -1    0    0    0  501 -0.00000000000E+00 -0.00000000000E+00 -0.43736078272E+03  0.43736078272E+03  0.00000000000E+00 0. -1.
   -9000010    2    1    2    0  502 -0.12076249507E+03  0.16221310966E+03  0.72298755089E+03  0.12388320515E+04  0.98544263151E+03 0.  0.
        -13    1    1    2    0    0  0.14419660192E+03 -0.21470578400E+02 -0.14140211148E+03  0.20309656333E+03  0.10566000000E+00 0.  1.
         13    1    3    3    0    0 -0.16897037332E+03  0.88428061649E+02 -0.22033156063E+03  0.29140438727E+03  0.10566000000E+00 0. -1.
          2    1    1    2  502    0 -0.23434106851E+02 -0.14074253126E+03  0.70073490118E+03  0.71511329117E+03  0.00000000000E+00 0. -1.
         -4    1    3    3    0  502  0.48207878249E+02  0.73785048010E+02  0.94331911152E+03  0.94742766426E+03  0.00000000000E+00 0. -1.
</event>
<event>
 7    1  0.5696597E-006  0.1123101E+04  0.7818608E-02  0.8839062E-01
         -4   -1    0    0    0  501 -0.00000000000E+00  0.00000000000E+00  0.24488554453E+04  0.24488554453E+04  0.00000000000E+00 0. -1.
          2   -1    0    0  501    0  0.00000000000E+00 -0.00000000000E+00 -0.15625481403E+04  0.15625481403E+04  0.00000000000E+00 0. -1.
   -9000010    2    1    2    0  502 -0.44253944424E+03 -0.36606545845E+03  0.44521889200E+03  0.12249495313E+04  0.98612190566E+03 0.  0.
        -13    1    1    2    0    0  0.42772874689E+03  0.31873111029E+03  0.15691312418E+04  0.16573214133E+04  0.10566000000E+00 0.  1.
         13    1    3    3    0    0  0.72645753568E+02  0.29247114779E+03  0.75077751083E+02  0.31056956978E+03  0.10566000000E+00 0. -1.
          2    1    1    2  502    0  0.14810697345E+02  0.47334348158E+02 -0.11280428289E+04  0.11291326411E+04  0.00000000000E+00 0. -1.
         -4    1    3    3    0  502 -0.51518519781E+03 -0.65853660624E+03  0.37014114091E+03  0.91437996150E+03  0.00000000000E+00 0. -1.
</event>
<event>
 7    1  0.5696597E-006  0.1026729E+04  0.7818608E-02  0.9145222E-01
          4   -1    0    0  501    0 -0.00000000000E+00  0.00000000000E+00  0.11172251986E+04  0.11172251986E+04  0.00000000000E+00 0.  1.
          2   -1    0    0  502    0  0.00000000000E+00 -0.00000000000E+00 -0.29719757624E+04  0.29719757624E+04  0.00000000000E+00 0.  1.
    9000010    2    1    2  502    0  0.32218571342E+03  0.47128242002E+02  0.65418976207E+03  0.12437223566E+04  0.10064076462E+04 0.  0.
        -13    1    3    3    0    0  0.48606292911E+03  0.41190314285E+03  0.51847794697E+03  0.82142605438E+03  0.10566000000E+00 0.  1.
         13    1    1    2    0    0 -0.17856092842E+03  0.50315951619E+02  0.11338167786E+03  0.21741921761E+03  0.10566000000E+00 0. -1.
          2    1    1    2  501    0 -0.14362478500E+03 -0.97444193621E+02 -0.26223220037E+04  0.26280593869E+04  0.00000000000E+00 0.  1.
          4    1    3    3  502    0 -0.16387721569E+03 -0.36477490085E+03  0.13571181509E+03  0.42229630222E+03  0.00000000000E+00 0.  1.
</event>
<event>
 7    1  0.5696597E-006  0.1040321E+04  0.7818608E-02  0.9077833E-01
         -4   -1    0    0    0  502 -0.00000000000E+00  0.00000000000E+00  0.27637293057E+04  0.27637293057E+04  0.00000000000E+00 0. -1.
         -2   -1    0    0    0  501  0.00000000000E+00 -0.00000000000E+00 -0.82359911196E+03  0.82359911196E+03  0.00000000000E+00 0. -1.
   -9000010    2    1    2    0  501  0.30396383607E+03  0.16221159860E+03  0.12417504841E+04  0.16364307244E+04  0.10085904197E+04 0.  0.
        -13    1    1    2    0    0 -0.24046279984E+03 -0.68501603398E+02  0.13075797188E+04  0.13312699050E+04  0.10566000000E+00 0.  1.
         13    1    3    3    0    0  0.49633187739E+03  0.10855575747E+03  0.13257537774E+04  0.14197720854E+04  0.10566000000E+00 0. -1.
         -2    1    1    2    0  502 -0.63501036231E+02 -0.93709995200E+02 -0.60920000916E+03  0.61962778825E+03  0.00000000000E+00 0. -1.
         -4    1    3    3    0  501 -0.19236804132E+03  0.53655841128E+02 -0.84003293244E+02  0.21665863907E+03  0.00000000000E+00 0. -1.
</event>
<event>
 6    1  0.5696597E-006  0.1626559E+04  0.7818608E-02  0.8534781E-01
         -4   -1    0    0    0  501 -0.00000000000E+00  0.00000000000E+00  0.19341314675E+04  0.19341314675E+04  0.00000000000E+00 0. -1.
          2   -1    0    0  501    0  0.00000000000E+00 -0.00000000000E+00 -0.11904637334E+04  0.11904637334E+04  0.00000000000E+00 0. -1.
        -13    1    1    2    0    0 -0.17815774253E+03 -0.64233445035E+03  0.11798794349E+04  0.13551565295E+04  0.10566000000E+00 0.  1.
         13    1    1    2    0    0  0.15292801924E+03 -0.12422875176E+03  0.50668747970E+03  0.54364692134E+03  0.10566000000E+00 0. -1.
          2    1    1    2  502    0 -0.21596579724E+02  0.40615144288E+02 -0.11409013230E+03  0.12301447268E+03  0.00000000000E+00 0. -1.
         -4    1    1    2    0  502  0.46826303015E+02  0.72594805782E+03 -0.82880904817E+03  0.11027772774E+04  0.00000000000E+00 0. -1.
</event>
<event>
 7    1  0.5696597E-006  0.1217675E+04  0.7818608E-02  0.8758379E-01
         -4   -1    0    0    0  501 -0.00000000000E+00  0.00000000000E+00  0.20351938412E+04  0.20351938412E+04  0.00000000000E+00 0. -1.
          2   -1    0    0  501    0  0.00000000000E+00 -0.00000000000E+00 -0.43771501414E+03  0.43771501414E+03  0.00000000000E+00 0. -1.
   -9000010    2    1    2    0  502  0.54441941979E+03  0.24073248649E+03  0.96064754436E+03  0.15516617733E+04  0.10632337088E+04 0.  0.
        -13    1    1    2    0    0 -0.53378415546E+03 -0.25818463588E+03  0.66206734629E+03  0.88877331925E+03  0.10566000000E+00 0.  1.
         13    1    3    3    0    0  0.13438174138E+03  0.60046990325E+03  0.27096760438E+03  0.67234367024E+03  0.10566000000E+00 0. -1.
          2    1    1    2  502    0 -0.10635264329E+02  0.17452149381E+02 -0.25236063591E+02  0.32473762808E+02  0.00000000000E+00 0. -1.
         -4    1    3    3    0  502  0.41003767841E+03 -0.35973741675E+03  0.68967993998E+03  0.87931810304E+03  0.00000000000E+00 0. -1.
</event>
<event>
 7    1  0.5696597E-006  0.1015059E+04  0.7818608E-02  0.9246195E-01
          4   -1    0    0  501    0 -0.00000000000E+00  0.00000000000E+00  0.31807480282E+03  0.31807480282E+03  0.00000000000E+00 0.  1.
          2   -1    0    0  502    0  0.00000000000E+00 -0.00000000000E+00 -0.38316403514E+04  0.38316403514E+04  0.00000000000E+00 0.  1.
    9000010    2    1    2  502    0  0.78081740578E+02 -0.63258762338E+02 -0.76957451108E+03  0.12698292045E+04  0.10050486810E+04 0.  0.
        -13    1    3    3    0    0 -0.11111255150E+03 -0.24656809791E+03 -0.92516205609E+03  0.96388104412E+03  0.10566000000E+00 0.  1.
         13    1    1    2    0    0 -0.94472653954E+02  0.11068907821E+03 -0.10465259777E+02  0.14589957919E+03  0.10566000000E+00 0. -1.
          2    1    1    2  501    0  0.16390913375E+02 -0.47430315873E+02 -0.27335257777E+04  0.27339863706E+04  0.00000000000E+00 0.  1.
          4    1    3    3  502    0  0.18919429208E+03  0.18330933557E+03  0.15558754502E+03  0.30594816036E+03  0.00000000000E+00 0.  1.
</event>
<event>
 7    1  0.5696597E-006  0.1116734E+04  0.7818608E-02  0.9160008E-01
          4   -1    0    0  501    0 -0.00000000000E+00  0.00000000000E+00  0.58662444505E+03  0.58662444505E+03  0.00000000000E+00 0.  1.
          2   -1    0    0  502    0  0.00000000000E+00 -0.00000000000E+00 -0.13881551655E+04  0.13881551655E+04  0.00000000000E+00 0.  1.
    9000010    2    1    2  502    0 -0.55166082117E+01 -0.20137252214E+03 -0.47640565345E+03  0.11942932998E+04  0.10764723933E+04 0.  0.
        -13    1    3    3    0    0  0.48253365705E+03 -0.33629594515E+03 -0.27635830512E+03  0.64985199614E+03  0.10566000000E+00 0.  1.
         13    1    1    2    0    0 -0.12481469451E+03 -0.81539821274E+02  0.15056234420E+03  0.21188789742E+03  0.10566000000E+00 0. -1.
          2    1    1    2  501    0  0.13033130272E+03  0.28291234341E+03 -0.47568741121E+03  0.56859841338E+03  0.00000000000E+00 0.  1.
          4    1    3    3  502    0 -0.48805026527E+03  0.13492342301E+03 -0.20004734833E+03  0.54444130361E+03  0.00000000000E+00 0.  1.
</event>
<event>
 7    1  0.5696597E-006  0.1029584E+04  0.7818608E-02  0.9170354E-01
          2   -1    0    0  502    0  0.00000000000E+00  0.00000000000E+00  0.54946351489E+03  0.54946351489E+03  0.00000000000E+00 0.  1.
          4   -1    0    0  501    0 -0.00000000000E+00 -0.00000000000E+00 -0.29144670067E+04  0.29144670067E+04  0.00000000000E+00 0.  1.
    9000010    2    1    2  502    0 -0.14674965322E+03  0.10307309697E+03 -0.20215167246E+04  0.22683362160E+04  0.10132422203E+04 0.  0.
        -13    1    3    3    0    0  0.36930413215E+03 -0.19269751874E+02 -0.14155444260E+04  0.14630525959E+04  0.10566000000E+00 0.  1.
         13    1    1    2    0    0  0.10304266233E+02 -0.18887657341E+03 -0.74199371597E+03  0.76572529251E+03  0.10566000000E+00 0. -1.
          2    1    1    2  501    0  0.13644538699E+03  0.85803476435E+02  0.39850694876E+03  0.42986901308E+03  0.00000000000E+00 0.  1.
          4    1    3    3  502    0 -0.51605378537E+03  0.12234284885E+03 -0.60597229858E+03  0.80528362003E+03  0.00000000000E+00 0.  1.
</event>
<event>
 7    1  0.5696597E-006  0.1249078E+04  0.7818608E-02  0.8971993E-01
         -4   -1    0    0    0  501 -0.00000000000E+00  0.00000000000E+00  0.25481996039E+04  0.25481996039E+04  0.00000000000E+00 0. -1.
          2   -1    0    0  501    0  0.00000000000E+00 -0.00000000000E+00 -0.49305290950E+03  0.49305290950E+03  0.00000000000E+00 0. -1.
   -9000010    2    1    2    0  502  0.65067402560E+03  0.28319947979E+03  0.11907099042E+04  0.17084433994E+04  0.99870423046E+03 0.  0.
        -13    1    1    2    0    0 -0.50203034595E+02  0.21986223441E+03  0.25420990478E+03  0.33982706433E+03  0.10566000000E+00 0.  1.
         13    1    3    3    0    0 -0.14254082462E+03 -0.22270271365E+03  0.39993154602E+03  0.47943679252E+03  0.10566000000E+00 0. -1.
          2    1    1    2  502    0 -0.60047099100E+03 -0.50306171420E+03  0.61022688541E+03  0.99298204969E+03  0.00000000000E+00 0. -1.
         -4    1    3    3    0  502  0.79321485021E+03  0.50590219344E+03  0.79077835816E+03  0.12290066068E+04  0.00000000000E+00 0. -1.
</event>
<event>
 7    1  0.5696597E-006  0.1006634E+04  0.7818608E-02  0.9295100E-01
          2   -1    0    0  502    0  0.00000000000E+00  0.00000000000E+00  0.13125429503E+04  0.13125429503E+04  0.00000000000E+00 0. -1.
          4   -1    0    0  501    0 -0.00000000000E+00 -0.00000000000E+00 -0.41316551696E+03  0.41316551696E+03  0.00000000000E+00 0.  1.
    9000010    2    1    2  502    0 -0.43680352312E+02 -0.16049644447E+03  0.24269093755E+03  0.10417484299E+04  0.99933668909E+03 0.  0.
        -13    1    3    3    0    0 -0.25143888753E+03 -0.62838220293E+01  0.57088131079E+03  0.62383209501E+03  0.10566000000E+00 0.  1.
         13    1    1    2    0    0  0.18718531023E+02  0.10250726462E+03  0.22842368383E+03  0.25106874198E+03  0.10566000000E+00 0. -1.
          2    1    1    2  501    0  0.24961821289E+02  0.57989179852E+02  0.42826281193E+03  0.43289129534E+03  0.00000000000E+00 0. -1.
          4    1    3    3  502    0  0.20775853522E+03 -0.15421262244E+03 -0.32819037325E+03  0.41791633489E+03  0.00000000000E+00 0.  1.
</event>
<event>
 7    1  0.5696597E-006  0.1149620E+04  0.7818608E-02  0.8817802E-01
         -4   -1    0    0    0  501 -0.00000000000E+00  0.00000000000E+00  0.19515639817E+04  0.19515639817E+04  0.00000000000E+00 0. -1.
          2   -1    0    0  501    0  0.00000000000E+00 -0.00000000000E+00 -0.14553860651E+04  0.14553860651E+04  0.00000000000E+00 0.  1.
   -9000010    2    1    2    0  502  0.52281223554E+03  0.26145739490E+03  0.96155496861E+03  0.15124617598E+04  0.10105741013E+04 0.  0.
        -13    1    1    2    0    0 -0.51979070177E+03 -0.13798286083E+03  0.60932586228E+03  0.81271130245E+03  0.10566000000E+00 0.  1.
         13    1    3    3    0    0  0.17000221214E+03  0.53569195408E+03  0.90044684726E+03  0.10614476707E+04  0.10566000000E+00 0. -1.
          2    1    1    2  502    0 -0.30215337654E+01 -0.12347453407E+03 -0.10747029143E+04  0.10817769845E+04  0.00000000000E+00 0.  1.
         -4    1    3    3    0  502  0.35281002339E+03 -0.27423455918E+03  0.61108121349E+02  0.45101408908E+03  0.00000000000E+00 0. -1.
</event>
<event>
 7    1  0.5696597E-006  0.1238641E+04  0.7818608E-02  0.8698790E-01
          2   -1    0    0  501    0  0.00000000000E+00  0.00000000000E+00  0.98738816717E+03  0.98738816717E+03  0.00000000000E+00 0.  1.
         -4   -1    0    0    0  501 -0.00000000000E+00 -0.00000000000E+00 -0.12710992372E+04  0.12710992372E+04  0.00000000000E+00 0. -1.
   -9000010    2    1    2    0  502 -0.38029344972E+03 -0.61760094813E+03 -0.31438127035E+03  0.12760230148E+04  0.10016711597E+04 0.  0.
        -13    1    1    2    0    0  0.39769642531E+03  0.61291524535E+03 -0.19489345224E+03  0.75618186541E+03  0.10566000000E+00 0.  1.
         13    1    3    3    0    0 -0.55996541820E+03 -0.38447822305E+01 -0.30236309583E+03  0.63639571401E+03  0.10566000000E+00 0. -1.
          2    1    1    2  502    0 -0.17402975588E+02  0.46857027771E+01  0.22556365256E+03  0.22628252413E+03  0.00000000000E+00 0.  1.
         -4    1    3    3    0  502  0.17967196848E+03 -0.61375616590E+03 -0.12018174526E+02  0.63962730082E+03  0.00000000000E+00 0. -1.
</event>
<event>
 7    1  0.5696597E-006  0.8693245E+03  0.7818608E-02  0.9470583E-01
          1   -1    0    0  501    0  0.00000000000E+00  0.00000000000E+00  0.22935974579E+03  0.22935974579E+03  0.00000000000E+00 0.  1.
         -4   -1    0    0    0  501 -0.00000000000E+00 -0.00000000000E+00 -0.14209294404E+04  0.14209294404E+04  0.00000000000E+00 0. -1.
   -9000010    2    1    2    0  502 -0.60842597808E+02  0.80520987639E+02 -0.10834999588E+04  0.13893632993E+04  0.86381292279E+03 0.  0.
        -13    1    1    2    0    0  0.46789320809E+02 -0.85597674491E+02 -0.17066190445E+03  0.19657492010E+03  0.10566000000E+00 0.  1.
         13    1    3    3    0    0 -0.23425822898E+03  0.41086879042E+03 -0.76203958080E+03  0.89688037923E+03  0.10566000000E+00 0. -1.
          1    1    1    2  502    0  0.14053276999E+02  0.50766868527E+01  0.62592168668E+02  0.64350966756E+02  0.00000000000E+00 0.  1.
         -4    1    3    3    0  502  0.17341563117E+03 -0.33034780278E+03 -0.32146037803E+03  0.49248292009E+03  0.00000000000E+00 0. -1.
</event>
<event>
 7    1  0.5696597E-006  0.1361603E+04  0.7818608E-02  0.8584041E-01
          2   -1    0    0  502    0  0.00000000000E+00  0.00000000000E+00  0.15375312775E+04  0.15375312775E+04  0.00000000000E+00 0. -1.
          4   -1    0    0  501    0 -0.00000000000E+00 -0.00000000000E+00 -0.30215446043E+04  0.30215446043E+04  0.00000000000E+00 0.  1.
    9000010    2    1    2  502    0  0.87745286252E+03 -0.22375140437E+03 -0.25875322013E+04  0.29232177241E+04  0.10148353329E+04 0.  0.
        -13    1    3    3    0    0  0.10694112617E+04 -0.33977664746E+03 -0.19836455293E+04  0.22790213281E+04  0.10566000000E+00 0.  1.
         13    1    1    2    0    0 -0.89343143237E+03  0.21319589238E+03  0.52688247346E+03  0.10589038506E+04  0.10566000000E+00 0. -1.
          2    1    1    2  501    0  0.15978569858E+02  0.10555511990E+02  0.57663640099E+03  0.57695430709E+03  0.00000000000E+00 0. -1.
          4    1    3    3  502    0 -0.19195839917E+03  0.11602524309E+03 -0.60388667199E+03  0.64419639602E+03  0.00000000000E+00 0.  1.
</event>
<event>
 7    1  0.5696597E-006  0.1052976E+04  0.7818608E-02  0.8923012E-01
          2   -1    0    0  502    0  0.00000000000E+00  0.00000000000E+00  0.26237293167E+04  0.26237293167E+04  0.00000000000E+00 0.  1.
          4   -1    0    0  501    0 -0.00000000000E+00 -0.00000000000E+00 -0.19114574122E+04  0.19114574122E+04  0.00000000000E+00 0.  1.
    9000010    2    1    2  502    0  0.48395213474E+03  0.13119129189E+03 -0.20938243943E+03  0.10919541567E+04  0.94715471308E+03 0.  0.
        -13    1    3    3    0    0  0.76739302959E+03  0.12230950649E+03 -0.83041465612E+02  0.78150340589E+03  0.10566000000E+00 0.  1.
         13    1    1    2    0    0 -0.37756025267E+03 -0.26030651801E+03 -0.12157095168E+04  0.12993309309E+04  0.10566000000E+00 0. -1.
          2    1    1    2  501    0 -0.10639188206E+03  0.12911522612E+03  0.21373638607E+04  0.21439016412E+04  0.00000000000E+00 0.  1.
          4    1    3    3  502    0 -0.28344089485E+03  0.88817854032E+01 -0.12634097382E+03  0.31045075077E+03  0.00000000000E+00 0.  1.
</event>
<event>
 7    1  0.5696597E-006  0.1045394E+04  0.7818608E-02  0.9181180E-01
          2   -1    0    0  501    0  0.00000000000E+00  0.00000000000E+00  0.82441991753E+03  0.82441991753E+03  0.00000000000E+00 0. -1.
         -4   -1    0    0    0  501 -0.00000000000E+00 -0.00000000000E+00 -0.13642489129E+04  0.13642489129E+04  0.00000000000E+00 0. -1.
   -9000010    2    1    2    0  502  0.86884062929E+02  0.27008446947E+03 -0.42561585360E+03  0.11194701726E+04  0.99577615533E+03 0.  0.
        -13    1    1    2    0    0 -0.16122356927E+03  0.44833861800E+02 -0.52226764499E+03  0.54842193485E+03  0.10566000000E+00 0.  1.
         13    1    3    3    0    0  0.47335346928E+03  0.36471799917E+03 -0.40336409436E+03  0.72096139257E+03  0.10566000000E+00 0. -1.
          2    1    1    2  502    0  0.74339506338E+02 -0.31491833127E+03  0.40805450323E+03  0.52077672296E+03  0.00000000000E+00 0. -1.
         -4    1    3    3    0  502 -0.38646940635E+03 -0.94633529703E+02 -0.22251759243E+02  0.39850878005E+03  0.00000000000E+00 0. -1.
</event>
<event>
 7    1  0.5696597E-006  0.9696473E+03  0.7818608E-02  0.9087984E-01
         -4   -1    0    0    0  501 -0.00000000000E+00  0.00000000000E+00  0.46718579894E+03  0.46718579894E+03  0.00000000000E+00 0. -1.
          2   -1    0    0  501    0  0.00000000000E+00 -0.00000000000E+00 -0.21533112993E+04  0.21533112993E+04  0.00000000000E+00 0.  1.
   -9000010    2    1    2    0  502 -0.22594976442E+03 -0.18544225281E+03 -0.62263747497E+03  0.11497236591E+04  0.92127354340E+03 0.  0.
        -13    1    1    2    0    0  0.22177722954E+03  0.20764132052E+03  0.90159318490E+02  0.31690498798E+03  0.10566000000E+00 0.  1.
         13    1    3    3    0    0 -0.52591650503E+03 -0.31608929422E+03 -0.52701303129E+03  0.80885311305E+03  0.10566000000E+00 0. -1.
          2    1    1    2  502    0  0.41725348761E+01 -0.22199067707E+02 -0.11536473438E+04  0.11538684512E+04  0.00000000000E+00 0.  1.
         -4    1    3    3    0  502  0.29996674061E+03  0.13064704141E+03 -0.95624443679E+02  0.34087054600E+03  0.00000000000E+00 0. -1.
</event>
<event>
 7    1  0.5696597E-006  0.1010252E+04  0.7818608E-02  0.9048577E-01
         -4   -1    0    0    0  501 -0.00000000000E+00  0.00000000000E+00  0.48628602062E+03  0.48628602062E+03  0.00000000000E+00 0. -1.
          2   -1    0    0  501    0  0.00000000000E+00 -0.00000000000E+00 -0.12800184749E+04  0.12800184749E+04  0.00000000000E+00 0. -1.
   -9000010    2    1    2    0  502  0.32412507788E+03 -0.32100073344E+02 -0.55269225697E+03  0.11551024420E+04  0.96057557739E+03 0.  0.
        -13    1    1    2    0    0 -0.31102929515E+03 -0.14529754523E+02  0.50699583860E+02  0.31546916676E+03  0.10566000000E+00 0.  1.
         13    1    3    3    0    0  0.36729255438E+03 -0.44751604318E+03 -0.21346745372E+03  0.61704359195E+03  0.10566000000E+00 0. -1.
          2    1    1    2  502    0 -0.13095782733E+02  0.46629827867E+02 -0.29173978112E+03  0.29573288668E+03  0.00000000000E+00 0. -1.
         -4    1    3    3    0  502 -0.43167476499E+02  0.41541596984E+03 -0.33922480324E+03  0.53805885009E+03  0.00000000000E+00 0. -1.
</event>
<event>
 7    1  0.5696597E-006  0.1023622E+04  0.7818608E-02  0.9101857E-01
          2   -1    0    0  501    0  0.00000000000E+00  0.00000000000E+00  0.11701472281E+04  0.11701472281E+04  0.00000000000E+00 0.  1.
         -4   -1    0    0    0  501 -0.00000000000E+00 -0.00000000000E+00 -0.13439435885E+04  0.13439435885E+04  0.00000000000E+00 0. -1.
   -9000010    2    1    2    0  502  0.23966595166E+03  0.64502941786E+02 -0.10135024496E+04  0.14413126822E+04  0.99428096357E+03 0.  0.
        -13    1    1    2    0    0 -0.22955583984E+03 -0.71970969727E+02  0.77204658561E+01  0.24069757133E+03  0.10566000000E+00 0.  1.
         13    1    3    3    0    0 -0.21115488911E+03  0.36566373760E+03 -0.69298794122E+03  0.81149778437E+03  0.10566000000E+00 0. -1.
          2    1    1    2  502    0 -0.10110111815E+02  0.74680279412E+01  0.83198562340E+03  0.83208056301E+03  0.00000000000E+00 0.  1.
         -4    1    3    3    0  502  0.45082084077E+03 -0.30116079582E+03 -0.32051450843E+03  0.62981489783E+03  0.00000000000E+00 0. -1.
</event>
<event>
 7    1  0.5696597E-006  0.1216884E+04  0.7818608E-02  0.8724706E-01
          4   -1    0    0  501    0 -0.00000000000E+00  0.00000000000E+00  0.16476691636E+04  0.16476691636E+04  0.00000000000E+00 0.  1.
          2   -1    0    0  502    0  0.00000000000E+00 -0.00000000000E+00 -0.27840522318E+04  0.27840522318E+04  0.00000000000E+00 0. -1.
    9000010    2    1    2  502    0 -0.26574407098E+03 -0.55795744869E+03  0.76034194147E+03  0.14031430820E+04  0.10043675695E+04 0.  0.
        -13    1    3    3    0    0  0.27659488481E+03 -0.57268793369E+03  0.38530346448E+03  0.74359597269E+03  0.10566000000E+00 0.  1.
         13    1    1    2    0    0  0.33307961550E+03  0.65983859766E+03  0.32218676604E+03  0.80630845748E+03  0.10566000000E+00 0. -1.
          2    1    1    2  501    0 -0.67335544527E+02 -0.10188114897E+03 -0.22189117757E+04  0.22222698559E+04  0.00000000000E+00 0. -1.
          4    1    3    3  502    0 -0.54233895579E+03  0.14730484994E+02  0.37503847699E+03  0.65954710929E+03  0.00000000000E+00 0.  1.
</event>
<event>
 6    1  0.5696597E-006  0.1472343E+04  0.7818608E-02  0.8816242E-01
          4   -1    0    0  501    0 -0.00000000000E+00  0.00000000000E+00  0.14477322653E+04  0.14477322653E+04  0.00000000000E+00 0.  1.
          2   -1    0    0  502    0  0.00000000000E+00 -0.00000000000E+00 -0.11876325352E+04  0.11876325352E+04  0.00000000000E+00 0.  1.
        -13    1    1    2    0    0  0.19249576780E+03  0.26848166853E+03  0.10415244547E+04  0.10926619916E+04  0.10566000000E+00 0.  1.
         13    1    1    2    0    0 -0.91897439704E+02 -0.24587129663E+03  0.32005121713E+03  0.41392103918E+03  0.10566000000E+00 0. -1.
          2    1    1    2  501    0  0.53112110043E+02 -0.20915709327E+02 -0.63650949397E+03  0.63906392407E+03  0.00000000000E+00 0.  1.
          4    1    1    2  502    0 -0.15371043814E+03 -0.16946625692E+01 -0.46496644785E+03  0.48971784560E+03  0.00000000000E+00 0.  1.
</event>
<event>
 6    1  0.5696597E-006  0.4569035E+03  0.7818608E-02  0.9697974E-01
         -4   -1    0    0    0  501 -0.00000000000E+00  0.00000000000E+00  0.11730187835E+03  0.11730187835E+03  0.00000000000E+00 0. -1.
          2   -1    0    0  501    0  0.00000000000E+00 -0.00000000000E+00 -0.20565615369E+04  0.20565615369E+04  0.00000000000E+00 0.  1.
        -13    1    1    2    0    0 -0.13539237902E+03 -0.26577023744E+03 -0.35758537796E+03  0.46565247674E+03  0.10566000000E+00 0.  1.
         13    1    1    2    0    0  0.55333186271E+00  0.20883521853E+03 -0.14108757727E+03  0.25202811410E+03  0.10566000000E+00 0. -1.
          2    1    1    2  502    0  0.10624732788E+02 -0.76958591024E+01 -0.81548547376E+03  0.81559099377E+03  0.00000000000E+00 0.  1.
         -4    1    1    2    0  502  0.12421431437E+03  0.64630878012E+02 -0.62510122952E+03  0.64059183061E+03  0.00000000000E+00 0. -1.
</event>
<event>
 7    1  0.5696597E-006  0.1282151E+04  0.7818608E-02  0.8652338E-01
          4   -1    0    0  501    0 -0.00000000000E+00  0.00000000000E+00  0.27229042143E+04  0.27229042143E+04  0.00000000000E+00 0.  1.
          2   -1    0    0  502    0  0.00000000000E+00 -0.00000000000E+00 -0.64488320014E+03  0.64488320014E+03  0.00000000000E+00 0. -1.
    9000010    2    1    2  502    0  0.54957093306E+03 -0.63251474951E+03  0.11568816566E+04  0.17428732491E+04  0.99856340624E+03 0.  0.
        -13    1    3    3    0    0 -0.25365530386E+03 -0.31404872803E+03  0.56951770190E+03  0.69808168627E+03  0.10566000000E+00 0.  1.
         13    1    1    2    0    0 -0.48849850623E+03  0.62133067666E+03  0.11457308225E+04  0.13918986059E+04  0.10566000000E+00 0. -1.
          2    1    1    2  501    0 -0.61072426830E+02  0.11184072844E+02 -0.22459146493E+03  0.23301555941E+03  0.00000000000E+00 0. -1.
          4    1    3    3  502    0  0.80322623693E+03 -0.31846602148E+03  0.58736395470E+03  0.10447915629E+04  0.00000000000E+00 0.  1.
</event>
<event>
 7    1  0.5696597E-006  0.1073685E+04  0.7818608E-02  0.8977648E-01
         -4   -1    0    0    0  501 -0.00000000000E+00  0.00000000000E+00  0.11417668453E+04  0.11417668453E+04  0.00000000000E+00 0. -1.
          2   -1    0    0  501    0  0.00000000000E+00 -0.00000000000E+00 -0.11106739777E+04  0.11106739777E+04  0.00000000000E+00 0.  1.
   -9000010    2    1    2    0  502 -0.30485834952E+03  0.13378542130E+03  0.62123659288E+03  0.12365933933E+04  0.10160665154E+04 0.  0.
        -13    1    1    2    0    0  0.35778001839E+03 -0.36641977904E+02  0.52755540645E+02  0.36350011601E+03  0.10566000000E+00 0.  1.
         13    1    3    3    0    0  0.19973838307E+03  0.19210085910E+03  0.67122670644E+03  0.72618418073E+03  0.10566000000E+00 0. -1.
          2    1    1    2  502    0 -0.52921668872E+02 -0.97143443393E+02 -0.64289926587E+03  0.65234731369E+03  0.00000000000E+00 0.  1.
         -4    1    3    3    0  502 -0.50459673258E+03 -0.58315437805E+02 -0.49990113561E+02  0.51040921257E+03  0.00000000000E+00 0. -1.
</event>
<event>
 7    1  0.5696597E-006  0.1058383E+04  0.7818608E-02  0.9030375E-01
         -4   -1    0    0    0  501 -0.00000000000E+00  0.00000000000E+00  0.74668906129E+03  0.74668906129E+03  0.00000000000E+00 0. -1.
          1   -1    0    0  501    0  0.00000000000E+00 -0.00000000000E+00 -0.99130926324E+03  0.99130926324E+03  0.00000000000E+00 0.  1.
   -9000010    2    1    2    0  502  0.11802904234E+03  0.26717669507E+03  0.11688967766E+03  0.10646427785E+04  0.10170972460E+04 0.  0.
        -13    1    1    2    0    0 -0.10291517496E+03 -0.27435145682E+03  0.17910867965E+02  0.29356611768E+03  0.10566000000E+00 0.  1.
         13    1    3    3    0    0  0.54500743555E+03  0.25804625659E+03  0.18810902945E+03  0.63166921206E+03  0.10566000000E+00 0. -1.
          1    1    1    2  502    0 -0.15113867387E+02  0.71747617475E+01 -0.37942074757E+03  0.37978942834E+03  0.00000000000E+00 0.  1.
         -4    1    3    3    0  502 -0.42697839320E+03  0.91304384776E+01 -0.71219351789E+02  0.43297356644E+03  0.00000000000E+00 0. -1.
</event>
<event>
 7    1  0.5696597E-006  0.1074844E+04  0.7818608E-02  0.8944082E-01
          2   -1    0    0  502    0  0.00000000000E+00  0.00000000000E+00  0.93241930260E+03  0.93241930260E+03  0.00000000000E+00 0.  1.
          4   -1    0    0  501    0 -0.00000000000E+00 -0.00000000000E+00 -0.82591212501E+03  0.82591212501E+03  0.00000000000E+00 0.  1.
    9000010    2    1    2  502    0  0.34288528647E+03  0.22594741118E+03 -0.11866270117E+03  0.10865708782E+04  0.99896590757E+03 0.  0.
        -13    1    3    3    0    0  0.52256136804E+03  0.44715725367E+03 -0.29832605797E+03  0.74967889187E+03  0.10566000000E+00 0.  1.
         13    1    1    2    0    0 -0.33258800768E+03 -0.20701490463E+03 -0.50727150636E+02  0.39502304814E+03  0.10566000000E+00 0. -1.
          2    1    1    2  501    0 -0.10297278796E+02 -0.18932506552E+02  0.27589702939E+03  0.27673750122E+03  0.00000000000E+00 0.  1.
          4    1    3    3  502    0 -0.17967608157E+03 -0.22120984249E+03  0.17966335680E+03  0.33689198637E+03  0.00000000000E+00 0.  1.
</event>
<event>
 7    1  0.5696597E-006  0.1033430E+04  0.7818608E-02  0.9151469E-01
          2   -1    0    0  502    0  0.00000000000E+00  0.00000000000E+00  0.10466186009E+04  0.10466186009E+04  0.00000000000E+00 0.  1.
          4   -1    0    0  501    0 -0.00000000000E+00 -0.00000000000E+00 -0.24039888328E+04  0.24039888328E+04  0.00000000000E+00 0.  1.
    9000010    2    1    2  502    0 -0.15256568182E+03 -0.12849494081E+03 -0.12587772634E+04  0.16292476730E+04  0.10149583953E+04 0.  0.
        -13    1    3    3    0    0 -0.38042193017E+03  0.33562688728E+03 -0.51040346813E+03  0.71963738360E+03  0.10566000000E+00 0.  1.
         13    1    1    2    0    0  0.10971205139E+03  0.16075293691E+03 -0.94925862721E+03  0.96900474377E+03  0.10566000000E+00 0. -1.
          2    1    1    2  501    0  0.42853630429E+02 -0.32257996099E+02  0.85066565866E+03  0.85235501686E+03  0.00000000000E+00 0.  1.
          4    1    3    3  502    0  0.22785624835E+03 -0.46412182809E+03 -0.74837379525E+03  0.90961028943E+03  0.00000000000E+00 0.  1.
</event>
<event>
 7    1  0.5696597E-006  0.1009198E+04  0.7818608E-02  0.9207367E-01
          4   -1    0    0  501    0 -0.00000000000E+00  0.00000000000E+00  0.19617348599E+04  0.19617348599E+04  0.00000000000E+00 0.  1.
          2   -1    0    0  502    0  0.00000000000E+00 -0.00000000000E+00 -0.57166836351E+03  0.57166836351E+03  0.00000000000E+00 0. -1.
    9000010    2    1    2  502    0 -0.67263871806E+02  0.13057420670E+03  0.14817106715E+04  0.17908897973E+04  0.99511089842E+03 0.  0.
        -13    1    3    3    0    0  0.33447331510E+03  0.21898068575E+03  0.20445454264E+03  0.44902851849E+03  0.10566000000E+00 0.  1.
         13    1    1    2    0    0  0.77152347873E+02 -0.15273701095E+03  0.30254178362E+03  0.34758110031E+03  0.10566000000E+00 0. -1.
          2    1    1    2  501    0 -0.98884760672E+01  0.22162804252E+02 -0.39418595876E+03  0.39493232576E+03  0.00000000000E+00 0. -1.
          4    1    3    3  502    0 -0.40173718690E+03 -0.88406479043E+02  0.12772561289E+04  0.13418612789E+04  0.00000000000E+00 0.  1.
</event>
<event>
 7    1  0.5696597E-006  0.1016129E+04  0.7818608E-02  0.9068445E-01
          2   -1    0    0  502    0  0.00000000000E+00  0.00000000000E+00  0.18192862974E+04  0.18192862974E+04  0.00000000000E+00 0. -1.
          4   -1    0    0  501    0 -0.00000000000E+00 -0.00000000000E+00 -0.12006414537E+04  0.12006414537E+04  0.00000000000E+00 0.  1.
    9000010    2    1    2  502    0 -0.26812782593E+03 -0.71219385277E+02  0.98453999026E+02  0.10190657217E+04  0.97562135247E+03 0.  0.
        -13    1    3    3    0    0 -0.13796245768E+03  0.44287699405E+03 -0.54680624375E+02  0.46707992190E+03  0.10566000000E+00 0.  1.
         13    1    1    2    0    0  0.27020564292E+03  0.88688121806E+02 -0.71295972211E+03  0.76758598797E+03  0.10566000000E+00 0. -1.
          2    1    1    2  501    0 -0.20778169870E+01 -0.17468736530E+02  0.12331505667E+04  0.12332760414E+04  0.00000000000E+00 0. -1.
          4    1    3    3  502    0 -0.13016536825E+03 -0.51409637933E+03  0.15313462340E+03  0.55198579983E+03  0.00000000000E+00 0.  1.
</event>
<event>
 7    1  0.5696597E-006  0.1133677E+04  0.7818608E-02  0.8878569E-01
          2   -1    0    0  501    0  0.00000000000E+00  0.00000000000E+00  0.14555802941E+04  0.14555802941E+04  0.00000000000E+00 0.  1.
         -4   -1    0    0    0  501 -0.00000000000E+00 -0.00000000000E+00 -0.10630194854E+04  0.10630194854E+04  0.00000000000E+00 0. -1.
   -9000010    2    1    2    0  502 -0.38252717941E+03  0.23517901024E+03  0.42490226540E+03  0.12128791045E+04  0.10435025525E+04 0.  0.
        -13    1    1    2    0    0  0.36589686449E+03 -0.24901503002E+03 -0.59560192388E+03  0.74204492015E+03  0.10566000000E+00 0.  1.
         13    1    3    3    0    0 -0.10671037757E+03  0.10227106399E+03 -0.34986770796E+03  0.37980771378E+03  0.10566000000E+00 0. -1.
          2    1    1    2  502    0  0.16630314919E+02  0.13836019779E+02  0.56326046712E+03  0.56367575488E+03  0.00000000000E+00 0.  1.
         -4    1    3    3    0  502 -0.27581680184E+03  0.13290794625E+03  0.77476997336E+03  0.83307139068E+03  0.00000000000E+00 0. -1.
</event>
<event>
 7    1  0.5696597E-006  0.1104760E+04  0.7818608E-02  0.8878747E-01
          1   -1    0    0  501    0  0.00000000000E+00  0.00000000000E+00  0.16864110622E+04  0.16864110622E+04  0.00000000000E+00 0. -1.
         -4   -1    0    0    0  501 -0.00000000000E+00 -0.00000000000E+00 -0.18344172173E+04  0.18344172173E+04  0.00000000000E+00 0. -1.
   -9000010    2    1    2    0  502 -0.23823877533E+03 -0.41370174925E+03 -0.34211620388E+03  0.11560868929E+04  0.99578439206E+03 0.  0.
        -13    1    1    2    0    0  0.41930849475E+03  0.24593744185E+03 -0.10178107717E+04  0.11279377719E+04  0.10566000000E+00 0.  1.
         13    1    3    3    0    0 -0.17148279348E+03 -0.70174060003E+03 -0.25441900440E+02  0.72283713217E+03  0.10566000000E+00 0. -1.
          1    1    1    2  502    0 -0.18106971942E+03  0.16776430740E+03  0.12119208205E+04  0.12368036147E+04  0.00000000000E+00 0. -1.
         -4    1    3    3    0  502 -0.66755981844E+02  0.28803885078E+03 -0.31667430344E+03  0.43324976068E+03  0.00000000000E+00 0. -1.
</event>
<event>
 7    1  0.5696597E-006  0.1207505E+04  0.7818608E-02  0.8803985E-01
          4   -1    0    0  501    0  0.00000000000E+00  0.00000000000E+00  0.14651244796E+04  0.14651244796E+04  0.00000000000E+00 0.  1.
          4   -1    0    0  502    0 -0.00000000000E+00 -0.00000000000E+00 -0.11414539046E+04  0.11414539046E+04  0.00000000000E+00 0.  1.
    9000010    2    1    2  501    0  0.38760206427E+03  0.59754870999E+03  0.20953613414E+03  0.12619903820E+04  0.10204971885E+04 0.  0.
        -13    1    3    3    0    0  0.37454057415E+03  0.21153729573E+03  0.58314410954E+03  0.72462799616E+03  0.10566000000E+00 0.  1.
         13    1    1    2    0    0  0.26204557708E+03 -0.42744419783E+03 -0.27152564867E+03  0.57017770544E+03  0.10566000000E+00 0. -1.
          4    1    3    3  501    0  0.13061490127E+02  0.38601141426E+03 -0.37360797540E+03  0.53736238587E+03  0.00000000000E+00 0.  1.
          4    1    1    2  502    0 -0.64964764136E+03 -0.17010451216E+03  0.38566008951E+03  0.77441029669E+03  0.00000000000E+00 0.  1.
</event>
<event>
 7    1  0.5696597E-006  0.1017338E+04  0.7818608E-02  0.9156781E-01
         -4   -1    0    0    0  501 -0.00000000000E+00  0.00000000000E+00  0.25909879290E+04  0.25909879290E+04  0.00000000000E+00 0. -1.
          2   -1    0    0  501    0  0.00000000000E+00 -0.00000000000E+00 -0.17100944152E+03  0.17100944152E+03  0.00000000000E+00 0. -1.
   -9000010    2    1    2    0  502  0.24076340440E+03 -0.25593322995E+02  0.20004847960E+04  0.22484791462E+04  0.99754549605E+03 0.  0.
        -13    1    1    2    0    0 -0.19199489002E+03 -0.18667140619E+02  0.40120157186E+03  0.44516649959E+03  0.10566000000E+00 0.  1.
         13    1    3    3    0    0 -0.11726035042E+03  0.26484804007E+03  0.12206935910E+03  0.31431737735E+03  0.10566000000E+00 0. -1.
          2    1    1    2  502    0 -0.48768514378E+02  0.44260463614E+02  0.18292119605E+02  0.68351724730E+02  0.00000000000E+00 0. -1.
         -4    1    3    3    0  502  0.35802375482E+03 -0.29044136306E+03  0.18784154369E+04  0.19341617689E+04  0.00000000000E+00 0. -1.
</event>
<event>
 7    1  0.5696597E-006  0.1097762E+04  0.7818608E-02  0.8923543E-01
          2   -1    0    0  501    0  0.00000000000E+00  0.00000000000E+00  0.10492147190E+04  0.10492147190E+04  0.00000000000E+00 0.  1.
         -4   -1    0    0    0  501 -0.00000000000E+00 -0.00000000000E+00 -0.97428919923E+03  0.97428919923E+03  0.00000000000E+00 0. -1.
   -9000010    2    1    2    0  502 -0.45034040132E+03 -0.21072432759E+03 -0.47061564569E+03  0.12286742823E+04  0.10202696637E+04 0.  0.
        -13    1    1    2    0    0  0.32849093172E+03  0.91871282129E+02  0.16700918133E+03  0.37978770717E+03  0.10566000000E+00 0.  1.
         13    1    3    3    0    0  0.11365509399E+03  0.20367925117E+03 -0.47457031582E+03  0.52879080322E+03  0.10566000000E+00 0. -1.
          2    1    1    2  502    0  0.12184946960E+03  0.11885304546E+03  0.37853198414E+03  0.41504192881E+03  0.00000000000E+00 0.  1.
         -4    1    3    3    0  502 -0.56399549531E+03 -0.41440357876E+03  0.39546701294E+01  0.69988347904E+03  0.00000000000E+00 0. -1.
</event>
<event>
 6    1  0.5696597E-006  0.1725602E+04  0.7818608E-02  0.8566250E-01
         -4   -1    0    0    0  501  0.00000000000E+00  0.00000000000E+00  0.15457309559E+04  0.15457309559E+04  0.00000000000E+00 0. -1.
         -4   -1    0    0    0  502 -0.00000000000E+00 -0.00000000000E+00 -0.93522486807E+03  0.93522486807E+03  0.00000000000E+00 0.  1.
        -13    1    1    2    0    0  0.38709408183E+03 -0.28827312516E+03 -0.22777994244E+03  0.53369179891E+03  0.10566000000E+00 0.  1.
         13    1    1    2    0    0 -0.47085101662E+03  0.16559298380E+03  0.12889908101E+04  0.13822514372E+04  0.10566000000E+00 0. -1.
         -4    1    1    2    0  502  0.80798141412E+01  0.82598243877E+01  0.47180119152E+02  0.48574393858E+02  0.00000000000E+00 0. -1.
         -4    1    1    2    0  501  0.75677120643E+02  0.11442031697E+03 -0.49788489898E+03  0.51643819394E+03  0.00000000000E+00 0.  1.
</event>
<event>
 7    1  0.5696597E-006  0.1207913E+04  0.7818608E-02  0.8732662E-01
         -4   -1    0    0    0  501 -0.00000000000E+00  0.00000000000E+00  0.29002775672E+04  0.29002775672E+04  0.00000000000E+00 0. -1.
          1   -1    0    0  501    0  0.00000000000E+00 -0.00000000000E+00 -0.65725500823E+03  0.65725500823E+03  0.00000000000E+00 0.  1.
   -9000010    2    1    2    0  502  0.59591039790E+03 -0.31792145496E+03  0.17534415191E+04  0.21281332324E+04  0.99910491960E+03 0.  0.
        -13    1    1    2    0    0 -0.60476815777E+03  0.31327816885E+03  0.83854123707E+03  0.10802958637E+04  0.10566000000E+00 0.  1.
         13    1    3    3    0    0  0.66648061375E+03  0.55334319876E+02  0.54913384114E+03  0.86533593599E+03  0.10566000000E+00 0. -1.
          1    1    1    2  502    0  0.88577598715E+01  0.46432861132E+01 -0.34896019718E+03  0.34910347926E+03  0.00000000000E+00 0.  1.
         -4    1    3    3    0  502 -0.70570215850E+02 -0.37325577484E+03  0.12043076779E+04  0.12627972964E+04  0.00000000000E+00 0. -1.
</event>
<event>
 7    1  0.5696597E-006  0.1017054E+04  0.7818608E-02  0.9095613E-01
          2   -1    0    0  502    0  0.00000000000E+00  0.00000000000E+00  0.97373373345E+03  0.97373373345E+03  0.00000000000E+00 0.  1.
          4   -1    0    0  501    0 -0.00000000000E+00 -0.00000000000E+00 -0.12413741227E+04  0.12413741227E+04  0.00000000000E+00 0.  1.
    9000010    2    1    2  502    0  0.21176644320E+03  0.56403749284E+02 -0.26061487614E+03  0.10419635571E+04  0.98475455383E+03 0.  0.
        -13    1    3    3    0    0 -0.39488633910E+03  0.46793976406E+02 -0.15132904666E+03  0.42547078462E+03  0.10566000000E+00 0.  1.
         13    1    1    2    0    0 -0.25368977830E+03 -0.40329291141E+02 -0.56117812636E+03  0.61717570919E+03  0.10566000000E+00 0. -1.
          2    1    1    2  501    0  0.41923335100E+02 -0.16074458142E+02  0.55415261321E+03  0.55596858990E+03  0.00000000000E+00 0.  1.
          4    1    3    3  502    0  0.60665278230E+03  0.96097728773E+01 -0.10928582948E+03  0.61649277249E+03  0.00000000000E+00 0.  1.
</event>
<event>
 7    1  0.5696597E-006  0.1091001E+04  0.7818608E-02  0.9011829E-01
         -4   -1    0    0    0  501 -0.00000000000E+00  0.00000000000E+00  0.14540123641E+04  0.14540123641E+04  0.00000000000E+00 0. -1.
          2   -1    0    0  501    0  0.00000000000E+00 -0.00000000000E+00 -0.19919914229E+04  0.19919914229E+04  0.00000000000E+00 0.  1.
   -9000010    2    1    2    0  502  0.24065036064E+03 -0.15356656021E+03 -0.51724443262E+03  0.12068111006E+04  0.10523098142E+04 0.  0.
        -13    1    1    2    0    0 -0.25058910970E+03  0.14201344724E+03  0.10904776122E+04  0.11278759484E+04  0.10566000000E+00 0.  1.
         13    1    3    3    0    0  0.41473138212E+03  0.33505851294E+03 -0.10307655138E+03  0.54303877672E+03  0.10566000000E+00 0. -1.
          2    1    1    2  502    0  0.99387490563E+01  0.11553112966E+02 -0.11112122384E+04  0.11113167379E+04  0.00000000000E+00 0.  1.
         -4    1    3    3    0  502 -0.17408102148E+03 -0.48862507315E+03 -0.41416788123E+03  0.66377232392E+03  0.00000000000E+00 0. -1.
</event>
<event>
 7    1  0.5696597E-006  0.1012790E+04  0.7818608E-02  0.9304813E-01
          2   -1    0    0  502    0  0.00000000000E+00  0.00000000000E+00  0.18273205675E+03  0.18273205675E+03  0.00000000000E+00 0.  1.
          4   -1    0    0  501    0 -0.00000000000E+00 -0.00000000000E+00 -0.23787182662E+04  0.23787182662E+04  0.00000000000E+00 0.  1.
    9000010    2    1    2  502    0  0.66824410039E+02  0.11684919377E+03 -0.16938092912E+04  0.19747764358E+04  0.10062965869E+04 0.  0.
        -13    1    3    3    0    0  0.11180982045E+03  0.51647584922E+03 -0.55177725827E+03  0.76400712869E+03  0.10566000000E+00 0.  1.
         13    1    1    2    0    0 -0.56692247007E+02 -0.98499345218E+02 -0.53543381618E+03  0.54736232475E+03  0.10566000000E+00 0. -1.
          2    1    1    2  501    0 -0.10132163032E+02 -0.18349848556E+02  0.33256897969E+02  0.39311562323E+02  0.00000000000E+00 0.  1.
          4    1    3    3  502    0 -0.44985410410E+02 -0.39962665545E+03 -0.11420320329E+04  0.12107693072E+04  0.00000000000E+00 0.  1.
</event>
<event>
 6    1  0.5696597E-006  0.2726417E+04  0.7818608E-02  0.8843560E-01
          2   -1    0    0  501    0  0.00000000000E+00  0.00000000000E+00  0.28180689465E+04  0.28180689465E+04  0.00000000000E+00 0.  1.
         -4   -1    0    0    0  501 -0.00000000000E+00 -0.00000000000E+00 -0.12580421473E+04  0.12580421473E+04  0.00000000000E+00 0. -1.
        -13    1    1    2    0    0 -0.93336701509E+01  0.35668959373E+02 -0.21291226282E+01  0.36931509425E+02  0.10566000000E+00 0.  1.
         13    1    1    2    0    0 -0.26071360940E+03  0.15590526851E+03 -0.11886417903E+04  0.12268444708E+04  0.10566000000E+00 0. -1.
          2    1    1    2  502    0 -0.77159806395E+02  0.39734966757E+02  0.12958575407E+04  0.12987606666E+04  0.00000000000E+00 0.  1.
         -4    1    1    2    0  502  0.34720708595E+03 -0.23130919464E+03  0.14549401713E+04  0.15135744469E+04  0.00000000000E+00 0. -1.
</event>
<event>
 7    1  0.5696597E-006  0.1045173E+04  0.7818608E-02  0.8986792E-01
         -4   -1    0    0    0  501 -0.00000000000E+00  0.00000000000E+00  0.18321937263E+03  0.18321937263E+03  0.00000000000E+00 0. -1.
          4   -1    0    0  501    0  0.00000000000E+00 -0.00000000000E+00 -0.45509726710E+04  0.45509726710E+04  0.00000000000E+00 0. -1.
   -9000010    2    1    2    0  502 -0.34199096951E+03  0.23696759376E+03 -0.22306067399E+04  0.24717856815E+04  0.98030942225E+03 0.  0.
        -13    1    1    2    0    0  0.28690706121E+03 -0.20243129192E+03 -0.43507004232E+03  0.55908858207E+03  0.10566000000E+00 0.  1.
         13    1    3    3    0    0 -0.64169447420E+03  0.25591360518E+03 -0.19165498170E+04  0.20372596260E+04  0.10566000000E+00 0. -1.
          4    1    1    2  502    0  0.55083908302E+02 -0.34536301836E+02 -0.17020765161E+04  0.17033177800E+04  0.00000000000E+00 0. -1.
         -4    1    3    3    0  502  0.29970350469E+03 -0.18946011425E+02 -0.31405692295E+03  0.43452605552E+03  0.00000000000E+00 0. -1.
</event>
<event>
 7    1  0.5696597E-006  0.1262124E+04  0.7818608E-02  0.8777460E-01
          2   -1    0    0  501    0  0.00000000000E+00  0.00000000000E+00  0.28923407057E+04  0.28923407057E+04  0.00000000000E+00 0. -1.
         -4   -1    0    0    0  501 -0.00000000000E+00 -0.00000000000E+00 -0.61224474607E+03  0.61224474607E+03  0.00000000000E+00 0. -1.
   -9000010    2    1    2    0  502 -0.43462860698E+03 -0.41278010088E+02  0.10591209860E+04  0.16321380381E+04  0.11625538319E+04 0.  0.
        -13    1    1    2    0    0  0.49743487839E+03  0.41412585133E+02 -0.13335461889E+03  0.51666229395E+03  0.10566000000E+00 0.  1.
         13    1    3    3    0    0  0.39433792010E+03 -0.46191180630E+02  0.46941925178E+03  0.61480929198E+03  0.10566000000E+00 0. -1.
          2    1    1    2  502    0 -0.62806271407E+02 -0.13457504475E+00  0.13543295924E+04  0.13557851197E+04  0.00000000000E+00 0. -1.
         -4    1    3    3    0  502 -0.82896652709E+03  0.49131705417E+01  0.58970173426E+03  0.10173287461E+04  0.00000000000E+00 0. -1.
</event>
<event>
 7    1  0.5696597E-006  0.9100529E+03  0.7818608E-02  0.9450538E-01
          2   -1    0    0  501    0  0.00000000000E+00  0.00000000000E+00  0.89040336252E+03  0.89040336252E+03  0.00000000000E+00 0. -1.
         -4   -1    0    0    0  501 -0.00000000000E+00 -0.00000000000E+00 -0.17355397936E+04  0.17355397936E+04  0.00000000000E+00 0. -1.
   -9000010    2    1    2    0  502 -0.39325351440E+02 -0.57786652785E+02 -0.15425779419E+04  0.17900343022E+04  0.90542272755E+03 0.  0.
        -13    1    1    2    0    0  0.87069819110E+02  0.48975765369E+02 -0.31965028835E+02  0.10488828927E+03  0.10566000000E+00 0.  1.
         13    1    3    3    0    0 -0.34991715668E+02 -0.46316617468E+03 -0.56295310838E+03  0.72983802239E+03  0.10566000000E+00 0. -1.
          2    1    1    2  502    0 -0.47744467670E+02  0.88108874160E+01  0.72940653965E+03  0.73102056470E+03  0.00000000000E+00 0. -1.
         -4    1    3    3    0  502 -0.43336357718E+01  0.40537952190E+03 -0.97962483356E+03  0.10601962798E+04  0.00000000000E+00 0. -1.
</event>
<event>
 7    1  0.5696597E-006  0.1458882E+04  0.7818608E-02  0.8499608E-01
          2   -1    0    0  501    0  0.00000000000E+00  0.00000000000E+00  0.17299045938E+04  0.17299045938E+04  0.00000000000E+00 0.  1.
         -4   -1    0    0    0  501 -0.00000000000E+00 -0.00000000000E+00 -0.13221939083E+04  0.13221939083E+04  0.00000000000E+00 0. -1.
   -9000010    2    1    2    0  502  0.10766535717E+04  0.69764256861E+02  0.73489541374E+02  0.14609513198E+04  0.98230752880E+03 0.  0.
        -13    1    1    2    0    0 -0.10790125578E+04 -0.10055576307E+02 -0.16216546588E+03  0.10911768253E+04  0.10566000000E+00 0.  1.
         13    1    3    3    0    0 -0.47470839642E+02 -0.18243880033E+03  0.23100748704E+03  0.29816416068E+03  0.10566000000E+00 0. -1.
          2    1    1    2  502    0  0.23589861876E+01 -0.59708680555E+02  0.49638660999E+03  0.49997035705E+03  0.00000000000E+00 0.  1.
         -4    1    3    3    0  502  0.11241244113E+04  0.25220305719E+03 -0.15751794567E+03  0.11627871591E+04  0.00000000000E+00 0. -1.
</event>
<event>
 7    1  0.5696597E-006  0.1117387E+04  0.7818608E-02  0.8869478E-01
         -4   -1    0    0    0  501 -0.00000000000E+00  0.00000000000E+00  0.40763290070E+04  0.40763290070E+04  0.00000000000E+00 0. -1.
          1   -1    0    0  501    0  0.00000000000E+00 -0.00000000000E+00 -0.50508924343E+03  0.50508924343E+03  0.00000000000E+00 0.  1.
   -9000010    2    1    2    0  502  0.45699470537E+03  0.12015479670E+03  0.27507546264E+04  0.29677446524E+04  0.10087497069E+04 0.  0.
        -13    1    1    2    0    0 -0.46808744653E+03 -0.12382103388E+03  0.11688218036E+04  0.12651410696E+04  0.10566000000E+00 0.  1.
         13    1    3    3    0    0 -0.26536563520E+03  0.11447097470E+02  0.14657161444E+04  0.14895884612E+04  0.10566000000E+00 0. -1.
          1    1    1    2  502    0  0.11092741165E+02  0.36662371790E+01 -0.34833666648E+03  0.34853252849E+03  0.00000000000E+00 0.  1.
         -4    1    3    3    0  502  0.72236034057E+03  0.10870769923E+03  0.12850384819E+04  0.14781561912E+04  0.00000000000E+00 0. -1.
</event>
<event>
 7    1  0.5696597E-006  0.1109609E+04  0.7818608E-02  0.8894184E-01
         -4   -1    0    0    0  501 -0.00000000000E+00  0.00000000000E+00  0.18784968336E+04  0.18784968336E+04  0.00000000000E+00 0. -1.
          2   -1    0    0  501    0  0.00000000000E+00 -0.00000000000E+00 -0.58427544743E+03  0.58427544743E+03  0.00000000000E+00 0. -1.
   -9000010    2    1    2    0  502 -0.28996121897E+02  0.45319509636E+03  0.10063230598E+04  0.15013327435E+04  0.10173924196E+04 0.  0.
        -13    1    1    2    0    0 -0.11245641206E+02 -0.43964277674E+03  0.54530747702E+03  0.70055156216E+03  0.10566000000E+00 0.  1.
         13    1    3    3    0    0  0.46532933262E+03  0.27060728679E+03  0.72794955543E+03  0.90535642588E+03  0.10566000000E+00 0. -1.
          2    1    1    2  502    0  0.40241763102E+02 -0.13552319619E+02 -0.25740915067E+03  0.26088797541E+03  0.00000000000E+00 0. -1.
         -4    1    3    3    0  502 -0.49432545452E+03  0.18258780957E+03  0.27837350438E+03  0.59597631759E+03  0.00000000000E+00 0. -1.
</event>
<event>
 7    1  0.5696597E-006  0.1124115E+04  0.7818608E-02  0.8896197E-01
          4   -1    0    0  501    0 -0.00000000000E+00  0.00000000000E+00  0.19106539164E+04  0.19106539164E+04  0.00000000000E+00 0.  1.
          2   -1    0    0  502    0  0.00000000000E+00 -0.00000000000E+00 -0.70232179214E+03  0.70232179214E+03  0.00000000000E+00 0. -1.
    9000010    2    1    2  502    0  0.11821216386E+03 -0.36151235410E+03  0.10178246528E+04  0.15052678569E+04  0.10417288513E+04 0.  0.
        -13    1    3    3    0    0 -0.38648837091E+03 -0.40074270970E+03  0.31679130228E+03  0.64056593773E+03  0.10566000000E+00 0.  1.
         13    1    1    2    0    0 -0.67683237261E+02  0.43105736829E+03  0.57043107766E+03  0.71818040970E+03  0.10566000000E+00 0. -1.
          2    1    1    2  501    0 -0.50528926601E+02 -0.69545014189E+02 -0.37992360619E+03  0.38952744186E+03  0.00000000000E+00 0. -1.
          4    1    3    3  502    0  0.50470053477E+03  0.39230355601E+02  0.70103335048E+03  0.86470191921E+03  0.00000000000E+00 0.  1.
</event>
<event>
 7    1  0.5696597E-006  0.1216389E+04  0.7818608E-02  0.8709736E-01
          2   -1    0    0  502    0  0.00000000000E+00  0.00000000000E+00  0.46060514180E+04  0.46060514180E+04  0.00000000000E+00 0.  1.
          4   -1    0    0  501    0 -0.00000000000E+00 -0.00000000000E+00 -0.50435863083E+03  0.50435863083E+03  0.00000000000E+00 0.  1.
    9000010    2    1    2  502    0  0.34631078501E+03  0.17629443137E+03  0.27493345711E+04  0.29412647513E+04  0.97014785837E+03 0.  0.
        -13    1    3    3    0    0  0.43499718241E+03  0.38847622175E+03  0.86681788557E+03  0.10447533592E+04  0.10566000000E+00 0.  1.
         13    1    1    2    0    0 -0.72283795662E+03 -0.30076624590E+03  0.24461021190E+02  0.78329649490E+03  0.10566000000E+00 0. -1.
          2    1    1    2  501    0  0.37652717161E+03  0.12447181453E+03  0.13278971949E+04  0.13858488026E+04  0.00000000000E+00 0.  1.
          4    1    3    3  502    0 -0.88686397403E+02 -0.21218179038E+03  0.18825166855E+04  0.18965113921E+04  0.00000000000E+00 0.  1.
</event>
<event>
 7    1  0.5696597E-006  0.1230710E+04  0.7818608E-02  0.8705533E-01
         -4   -1    0    0    0  501 -0.00000000000E+00  0.00000000000E+00  0.24903854199E+04  0.24903854199E+04  0.00000000000E+00 0. -1.
          2   -1    0    0  501    0  0.00000000000E+00 -0.00000000000E+00 -0.92156458604E+03  0.92156458604E+03  0.00000000000E+00 0.  1.
   -9000010    2    1    2    0  502  0.31806526494E+03 -0.65466126837E+03  0.18627076706E+04  0.22346378930E+04  0.99708563201E+03 0.  0.
        -13    1    1    2    0    0 -0.31499774003E+03  0.63805438774E+03  0.15487471953E+03  0.72823290769E+03  0.10566000000E+00 0.  1.
         13    1    3    3    0    0  0.43060065788E+03  0.25957029495E+02  0.29713582248E+03  0.52381332754E+03  0.10566000000E+00 0. -1.
          2    1    1    2  502    0 -0.30675249031E+01  0.16606880633E+02 -0.44876155629E+03  0.44907920526E+03  0.00000000000E+00 0.  1.
         -4    1    3    3    0  502 -0.11253539295E+03 -0.68061829786E+03  0.15655718481E+04  0.17108245655E+04  0.00000000000E+00 0. -1.
</event>
<event>
 7    1  0.5696597E-006  0.1111176E+04  0.7818608E-02  0.8889951E-01
          2   -1    0    0  502    0  0.00000000000E+00  0.00000000000E+00  0.98584070962E+03  0.98584070962E+03  0.00000000000E+00 0. -1.
          4   -1    0    0  501    0 -0.00000000000E+00 -0.00000000000E+00 -0.16397348992E+04  0.16397348992E+04  0.00000000000E+00 0.  1.
    9000010    2    1    2  502    0  0.31649833045E+03 -0.30734978904E+03 -0.75625957730E+03  0.13415796989E+04  0.10165001005E+04 0.  0.
        -13    1    3    3    0    0 -0.18421053226E+03  0.27502151821E+03 -0.15152340056E+03  0.36404629892E+03  0.10566000000E+00 0.  1.
         13    1    1    2    0    0 -0.32226893647E+03  0.31560702674E+03 -0.50467233132E+03  0.67687460871E+03  0.10566000000E+00 0. -1.
          2    1    1    2  501    0  0.57706060296E+01 -0.82572377036E+01  0.60703771909E+03  0.60712130111E+03  0.00000000000E+00 0. -1.
          4    1    3    3  502    0  0.50070886271E+03 -0.58237130725E+03 -0.60473617674E+03  0.97753340002E+03  0.00000000000E+00 0.  1.
</event>
<event>
 7    1  0.5696597E-006  0.1020389E+04  0.7818608E-02  0.9377081E-01
         -4   -1    0    0    0  501 -0.00000000000E+00  0.00000000000E+00  0.25775590812E+04  0.25775590812E+04  0.00000000000E+00 0. -1.
          4   -1    0    0  501    0  0.00000000000E+00 -0.00000000000E+00 -0.19371911516E+04  0.19371911516E+04  0.00000000000E+00 0.  1.
   -9000010    2    1    2    0  502 -0.45043446352E+02 -0.42947699529E+02  0.20119345300E+04  0.22551413120E+04  0.10168128477E+04 0.  0.
        -13    1    1    2    0    0  0.36563732885E+02  0.78158939407E+02  0.43964619055E+03  0.44803405050E+03  0.10566000000E+00 0.  1.
         13    1    3    3    0    0 -0.50908059876E+03  0.58380741146E+01  0.72229709583E+03  0.88369126111E+03  0.10566000000E+00 0. -1.
          4    1    1    2  502    0  0.84797134672E+01 -0.35211239878E+02 -0.18112127909E+04  0.18115748703E+04  0.00000000000E+00 0.  1.
         -4    1    3    3    0  502  0.46403715241E+03 -0.48785773643E+02  0.12896374341E+04  0.13714500509E+04  0.00000000000E+00 0. -1.
</event>
<event>
 7    1  0.5696597E-006  0.1388091E+04  0.7818608E-02  0.8556505E-01
          2   -1    0    0  502    0  0.00000000000E+00  0.00000000000E+00  0.14879091351E+04  0.14879091351E+04  0.00000000000E+00 0. -1.
          4   -1    0    0  501    0 -0.00000000000E+00 -0.00000000000E+00 -0.28737450811E+04  0.28737450811E+04  0.00000000000E+00 0.  1.
    9000010    2    1    2  502    0 -0.77101744161E+03  0.58851861976E+03 -0.10217009408E+04  0.17241699262E+04  0.99401562407E+03 0.  0.
        -13    1    3    3    0    0 -0.27196978821E+03  0.75420961084E+03 -0.35969267855E+03  0.87873689860E+03  0.10566000000E+00 0.  1.
         13    1    1    2    0    0  0.74377029970E+03 -0.62060295670E+03 -0.13440047156E+04  0.16567108907E+04  0.10566000000E+00 0. -1.
          2    1    1    2  501    0  0.27247141912E+02  0.32084336935E+02  0.97986971036E+03  0.98077339926E+03  0.00000000000E+00 0. -1.
          4    1    3    3  502    0 -0.49904765339E+03 -0.16569099108E+03 -0.66200826220E+03  0.84543302757E+03  0.00000000000E+00 0.  1.
</event>
<event>
 7    1  0.5696597E-006  0.1017938E+04  0.7818608E-02  0.9126353E-01
          4   -1    0    0  501    0 -0.00000000000E+00  0.00000000000E+00  0.51958921543E+03  0.51958921543E+03  0.00000000000E+00 0.  1.
          2   -1    0    0  502    0  0.00000000000E+00 -0.00000000000E+00 -0.11567005919E+04  0.11567005919E+04  0.00000000000E+00 0. -1.
    9000010    2    1    2  502    0  0.22486032638E+03  0.36547035321E+02 -0.33449142432E+03  0.10721583504E+04  0.99284498444E+03 0.  0.
        -13    1    3    3    0    0 -0.24186181818E+03 -0.47332298033E+02 -0.51007724639E+03  0.56649474311E+03  0.10566000000E+00 0.  1.
         13    1    1    2    0    0 -0.22364544373E+03 -0.17499928425E+02  0.66920825180E+02  0.23409814182E+03  0.10566000000E+00 0. -1.
          2    1    1    2  501    0 -0.12148826479E+01 -0.19047106896E+02 -0.36954077732E+03  0.37003331515E+03  0.00000000000E+00 0. -1.
          4    1    3    3  502    0  0.46672214455E+03  0.83879333354E+02  0.17558582206E+03  0.50566360724E+03  0.00000000000E+00 0.  1.
</event>
<event>
 7    1  0.5696597E-006  0.1013717E+04  0.7818608E-02  0.9165940E-01
          2   -1    0    0  501    0  0.00000000000E+00  0.00000000000E+00  0.25273918810E+04  0.25273918810E+04  0.00000000000E+00 0. -1.
         -4   -1    0    0    0  501 -0.00000000000E+00 -0.00000000000E+00 -0.35203450049E+03  0.35203450049E+03  0.00000000000E+00 0. -1.
   -9000010    2    1    2    0  502  0.26893001789E+03 -0.13543084180E+03  0.84413474107E+03  0.13390001067E+04  0.99483313029E+03 0.  0.
        -13    1    1    2    0    0 -0.15434868661E+03  0.10488632796E+03 -0.16642983803E+02  0.18735436724E+03  0.10566000000E+00 0.  1.
         13    1    3    3    0    0  0.44710731313E+03  0.29921946039E+03  0.28531616360E+03  0.60896843868E+03  0.10566000000E+00 0. -1.
          2    1    1    2  502    0 -0.11458133128E+03  0.30544513845E+02  0.13478656232E+04  0.13530719076E+04  0.00000000000E+00 0. -1.
         -4    1    3    3    0  502 -0.17817729524E+03 -0.43465030219E+03  0.55881857747E+03  0.73003166799E+03  0.00000000000E+00 0. -1.
</event>
<event>
 7    1  0.5696597E-006  0.1036958E+04  0.7818608E-02  0.9105803E-01
          4   -1    0    0  501    0 -0.00000000000E+00  0.00000000000E+00  0.10051204322E+04  0.10051204322E+04  0.00000000000E+00 0.  1.
          2   -1    0    0  502    0  0.00000000000E+00 -0.00000000000E+00 -0.19447457885E+04  0.19447457885E+04  0.00000000000E+00 0.  1.
    9000010    2    1    2  502    0 -0.42943533988E+02  0.15241025719E+03 -0.12004368247E+04  0.15774359796E+04  0.10110304971E+04 0.  0.
        -13    1    3    3    0    0  0.31732668990E+03 -0.25280493068E+01 -0.11366393290E+04  0.11801066030E+04  0.10566000000E+00 0.  1.
         13    1    1    2    0    0  0.71168938164E+02 -0.22006495371E+03  0.79770350653E+03  0.83055673924E+03  0.10566000000E+00 0. -1.
          2    1    1    2  501    0 -0.28225404176E+02  0.67654696526E+02 -0.53689203812E+03  0.54187350184E+03  0.00000000000E+00 0.  1.
          4    1    3    3  502    0 -0.36027022389E+03  0.15493830649E+03 -0.63797495723E+02  0.39732937659E+03  0.00000000000E+00 0.  1.
</event>
<event>
 7    1  0.5696597E-006  0.1301396E+04  0.7818608E-02  0.9068052E-01
          4   -1    0    0  501    0 -0.00000000000E+00  0.00000000000E+00  0.12929412256E+04  0.12929412256E+04  0.00000000000E+00 0.  1.
          2   -1    0    0  502    0  0.00000000000E+00 -0.00000000000E+00 -0.12319970054E+04  0.12319970054E+04  0.00000000000E+00 0. -1.
    9000010    2    1    2  502    0 -0.66893319349E+03  0.40328490254E+03  0.60154182772E+02  0.12887687134E+04  0.10233259212E+04 0.  0.
        -13    1    3    3    0    0  0.16510617102E+03 -0.17379460690E+03  0.12898368734E+03  0.27221575241E+03  0.10566000000E+00 0.  1.
         13    1    1    2    0    0 -0.89691975233E+02 -0.10145906520E+03  0.32932932806E+03  0.35608483514E+03  0.10566000000E+00 0. -1.
          2    1    1    2  501    0  0.75862516873E+03 -0.30182583733E+03 -0.32853929067E+03  0.88008468241E+03  0.00000000000E+00 0. -1.
          4    1    3    3  502    0 -0.83403936451E+03  0.57707950943E+03 -0.68829504567E+02  0.10165529610E+04  0.00000000000E+00 0.  1.
</event>
<event>
 7    1  0.5696597E-006  0.1306043E+04  0.7818608E-02  0.8629005E-01
          2   -1    0    0  502    0  0.00000000000E+00  0.00000000000E+00  0.33961564002E+04  0.33961564002E+04  0.00000000000E+00 0.  1.
          4   -1    0    0  501    0 -0.00000000000E+00 -0.00000000000E+00 -0.27201017679E+04  0.27201017679E+04  0.00000000000E+00 0.  1.
    9000010    2    1    2  502    0 -0.10158969779E+02 -0.88778617425E+03 -0.10370742891E+03  0.13394568010E+04  0.99755791572E+03 0.  0.
        -13    1    3    3    0    0 -0.40002343634E+03 -0.49131633094E+03 -0.35833859546E+03  0.72788532533E+03  0.10566000000E+00 0.  1.
         13    1    1    2    0    0  0.49393628951E+03  0.70013856465E+03 -0.18804467730E+04  0.20664576321E+04  0.10566000000E+00 0. -1.
          2    1    1    2  501    0 -0.48377731973E+03  0.18764760959E+03  0.26602088342E+04  0.27103437350E+04  0.00000000000E+00 0.  1.
          4    1    3    3  502    0  0.38986446656E+03 -0.39646984331E+03  0.25463116654E+03  0.61157147572E+03  0.00000000000E+00 0.  1.
</event>
<event>
 7    1  0.5696597E-006  0.1005404E+04  0.7818608E-02  0.9266459E-01
          2   -1    0    0  502    0  0.00000000000E+00  0.00000000000E+00  0.25678728199E+03  0.25678728199E+03  0.00000000000E+00 0. -1.
          4   -1    0    0  501    0 -0.00000000000E+00 -0.00000000000E+00 -0.31621467014E+04  0.31621467014E+04  0.00000000000E+00 0.  1.
    9000010    2    1    2  502    0  0.18213384934E+02  0.12665257172E+03 -0.26856045616E+04  0.28672885426E+04  0.99624250258E+03 0.  0.
        -13    1    3    3    0    0  0.10354050005E+03 -0.40348659390E+03 -0.74263514951E+03  0.85148637280E+03  0.10566000000E+00 0.  1.
         13    1    1    2    0    0  0.66205512368E+01 -0.13653551057E+03 -0.37239070538E+03  0.39668706301E+03  0.10566000000E+00 0. -1.
          2    1    1    2  501    0 -0.24833936171E+02  0.98829388479E+01  0.15263584760E+03  0.15495837776E+03  0.00000000000E+00 0. -1.
          4    1    3    3  502    0 -0.85327115113E+02  0.53013916561E+03 -0.19429694121E+04  0.20158021698E+04  0.00000000000E+00 0.  1.
</event>
<event>
 7    1  0.5696597E-006  0.1084324E+04  0.7818608E-02  0.8989765E-01
          2   -1    0    0  501    0  0.00000000000E+00  0.00000000000E+00  0.12768599915E+04  0.12768599915E+04  0.00000000000E+00 0.  1.
         -4   -1    0    0    0  501 -0.00000000000E+00 -0.00000000000E+00 -0.11522074501E+04  0.11522074501E+04  0.00000000000E+00 0. -1.
   -9000010    2    1    2    0  502  0.98102329710E+02 -0.60805255410E+03 -0.34465699693E+03  0.12384778545E+04  0.10176870712E+04 0.  0.
        -13    1    1    2    0    0 -0.19203931258E+03  0.25685526838E+03 -0.23526885098E+03  0.39775013498E+03  0.10566000000E+00 0.  1.
         13    1    3    3    0    0  0.52941267505E+03 -0.47058237875E+03 -0.34015366312E+03  0.78576719287E+03  0.10566000000E+00 0. -1.
          2    1    1    2  502    0  0.93936982867E+02  0.35119728572E+03  0.70457838929E+03  0.79283945216E+03  0.00000000000E+00 0.  1.
         -4    1    3    3    0  502 -0.43131034534E+03 -0.13747017535E+03 -0.45033338080E+01  0.45271066160E+03  0.00000000000E+00 0. -1.
</event>
<event>
 7    1  0.5696597E-006  0.1109809E+04  0.7818608E-02  0.8867036E-01
          1   -1    0    0  501    0  0.00000000000E+00  0.00000000000E+00  0.38746155189E+03  0.38746155189E+03  0.00000000000E+00 0. -1.
         -4   -1    0    0    0  501 -0.00000000000E+00 -0.00000000000E+00 -0.31247599518E+04  0.31247599518E+04  0.00000000000E+00 0. -1.
   -9000010    2    1    2    0  502 -0.44120001726E+02 -0.50507141575E+03 -0.20022778065E+04  0.22917855693E+04  0.99303623879E+03 0.  0.
        -13    1    1    2    0    0  0.26836979911E+02  0.49000121169E+03 -0.91537981375E+03  0.10386248724E+04  0.10566000000E+00 0.  1.
         13    1    3    3    0    0 -0.42954217505E+03 -0.27023762112E+03 -0.16286158302E+04  0.17058500478E+04  0.10566000000E+00 0. -1.
          1    1    1    2  502    0  0.17283021814E+02  0.15070204051E+02  0.18035922038E+03  0.18181106201E+03  0.00000000000E+00 0. -1.
         -4    1    3    3    0  502  0.38542217333E+03 -0.23483379462E+03 -0.37366197630E+03  0.58593552147E+03  0.00000000000E+00 0. -1.
</event>
<event>
 7    1  0.5696597E-006  0.1110592E+04  0.7818608E-02  0.9402471E-01
          4   -1    0    0  501    0 -0.00000000000E+00  0.00000000000E+00  0.14561586115E+04  0.14561586115E+04  0.00000000000E+00 0.  1.
          2   -1    0    0  502    0  0.00000000000E+00 -0.00000000000E+00 -0.81729989197E+03  0.81729989197E+03  0.00000000000E+00 0.  1.
    9000010    2    1    2  502    0 -0.11056021236E+03  0.42634745824E+03  0.10757878535E+04  0.15454431986E+04  0.10183709828E+04 0.  0.
        -13    1    3    3    0    0  0.33011485755E+03 -0.16503014717E+03  0.41295892137E+03  0.55384641423E+03  0.10566000000E+00 0.  1.
         13    1    1    2    0    0  0.58555449144E+02  0.14119688841E+02  0.43393849485E+02  0.74237076819E+02  0.10566000000E+00 0. -1.
          2    1    1    2  501    0  0.52004763211E+02 -0.44046714708E+03 -0.48032298347E+03  0.65377822808E+03  0.00000000000E+00 0.  1.
          4    1    3    3  502    0 -0.44067506991E+03  0.59137760541E+03  0.66282893214E+03  0.99159678433E+03  0.00000000000E+00 0.  1.
</event>
<event>
 7    1  0.5696597E-006  0.1075910E+04  0.7818608E-02  0.9037677E-01
          1   -1    0    0  501    0  0.00000000000E+00  0.00000000000E+00  0.73041957551E+03  0.73041957551E+03  0.00000000000E+00 0. -1.
         -4   -1    0    0    0  501 -0.00000000000E+00 -0.00000000000E+00 -0.10655695949E+04  0.10655695949E+04  0.00000000000E+00 0. -1.
   -9000010    2    1    2    0  502 -0.20191946302E+03 -0.15787180975E+03 -0.64216168587E+03  0.12499698547E+04  0.10413251312E+04 0.  0.
        -13    1    1    2    0    0  0.24176408712E+03  0.13984336241E+03  0.48059802841E+02  0.28340041575E+03  0.10566000000E+00 0.  1.
         13    1    3    3    0    0 -0.11079554715E+03 -0.55511640862E+03 -0.10504618899E+03  0.57572961828E+03  0.10566000000E+00 0. -1.
          1    1    1    2  502    0 -0.39844624108E+02  0.18028447334E+02  0.25895186361E+03  0.26261890002E+03  0.00000000000E+00 0. -1.
         -4    1    3    3    0  502 -0.91123915865E+02  0.39724459887E+03 -0.53711549689E+03  0.67424023639E+03  0.00000000000E+00 0. -1.
</event>
<event>
 7    1  0.5696597E-006  0.1059093E+04  0.7818608E-02  0.8952302E-01
          4   -1    0    0  501    0 -0.00000000000E+00  0.00000000000E+00  0.60278759329E+03  0.60278759329E+03  0.00000000000E+00 0.  1.
          2   -1    0    0  502    0  0.00000000000E+00 -0.00000000000E+00 -0.20156750108E+04  0.20156750108E+04  0.00000000000E+00 0.  1.
    9000010    2    1    2  502    0 -0.39203897565E+03 -0.36606673221E+02 -0.81456949212E+03  0.13339789777E+04  0.98027641431E+03 0.  0.
        -13    1    3    3    0    0 -0.18983355250E+03  0.36026809503E+03 -0.78892427413E+03  0.88782396871E+03  0.10566000000E+00 0.  1.
         13    1    1    2    0    0  0.39412711754E+03  0.78754265328E+02  0.22464551704E+03  0.46043896292E+03  0.10566000000E+00 0. -1.
          2    1    1    2  501    0 -0.20881418956E+01 -0.42147592107E+02 -0.82296344245E+03  0.82404466352E+03  0.00000000000E+00 0.  1.
          4    1    3    3  502    0 -0.20220542315E+03 -0.39687476825E+03 -0.25645217994E+02  0.44615500897E+03  0.00000000000E+00 0.  1.
</event>
<event>
 7    1  0.6128284E-006  0.1285149E+04  0.7818608E-02  0.8972816E-01
         -4   -1    0    0    0  501 -0.00000000000E+00  0.00000000000E+00  0.12451370517E+04  0.12451370517E+04  0.00000000000E+00 0. -1.
          4   -1    0    0  501    0  0.00000000000E+00 -0.00000000000E+00 -0.27762678050E+04  0.27762678050E+04  0.00000000000E+00 0.  1.
   -9000010    2    1    2    0  502  0.53484734121E+03 -0.29628793131E+03  0.73978848650E+03  0.13878539289E+04  0.10024985319E+04 0.  0.
        -13    1    1    2    0    0  0.16911690818E+03 -0.11826654293E+03  0.14130685995E+02  0.20685064965E+03  0.10566000000E+00 0.  1.
         13    1    3    3    0    0 -0.77629274558E+02 -0.47767295077E+03  0.52480689161E+03  0.71387676585E+03  0.10566000000E+00 0. -1.
          4    1    1    2  502    0 -0.70396424939E+03  0.41455447424E+03 -0.22850499259E+04  0.24267002782E+04  0.00000000000E+00 0.  1.
         -4    1    3    3    0  502  0.61247661576E+03  0.18138501946E+03  0.21498159489E+03  0.67397716303E+03  0.00000000000E+00 0. -1.
</event>
<event>
 7    1  0.5696597E-006  0.1002798E+04  0.7818608E-02  0.9200416E-01
          4   -1    0    0  501    0 -0.00000000000E+00  0.00000000000E+00  0.16434717869E+04  0.16434717869E+04  0.00000000000E+00 0.  1.
          2   -1    0    0  502    0  0.00000000000E+00 -0.00000000000E+00 -0.31538990185E+03  0.31538990185E+03  0.00000000000E+00 0.  1.
    9000010    2    1    2  502    0 -0.15811964241E+03 -0.85373859721E+02  0.11694785921E+04  0.15409795344E+04  0.98724223519E+03 0.  0.
        -13    1    3    3    0    0 -0.14231030458E+03  0.24233859731E+03  0.11797139376E+04  0.12127263517E+04  0.10566000000E+00 0.  1.
         13    1    1    2    0    0  0.16339547983E+03  0.64227788755E+02  0.26024619134E+03  0.31392894570E+03  0.10566000000E+00 0. -1.
          2    1    1    2  501    0 -0.52758374188E+01  0.21146070966E+02 -0.10164289841E+03  0.10395320858E+03  0.00000000000E+00 0.  1.
          4    1    3    3  502    0 -0.15809337829E+02 -0.32771245704E+03 -0.10235345471E+02  0.32825318270E+03  0.00000000000E+00 0.  1.
</event>
<event>
 7    1  0.5696597E-006  0.1064438E+04  0.7818608E-02  0.9125851E-01
         -4   -1    0    0    0  501 -0.00000000000E+00  0.00000000000E+00  0.62940262449E+03  0.62940262449E+03  0.00000000000E+00 0. -1.
          2   -1    0    0  501    0  0.00000000000E+00 -0.00000000000E+00 -0.14280118840E+04  0.14280118840E+04  0.00000000000E+00 0. -1.
   -9000010    2    1    2    0  502  0.19044600531E+03 -0.77041408555E+02 -0.37038381503E+03  0.11132262172E+04  0.10295063772E+04 0.  0.
        -13    1    1    2    0    0 -0.79019215192E+02 -0.18028488608E+03  0.18484773229E+03  0.27002846482E+03  0.10566000000E+00 0.  1.
         13    1    3    3    0    0  0.25479627288E+03  0.35697268582E+03 -0.49083702728E+03  0.65823372567E+03  0.10566000000E+00 0. -1.
          2    1    1    2  502    0 -0.11142679012E+03  0.25732629463E+03 -0.61307317676E+03  0.67415982639E+03  0.00000000000E+00 0. -1.
         -4    1    3    3    0  502 -0.64350267570E+02 -0.43401409437E+03  0.12045321226E+03  0.45499249158E+03  0.00000000000E+00 0. -1.
</event>
<event>
 7    1  0.5696597E-006  0.1019237E+04  0.7818608E-02  0.9681574E-01
         -4   -1    0    0    0  501 -0.00000000000E+00  0.00000000000E+00  0.54828077374E+03  0.54828077374E+03  0.00000000000E+00 0. -1.
          1   -1    0    0  501    0  0.00000000000E+00 -0.00000000000E+00 -0.12792560064E+04  0.12792560064E+04  0.00000000000E+00 0. -1.
   -9000010    2    1    2    0  502 -0.53377489100E+02  0.42737639549E+02 -0.31015341838E+03  0.10649978298E+04  0.10165380329E+04 0.  0.
        -13    1    1    2    0    0 -0.17907577539E+02 -0.22196084234E+02  0.16732188099E+03  0.16973500084E+03  0.10566000000E+00 0.  1.
         13    1    3    3    0    0  0.92915619248E+02 -0.44466450134E+03 -0.32059939210E+03  0.55600702552E+03  0.10566000000E+00 0. -1.
          1    1    1    2  502    0  0.71285066639E+02 -0.20541555315E+02 -0.58814369531E+03  0.59280394950E+03  0.00000000000E+00 0. -1.
         -4    1    3    3    0  502 -0.14629310835E+03  0.48740214089E+03  0.10445973722E+02  0.50899080430E+03  0.00000000000E+00 0. -1.
</event>
<event>
 7    1  0.5696597E-006  0.1006002E+04  0.7818608E-02  0.9257232E-01
          4   -1    0    0  501    0 -0.00000000000E+00  0.00000000000E+00  0.41552618089E+03  0.41552618089E+03  0.00000000000E+00 0.  1.
          2   -1    0    0  502    0  0.00000000000E+00 -0.00000000000E+00 -0.10007714086E+04  0.10007714086E+04  0.00000000000E+00 0.  1.
    9000010    2    1    2  502    0 -0.11639251255E+03 -0.80421515195E+02 -0.34721528908E+03  0.10644271592E+04  0.99620875486E+03 0.  0.
        -13    1    3    3    0    0 -0.33093032672E+03  0.29550455955E+03  0.86127047323E+02  0.45194657351E+03  0.10566000000E+00 0.  1.
         13    1    1    2    0    0  0.14134108715E+03  0.14046262393E+02 -0.49449326077E+02  0.15039896083E+03  0.10566000000E+00 0. -1.
          2    1    1    2  501    0 -0.24948574601E+02  0.66375252802E+02 -0.18858061260E+03  0.20147146946E+03  0.00000000000E+00 0.  1.
          4    1    3    3  502    0  0.21453781417E+03 -0.37592607474E+03 -0.43334233640E+03  0.61248058573E+03  0.00000000000E+00 0.  1.
</event>
<event>
 7    1  0.5696597E-006  0.1113071E+04  0.7818608E-02  0.9084997E-01
          4   -1    0    0  501    0 -0.00000000000E+00  0.00000000000E+00  0.12283129541E+04  0.12283129541E+04  0.00000000000E+00 0.  1.
          2   -1    0    0  502    0  0.00000000000E+00 -0.00000000000E+00 -0.15845001372E+04  0.15845001372E+04  0.00000000000E+00 0.  1.
    9000010    2    1    2  502    0 -0.33534082361E+03  0.44346547740E+03  0.76621923163E+03  0.13874540470E+04  0.10143084955E+04 0.  0.
        -13    1    3    3    0    0 -0.43314969853E+03  0.70897118248E+03  0.39293664602E+03  0.91905278296E+03  0.10566000000E+00 0.  1.
         13    1    1    2    0    0  0.20218767471E+03 -0.76501313956E+01  0.12158196319E+02  0.20269734389E+03  0.10566000000E+00 0. -1.
          2    1    1    2  501    0  0.13315314889E+03 -0.43581534600E+03 -0.11345646110E+04  0.12226617003E+04  0.00000000000E+00 0.  1.
          4    1    3    3  502    0  0.97808874923E+02 -0.26550570508E+03  0.37328258562E+03  0.46840126406E+03  0.00000000000E+00 0.  1.
</event>
<event>
 7    1  0.5696597E-006  0.1155754E+04  0.7818608E-02  0.8801041E-01
          4   -1    0    0  501    0 -0.00000000000E+00  0.00000000000E+00  0.31631457069E+04  0.31631457069E+04  0.00000000000E+00 0.  1.
          2   -1    0    0  502    0  0.00000000000E+00 -0.00000000000E+00 -0.78782316349E+03  0.78782316349E+03  0.00000000000E+00 0. -1.
    9000010    2    1    2  502    0 -0.14820365539E+03  0.52384616575E+03  0.18562388438E+04  0.21777473833E+04  0.10002909034E+04 0.  0.
        -13    1    3    3    0    0 -0.38101032170E+03  0.40079300642E+03  0.36305727696E+03  0.66152437351E+03  0.10566000000E+00 0.  1.
         13    1    1    2    0    0  0.33003622094E+03 -0.50690329229E+03  0.10500053651E+04  0.12117698349E+04  0.10566000000E+00 0. -1.
          2    1    1    2  501    0 -0.18183256555E+03 -0.16942873460E+02 -0.53092166548E+03  0.56145165218E+03  0.00000000000E+00 0. -1.
          4    1    3    3  502    0  0.23280666631E+03  0.12305315933E+03  0.14931815668E+04  0.15162230098E+04  0.00000000000E+00 0.  1.
</event>
<event>
 7    1  0.5696597E-006  0.1692489E+04  0.7818608E-02  0.8551264E-01
          2   -1    0    0  501    0  0.00000000000E+00  0.00000000000E+00  0.40141096256E+04  0.40141096256E+04  0.00000000000E+00 0.  1.
         -4   -1    0    0    0  501 -0.00000000000E+00 -0.00000000000E+00 -0.10258153451E+04  0.10258153451E+04  0.00000000000E+00 0. -1.
   -9000010    2    1    2    0  502  0.15225709607E+04  0.42607754904E+01  0.60344013473E+03  0.19304251743E+04  0.10218419021E+04 0.  0.
        -13    1    1    2    0    0 -0.28518964396E+03 -0.46700740600E+03  0.25616683253E+03  0.60419409757E+03  0.10566000000E+00 0.  1.
         13    1    3    3    0    0  0.99509394275E+03  0.31565420655E+03 -0.36478562478E+02  0.10445957255E+04  0.10566000000E+00 0. -1.
          2    1    1    2  502    0 -0.12373813168E+04  0.46274663051E+03  0.21286873132E+04  0.25053056988E+04  0.00000000000E+00 0.  1.
         -4    1    3    3    0  502  0.52747701798E+03 -0.31139343106E+03  0.63991869721E+03  0.88582944885E+03  0.00000000000E+00 0. -1.
</event>
<event>
 7    1  0.5696597E-006  0.1097587E+04  0.7818608E-02  0.8887287E-01
         -4   -1    0    0    0  501  0.00000000000E+00  0.00000000000E+00  0.22252101986E+04  0.22252101986E+04  0.00000000000E+00 0. -1.
         -4   -1    0    0    0  502 -0.00000000000E+00 -0.00000000000E+00 -0.10174409757E+04  0.10174409757E+04  0.00000000000E+00 0. -1.
   -9000010    2    1    2    0  501 -0.57123307831E+02 -0.35988490063E+03 -0.11238204762E+03  0.10622540748E+04  0.99145034211E+03 0.  0.
        -13    1    1    2    0    0 -0.13163360249E+03  0.49732215050E+03 -0.26462122624E+03  0.57851631889E+03  0.10566000000E+00 0.  1.
         13    1    3    3    0    0  0.14002792841E+03 -0.22239788679E+03  0.41013080498E+03  0.48710977115E+03  0.10566000000E+00 0. -1.
         -4    1    3    3    0  501 -0.19715123624E+03 -0.13748701383E+03 -0.52251285260E+03  0.57514430369E+03  0.00000000000E+00 0. -1.
         -4    1    1    2    0  502  0.18875691032E+03 -0.13743724987E+03  0.15847724967E+04  0.16018807806E+04  0.00000000000E+00 0. -1.
</event>
<event>
 7    1  0.5696597E-006  0.9550574E+03  0.7818608E-02  0.9213026E-01
          4   -1    0    0  501    0 -0.00000000000E+00  0.00000000000E+00  0.42334636607E+03  0.42334636607E+03  0.00000000000E+00 0.  1.
          2   -1    0    0  502    0  0.00000000000E+00 -0.00000000000E+00 -0.12418309706E+04  0.12418309706E+04  0.00000000000E+00 0.  1.
    9000010    2    1    2  502    0  0.42732108815E+02 -0.15590638505E+03 -0.81937910003E+03  0.12538038603E+04  0.93515195375E+03 0.  0.
        -13    1    3    3    0    0 -0.42969979149E+03 -0.19637806414E+03 -0.45362033013E+03  0.65496386919E+03  0.10566000000E+00 0.  1.
         13    1    1    2    0    0 -0.73640650178E+02  0.18108439709E+03  0.15670653376E+03  0.25054231802E+03  0.10566000000E+00 0. -1.
          2    1    1    2  501    0  0.30908541363E+02 -0.25178012041E+02 -0.15581203823E+03  0.16083115829E+03  0.00000000000E+00 0.  1.
          4    1    3    3  502    0  0.47243190030E+03  0.40471679092E+02 -0.36575876990E+03  0.59883999114E+03  0.00000000000E+00 0.  1.
</event>
<event>
 7    1  0.5696597E-006  0.9834970E+03  0.7818608E-02  0.8991197E-01
         -4   -1    0    0    0  501 -0.00000000000E+00  0.00000000000E+00  0.18664074253E+04  0.18664074253E+04  0.00000000000E+00 0. -1.
          2   -1    0    0  501    0  0.00000000000E+00 -0.00000000000E+00 -0.18527140222E+04  0.18527140222E+04  0.00000000000E+00 0. -1.
   -9000010    2    1    2    0  502 -0.13629113099E+03  0.40698532959E+03  0.11196630054E+04  0.14908141575E+04  0.88581559914E+03 0.  0.
        -13    1    1    2    0    0  0.17377533280E+03 -0.39013607004E+03  0.47960325128E+03  0.64220192248E+03  0.10566000000E+00 0.  1.
         13    1    3    3    0    0  0.33578506541E+03  0.27443688690E+03  0.27307697464E+03  0.51248244876E+03  0.10566000000E+00 0. -1.
          2    1    1    2  502    0 -0.37484201804E+02 -0.16849259551E+02 -0.15855728535E+04  0.15861053675E+04  0.00000000000E+00 0. -1.
         -4    1    3    3    0  502 -0.47207619641E+03  0.13254844269E+03  0.84658603072E+03  0.97833170872E+03  0.00000000000E+00 0. -1.
</event>
<event>
 7    1  0.5696597E-006  0.1340594E+04  0.7818608E-02  0.8993002E-01
          4   -1    0    0  501    0 -0.00000000000E+00  0.00000000000E+00  0.14215326480E+04  0.14215326480E+04  0.00000000000E+00 0.  1.
          2   -1    0    0  502    0  0.00000000000E+00 -0.00000000000E+00 -0.11046373227E+04  0.11046373227E+04  0.00000000000E+00 0.  1.
    9000010    2    1    2  502    0 -0.78429766170E+03  0.28030931473E+03  0.17941163427E+03  0.13289010664E+04  0.10198496829E+04 0.  0.
        -13    1    3    3    0    0 -0.35302374631E+03  0.29187356777E+03  0.58075573563E+03  0.73965747523E+03  0.10566000000E+00 0.  1.
         13    1    1    2    0    0 -0.98414807766E+02 -0.13552992916E+03  0.24451602640E+03  0.29638140026E+03  0.10566000000E+00 0. -1.
          2    1    1    2  501    0  0.88271246947E+03 -0.14477938557E+03 -0.10703233539E+03  0.90088750411E+03  0.00000000000E+00 0.  1.
          4    1    3    3  502    0 -0.43127391540E+03 -0.11564253043E+02 -0.40134410136E+03  0.58924359118E+03  0.00000000000E+00 0.  1.
</event>
<event>
 7    1  0.5696597E-006  0.1747108E+04  0.7818608E-02  0.8765175E-01
          4   -1    0    0  501    0 -0.00000000000E+00  0.00000000000E+00  0.22414462079E+04  0.22414462079E+04  0.00000000000E+00 0.  1.
          2   -1    0    0  502    0  0.00000000000E+00 -0.00000000000E+00 -0.20230649114E+04  0.20230649114E+04  0.00000000000E+00 0.  1.
    9000010    2    1    2  502    0 -0.74386386120E+03  0.10646497433E+04  0.10620782052E+04  0.19559818520E+04  0.10055060276E+04 0.  0.
        -13    1    3    3    0    0  0.25118723610E+03  0.16627522870E+03  0.21695919783E+03  0.37123278943E+03  0.10566000000E+00 0.  1.
         13    1    1    2    0    0  0.75563368337E+01  0.19504895199E+03  0.36493449887E+03  0.41385793641E+03  0.10566000000E+00 0. -1.
          2    1    1    2  501    0  0.73630752436E+03 -0.12596986952E+04 -0.12086314075E+04  0.18946713310E+04  0.00000000000E+00 0.  1.
          4    1    3    3  502    0 -0.99505109730E+03  0.89837451456E+03  0.84511900734E+03  0.15847490625E+04  0.00000000000E+00 0.  1.
</event>
<event>
 7    1  0.5696597E-006  0.1021181E+04  0.7818608E-02  0.9123110E-01
          4   -1    0    0  501    0 -0.00000000000E+00  0.00000000000E+00  0.14332812544E+04  0.14332812544E+04  0.00000000000E+00 0.  1.
          2   -1    0    0  502    0  0.00000000000E+00 -0.00000000000E+00 -0.22111883821E+04  0.22111883821E+04  0.00000000000E+00 0. -1.
    9000010    2    1    2  502    0 -0.20563507302E+03  0.10733333803E+03  0.12091640871E+04  0.15836387215E+04  0.99600581425E+03 0.  0.
        -13    1    3    3    0    0  0.34836494603E+03  0.70758124433E+02  0.14611584013E+03  0.38433669835E+03  0.10566000000E+00 0.  1.
         13    1    1    2    0    0  0.18188152018E+03 -0.11412822345E+03 -0.27651013724E+03  0.35009142510E+03  0.10566000000E+00 0. -1.
          2    1    1    2  501    0  0.23753552835E+02  0.67948854221E+01 -0.17105610777E+04  0.17107394899E+04  0.00000000000E+00 0. -1.
          4    1    3    3  502    0 -0.55400001905E+03  0.36575213594E+02  0.10630482470E+04  0.11993020232E+04  0.00000000000E+00 0.  1.
</event>
<event>
 7    1  0.5696597E-006  0.1474285E+04  0.7818608E-02  0.8623505E-01
          4   -1    0    0  501    0 -0.00000000000E+00  0.00000000000E+00  0.16636369355E+04  0.16636369355E+04  0.00000000000E+00 0.  1.
          2   -1    0    0  502    0  0.00000000000E+00 -0.00000000000E+00 -0.25220707115E+04  0.25220707115E+04  0.00000000000E+00 0.  1.
    9000010    2    1    2  502    0 -0.71551553558E+02  0.91581838464E+03 -0.12627502490E+04  0.18511582156E+04  0.99418590291E+03 0.  0.
        -13    1    3    3    0    0 -0.50504240260E+03  0.67299605916E+03 -0.65600032932E+03  0.10669245368E+04  0.10566000000E+00 0.  1.
         13    1    1    2    0    0 -0.31042528572E+03  0.51397700876E+03  0.59145399837E+03  0.84282505119E+03  0.10566000000E+00 0. -1.
          2    1    1    2  501    0  0.38197683928E+03 -0.14297953934E+04 -0.18713752535E+03  0.14917243801E+04  0.00000000000E+00 0.  1.
          4    1    3    3  502    0  0.43349084904E+03  0.24282232549E+03 -0.60674991968E+03  0.78423367882E+03  0.00000000000E+00 0.  1.
</event>
<event>
 7    1  0.5696597E-006  0.1217182E+04  0.7818608E-02  0.8729444E-01
          2   -1    0    0  502    0  0.00000000000E+00  0.00000000000E+00  0.16100531287E+04  0.16100531287E+04  0.00000000000E+00 0.  1.
          4   -1    0    0  501    0 -0.00000000000E+00 -0.00000000000E+00 -0.25617377335E+04  0.25617377335E+04  0.00000000000E+00 0.  1.
    9000010    2    1    2  502    0  0.31482966375E+03 -0.10908694520E+03 -0.32843436837E+03  0.10995091527E+04  0.99500430341E+03 0.  0.
        -13    1    3    3    0    0  0.41975680307E+03 -0.49375816566E+03 -0.24010553799E+03  0.69111763139E+03  0.10566000000E+00 0.  1.
         13    1    1    2    0    0  0.32282313120E+03  0.59018029949E+03 -0.16439033064E+04  0.17762166681E+04  0.10566000000E+00 0. -1.
          2    1    1    2  501    0 -0.63765279495E+03 -0.48109335429E+03  0.10206530699E+04  0.12960650414E+04  0.00000000000E+00 0.  1.
          4    1    3    3  502    0 -0.10492713932E+03  0.38467122046E+03 -0.88328830380E+02  0.40839152133E+03  0.00000000000E+00 0.  1.
</event>
<event>
 7    1  0.5696597E-006  0.1198311E+04  0.7818608E-02  0.8931016E-01
          2   -1    0    0  502    0  0.00000000000E+00  0.00000000000E+00  0.35235964059E+04  0.35235964059E+04  0.00000000000E+00 0.  1.
          4   -1    0    0  501    0 -0.00000000000E+00 -0.00000000000E+00 -0.31743794629E+03  0.31743794629E+03  0.00000000000E+00 0.  1.
    9000010    2    1    2  502    0  0.28625941163E+03  0.11436581554E+03  0.20068949332E+04  0.23382414148E+04  0.11596213392E+04 0.  0.
        -13    1    3    3    0    0 -0.28783424637E+03 -0.20877540476E+03  0.18485066096E+03  0.40075616157E+03  0.10566000000E+00 0.  1.
         13    1    1    2    0    0 -0.27241872635E+03 -0.12953648498E+03 -0.17007930624E+01  0.30165305778E+03  0.10566000000E+00 0. -1.
          2    1    1    2  501    0 -0.13840685283E+02  0.15170669443E+02  0.12009643195E+04  0.12011398797E+04  0.00000000000E+00 0.  1.
          4    1    3    3  502    0  0.57409365800E+03  0.32314122030E+03  0.18220442723E+04  0.19374852532E+04  0.00000000000E+00 0.  1.
</event>
<event>
 7    1  0.5696597E-006  0.8609580E+03  0.7818608E-02  0.9269749E-01
          2   -1    0    0  501    0  0.00000000000E+00  0.00000000000E+00  0.63384778129E+03  0.63384778129E+03  0.00000000000E+00 0.  1.
         -4   -1    0    0    0  501 -0.00000000000E+00 -0.00000000000E+00 -0.15219096967E+04  0.15219096967E+04  0.00000000000E+00 0. -1.
   -9000010    2    1    2    0  502 -0.18750872974E+02 -0.21258764535E+03 -0.12553457542E+04  0.15222790031E+04  0.83420339170E+03 0.  0.
        -13    1    1    2    0    0  0.30097934312E+02  0.21065814913E+03 -0.47910847730E+02  0.21812428095E+03  0.10566000000E+00 0.  1.
         13    1    3    3    0    0  0.36588694593E+03  0.61529485508E+02 -0.40278132281E+03  0.54762390375E+03  0.10566000000E+00 0. -1.
          2    1    1    2  502    0 -0.11347061338E+02  0.19294962217E+01  0.41519468645E+03  0.41535419393E+03  0.00000000000E+00 0.  1.
         -4    1    3    3    0  502 -0.38463781891E+03 -0.27411713086E+03 -0.85256443135E+03  0.97465509939E+03  0.00000000000E+00 0. -1.
</event>
<event>
 7    1  0.5696597E-006  0.9605179E+03  0.7818608E-02  0.9225379E-01
         -2   -1    0    0    0  501  0.00000000000E+00  0.00000000000E+00  0.11494186375E+04  0.11494186375E+04  0.00000000000E+00 0. -1.
         -4   -1    0    0    0  502 -0.00000000000E+00 -0.00000000000E+00 -0.11570065933E+04  0.11570065933E+04  0.00000000000E+00 0. -1.
   -9000010    2    1    2    0  501 -0.48822348210E+01 -0.14204815841E+03 -0.60509795849E+03  0.11295509200E+04  0.94315440204E+03 0.  0.
        -13    1    1    2    0    0  0.55437421564E+02  0.17851331800E+03 -0.25827609842E+03  0.31882105733E+03  0.10566000000E+00 0.  1.
         13    1    3    3    0    0 -0.21770455684E+03 -0.44363389809E+03 -0.57651947421E+03  0.75932932573E+03  0.10566000000E+00 0. -1.
         -2    1    1    2    0  502 -0.50555186743E+02 -0.36465159597E+02  0.85578610111E+03  0.85805325337E+03  0.00000000000E+00 0. -1.
         -4    1    3    3    0  501  0.21282232202E+03  0.30158573968E+03 -0.28578484274E+02  0.37022159431E+03  0.00000000000E+00 0. -1.
</event>
<event>
 7    1  0.5696597E-006  0.2605225E+04  0.7818608E-02  0.7974030E-01
         -4   -1    0    0    0  501 -0.00000000000E+00  0.00000000000E+00  0.20608931882E+04  0.20608931882E+04  0.00000000000E+00 0. -1.
          2   -1    0    0  501    0  0.00000000000E+00 -0.00000000000E+00 -0.41009767077E+04  0.41009767077E+04  0.00000000000E+00 0.  1.
   -9000010    2    1    2    0  502  0.16216035114E+04 -0.17535708698E+04 -0.16265687840E+04  0.30571429113E+04  0.99789179144E+03 0.  0.
        -13    1    1    2    0    0 -0.16419157214E+04  0.17708507276E+04  0.26164155162E+03  0.24290442252E+04  0.10566000000E+00 0.  1.
         13    1    3    3    0    0  0.78439945495E+03 -0.25047822413E+03 -0.27134877748E+03  0.86697867095E+03  0.10566000000E+00 0. -1.
          2    1    1    2  502    0  0.20312209975E+02 -0.17279857796E+02 -0.67515628714E+03  0.67568275945E+03  0.00000000000E+00 0.  1.
         -4    1    3    3    0  502  0.83720405644E+03 -0.15030926456E+04 -0.13552200065E+04  0.21901642403E+04  0.00000000000E+00 0. -1.
</event>
<event>
 7    1  0.5696597E-006  0.9408163E+03  0.7818608E-02  0.9225439E-01
          2   -1    0    0  501    0  0.00000000000E+00  0.00000000000E+00  0.36720431028E+04  0.36720431028E+04  0.00000000000E+00 0. -1.
         -4   -1    0    0    0  501 -0.00000000000E+00 -0.00000000000E+00 -0.19362462010E+03  0.19362462010E+03  0.00000000000E+00 0. -1.
   -9000010    2    1    2    0  502 -0.88237230264E+02  0.13981324033E+03  0.14763160777E+04  0.17477310979E+04  0.92071780613E+03 0.  0.
        -13    1    1    2    0    0  0.84510235354E+02 -0.17734342804E+03  0.10939869578E+03  0.22485719279E+03  0.10566000000E+00 0.  1.
         13    1    3    3    0    0 -0.52582396811E+02  0.40419490833E+03  0.21956330800E+03  0.46297569024E+03  0.10566000000E+00 0. -1.
          2    1    1    2  502    0  0.37269949105E+01  0.37530187710E+02  0.18927037093E+04  0.18930794322E+04  0.00000000000E+00 0. -1.
         -4    1    3    3    0  502 -0.35654833454E+02 -0.26438166800E+03  0.12567527697E+04  0.12847554077E+04  0.00000000000E+00 0. -1.
</event>
<event>
 7    1  0.5696597E-006  0.1016250E+04  0.7818608E-02  0.9368321E-01
         -4   -1    0    0    0  501 -0.00000000000E+00  0.00000000000E+00  0.13705650356E+04  0.13705650356E+04  0.00000000000E+00 0. -1.
          2   -1    0    0  501    0  0.00000000000E+00 -0.00000000000E+00 -0.60513017214E+03  0.60513017214E+03  0.00000000000E+00 0. -1.
   -9000010    2    1    2    0  502  0.92465881581E+02  0.41770893591E+02  0.74642557831E+03  0.12618406648E+04  0.10123220696E+04 0.  0.
        -13    1    1    2    0    0 -0.84399337094E+02 -0.28306933605E+02  0.36084262631E+03  0.37166105892E+03  0.10566000000E+00 0.  1.
         13    1    3    3    0    0  0.11382139232E+03  0.50703491290E+03  0.54910295378E+03  0.75601175735E+03  0.10566000000E+00 0. -1.
          2    1    1    2  502    0 -0.80665444866E+01 -0.13463959986E+02 -0.34183334115E+03  0.34219348399E+03  0.00000000000E+00 0. -1.
         -4    1    3    3    0  502 -0.21355510738E+02 -0.46526401930E+03  0.19732262454E+03  0.50582890749E+03  0.00000000000E+00 0. -1.
</event>
<event>
 7    1  0.5696597E-006  0.1027057E+04  0.7818608E-02  0.9100586E-01
          4   -1    0    0  501    0 -0.00000000000E+00  0.00000000000E+00  0.27519523013E+04  0.27519523013E+04  0.00000000000E+00 0.  1.
          2   -1    0    0  502    0  0.00000000000E+00 -0.00000000000E+00 -0.24770270631E+03  0.24770270631E+03  0.00000000000E+00 0.  1.
    9000010    2    1    2  502    0  0.18617081553E+03 -0.13594070894E+03  0.19656911788E+04  0.22165991998E+04  0.99811359741E+03 0.  0.
        -13    1    3    3    0    0  0.45701370239E+03 -0.96497946778E+02  0.36530238211E+03  0.59297488939E+03  0.10566000000E+00 0.  1.
         13    1    1    2    0    0 -0.24518679149E+03  0.40434902862E+02  0.60398951147E+03  0.65311169429E+03  0.10566000000E+00 0. -1.
          2    1    1    2  501    0  0.59015975958E+02  0.95505806080E+02 -0.65431095258E+02  0.12994411353E+03  0.00000000000E+00 0.  1.
          4    1    3    3  502    0 -0.27084288686E+03 -0.39442762164E+02  0.16003887967E+04  0.16236243104E+04  0.00000000000E+00 0.  1.
</event>
<event>
 7    1  0.5696597E-006  0.1282302E+04  0.7818608E-02  0.9048612E-01
         -4   -1    0    0    0  501 -0.00000000000E+00  0.00000000000E+00  0.27914646930E+04  0.27914646930E+04  0.00000000000E+00 0. -1.
          1   -1    0    0  501    0  0.00000000000E+00 -0.00000000000E+00 -0.96368681399E+03  0.96368681399E+03  0.00000000000E+00 0.  1.
   -9000010    2    1    2    0  502 -0.56870345112E+02 -0.12921119685E+03  0.17030569901E+04  0.21310154874E+04  0.12731434037E+04 0.  0.
        -13    1    1    2    0    0  0.57566090787E+02  0.14214750244E+03  0.86764721857E+03  0.88109674515E+03  0.10566000000E+00 0.  1.
         13    1    3    3    0    0  0.50961912859E+03  0.21403148079E+03  0.11183779609E+04  0.12475136896E+04  0.10566000000E+00 0. -1.
          1    1    1    2  502    0 -0.69574567496E+00 -0.12936305587E+02 -0.74292632967E+03  0.74303927446E+03  0.00000000000E+00 0.  1.
         -4    1    3    3    0  502 -0.56648947370E+03 -0.34324267764E+03  0.58467902917E+03  0.88350179780E+03  0.00000000000E+00 0. -1.
</event>
<event>
 7    1  0.5696597E-006  0.1000791E+04  0.7818608E-02  0.9159603E-01
         -4   -1    0    0    0  501 -0.00000000000E+00  0.00000000000E+00  0.11933203855E+04  0.11933203855E+04  0.00000000000E+00 0. -1.
          2   -1    0    0  501    0  0.00000000000E+00 -0.00000000000E+00 -0.17072170731E+04  0.17072170731E+04  0.00000000000E+00 0. -1.
   -9000010    2    1    2    0  502 -0.14488615996E+03  0.40615181452E+02  0.15483813902E+03  0.99185479456E+03  0.96806998295E+03 0.  0.
        -13    1    1    2    0    0 -0.58070329856E+02 -0.19917507501E+03  0.58919651921E+03  0.62465624397E+03  0.10566000000E+00 0.  1.
         13    1    3    3    0    0  0.17311940345E+03 -0.28706009337E+03  0.35943623013E+03  0.49149592038E+03  0.10566000000E+00 0. -1.
          2    1    1    2  502    0  0.20295648981E+03  0.15855989356E+03 -0.12579313458E+04  0.12840264200E+04  0.00000000000E+00 0. -1.
         -4    1    3    3    0  502 -0.31800556341E+03  0.32767527483E+03 -0.20459809110E+03  0.50035887418E+03  0.00000000000E+00 0. -1.
</event>
<event>
 7    1  0.5696597E-006  0.1157756E+04  0.7818608E-02  0.8776214E-01
          1   -1    0    0  501    0  0.00000000000E+00  0.00000000000E+00  0.11301125931E+04  0.11301125931E+04  0.00000000000E+00 0.  1.
         -4   -1    0    0    0  501 -0.00000000000E+00 -0.00000000000E+00 -0.10221104674E+04  0.10221104674E+04  0.00000000000E+00 0. -1.
   -9000010    2    1    2    0  502  0.56415583568E+03  0.33030572944E+03 -0.35309067794E+03  0.12177439353E+04  0.96480753690E+03 0.  0.
        -13    1    1    2    0    0 -0.52289629340E+03 -0.34616158842E+03  0.18350339915E+03  0.65339259838E+03  0.10566000000E+00 0.  1.
         13    1    3    3    0    0 -0.20143328911E+03 -0.15751019162E+03 -0.48890258332E+02  0.26033651098E+03  0.10566000000E+00 0. -1.
          1    1    1    2  502    0 -0.41259542276E+02  0.15855858982E+02  0.27758940445E+03  0.28108652681E+03  0.00000000000E+00 0.  1.
         -4    1    3    3    0  502  0.76558912479E+03  0.48781592106E+03 -0.30420041961E+03  0.95740742431E+03  0.00000000000E+00 0. -1.
</event>
<event>
 7    1  0.5696597E-006  0.1065180E+04  0.7818608E-02  0.8968123E-01
          2   -1    0    0  501    0  0.00000000000E+00  0.00000000000E+00  0.35087552031E+04  0.35087552031E+04  0.00000000000E+00 0. -1.
         -4   -1    0    0    0  501 -0.00000000000E+00 -0.00000000000E+00 -0.21080253502E+03  0.21080253502E+03  0.00000000000E+00 0. -1.
   -9000010    2    1    2    0  502  0.33545793647E+03 -0.16724851040E+02  0.29706833877E+04  0.31521264296E+04  0.99906430736E+03 0.  0.
        -13    1    1    2    0    0 -0.36454133866E+03  0.80476052930E+02  0.20344434458E+03  0.42515455448E+03  0.10566000000E+00 0.  1.
         13    1    3    3    0    0  0.52570660799E+03  0.33018698297E+03  0.21986745151E+04  0.22846357513E+04  0.10566000000E+00 0. -1.
          2    1    1    2  502    0  0.29083402192E+02 -0.63751201890E+02  0.12382493580E+03  0.14227675408E+03  0.00000000000E+00 0. -1.
         -4    1    3    3    0  502 -0.19024867152E+03 -0.34691183401E+03  0.77200887264E+03  0.86749067835E+03  0.00000000000E+00 0. -1.
</event>
<event>
 7    1  0.5696597E-006  0.9688778E+03  0.7818608E-02  0.9180338E-01
          2   -1    0    0  501    0  0.00000000000E+00  0.00000000000E+00  0.18437627253E+04  0.18437627253E+04  0.00000000000E+00 0. -1.
         -4   -1    0    0    0  501 -0.00000000000E+00 -0.00000000000E+00 -0.12856928684E+04  0.12856928684E+04  0.00000000000E+00 0. -1.
   -9000010    2    1    2    0  502  0.13529933528E+03  0.16208037230E+03 -0.10372064182E+04  0.14193737688E+04  0.94564728335E+03 0.  0.
        -13    1    1    2    0    0 -0.15240158316E+03 -0.14635284720E+03  0.13744311115E+03  0.25206352056E+03  0.10566000000E+00 0.  1.
         13    1    3    3    0    0  0.32911245916E+03 -0.31116563890E+03 -0.41842482441E+03  0.61661852912E+03  0.10566000000E+00 0. -1.
          2    1    1    2  502    0  0.17102247875E+02 -0.15727525098E+02  0.14578331639E+04  0.14580183043E+04  0.00000000000E+00 0. -1.
         -4    1    3    3    0  502 -0.19381312388E+03  0.47324601120E+03 -0.61878159377E+03  0.80275523971E+03  0.00000000000E+00 0. -1.
</event>
<event>
 7    1  0.5696597E-006  0.1064756E+04  0.7818608E-02  0.9201204E-01
          2   -1    0    0  502    0  0.00000000000E+00  0.00000000000E+00  0.96286169478E+03  0.96286169478E+03  0.00000000000E+00 0.  1.
          4   -1    0    0  501    0 -0.00000000000E+00 -0.00000000000E+00 -0.22381974610E+04  0.22381974610E+04  0.00000000000E+00 0.  1.
    9000010    2    1    2  502    0  0.16293039960E+03 -0.14126180380E+03 -0.17302218194E+04  0.20377443960E+04  0.10546247992E+04 0.  0.
        -13    1    3    3    0    0  0.59025821121E+03  0.65906273162E+02 -0.10803812391E+04  0.12328714555E+04  0.10566000000E+00 0.  1.
         13    1    1    2    0    0 -0.13918286719E+03  0.29487947453E+02 -0.33565268376E+03  0.36456020744E+03  0.10566000000E+00 0. -1.
          2    1    1    2  501    0 -0.23747532401E+02  0.11177385635E+03  0.79053873692E+03  0.79875455230E+03  0.00000000000E+00 0.  1.
          4    1    3    3  502    0 -0.42732781161E+03 -0.20716807696E+03 -0.64984058023E+03  0.80487294053E+03  0.00000000000E+00 0.  1.
</event>
<event>
 7    1  0.5696597E-006  0.1034761E+04  0.7818608E-02  0.9083439E-01
          2   -1    0    0  502    0  0.00000000000E+00  0.00000000000E+00  0.15204200894E+04  0.15204200894E+04  0.00000000000E+00 0.  1.
          4   -1    0    0  501    0 -0.00000000000E+00 -0.00000000000E+00 -0.17487430388E+04  0.17487430388E+04  0.00000000000E+00 0.  1.
    9000010    2    1    2  502    0 -0.14489197394E+03  0.22635514139E+03 -0.12479645810E+04  0.16236276003E+04  0.10032550299E+04 0.  0.
        -13    1    3    3    0    0 -0.20557565490E+03 -0.70099857291E+02 -0.12987559048E+04  0.13167924101E+04  0.10566000000E+00 0.  1.
         13    1    1    2    0    0  0.16748279053E+03 -0.18568430021E+03 -0.26250573328E+03  0.36254436368E+03  0.10566000000E+00 0. -1.
          2    1    1    2  501    0 -0.22590816587E+02 -0.40670841174E+02  0.12821473648E+04  0.12829911642E+04  0.00000000000E+00 0.  1.
          4    1    3    3  502    0  0.60683680954E+02  0.29645499868E+03  0.50791323856E+02  0.30683519022E+03  0.00000000000E+00 0.  1.
</event>
<event>
 7    1  0.5696597E-006  0.1127954E+04  0.7818608E-02  0.8962288E-01
          2   -1    0    0  501    0  0.00000000000E+00  0.00000000000E+00  0.66555868360E+03  0.66555868360E+03  0.00000000000E+00 0. -1.
         -4   -1    0    0    0  501 -0.00000000000E+00 -0.00000000000E+00 -0.12509214068E+04  0.12509214068E+04  0.00000000000E+00 0. -1.
   -9000010    2    1    2    0  502 -0.67031123187E+02  0.30493079112E+03  0.10750308494E+03  0.11312812117E+04  0.10820186263E+04 0.  0.
        -13    1    1    2    0    0  0.60707178905E+02 -0.31314700590E+03 -0.70219683797E+03  0.77125016648E+03  0.10566000000E+00 0.  1.
         13    1    3    3    0    0 -0.27877498519E+03 -0.88690164616E+02  0.47148227008E+03  0.55486663247E+03  0.10566000000E+00 0. -1.
          2    1    1    2  502    0  0.63239442818E+01  0.82162147782E+01  0.93310298156E+01  0.13948712270E+02  0.00000000000E+00 0. -1.
         -4    1    3    3    0  502  0.21174386200E+03  0.39362095574E+03 -0.36397918513E+03  0.57641457919E+03  0.00000000000E+00 0. -1.
</event>
<event>
 7    1  0.5696597E-006  0.1035148E+04  0.7818608E-02  0.9085509E-01
          4   -1    0    0  501    0 -0.00000000000E+00  0.00000000000E+00  0.48856575626E+03  0.48856575626E+03  0.00000000000E+00 0.  1.
          2   -1    0    0  502    0  0.00000000000E+00 -0.00000000000E+00 -0.13149992527E+04  0.13149992527E+04  0.00000000000E+00 0.  1.
    9000010    2    1    2  502    0 -0.24068479586E+03  0.10432083141E+03 -0.54978694200E+03  0.11745584195E+04  0.10042458825E+04 0.  0.
        -13    1    3    3    0    0  0.14098022361E+03 -0.26904741344E+03  0.11245059526E+03  0.32389362708E+03  0.10566000000E+00 0.  1.
         13    1    1    2    0    0  0.23781236156E+03 -0.77066557605E+02  0.86724384598E+02  0.26460367280E+03  0.10566000000E+00 0. -1.
          2    1    1    2  501    0  0.28724343025E+01 -0.27254273803E+02 -0.36337093900E+03  0.36440291660E+03  0.00000000000E+00 0.  1.
          4    1    3    3  502    0 -0.38166501947E+03  0.37336824485E+03 -0.66223753725E+03  0.85066479244E+03  0.00000000000E+00 0.  1.
</event>
<event>
 7    1  0.5696597E-006  0.1407469E+04  0.7818608E-02  0.8953890E-01
          2   -1    0    0  501    0  0.00000000000E+00  0.00000000000E+00  0.33669976732E+04  0.33669976732E+04  0.00000000000E+00 0.  1.
         -4   -1    0    0    0  501 -0.00000000000E+00 -0.00000000000E+00 -0.18024092271E+04  0.18024092271E+04  0.00000000000E+00 0. -1.
   -9000010    2    1    2    0  502 -0.17282582815E+03  0.82317948955E+03 -0.10991986603E+04  0.17041694002E+04  0.99421446928E+03 0.  0.
        -13    1    1    2    0    0 -0.78782074890E+02  0.15032308668E+03 -0.29496240353E+03  0.34030350626E+03  0.10566000000E+00 0.  1.
         13    1    3    3    0    0 -0.41283811678E+03  0.34866833959E+02 -0.63549360451E+03  0.75861923210E+03  0.10566000000E+00 0. -1.
          2    1    1    2  502    0  0.25160790304E+03 -0.97350257624E+03  0.29587495100E+04  0.31249339938E+04  0.00000000000E+00 0.  1.
         -4    1    3    3    0  502  0.24001228863E+03  0.78831265559E+03 -0.46370505583E+03  0.94555016814E+03  0.00000000000E+00 0. -1.
</event>
<event>
 7    1  0.5696597E-006  0.1322257E+04  0.7818608E-02  0.8711428E-01
          4   -1    0    0  501    0 -0.00000000000E+00  0.00000000000E+00  0.19734770977E+04  0.19734770977E+04  0.00000000000E+00 0.  1.
          2   -1    0    0  502    0  0.00000000000E+00 -0.00000000000E+00 -0.32864692479E+04  0.32864692479E+04  0.00000000000E+00 0.  1.
    9000010    2    1    2  502    0  0.14218271372E+03 -0.11544481273E+04  0.14338584503E+04  0.21007477145E+04  0.10021100248E+04 0.  0.
        -13    1    3    3    0    0 -0.34171272484E+03 -0.28450541847E+03  0.13579113222E+03  0.46491952230E+03  0.10566000000E+00 0.  1.
         13    1    1    2    0    0 -0.44284825241E+03  0.35423200014E+03 -0.50298666216E+03  0.75801746554E+03  0.10566000000E+00 0. -1.
          2    1    1    2  501    0  0.30066553869E+03  0.80021612713E+03 -0.22438639384E+04  0.24011811656E+04  0.00000000000E+00 0.  1.
          4    1    3    3  502    0  0.48389543856E+03 -0.86994270880E+03  0.12980673181E+04  0.16358281922E+04  0.00000000000E+00 0.  1.
</event>
<event>
 7    1  0.5696597E-006  0.1114719E+04  0.7818608E-02  0.8861893E-01
         -4   -1    0    0    0  501 -0.00000000000E+00  0.00000000000E+00  0.30267417871E+04  0.30267417871E+04  0.00000000000E+00 0. -1.
          2   -1    0    0  501    0  0.00000000000E+00 -0.00000000000E+00 -0.35689326570E+03  0.35689326570E+03  0.00000000000E+00 0.  1.
   -9000010    2    1    2    0  502  0.40791895517E+03  0.26229015157E+03  0.15466026524E+04  0.19026687326E+04  0.99648108046E+03 0.  0.
        -13    1    1    2    0    0 -0.40792114738E+03 -0.29566816596E+03  0.12511516443E+04  0.13487771406E+04  0.10566000000E+00 0.  1.
         13    1    3    3    0    0  0.26274454493E+03  0.51363853998E+03  0.35766045537E+03  0.67880796853E+03  0.10566000000E+00 0. -1.
          2    1    1    2  502    0  0.21922064982E-02  0.33378014395E+02 -0.12790577533E+03  0.13218917964E+03  0.00000000000E+00 0.  1.
         -4    1    3    3    0  502  0.14517441024E+03 -0.25134838841E+03  0.11889421971E+04  0.12238607640E+04  0.00000000000E+00 0. -1.
</event>
<event>
 7    1  0.5696597E-006  0.1092669E+04  0.7818608E-02  0.8944759E-01
         -4   -1    0    0    0  501 -0.00000000000E+00  0.00000000000E+00  0.23456677750E+04  0.23456677750E+04  0.00000000000E+00 0. -1.
          2   -1    0    0  501    0  0.00000000000E+00 -0.00000000000E+00 -0.14773010422E+04  0.14773010422E+04  0.00000000000E+00 0.  1.
   -9000010    2    1    2    0  502  0.59914727377E+03 -0.23105291323E+02  0.72621260080E+03  0.13924945506E+04  0.10257412060E+04 0.  0.
        -13    1    1    2    0    0 -0.33544082026E+03 -0.13848896448E+03  0.12388980989E+04  0.12909563307E+04  0.10566000000E+00 0.  1.
         13    1    3    3    0    0 -0.18141839645E+03  0.29351948605E+03  0.18901613916E+03  0.39343796880E+03  0.10566000000E+00 0. -1.
          2    1    1    2  502    0 -0.26370645351E+03  0.16159425581E+03 -0.10967439669E+04  0.11395179359E+04  0.00000000000E+00 0.  1.
         -4    1    3    3    0  502  0.78056567023E+03 -0.31662477738E+03  0.53719646164E+03  0.99905658177E+03  0.00000000000E+00 0. -1.
</event>
<event>
 7    1  0.5696597E-006  0.9967566E+03  0.7818608E-02  0.9290665E-01
          4   -1    0    0  501    0 -0.00000000000E+00  0.00000000000E+00  0.53483602771E+03  0.53483602771E+03  0.00000000000E+00 0.  1.
          2   -1    0    0  502    0  0.00000000000E+00 -0.00000000000E+00 -0.10270783319E+04  0.10270783319E+04  0.00000000000E+00 0.  1.
    9000010    2    1    2  502    0 -0.96948842974E+02  0.89699345293E+02 -0.30981006390E+03  0.10444561000E+04  0.98866638380E+03 0.  0.
        -13    1    3    3    0    0  0.25453547989E+03  0.25039196728E+03  0.19646103193E+03  0.40753085286E+03  0.10566000000E+00 0.  1.
         13    1    1    2    0    0  0.10814530888E+03 -0.65891676507E+02  0.14297184569E+03  0.19099235767E+03  0.10566000000E+00 0. -1.
          2    1    1    2  501    0 -0.11196465902E+02 -0.23807668786E+02 -0.32540408603E+03  0.32646590196E+03  0.00000000000E+00 0.  1.
          4    1    3    3  502    0 -0.35148432287E+03 -0.16069262199E+03 -0.50627109584E+03  0.63692524715E+03  0.00000000000E+00 0.  1.
</event>
<event>
 7    1  0.5696597E-006  0.9399312E+03  0.7818608E-02  0.9210169E-01
         -4   -1    0    0    0  501 -0.00000000000E+00  0.00000000000E+00  0.21335941024E+04  0.21335941024E+04  0.00000000000E+00 0. -1.
          1   -1    0    0  501    0  0.00000000000E+00 -0.00000000000E+00 -0.95455249530E+03  0.95455249530E+03  0.00000000000E+00 0.  1.
   -9000010    2    1    2    0  502 -0.57432532794E+02 -0.26472612579E+03  0.14367023068E+04  0.17258709289E+04  0.91713604633E+03 0.  0.
        -13    1    1    2    0    0  0.51911251178E+02  0.19084988040E+03  0.53281301971E+03  0.56833808599E+03  0.10566000000E+00 0.  1.
         13    1    3    3    0    0  0.21956331367E+03 -0.41393356865E+03  0.13017734425E+04  0.13835328528E+04  0.10566000000E+00 0. -1.
          1    1    1    2  502    0  0.55212816156E+01  0.73876245395E+02 -0.79047371944E+03  0.79393758275E+03  0.00000000000E+00 0.  1.
         -4    1    3    3    0  502 -0.27699584647E+03  0.14920744286E+03  0.13492886430E+03  0.34233807616E+03  0.00000000000E+00 0. -1.
</event>
<event>
 7    1  0.5696597E-006  0.1022757E+04  0.7818608E-02  0.8945831E-01
          1   -1    0    0  501    0  0.00000000000E+00  0.00000000000E+00  0.97648256350E+03  0.97648256350E+03  0.00000000000E+00 0. -1.
         -4   -1    0    0    0  501 -0.00000000000E+00 -0.00000000000E+00 -0.38464679193E+04  0.38464679193E+04  0.00000000000E+00 0. -1.
   -9000010    2    1    2    0  502 -0.38272751809E+03 -0.24015763940E+03 -0.31796099615E+04  0.33393311598E+04  0.91490821571E+03 0.  0.
        -13    1    1    2    0    0  0.39954484319E+03  0.23457146354E+03 -0.49546182788E+03  0.67833788577E+03  0.10566000000E+00 0.  1.
         13    1    3    3    0    0 -0.56159688148E+03 -0.23876776635E+03 -0.30688610349E+04  0.31289469740E+04  0.10566000000E+00 0. -1.
          1    1    1    2  502    0 -0.16817325097E+02  0.55861758644E+01  0.80508643349E+03  0.80528143725E+03  0.00000000000E+00 0. -1.
         -4    1    3    3    0  502  0.17886936339E+03 -0.13898730537E+01 -0.11074892656E+03  0.21038418581E+03  0.00000000000E+00 0. -1.
</event>
<event>
 7    1  0.5696597E-006  0.1060864E+04  0.7818608E-02  0.8988808E-01
          2   -1    0    0  502    0  0.00000000000E+00  0.00000000000E+00  0.20311112262E+04  0.20311112262E+04  0.00000000000E+00 0.  1.
          4   -1    0    0  501    0 -0.00000000000E+00 -0.00000000000E+00 -0.21962456777E+04  0.21962456777E+04  0.00000000000E+00 0.  1.
    9000010    2    1    2  502    0 -0.36619024285E+03 -0.40133209552E+02 -0.11620863946E+04  0.15790472262E+04  0.10036131653E+04 0.  0.
        -13    1    3    3    0    0  0.25579875000E+02  0.44102127440E+03 -0.39658720095E+03  0.59366279452E+03  0.10566000000E+00 0.  1.
         13    1    1    2    0    0  0.33559152212E+03  0.52844273466E+02 -0.79057359375E+03  0.86047708003E+03  0.10566000000E+00 0. -1.
          2    1    1    2  501    0  0.30598720736E+02 -0.12711063915E+02  0.17875255368E+04  0.17878325978E+04  0.00000000000E+00 0.  1.
          4    1    3    3  502    0 -0.39177011785E+03 -0.48115448395E+03 -0.76549919363E+03  0.98538443164E+03  0.00000000000E+00 0.  1.
</event>
<event>
 7    1  0.5696597E-006  0.1216337E+04  0.7818608E-02  0.8704881E-01
          4   -1    0    0  501    0 -0.00000000000E+00  0.00000000000E+00  0.30133289110E+04  0.30133289110E+04  0.00000000000E+00 0.  1.
          2   -1    0    0  502    0  0.00000000000E+00 -0.00000000000E+00 -0.12023643761E+04  0.12023643761E+04  0.00000000000E+00 0.  1.
    9000010    2    1    2  502    0  0.75564542503E+03  0.53579761777E+02  0.10152855228E+04  0.15882421889E+04  0.95803849529E+03 0.  0.
        -13    1    3    3    0    0  0.41717303342E+03 -0.42706781369E+03  0.70396310343E+03  0.92302996672E+03  0.10566000000E+00 0.  1.
         13    1    1    2    0    0 -0.74636533810E+03 -0.34548287282E+02  0.16298827508E+04  0.17929786933E+04  0.10566000000E+00 0. -1.
          2    1    1    2  501    0 -0.92800869239E+01 -0.19031474495E+02 -0.83420373869E+03  0.83447240499E+03  0.00000000000E+00 0.  1.
          4    1    3    3  502    0  0.33847239161E+03  0.48064757547E+03  0.31132241935E+03  0.66521222213E+03  0.00000000000E+00 0.  1.
</event>
<event>
 7    1  0.5696597E-006  0.1072763E+04  0.7818608E-02  0.9047436E-01
          2   -1    0    0  501    0  0.00000000000E+00  0.00000000000E+00  0.86896064582E+03  0.86896064582E+03  0.00000000000E+00 0. -1.
         -4   -1    0    0    0  501 -0.00000000000E+00 -0.00000000000E+00 -0.35182104322E+04  0.35182104322E+04  0.00000000000E+00 0. -1.
   -9000010    2    1    2    0  502  0.68937064630E+02 -0.47619673031E+03 -0.27533472887E+04  0.29689738569E+04  0.10011837123E+04 0.  0.
        -13    1    1    2    0    0 -0.22999482104E+03  0.12656808253E+03 -0.57808503339E+03  0.63490110585E+03  0.10566000000E+00 0.  1.
         13    1    3    3    0    0  0.42162051945E+03 -0.10176813085E+03 -0.51992291130E+03  0.67708231385E+03  0.10566000000E+00 0. -1.
          2    1    1    2  502    0  0.16105775641E+03  0.34962864778E+03  0.68218253570E+03  0.78329611531E+03  0.00000000000E+00 0. -1.
         -4    1    3    3    0  502 -0.35268345482E+03 -0.37442859946E+03 -0.22334243774E+04  0.22918915430E+04  0.00000000000E+00 0. -1.
</event>
<event>
 7    1  0.5696597E-006  0.1254934E+04  0.7818608E-02  0.8711071E-01
          4   -1    0    0  501    0 -0.00000000000E+00  0.00000000000E+00  0.35394463007E+04  0.35394463007E+04  0.00000000000E+00 0.  1.
          2   -1    0    0  502    0  0.00000000000E+00 -0.00000000000E+00 -0.19260292795E+04  0.19260292795E+04  0.00000000000E+00 0.  1.
    9000010    2    1    2  502    0  0.16116495997E+03 -0.62590761170E+03  0.20995256470E+04  0.24411501360E+04  0.10646462142E+04 0.  0.
        -13    1    3    3    0    0  0.58311343299E+03 -0.33537523378E+03  0.15510308893E+04  0.16906196065E+04  0.10566000000E+00 0.  1.
         13    1    1    2    0    0 -0.14442348059E+03  0.65831468262E+03  0.11794152134E+04  0.13584022305E+04  0.10566000000E+00 0. -1.
          2    1    1    2  501    0 -0.16741479379E+02 -0.32407070923E+02 -0.16655238392E+04  0.16659232138E+04  0.00000000000E+00 0.  1.
          4    1    3    3  502    0 -0.42194847301E+03 -0.29053237791E+03  0.54849475770E+03  0.75053052950E+03  0.00000000000E+00 0.  1.
</event>
<event>
 7    1  0.5696597E-006  0.1113922E+04  0.7818608E-02  0.8858802E-01
         -2   -1    0    0    0  501  0.00000000000E+00  0.00000000000E+00  0.98077723723E+03  0.98077723723E+03  0.00000000000E+00 0. -1.
         -4   -1    0    0    0  502 -0.00000000000E+00 -0.00000000000E+00 -0.20224255347E+04  0.20224255347E+04  0.00000000000E+00 0. -1.
   -9000010    2    1    2    0  501 -0.33052084295E+01  0.45189799711E+03 -0.82012651170E+03  0.13639640707E+04  0.99174985092E+03 0.  0.
        -13    1    1    2    0    0 -0.43971912369E+01 -0.52212488574E+03 -0.85500296925E+03  0.10018302352E+04  0.10566000000E+00 0.  1.
         13    1    3    3    0    0 -0.40443224870E+03  0.28951789391E+03 -0.75997775923E+02  0.50315179399E+03  0.10566000000E+00 0. -1.
         -2    1    1    2    0  502  0.77023996663E+01  0.70226888630E+02  0.63348118342E+03  0.63740846605E+03  0.00000000000E+00 0. -1.
         -4    1    3    3    0  501  0.40112704027E+03  0.16238010320E+03 -0.74412873577E+03  0.86081227672E+03  0.00000000000E+00 0. -1.
</event>
<event>
 7    1  0.5696597E-006  0.1011332E+04  0.7818608E-02  0.9154972E-01
          4   -1    0    0  501    0 -0.00000000000E+00  0.00000000000E+00  0.28789709756E+03  0.28789709756E+03  0.00000000000E+00 0.  1.
          2   -1    0    0  502    0  0.00000000000E+00 -0.00000000000E+00 -0.20312400740E+04  0.20312400740E+04  0.00000000000E+00 0.  1.
    9000010    2    1    2  502    0  0.62627011577E+02 -0.23953474027E+03 -0.97294795120E+03  0.14102514676E+04  0.99039509883E+03 0.  0.
        -13    1    3    3    0    0 -0.39129026377E+03 -0.36571587232E+03 -0.63354351467E+03  0.82959843655E+03  0.10566000000E+00 0.  1.
         13    1    1    2    0    0  0.12313142766E+03  0.17082481661E+03 -0.15242771240E+03  0.25995515982E+03  0.10566000000E+00 0. -1.
          2    1    1    2  501    0 -0.18575843923E+03  0.68709923660E+02 -0.61796731282E+03  0.64893054411E+03  0.00000000000E+00 0.  1.
          4    1    3    3  502    0  0.45391727535E+03  0.12618113205E+03 -0.33940443653E+03  0.58065303106E+03  0.00000000000E+00 0.  1.
</event>
<event>
 7    1  0.5696597E-006  0.1414084E+04  0.7818608E-02  0.8542223E-01
          2   -1    0    0  501    0  0.00000000000E+00  0.00000000000E+00  0.11157729957E+04  0.11157729957E+04  0.00000000000E+00 0. -1.
         -4   -1    0    0    0  501 -0.00000000000E+00 -0.00000000000E+00 -0.18029320941E+04  0.18029320941E+04  0.00000000000E+00 0. -1.
   -9000010    2    1    2    0  502  0.49957402833E+03 -0.84565029229E+03 -0.86811531177E+03  0.16623176960E+04  0.10222413127E+04 0.  0.
        -13    1    1    2    0    0 -0.44061395000E+03  0.86682989607E+03 -0.91630657873E+02  0.97669386723E+03  0.10566000000E+00 0.  1.
         13    1    3    3    0    0 -0.10540982741E+03 -0.69072473568E+03 -0.75309336506E+03  0.10273078992E+04  0.10566000000E+00 0. -1.
          2    1    1    2  502    0 -0.58960078324E+02 -0.21179603783E+02  0.27258687122E+03  0.27969352659E+03  0.00000000000E+00 0. -1.
         -4    1    3    3    0  502  0.60498385573E+03 -0.15492555661E+03 -0.11502194671E+03  0.63500979679E+03  0.00000000000E+00 0. -1.
</event>
<event>
 7    1  0.5696597E-006  0.1136596E+04  0.7818608E-02  0.8893435E-01
          2   -1    0    0  502    0  0.00000000000E+00  0.00000000000E+00  0.30263454558E+03  0.30263454558E+03  0.00000000000E+00 0.  1.
          4   -1    0    0  501    0 -0.00000000000E+00 -0.00000000000E+00 -0.30336500213E+04  0.30336500213E+04  0.00000000000E+00 0.  1.
    9000010    2    1    2  502    0 -0.35176286616E+03 -0.18965310810E+03 -0.12642089433E+04  0.16967368711E+04  0.10587664245E+04 0.  0.
        -13    1    3    3    0    0 -0.40735140430E+03  0.33406904726E+03 -0.32230601517E+03  0.61759086254E+03  0.10566000000E+00 0.  1.
         13    1    1    2    0    0  0.37989023311E+03  0.16772240102E+03 -0.15198875765E+04  0.15755969185E+04  0.10566000000E+00 0. -1.
          2    1    1    2  501    0 -0.28127366948E+02  0.21930707085E+02  0.53081044121E+02  0.63950777396E+02  0.00000000000E+00 0.  1.
          4    1    3    3  502    0  0.55588538133E+02 -0.52372215536E+03 -0.94190292818E+03  0.10791460085E+04  0.00000000000E+00 0.  1.
</event>
<event>
 7    1  0.5696597E-006  0.1116882E+04  0.7818608E-02  0.8975300E-01
          1   -1    0    0  501    0  0.00000000000E+00  0.00000000000E+00  0.33850459789E+03  0.33850459789E+03  0.00000000000E+00 0. -1.
         -4   -1    0    0    0  501 -0.00000000000E+00 -0.00000000000E+00 -0.28621554039E+04  0.28621554039E+04  0.00000000000E+00 0. -1.
   -9000010    2    1    2    0  502 -0.35117381807E+03  0.31250443118E+03 -0.12581787673E+04  0.16762118119E+04  0.10028410432E+04 0.  0.
        -13    1    1    2    0    0 -0.18387388686E+03 -0.25111303655E+03 -0.48027191634E+03  0.57230104682E+03  0.10566000000E+00 0.  1.
         13    1    3    3    0    0 -0.14070918960E+03  0.37803468566E+03 -0.45983675679E+01  0.40339863132E+03  0.10566000000E+00 0. -1.
          1    1    1    2  502    0  0.53504770494E+03 -0.61391394636E+02 -0.78520012237E+03  0.95214714308E+03  0.00000000000E+00 0. -1.
         -4    1    3    3    0  502 -0.21046462847E+03 -0.65530254474E+02 -0.12535803997E+04  0.12728131806E+04  0.00000000000E+00 0. -1.
</event>
<event>
 7    1  0.5696597E-006  0.1017700E+04  0.7818608E-02  0.9248421E-01
          1   -1    0    0  501    0  0.00000000000E+00  0.00000000000E+00  0.78916366389E+03  0.78916366389E+03  0.00000000000E+00 0.  1.
         -4   -1    0    0    0  501 -0.00000000000E+00 -0.00000000000E+00 -0.70949598865E+03  0.70949598865E+03  0.00000000000E+00 0. -1.
   -9000010    2    1    2    0  502  0.29202572422E+02  0.15735902188E+03 -0.24634778020E+03  0.10499731828E+04  0.10080385924E+04 0.  0.
        -13    1    1    2    0    0 -0.10491528840E+03 -0.94765562210E+02  0.40979906932E+02  0.14719746417E+03  0.10566000000E+00 0.  1.
         13    1    3    3    0    0  0.47224847809E+03 -0.13338774413E+03 -0.12099989274E+03  0.50542249707E+03  0.10566000000E+00 0. -1.
          1    1    1    2  502    0  0.75712715977E+02 -0.62593459665E+02  0.28503554851E+03  0.30148900555E+03  0.00000000000E+00 0.  1.
         -4    1    3    3    0  502 -0.44304590567E+03  0.29074676600E+03 -0.12534788747E+03  0.54455068576E+03  0.00000000000E+00 0. -1.
</event>
<event>
 7    1  0.5696597E-006  0.1030621E+04  0.7818608E-02  0.9012511E-01
          2   -1    0    0  501    0  0.00000000000E+00  0.00000000000E+00  0.10809840288E+04  0.10809840288E+04  0.00000000000E+00 0. -1.
         -4   -1    0    0    0  501 -0.00000000000E+00 -0.00000000000E+00 -0.10920602022E+04  0.10920602022E+04  0.00000000000E+00 0. -1.
   -9000010    2    1    2    0  502 -0.37246588319E+02 -0.26894623912E+03 -0.30127249912E+03  0.10538554003E+04  0.97269044311E+03 0.  0.
        -13    1    1    2    0    0 -0.21278222707E+03  0.30493399473E+03 -0.29963791142E+03  0.47753942918E+03  0.10566000000E+00 0.  1.
         13    1    3    3    0    0  0.15344268506E+03  0.12430267240E+03 -0.52641064842E+03  0.56223126371E+03  0.10566000000E+00 0. -1.
          2    1    1    2  502    0  0.25002881539E+03 -0.35987755609E+02  0.58983423717E+03  0.64164940147E+03  0.00000000000E+00 0. -1.
         -4    1    3    3    0  502 -0.19068927338E+03 -0.39324891152E+03  0.22513814929E+03  0.49162413658E+03  0.00000000000E+00 0. -1.
</event>
<event>
 7    1  0.5696597E-006  0.1039881E+04  0.7818608E-02  0.9081429E-01
          2   -1    0    0  502    0  0.00000000000E+00  0.00000000000E+00  0.97432572710E+03  0.97432572710E+03  0.00000000000E+00 0. -1.
          4   -1    0    0  501    0 -0.00000000000E+00 -0.00000000000E+00 -0.16395826942E+04  0.16395826942E+04  0.00000000000E+00 0.  1.
    9000010    2    1    2  502    0 -0.19200717366E+03 -0.32716813953E+03 -0.12047014886E+04  0.16165471446E+04  0.10089664255E+04 0.  0.
        -13    1    3    3    0    0  0.26738799398E+03 -0.23167117943E+03 -0.34126549792E+02  0.35543284495E+03  0.10566000000E+00 0.  1.
         13    1    1    2    0    0  0.28632427449E+02  0.22011392004E+03 -0.15840345860E+03  0.27269327194E+03  0.10566000000E+00 0. -1.
          2    1    1    2  501    0  0.16337474621E+03  0.10705421948E+03  0.69784798017E+03  0.72466800470E+03  0.00000000000E+00 0. -1.
          4    1    3    3  502    0 -0.45939516763E+03 -0.95496960093E+02 -0.11705749388E+04  0.12611142997E+04  0.00000000000E+00 0.  1.
</event>
<event>
 7    1  0.5696597E-006  0.1018813E+04  0.7818608E-02  0.9226213E-01
         -4   -1    0    0    0  501 -0.00000000000E+00  0.00000000000E+00  0.21671039690E+04  0.21671039690E+04  0.00000000000E+00 0. -1.
          2   -1    0    0  501    0  0.00000000000E+00 -0.00000000000E+00 -0.11257231264E+04  0.11257231264E+04  0.00000000000E+00 0. -1.
   -9000010    2    1    2    0  502 -0.27973864631E+03 -0.19205149794E+02  0.11428531430E+04  0.15490816182E+04  0.10074313899E+04 0.  0.
        -13    1    1    2    0    0  0.14550873772E+03  0.25244056611E+02  0.80952846862E+03  0.82288906167E+03  0.10566000000E+00 0.  1.
         13    1    3    3    0    0  0.44579067770E+02  0.34432964530E+03  0.47709331275E+02  0.35046596036E+03  0.10566000000E+00 0. -1.
          2    1    1    2  502    0  0.13422990858E+03 -0.60389068167E+01 -0.91100076902E+03  0.92085641547E+03  0.00000000000E+00 0. -1.
         -4    1    3    3    0  502 -0.32431771408E+03 -0.36353479509E+03  0.10951438117E+04  0.11986156579E+04  0.00000000000E+00 0. -1.
</event>
<event>
 7    1  0.5696597E-006  0.1111395E+04  0.7818608E-02  0.8868753E-01
          1   -1    0    0  501    0  0.00000000000E+00  0.00000000000E+00  0.82120887022E+03  0.82120887022E+03  0.00000000000E+00 0.  1.
         -4   -1    0    0    0  501 -0.00000000000E+00 -0.00000000000E+00 -0.21548873757E+04  0.21548873757E+04  0.00000000000E+00 0. -1.
   -9000010    2    1    2    0  502 -0.50915479159E+03 -0.13544518742E+03 -0.14416997047E+04  0.18306509204E+04  0.99759749054E+03 0.  0.
        -13    1    1    2    0    0  0.47131816978E+03  0.33141808682E+02 -0.40417171545E+03  0.62176682396E+03  0.10566000000E+00 0.  1.
         13    1    3    3    0    0 -0.65039048372E+03  0.17951720538E+03 -0.53695685571E+03  0.86229744544E+03  0.10566000000E+00 0. -1.
          1    1    1    2  502    0  0.37836621811E+02  0.10230337874E+03  0.51219291464E+03  0.52367850162E+03  0.00000000000E+00 0.  1.
         -4    1    3    3    0  502  0.14123569214E+03 -0.31496239280E+03 -0.90474284900E+03  0.96835347494E+03  0.00000000000E+00 0. -1.
</event>
<event>
 7    1  0.5696597E-006  0.1311233E+04  0.7818608E-02  0.8615847E-01
          1   -1    0    0  501    0  0.00000000000E+00  0.00000000000E+00  0.16879566139E+04  0.16879566139E+04  0.00000000000E+00 0.  1.
         -4   -1    0    0    0  501 -0.00000000000E+00 -0.00000000000E+00 -0.19920487535E+04  0.19920487535E+04  0.00000000000E+00 0. -1.
   -9000010    2    1    2    0  502 -0.59465382890E+03 -0.93256345559E+03 -0.36597676755E+03  0.15156669657E+04  0.96954606986E+03 0.  0.
        -13    1    1    2    0    0  0.32136617352E+03  0.75641986793E+03 -0.85834357479E+03  0.11883606093E+04  0.10566000000E+00 0.  1.
         13    1    3    3    0    0  0.15859342751E+03 -0.64554130048E+03 -0.16682088832E+03  0.68535003160E+03  0.10566000000E+00 0. -1.
          1    1    1    2  502    0  0.27328765537E+03  0.17614358766E+03  0.92022820283E+03  0.97597779244E+03  0.00000000000E+00 0.  1.
         -4    1    3    3    0  502 -0.75324725641E+03 -0.28702215512E+03 -0.19915587923E+03  0.83031693410E+03  0.00000000000E+00 0. -1.
</event>
<event>
 7    1  0.5696597E-006  0.1167093E+04  0.7818608E-02  0.8787274E-01
         -4   -1    0    0    0  501 -0.00000000000E+00  0.00000000000E+00  0.14714621058E+04  0.14714621058E+04  0.00000000000E+00 0. -1.
          2   -1    0    0  501    0  0.00000000000E+00 -0.00000000000E+00 -0.14428478076E+04  0.14428478076E+04  0.00000000000E+00 0. -1.
   -9000010    2    1    2    0  502  0.47104719208E+03 -0.31252528053E+03 -0.47732254740E+03  0.12466951902E+04  0.10034214344E+04 0.  0.
        -13    1    1    2    0    0 -0.55232357881E+03  0.23401220030E+03  0.99709492743E+03  0.11636242310E+04  0.10566000000E+00 0.  1.
         13    1    3    3    0    0  0.13562316937E+03 -0.60492775980E+03 -0.37568541158E+02  0.62108183446E+03  0.10566000000E+00 0. -1.
          2    1    1    2  502    0  0.81276386731E+02  0.78513080225E+02 -0.49115808184E+03  0.50399049214E+03  0.00000000000E+00 0. -1.
         -4    1    3    3    0  502  0.33542402272E+03  0.29240247927E+03 -0.43975400625E+03  0.62561335576E+03  0.00000000000E+00 0. -1.
</event>
<event>
 7    1  0.5696597E-006  0.1046062E+04  0.7818608E-02  0.8965205E-01
          2   -1    0    0  502    0  0.00000000000E+00  0.00000000000E+00  0.48388092073E+03  0.48388092073E+03  0.00000000000E+00 0. -1.
          4   -1    0    0  501    0 -0.00000000000E+00 -0.00000000000E+00 -0.16840354936E+04  0.16840354936E+04  0.00000000000E+00 0.  1.
    9000010    2    1    2  502    0 -0.25399893926E+02 -0.39968931368E+03 -0.11018620287E+04  0.15208324622E+04  0.96872841685E+03 0.  0.
        -13    1    3    3    0    0  0.20179740105E+03 -0.64190325047E+03 -0.51813695568E+03  0.84925137035E+03  0.10566000000E+00 0.  1.
         13    1    1    2    0    0  0.19060109104E+02  0.39144229910E+03 -0.26945796187E+03  0.47560273934E+03  0.10566000000E+00 0. -1.
          2    1    1    2  501    0  0.63397848221E+01  0.82470145765E+01  0.17116541772E+03  0.17148121280E+03  0.00000000000E+00 0. -1.
          4    1    3    3  502    0 -0.22719729498E+03  0.24221393679E+03 -0.58372507300E+03  0.67158109181E+03  0.00000000000E+00 0.  1.
</event>
<event>
 7    1  0.5696597E-006  0.1125824E+04  0.7818608E-02  0.9049251E-01
          2   -1    0    0  502    0  0.00000000000E+00  0.00000000000E+00  0.14332048525E+04  0.14332048525E+04  0.00000000000E+00 0.  1.
          4   -1    0    0  501    0 -0.00000000000E+00 -0.00000000000E+00 -0.72844904103E+03  0.72844904103E+03  0.00000000000E+00 0.  1.
    9000010    2    1    2  502    0 -0.49847900876E+02 -0.52463421830E+03  0.47608648798E+03  0.12438647692E+04  0.10211833056E+04 0.  0.
        -13    1    3    3    0    0 -0.41744649511E+03 -0.40964160097E+02  0.47854415045E+03  0.63635222463E+03  0.10566000000E+00 0.  1.
         13    1    1    2    0    0 -0.19050578605E+03  0.12061888745E+03 -0.18494777524E+03  0.29162829297E+03  0.10566000000E+00 0. -1.
          2    1    1    2  501    0  0.24035368693E+03  0.40401533085E+03  0.41361709872E+03  0.62616083136E+03  0.00000000000E+00 0.  1.
          4    1    3    3  502    0  0.36759859423E+03 -0.48367005820E+03 -0.24576624742E+01  0.60751254455E+03  0.00000000000E+00 0.  1.
</event>
<event>
 7    1  0.5696597E-006  0.1063124E+04  0.7818608E-02  0.9074385E-01
          2   -1    0    0  502    0  0.00000000000E+00  0.00000000000E+00  0.21971249477E+03  0.21971249477E+03  0.00000000000E+00 0.  1.
          4   -1    0    0  501    0 -0.00000000000E+00 -0.00000000000E+00 -0.23995385993E+04  0.23995385993E+04  0.00000000000E+00 0.  1.
    9000010    2    1    2  502    0  0.21177965666E+03 -0.42981048869E+02 -0.14626643103E+04  0.18048955531E+04  0.10351633106E+04 0.  0.
        -13    1    3    3    0    0  0.35063945759E+03  0.39381746613E+03 -0.44951854797E+03  0.69289765621E+03  0.10566000000E+00 0.  1.
         13    1    1    2    0    0 -0.24132605895E+03  0.43693165685E+02 -0.73833349962E+03  0.77799982473E+03  0.10566000000E+00 0. -1.
          2    1    1    2  501    0  0.29546402291E+02 -0.71211681645E+00  0.21171705332E+02  0.36355716268E+02  0.00000000000E+00 0.  1.
          4    1    3    3  502    0 -0.13885980093E+03 -0.43679851500E+03 -0.10131457623E+04  0.11119978969E+04  0.00000000000E+00 0.  1.
</event>
<event>
 7    1  0.5696597E-006  0.1356425E+04  0.7818608E-02  0.8588111E-01
          2   -1    0    0  502    0  0.00000000000E+00  0.00000000000E+00  0.12446106463E+04  0.12446106463E+04  0.00000000000E+00 0.  1.
          4   -1    0    0  501    0 -0.00000000000E+00 -0.00000000000E+00 -0.13236288591E+04  0.13236288591E+04  0.00000000000E+00 0.  1.
    9000010    2    1    2  502    0 -0.85548482014E+03 -0.17601818210E+03  0.52862318955E+03  0.14384066486E+04  0.10132790989E+04 0.  0.
        -13    1    3    3    0    0 -0.46381634518E+03  0.29375796597E+03  0.61080192875E+03  0.82127848624E+03  0.10566000000E+00 0.  1.
         13    1    1    2    0    0  0.89488486458E+03  0.15991198561E+03 -0.56977737944E+03  0.10728639416E+04  0.10566000000E+00 0. -1.
          2    1    1    2  501    0 -0.39400044447E+02  0.16106196491E+02 -0.37864022950E+02  0.56968915224E+02  0.00000000000E+00 0.  1.
          4    1    3    3  502    0 -0.39166847496E+03 -0.46977614807E+03 -0.82178739201E+02  0.61712816234E+03  0.00000000000E+00 0.  1.
</event>
<event>
 7    1  0.5696597E-006  0.9874593E+03  0.7818608E-02  0.9360690E-01
          2   -1    0    0  502    0  0.00000000000E+00  0.00000000000E+00  0.36060393378E+04  0.36060393378E+04  0.00000000000E+00 0.  1.
          4   -1    0    0  501    0 -0.00000000000E+00 -0.00000000000E+00 -0.90069645217E+02  0.90069645217E+02  0.00000000000E+00 0.  1.
    9000010    2    1    2  502    0 -0.91038671481E+02 -0.70580195886E+00  0.33280467457E+04  0.34712009460E+04  0.98237076906E+03 0.  0.
        -13    1    3    3    0    0  0.34329473448E+03 -0.21264872903E+03  0.23005264020E+04  0.23356995728E+04  0.10566000000E+00 0.  1.
         13    1    1    2    0    0  0.10011977718E+03 -0.88796413996E+01  0.12392737380E+03  0.15956447898E+03  0.10566000000E+00 0. -1.
          2    1    1    2  501    0 -0.90811056986E+01  0.95854433585E+01  0.63995573076E+02  0.65343558048E+02  0.00000000000E+00 0.  1.
          4    1    3    3  502    0 -0.43433340596E+03  0.21194292707E+03  0.10275203437E+04  0.11355013732E+04  0.00000000000E+00 0.  1.
</event>
<event>
 7    1  0.5696597E-006  0.1180454E+04  0.7818608E-02  0.8966086E-01
          4   -1    0    0  501    0 -0.00000000000E+00  0.00000000000E+00  0.11627002249E+04  0.11627002249E+04  0.00000000000E+00 0.  1.
          2   -1    0    0  502    0  0.00000000000E+00 -0.00000000000E+00 -0.29495786723E+04  0.29495786723E+04  0.00000000000E+00 0.  1.
    9000010    2    1    2  502    0 -0.39633768942E+03 -0.20179235924E+02  0.12711804735E+03  0.10698450701E+04  0.98535207431E+03 0.  0.
        -13    1    3    3    0    0 -0.58963994517E+03 -0.23586806154E+03  0.33051687880E+03  0.71592627116E+03  0.10566000000E+00 0.  1.
         13    1    1    2    0    0 -0.27314097798E+03  0.17369200455E+02  0.48220577113E+03  0.55446379490E+03  0.10566000000E+00 0. -1.
          2    1    1    2  501    0  0.66947866740E+03  0.28100354695E+01 -0.23962022659E+04  0.24879700323E+04  0.00000000000E+00 0.  1.
          4    1    3    3  502    0  0.19330225575E+03  0.21568882562E+03 -0.20339883146E+03  0.35391879890E+03  0.00000000000E+00 0.  1.
</event>
<event>
 7    1  0.5696597E-006  0.1071249E+04  0.7818608E-02  0.8935464E-01
          4   -1    0    0  501    0 -0.00000000000E+00  0.00000000000E+00  0.24309073555E+04  0.24309073555E+04  0.00000000000E+00 0.  1.
          2   -1    0    0  502    0  0.00000000000E+00 -0.00000000000E+00 -0.70663550861E+03  0.70663550861E+03  0.00000000000E+00 0. -1.
    9000010    2    1    2  502    0 -0.19050488159E+03 -0.33373172486E+03  0.10789710858E+04  0.15123189089E+04  0.98755298810E+03 0.  0.
        -13    1    3    3    0    0  0.24098465028E+03 -0.18535625127E+03  0.10051195507E+04  0.10500932643E+04  0.10566000000E+00 0.  1.
         13    1    1    2    0    0  0.84738750839E+02  0.41526625830E+03  0.10854512050E+04  0.11652600786E+04  0.10566000000E+00 0. -1.
          2    1    1    2  501    0  0.10576613075E+03 -0.81534533438E+02 -0.44015044385E+03  0.45996387661E+03  0.00000000000E+00 0. -1.
          4    1    3    3  502    0 -0.43148953187E+03 -0.14837547360E+03  0.73851535112E+02  0.46222564459E+03  0.00000000000E+00 0.  1.
</event>
<event>
 7    1  0.5696597E-006  0.9951526E+03  0.7818608E-02  0.9285059E-01
         -4   -1    0    0    0  501 -0.00000000000E+00  0.00000000000E+00  0.43405801231E+03  0.43405801231E+03  0.00000000000E+00 0. -1.
          2   -1    0    0  501    0  0.00000000000E+00 -0.00000000000E+00 -0.16206375778E+04  0.16206375778E+04  0.00000000000E+00 0. -1.
   -9000010    2    1    2    0  502  0.43914264468E+02 -0.95284831776E+02 -0.27748524962E+03  0.10302476155E+04  0.98661260065E+03 0.  0.
        -13    1    1    2    0    0  0.91104101371E+02  0.10888666448E+03 -0.43797394457E+02  0.14857484953E+03  0.10566000000E+00 0.  1.
         13    1    3    3    0    0  0.37318545256E+03 -0.35351595388E+03 -0.32644623821E+03  0.60894011960E+03  0.10566000000E+00 0. -1.
          2    1    1    2  502    0 -0.13501836584E+03 -0.13601832700E+02 -0.86529692146E+03  0.87587312509E+03  0.00000000000E+00 0. -1.
         -4    1    3    3    0  502 -0.32927118809E+03  0.25823112210E+03  0.48960988587E+02  0.42130749594E+03  0.00000000000E+00 0. -1.
</event>
<event>
 7    1  0.5696597E-006  0.1076192E+04  0.7818608E-02  0.8955535E-01
          4   -1    0    0  501    0 -0.00000000000E+00  0.00000000000E+00  0.17738513449E+03  0.17738513449E+03  0.00000000000E+00 0.  1.
          2   -1    0    0  502    0  0.00000000000E+00 -0.00000000000E+00 -0.42109699077E+04  0.42109699077E+04  0.00000000000E+00 0.  1.
    9000010    2    1    2  502    0  0.24425853311E+03  0.29379699423E+03 -0.20998299598E+04  0.23603500758E+04  0.10079621598E+04 0.  0.
        -13    1    3    3    0    0  0.13111706578E+03 -0.37501909629E+03 -0.85193362227E+03  0.94001165707E+03  0.10566000000E+00 0.  1.
         13    1    1    2    0    0 -0.25429085538E+03 -0.27634909834E+03 -0.70244786289E+03  0.79653353635E+03  0.10566000000E+00 0. -1.
          2    1    1    2  501    0  0.10032322264E+02 -0.17447895884E+02 -0.12313069505E+04  0.12314714300E+04  0.00000000000E+00 0.  1.
          4    1    3    3  502    0  0.11314146733E+03  0.66881609051E+03 -0.12478963375E+04  0.14203384187E+04  0.00000000000E+00 0.  1.
</event>
<event>
 7    1  0.5696597E-006  0.1270272E+04  0.7818608E-02  0.8665924E-01
          2   -1    0    0  502    0  0.00000000000E+00  0.00000000000E+00  0.31765257508E+04  0.31765257508E+04  0.00000000000E+00 0. -1.
          4   -1    0    0  501    0 -0.00000000000E+00 -0.00000000000E+00 -0.50829383953E+03  0.50829383953E+03  0.00000000000E+00 0.  1.
    9000010    2    1    2  502    0  0.35127600907E+03  0.69876133484E+03  0.82980915050E+03  0.15187209662E+04  0.10031290592E+04 0.  0.
        -13    1    3    3    0    0 -0.27256217043E+03  0.57410229673E+03  0.39850135308E+03  0.75012460527E+03  0.10566000000E+00 0.  1.
         13    1    1    2    0    0 -0.13426952624E+03 -0.78159467801E+03  0.90087575942E+03  0.12002065203E+04  0.10566000000E+00 0. -1.
          2    1    1    2  501    0 -0.21700648283E+03  0.82833343171E+02  0.93754700140E+03  0.96589210379E+03  0.00000000000E+00 0. -1.
          4    1    3    3  502    0  0.62383817951E+03  0.12465903812E+03  0.43130779742E+03  0.76859636098E+03  0.00000000000E+00 0.  1.
</event>
<event>
 7    1  0.5696597E-006  0.1163586E+04  0.7818608E-02  0.8783492E-01
          2   -1    0    0  501    0  0.00000000000E+00  0.00000000000E+00  0.28865470011E+04  0.28865470011E+04  0.00000000000E+00 0.  1.
         -4   -1    0    0    0  501 -0.00000000000E+00 -0.00000000000E+00 -0.24534459672E+04  0.24534459672E+04  0.00000000000E+00 0. -1.
   -9000010    2    1    2    0  502  0.50456941032E+03  0.34530110298E+03 -0.78286287990E+03  0.14025317565E+04  0.99015044192E+03 0.  0.
        -13    1    1    2    0    0 -0.52642186493E+03 -0.31088819689E+03 -0.12919044553E+04  0.14292615518E+04  0.10566000000E+00 0.  1.
         13    1    3    3    0    0  0.28181321117E+03 -0.28002786758E+03 -0.29416296461E+02  0.39837121165E+03  0.10566000000E+00 0. -1.
          2    1    1    2  502    0  0.21852454604E+02 -0.34412906094E+02  0.25078683691E+04  0.25081996600E+04  0.00000000000E+00 0.  1.
         -4    1    3    3    0  502  0.22275619915E+03  0.62532897056E+03 -0.75344658344E+03  0.10041605448E+04  0.00000000000E+00 0. -1.
</event>
<event>
 7    1  0.5696597E-006  0.1110295E+04  0.7818608E-02  0.8861225E-01
          1   -1    0    0  501    0  0.00000000000E+00  0.00000000000E+00  0.97119156277E+03  0.97119156277E+03  0.00000000000E+00 0. -1.
         -4   -1    0    0    0  501 -0.00000000000E+00 -0.00000000000E+00 -0.18604988897E+04  0.18604988897E+04  0.00000000000E+00 0. -1.
   -9000010    2    1    2    0  502 -0.22546500040E+03 -0.47460914522E+03  0.52352932966E+03  0.12352511143E+04  0.98776214200E+03 0.  0.
        -13    1    1    2    0    0  0.22058800963E+03  0.45554313872E+03 -0.14600486557E+04  0.15452898464E+04  0.10566000000E+00 0.  1.
         13    1    3    3    0    0 -0.65926179582E+02 -0.77484379681E+03  0.33786288120E+03  0.84786821397E+03  0.10566000000E+00 0. -1.
          1    1    1    2  502    0  0.48769907775E+01  0.19066006501E+02  0.47211999150E+02  0.51149491754E+02  0.00000000000E+00 0. -1.
         -4    1    3    3    0  502 -0.15953882082E+03  0.30023465159E+03  0.18566644845E+03  0.38738290030E+03  0.00000000000E+00 0. -1.
</event>
<event>
 7    1  0.5696597E-006  0.1146068E+04  0.7818608E-02  0.8823844E-01
          1   -1    0    0  501    0  0.00000000000E+00  0.00000000000E+00  0.41807685257E+03  0.41807685257E+03  0.00000000000E+00 0. -1.
         -4   -1    0    0    0  501 -0.00000000000E+00 -0.00000000000E+00 -0.40145609494E+04  0.40145609494E+04  0.00000000000E+00 0. -1.
   -9000010    2    1    2    0  502  0.14201978842E+03 -0.51857715981E+03 -0.32519434938E+04  0.34477382177E+04  0.10112716942E+04 0.  0.
        -13    1    1    2    0    0 -0.12838811986E+03  0.52570789737E+03 -0.55425041159E+03  0.77462625349E+03  0.10566000000E+00 0.  1.
         13    1    3    3    0    0 -0.60355075912E+02 -0.68839473769E+03 -0.30139715584E+04  0.30921763559E+04  0.10566000000E+00 0. -1.
          1    1    1    2  502    0 -0.13631668564E+02 -0.71307375672E+01  0.20970980862E+03  0.21027333078E+03  0.00000000000E+00 0. -1.
         -4    1    3    3    0  502  0.20237486433E+03  0.16981757789E+03 -0.23797193542E+03  0.35556186173E+03  0.00000000000E+00 0. -1.
</event>
<event>
 7    1  0.5696597E-006  0.1235121E+04  0.7818608E-02  0.8699210E-01
          4   -1    0    0  501    0 -0.00000000000E+00  0.00000000000E+00  0.13092396821E+04  0.13092396821E+04  0.00000000000E+00 0.  1.
          2   -1    0    0  502    0  0.00000000000E+00 -0.00000000000E+00 -0.10002626705E+04  0.10002626705E+04  0.00000000000E+00 0.  1.
    9000010    2    1    2  502    0  0.46412264544E+02  0.72976012705E+03 -0.39001471531E+02  0.12343730291E+04  0.99370605249E+03 0.  0.
        -13    1    3    3    0    0  0.23951229858E+03  0.68079501335E+03 -0.39773377654E+03  0.82403893084E+03  0.10566000000E+00 0.  1.
         13    1    1    2    0    0 -0.57159739934E+02 -0.73200702940E+03  0.52192477724E+03  0.90083683940E+03  0.10566000000E+00 0. -1.
          2    1    1    2  501    0  0.10747475390E+02  0.22469023502E+01 -0.17394629412E+03  0.17429248416E+03  0.00000000000E+00 0.  1.
          4    1    3    3  502    0 -0.19310003404E+03  0.48965113693E+02  0.35873230500E+03  0.41033409822E+03  0.00000000000E+00 0.  1.
</event>
<event>
 7    1  0.5696597E-006  0.1075688E+04  0.7818608E-02  0.8927046E-01
          2   -1    0    0  502    0  0.00000000000E+00  0.00000000000E+00  0.13974425137E+04  0.13974425137E+04  0.00000000000E+00 0.  1.
          4   -1    0    0  501    0 -0.00000000000E+00 -0.00000000000E+00 -0.17693154202E+04  0.17693154202E+04  0.00000000000E+00 0.  1.
    9000010    2    1    2  502    0 -0.63278696007E+03  0.46299063096E+01 -0.87207029860E+03  0.14621610787E+04  0.98841673472E+03 0.  0.
        -13    1    3    3    0    0  0.14486689990E+02 -0.19641188621E+03  0.14174621455E+03  0.24265097101E+03  0.10566000000E+00 0.  1.
         13    1    1    2    0    0  0.32469232652E+03  0.22633687593E+03 -0.49717184496E+03  0.63547882962E+03  0.10566000000E+00 0. -1.
          2    1    1    2  501    0  0.30809463355E+03 -0.23096678224E+03  0.99736923700E+03  0.10691180256E+04  0.00000000000E+00 0.  1.
          4    1    3    3  502    0 -0.64727365006E+03  0.20104179252E+03 -0.10138165132E+04  0.12195101077E+04  0.00000000000E+00 0.  1.
</event>
<event>
 7    1  0.5696597E-006  0.1005513E+04  0.7818608E-02  0.9295140E-01
          1   -1    0    0  501    0  0.00000000000E+00  0.00000000000E+00  0.66992973192E+03  0.66992973192E+03  0.00000000000E+00 0.  1.
         -4   -1    0    0    0  501 -0.00000000000E+00 -0.00000000000E+00 -0.87659038029E+03  0.87659038029E+03  0.00000000000E+00 0. -1.
   -9000010    2    1    2    0  502 -0.47548957467E+02 -0.10746785251E+03  0.90318647978E+02  0.10091046081E+04  0.99816051276E+03 0.  0.
        -13    1    1    2    0    0  0.58268042355E+02  0.10655333236E+03 -0.40809408975E+03  0.42578113468E+03  0.10566000000E+00 0.  1.
         13    1    3    3    0    0 -0.41407075782E+02  0.35925813299E+03  0.32539896542E+03  0.48648273341E+03  0.10566000000E+00 0. -1.
          1    1    1    2  502    0 -0.10719084887E+02  0.91452015145E+00  0.11111479340E+03  0.11163436944E+03  0.00000000000E+00 0.  1.
         -4    1    3    3    0  502 -0.61418816857E+01 -0.46672598550E+03 -0.23508031745E+03  0.52262187469E+03  0.00000000000E+00 0. -1.
</event>
<event>
 7    1  0.5696597E-006  0.1053220E+04  0.7818608E-02  0.9005471E-01
         -4   -1    0    0    0  501 -0.00000000000E+00  0.00000000000E+00  0.23756399888E+04  0.23756399888E+04  0.00000000000E+00 0. -1.
          2   -1    0    0  501    0  0.00000000000E+00 -0.00000000000E+00 -0.32205150557E+04  0.32205150557E+04  0.00000000000E+00 0.  1.
   -9000010    2    1    2    0  502 -0.19603648156E+03 -0.24856836759E+03  0.14538995701E+04  0.17931703593E+04  0.10007094694E+04 0.  0.
        -13    1    1    2    0    0  0.29332994891E+03  0.16291081032E+03  0.71321904927E+03  0.78820290183E+03  0.10566000000E+00 0.  1.
         13    1    3    3    0    0  0.41103297058E+03 -0.10552701983E+03  0.54155960732E+03  0.68801953044E+03  0.10566000000E+00 0. -1.
          2    1    1    2  502    0 -0.97293467346E+02  0.85657557268E+02 -0.30119936862E+04  0.30147817835E+04  0.00000000000E+00 0.  1.
         -4    1    3    3    0  502 -0.60706945215E+03 -0.14304134776E+03  0.91233996276E+03  0.11051508289E+04  0.00000000000E+00 0. -1.
</event>
<event>
 7    1  0.5696597E-006  0.1076432E+04  0.7818608E-02  0.8945004E-01
          4   -1    0    0  501    0 -0.00000000000E+00  0.00000000000E+00  0.13644853193E+04  0.13644853193E+04  0.00000000000E+00 0.  1.
          2   -1    0    0  502    0  0.00000000000E+00 -0.00000000000E+00 -0.25774331289E+04  0.25774331289E+04  0.00000000000E+00 0.  1.
    9000010    2    1    2  502    0  0.29510469210E+03  0.40424085860E+03 -0.80165757604E+02  0.11228691084E+04  0.10019536092E+04 0.  0.
        -13    1    3    3    0    0  0.60905935866E+03  0.42444658534E+02 -0.17377259976E+03  0.63478482890E+03  0.10566000000E+00 0.  1.
         13    1    1    2    0    0 -0.35732299167E+03 -0.15640379075E+03  0.78910827944E+03  0.88024641663E+03  0.10566000000E+00 0. -1.
          2    1    1    2  501    0  0.62218299572E+02 -0.24783706784E+03 -0.19218903314E+04  0.19388029232E+04  0.00000000000E+00 0.  1.
          4    1    3    3  502    0 -0.31395466656E+03  0.36179620006E+03  0.93606842160E+02  0.48808427954E+03  0.00000000000E+00 0.  1.
</event>
<event>
 7    1  0.5696597E-006  0.9729497E+03  0.7818608E-02  0.9073613E-01
          2   -1    0    0  502    0  0.00000000000E+00  0.00000000000E+00  0.14707721938E+04  0.14707721938E+04  0.00000000000E+00 0. -1.
          4   -1    0    0  501    0 -0.00000000000E+00 -0.00000000000E+00 -0.58400495893E+03  0.58400495893E+03  0.00000000000E+00 0.  1.
    9000010    2    1    2  502    0 -0.29965898323E+03 -0.18408717764E+03  0.79010091386E+02  0.98797061512E+03  0.91986941823E+03 0.  0.
        -13    1    3    3    0    0 -0.39077112389E+03 -0.44004271737E+03  0.27833417373E+03  0.65100659582E+03  0.10566000000E+00 0.  1.
         13    1    1    2    0    0  0.30521465965E+03  0.56641983597E+02  0.70155151584E+02  0.31825470810E+03  0.10566000000E+00 0. -1.
          2    1    1    2  501    0 -0.55556764210E+01  0.12744519404E+03  0.73760199188E+03  0.74855182950E+03  0.00000000000E+00 0. -1.
          4    1    3    3  502    0  0.91112140665E+02  0.25595553973E+03 -0.19932408234E+03  0.33696401929E+03  0.00000000000E+00 0.  1.
</event>
<event>
 7    1  0.5696597E-006  0.1803896E+04  0.7818608E-02  0.8766080E-01
          2   -1    0    0  501    0  0.00000000000E+00  0.00000000000E+00  0.21976322884E+04  0.21976322884E+04  0.00000000000E+00 0. -1.
         -4   -1    0    0    0  501 -0.00000000000E+00 -0.00000000000E+00 -0.19090535047E+04  0.19090535047E+04  0.00000000000E+00 0. -1.
   -9000010    2    1    2    0  502 -0.28465778699E+03 -0.16126188635E+04 -0.75411052490E+03  0.20588941547E+04  0.99438061223E+03 0.  0.
        -13    1    1    2    0    0 -0.26073987101E+02  0.17471655967E+03 -0.83230050355E+02  0.19527667928E+03  0.10566000000E+00 0.  1.
         13    1    3    3    0    0  0.29595196779E+03 -0.45512508598E+03  0.32315066471E+02  0.54384803559E+03  0.10566000000E+00 0. -1.
          2    1    1    2  502    0  0.31073177409E+03  0.14379023039E+04  0.11259193590E+04  0.18525149591E+04  0.00000000000E+00 0. -1.
         -4    1    3    3    0  502 -0.58060975478E+03 -0.11574937776E+04 -0.78642559137E+03  0.15150461192E+04  0.00000000000E+00 0. -1.
</event>
<event>
 7    1  0.5696597E-006  0.1140734E+04  0.7818608E-02  0.8829737E-01
         -4   -1    0    0    0  501 -0.00000000000E+00  0.00000000000E+00  0.11430832033E+04  0.11430832033E+04  0.00000000000E+00 0. -1.
          2   -1    0    0  501    0  0.00000000000E+00 -0.00000000000E+00 -0.15427302844E+04  0.15427302844E+04  0.00000000000E+00 0.  1.
   -9000010    2    1    2    0  502 -0.30252468058E+03 -0.78833685305E+03  0.26013262516E+03  0.13406537648E+04  0.10083091581E+04 0.  0.
        -13    1    1    2    0    0  0.25655560165E+03  0.35886933230E+03  0.11697977540E+03  0.45639046158E+03  0.10566000000E+00 0.  1.
         13    1    3    3    0    0 -0.44697732874E+03 -0.16231100551E+03  0.46620000748E+03  0.66593997707E+03  0.10566000000E+00 0. -1.
          2    1    1    2  502    0  0.45969078924E+02  0.42946752075E+03 -0.77675948165E+03  0.88876926136E+03  0.00000000000E+00 0.  1.
         -4    1    3    3    0  502  0.14445264816E+03 -0.62602584754E+03 -0.20606738233E+03  0.67471378777E+03  0.00000000000E+00 0. -1.
</event>
<event>
 7    1  0.5696597E-006  0.1079571E+04  0.7818608E-02  0.9050427E-01
         -4   -1    0    0    0  501 -0.00000000000E+00  0.00000000000E+00  0.56866437758E+03  0.56866437758E+03  0.00000000000E+00 0. -1.
          1   -1    0    0  501    0  0.00000000000E+00 -0.00000000000E+00 -0.13132472993E+04  0.13132472993E+04  0.00000000000E+00 0. -1.
   -9000010    2    1    2    0  502 -0.44515626795E+02 -0.66224062192E+02 -0.49396042386E+03  0.11623501513E+04  0.10491395077E+04 0.  0.
        -13    1    1    2    0    0  0.19372467448E+03  0.19296483867E+03  0.12140164637E+03  0.29917060245E+03  0.10566000000E+00 0.  1.
         13    1    3    3    0    0  0.23592739919E+03  0.44622193072E+02  0.25783938796E+03  0.35232660835E+03  0.10566000000E+00 0. -1.
          1    1    1    2  502    0 -0.14920904768E+03 -0.12674077647E+03 -0.37202414426E+03  0.42039092312E+03  0.00000000000E+00 0. -1.
         -4    1    3    3    0  502 -0.28044302599E+03 -0.11084625526E+03 -0.75179981182E+03  0.81002354298E+03  0.00000000000E+00 0. -1.
</event>
<event>
 7    1  0.5696597E-006  0.9939218E+03  0.7818608E-02  0.9511061E-01
          4   -1    0    0  501    0 -0.00000000000E+00  0.00000000000E+00  0.58936060638E+03  0.58936060638E+03  0.00000000000E+00 0.  1.
          2   -1    0    0  502    0  0.00000000000E+00 -0.00000000000E+00 -0.26076161977E+04  0.26076161977E+04  0.00000000000E+00 0.  1.
    9000010    2    1    2  502    0  0.10206674011E+03 -0.11859724126E+02 -0.16961946507E+03  0.10119410379E+04  0.99231831024E+03 0.  0.
        -13    1    3    3    0    0 -0.38182183490E+03  0.66836522009E+02  0.16194811423E+03  0.42009788995E+03  0.10566000000E+00 0.  1.
         13    1    1    2    0    0 -0.55752094609E+02  0.59484036125E+01  0.16324887741E+03  0.17260905740E+03  0.10566000000E+00 0. -1.
          2    1    1    2  501    0 -0.46314645500E+02  0.59113205137E+01 -0.20118850036E+04  0.20124267087E+04  0.00000000000E+00 0.  1.
          4    1    3    3  502    0  0.48388857500E+03 -0.78696246135E+02 -0.33156757929E+03  0.59184314798E+03  0.00000000000E+00 0.  1.
</event>
<event>
 7    1  0.5696597E-006  0.1362886E+04  0.7818608E-02  0.8799065E-01
          4   -1    0    0  501    0 -0.00000000000E+00  0.00000000000E+00  0.10824019121E+04  0.10824019121E+04  0.00000000000E+00 0.  1.
          2   -1    0    0  502    0  0.00000000000E+00 -0.00000000000E+00 -0.22966197333E+04  0.22966197333E+04  0.00000000000E+00 0. -1.
    9000010    2    1    2  502    0  0.71452224749E+03  0.60309015162E+03  0.11761209902E+03  0.13666150077E+04  0.98971925324E+03 0.  0.
        -13    1    3    3    0    0  0.59606348298E+03  0.75118260411E+03  0.38958178585E+03  0.10350560176E+04  0.10566000000E+00 0.  1.
         13    1    1    2    0    0 -0.26830793596E+03  0.23403598434E+03  0.24926609521E+02  0.35690802385E+03  0.10566000000E+00 0. -1.
          2    1    1    2  501    0 -0.44621431153E+03 -0.83712613595E+03 -0.13567565298E+04  0.16554986138E+04  0.00000000000E+00 0. -1.
          4    1    3    3  502    0  0.11845876451E+03 -0.14809245249E+03 -0.27196968683E+03  0.33155899012E+03  0.00000000000E+00 0.  1.
</event>
<event>
 7    1  0.5696597E-006  0.1060370E+04  0.7818608E-02  0.9016229E-01
          1   -1    0    0  501    0  0.00000000000E+00  0.00000000000E+00  0.92944184531E+03  0.92944184531E+03  0.00000000000E+00 0. -1.
         -4   -1    0    0    0  501 -0.00000000000E+00 -0.00000000000E+00 -0.96276553762E+03  0.96276553762E+03  0.00000000000E+00 0. -1.
   -9000010    2    1    2    0  502 -0.31853589594E+03 -0.19672635548E+03 -0.27763127409E+03  0.11026477871E+04  0.99929307120E+03 0.  0.
        -13    1    1    2    0    0 -0.31469482458E+02  0.30652593941E+03 -0.58814151044E+02  0.31369984920E+03  0.10566000000E+00 0.  1.
         13    1    3    3    0    0 -0.10279945065E+03 -0.66669705365E+02 -0.64537256148E+03  0.65690054875E+03  0.10566000000E+00 0. -1.
          1    1    1    2  502    0  0.35000537839E+03 -0.10979958394E+03  0.30312173283E+03  0.47585974662E+03  0.00000000000E+00 0. -1.
         -4    1    3    3    0  502 -0.21573644528E+03 -0.13005665011E+03  0.36774128739E+03  0.44574723837E+03  0.00000000000E+00 0. -1.
</event>
<event>
 7    1  0.5696597E-006  0.1033016E+04  0.7818608E-02  0.9002709E-01
          4   -1    0    0  501    0 -0.00000000000E+00  0.00000000000E+00  0.24522878427E+03  0.24522878427E+03  0.00000000000E+00 0.  1.
          2   -1    0    0  502    0  0.00000000000E+00 -0.00000000000E+00 -0.33054556491E+04  0.33054556491E+04  0.00000000000E+00 0. -1.
    9000010    2    1    2  502    0 -0.11970164735E+03 -0.32707574882E+03 -0.15357706797E+04  0.18501728242E+04  0.97120588390E+03 0.  0.
        -13    1    3    3    0    0 -0.17481662017E+03 -0.42382430072E+03 -0.16368177024E+04  0.16998117810E+04  0.10566000000E+00 0.  1.
         13    1    1    2    0    0  0.17714996067E+03  0.30609808736E+03 -0.27097593615E+03  0.44554025272E+03  0.10566000000E+00 0. -1.
          2    1    1    2  501    0 -0.57448313320E+02  0.20977661458E+02 -0.12534802489E+04  0.12549713564E+04  0.00000000000E+00 0. -1.
          4    1    3    3  502    0  0.55114972821E+02  0.96748551893E+02  0.10104702272E+03  0.15036104323E+03  0.00000000000E+00 0.  1.
</event>
<event>
 7    1  0.5696597E-006  0.9180082E+03  0.7818608E-02  0.9190048E-01
          4   -1    0    0  501    0 -0.00000000000E+00  0.00000000000E+00  0.15183851225E+04  0.15183851225E+04  0.00000000000E+00 0.  1.
          2   -1    0    0  502    0  0.00000000000E+00 -0.00000000000E+00 -0.29758328134E+04  0.29758328134E+04  0.00000000000E+00 0. -1.
    9000010    2    1    2  502    0 -0.12837319529E+03 -0.20944948582E+03  0.12970419276E+04  0.15900961990E+04  0.88641942426E+03 0.  0.
        -13    1    3    3    0    0  0.95375633379E+02 -0.38070389885E+03  0.12426171276E+04  0.13031229055E+04  0.10566000000E+00 0.  1.
         13    1    1    2    0    0  0.77759453045E+02  0.21970104407E+03 -0.10754426750E+03  0.25667267471E+03  0.10566000000E+00 0. -1.
          2    1    1    2  501    0  0.50613742248E+02 -0.10251558255E+02 -0.26469453511E+04  0.26474490622E+04  0.00000000000E+00 0. -1.
          4    1    3    3  502    0 -0.22374882867E+03  0.17125441304E+03  0.54424800089E+02  0.28697329350E+03  0.00000000000E+00 0.  1.
</event>
<event>
 7    1  0.5696597E-006  0.1040802E+04  0.7818608E-02  0.8951079E-01
         -4   -1    0    0    0  502 -0.00000000000E+00  0.00000000000E+00  0.98222558603E+03  0.98222558603E+03  0.00000000000E+00 0. -1.
         -2   -1    0    0    0  501  0.00000000000E+00 -0.00000000000E+00 -0.12800817130E+04  0.12800817130E+04  0.00000000000E+00 0.  1.
   -9000010    2    1    2    0  501 -0.80296700684E+02  0.40320041848E+03  0.23915659899E+03  0.10626562492E+04  0.95027590070E+03 0.  0.
        -13    1    1    2    0    0  0.10191717416E+03 -0.41690987202E+03  0.19200958602E+03  0.47017937435E+03  0.10566000000E+00 0.  1.
         13    1    3    3    0    0  0.17875626404E+03 -0.77797077901E+02  0.43946916119E+03  0.48076953113E+03  0.10566000000E+00 0. -1.
         -2    1    1    2    0  502 -0.21620473475E+02  0.13709453542E+02 -0.72902231200E+03  0.72947167552E+03  0.00000000000E+00 0.  1.
         -4    1    3    3    0  501 -0.25905296472E+03  0.48099749638E+03 -0.20031256220E+03  0.58188671804E+03  0.00000000000E+00 0. -1.
</event>
<event>
 7    1  0.5696597E-006  0.1070671E+04  0.7818608E-02  0.8944577E-01
          2   -1    0    0  502    0  0.00000000000E+00  0.00000000000E+00  0.97164367338E+03  0.97164367338E+03  0.00000000000E+00 0.  1.
          4   -1    0    0  501    0 -0.00000000000E+00 -0.00000000000E+00 -0.25011621522E+04  0.25011621522E+04  0.00000000000E+00 0.  1.
    9000010    2    1    2  502    0 -0.38370740234E+03 -0.12010357537E+03 -0.15967063363E+04  0.19227699643E+04  0.99293351819E+03 0.  0.
        -13    1    3    3    0    0  0.13001464209E+03 -0.41135305329E+03 -0.97031080123E+03  0.10618936876E+04  0.10566000000E+00 0.  1.
         13    1    1    2    0    0  0.37563938229E+03  0.13783894058E+03 -0.68730358886E+03  0.79529287278E+03  0.10566000000E+00 0. -1.
          2    1    1    2  501    0  0.80680200482E+01 -0.17735365215E+02  0.75449144636E+03  0.75474298855E+03  0.00000000000E+00 0.  1.
          4    1    3    3  502    0 -0.51372204443E+03  0.29124947792E+03 -0.62639553509E+03  0.86087627665E+03  0.00000000000E+00 0.  1.
</event>
<event>
 7    1  0.5696597E-006  0.1031418E+04  0.7818608E-02  0.8949369E-01
         -4   -1    0    0    0  501 -0.00000000000E+00  0.00000000000E+00  0.25728399115E+04  0.25728399115E+04  0.00000000000E+00 0. -1.
          1   -1    0    0  501    0  0.00000000000E+00 -0.00000000000E+00 -0.10250534760E+04  0.10250534760E+04  0.00000000000E+00 0. -1.
   -9000010    2    1    2    0  502 -0.43061818104E+03 -0.43086381683E+02  0.20140014681E+04  0.22614864711E+04  0.93318309638E+03 0.  0.
        -13    1    1    2    0    0  0.44156730156E+03  0.58646220568E+02  0.32094090796E+03  0.54902107296E+03  0.10566000000E+00 0.  1.
         13    1    3    3    0    0  0.27292696157E+03  0.11499118246E+03  0.44273761686E+03  0.53266190679E+03  0.10566000000E+00 0. -1.
          1    1    1    2  502    0 -0.10949120516E+02 -0.15559838885E+02 -0.78715594052E+03  0.78738584349E+03  0.00000000000E+00 0. -1.
         -4    1    3    3    0  502 -0.70354514261E+03 -0.15807756415E+03  0.15712638512E+04  0.17288245643E+04  0.00000000000E+00 0. -1.
</event>
<event>
 7    1  0.5696597E-006  0.1190457E+04  0.7818608E-02  0.8761814E-01
          1   -1    0    0  501    0  0.00000000000E+00  0.00000000000E+00  0.12872637145E+04  0.12872637145E+04  0.00000000000E+00 0. -1.
         -4   -1    0    0    0  501 -0.00000000000E+00 -0.00000000000E+00 -0.14332789134E+04  0.14332789134E+04  0.00000000000E+00 0. -1.
   -9000010    2    1    2    0  502 -0.54836466032E+03 -0.28177924380E+03  0.51927883242E+03  0.12942836615E+04  0.10126284351E+04 0.  0.
        -13    1    1    2    0    0  0.55157010099E+03  0.29795349275E+03 -0.95156721400E+03  0.11395113137E+04  0.10566000000E+00 0.  1.
         13    1    3    3    0    0  0.16832387936E+03  0.13418550724E+03  0.40383493362E+03  0.45762576795E+03  0.10566000000E+00 0. -1.
          1    1    1    2  502    0 -0.32054406653E+01 -0.16174248941E+02  0.28627318269E+03  0.28674765266E+03  0.00000000000E+00 0. -1.
         -4    1    3    3    0  502 -0.71668853968E+03 -0.41596475105E+03  0.11544389880E+03  0.83665789352E+03  0.00000000000E+00 0. -1.
</event>
<event>
 7    1  0.5696597E-006  0.1024483E+04  0.7818608E-02  0.9063885E-01
          4   -1    0    0  501    0 -0.00000000000E+00  0.00000000000E+00  0.25820404098E+04  0.25820404098E+04  0.00000000000E+00 0.  1.
          2   -1    0    0  502    0  0.00000000000E+00 -0.00000000000E+00 -0.35125253083E+03  0.35125253083E+03  0.00000000000E+00 0.  1.
    9000010    2    1    2  502    0  0.19084497603E+03 -0.80376075520E+02  0.10163900448E+04  0.14303280619E+04  0.98483883092E+03 0.  0.
        -13    1    3    3    0    0 -0.27235636120E+03  0.30131069255E+03  0.41392346591E+03  0.57991272423E+03  0.10566000000E+00 0.  1.
         13    1    1    2    0    0 -0.27506595496E+03  0.85013290104E+02  0.13294717171E+04  0.13602880565E+04  0.10566000000E+00 0. -1.
          2    1    1    2  501    0  0.84220978931E+02 -0.46372145832E+01 -0.11507388298E+03  0.14267682221E+03  0.00000000000E+00 0.  1.
          4    1    3    3  502    0  0.46320133723E+03 -0.38168676807E+03  0.60246657892E+03  0.85041533762E+03  0.00000000000E+00 0.  1.
</event>
<event>
 7    1  0.5696597E-006  0.1008715E+04  0.7818608E-02  0.9242792E-01
         -4   -1    0    0    0  501 -0.00000000000E+00  0.00000000000E+00  0.43103198875E+03  0.43103198875E+03  0.00000000000E+00 0. -1.
          2   -1    0    0  501    0  0.00000000000E+00 -0.00000000000E+00 -0.17357254973E+04  0.17357254973E+04  0.00000000000E+00 0. -1.
   -9000010    2    1    2    0  502  0.16139706892E+03 -0.17135944317E+02 -0.65659786152E+03  0.11858195875E+04  0.97401472673E+03 0.  0.
        -13    1    1    2    0    0  0.68426570257E+02 -0.12988489995E+03  0.10464159556E+03  0.18028354733E+03  0.10566000000E+00 0.  1.
         13    1    3    3    0    0  0.11372709875E+03 -0.39250424726E+03  0.21587964641E+02  0.40921814292E+03  0.10566000000E+00 0. -1.
          2    1    1    2  502    0 -0.22982363918E+03  0.14702084426E+03 -0.75273724262E+03  0.80065435126E+03  0.00000000000E+00 0. -1.
         -4    1    3    3    0  502  0.47669970177E+02  0.37536830295E+03 -0.67818582616E+03  0.77660144458E+03  0.00000000000E+00 0. -1.
</event>
<event>
 7    1  0.5696597E-006  0.1004422E+04  0.7818608E-02  0.9454927E-01
          2   -1    0    0  501    0  0.00000000000E+00  0.00000000000E+00  0.78390240353E+03  0.78390240353E+03  0.00000000000E+00 0. -1.
         -4   -1    0    0    0  501 -0.00000000000E+00 -0.00000000000E+00 -0.47930864223E+03  0.47930864223E+03  0.00000000000E+00 0. -1.
   -9000010    2    1    2    0  502  0.40704504034E+02 -0.10050541590E+03  0.15422015898E+03  0.10191813264E+04  0.10015929928E+04 0.  0.
        -13    1    1    2    0    0  0.24157625541E+02  0.62604877573E+02 -0.91281148099E+01  0.67722191428E+02  0.10566000000E+00 0.  1.
         13    1    3    3    0    0 -0.85302070127E+02 -0.19766989082E+03  0.55106393468E+03  0.59162597996E+03  0.10566000000E+00 0. -1.
          2    1    1    2  502    0 -0.64862129575E+02  0.37900538324E+02  0.15950171712E+03  0.17630752798E+03  0.00000000000E+00 0. -1.
         -4    1    3    3    0  502  0.12600657416E+03  0.97164474920E+02 -0.39684377569E+03  0.42755534639E+03  0.00000000000E+00 0. -1.
</event>
<event>
 7    1  0.5696597E-006  0.1203369E+04  0.7818608E-02  0.8755817E-01
         -4   -1    0    0    0  501 -0.00000000000E+00  0.00000000000E+00  0.13651798856E+04  0.13651798856E+04  0.00000000000E+00 0. -1.
          1   -1    0    0  501    0  0.00000000000E+00 -0.00000000000E+00 -0.16529122976E+04  0.16529122976E+04  0.00000000000E+00 0.  1.
   -9000010    2    1    2    0  502  0.48381968591E+02  0.62618195914E+03  0.72453895609E+03  0.14074713499E+04  0.10303272495E+04 0.  0.
        -13    1    1    2    0    0 -0.55308561349E+02 -0.61336113061E+03 -0.17866159531E+02  0.61610885753E+03  0.10566000000E+00 0.  1.
         13    1    3    3    0    0 -0.68072722505E+02  0.24256056387E+03 -0.24924414853E+03  0.35438986926E+03  0.10566000000E+00 0. -1.
          1    1    1    2  502    0  0.69265927587E+01 -0.12820828525E+02 -0.99440520849E+03  0.99451197580E+03  0.00000000000E+00 0.  1.
         -4    1    3    3    0  502  0.11645469110E+03  0.38362139527E+03  0.97378310462E+03  0.10530814806E+04  0.00000000000E+00 0. -1.
</event>
<event>
 7    1  0.5696597E-006  0.1279420E+04  0.7818608E-02  0.8696080E-01
         -4   -1    0    0    0  501 -0.00000000000E+00  0.00000000000E+00  0.28580828082E+04  0.28580828082E+04  0.00000000000E+00 0. -1.
          2   -1    0    0  501    0  0.00000000000E+00 -0.00000000000E+00 -0.53313726936E+03  0.53313726936E+03  0.00000000000E+00 0.  1.
   -9000010    2    1    2    0  502 -0.27266906505E+03 -0.60633935287E+03  0.15802790078E+04  0.20319175650E+04  0.10906014022E+04 0.  0.
        -13    1    1    2    0    0  0.26684512364E+03  0.61558595492E+03  0.94484338120E+03  0.11588276033E+04  0.10566000000E+00 0.  1.
         13    1    3    3    0    0  0.35436753211E+03  0.55203638561E+02  0.54671060341E+03  0.65384729453E+03  0.10566000000E+00 0. -1.
          2    1    1    2  502    0  0.58239414069E+01 -0.92466020496E+01 -0.20017685015E+03  0.20047490935E+03  0.00000000000E+00 0.  1.
         -4    1    3    3    0  502 -0.62703659716E+03 -0.66154299143E+03  0.10335684044E+04  0.13780702704E+04  0.00000000000E+00 0. -1.
</event>
<event>
 7    1  0.5696597E-006  0.1171332E+04  0.7818608E-02  0.8782084E-01
          2   -1    0    0  501    0  0.00000000000E+00  0.00000000000E+00  0.34549787885E+04  0.34549787885E+04  0.00000000000E+00 0. -1.
         -4   -1    0    0    0  501 -0.00000000000E+00 -0.00000000000E+00 -0.47198726897E+03  0.47198726897E+03  0.00000000000E+00 0. -1.
   -9000010    2    1    2    0  502  0.57505743844E+03  0.11718361863E+03  0.64384541654E+03  0.13295498448E+04  0.10043618927E+04 0.  0.
        -13    1    1    2    0    0 -0.60945669778E+03 -0.82917396906E+02  0.60553521380E+03  0.86312552244E+03  0.10566000000E+00 0.  1.
         13    1    3    3    0    0  0.26512830864E+03 -0.40244502318E+03  0.52553974618E+03  0.71305473331E+03  0.10566000000E+00 0. -1.
          2    1    1    2  502    0  0.34399259340E+02 -0.34266221723E+02  0.17336108892E+04  0.17342906902E+04  0.00000000000E+00 0. -1.
         -4    1    3    3    0  502  0.30992912979E+03  0.51962864181E+03  0.11830567037E+03  0.61649511152E+03  0.00000000000E+00 0. -1.
</event>
<event>
 7    1  0.5696597E-006  0.1095281E+04  0.7818608E-02  0.8902671E-01
         -4   -1    0    0    0  501 -0.00000000000E+00  0.00000000000E+00  0.40006805815E+03  0.40006805815E+03  0.00000000000E+00 0. -1.
          2   -1    0    0  501    0  0.00000000000E+00 -0.00000000000E+00 -0.23526705232E+04  0.23526705232E+04  0.00000000000E+00 0. -1.
   -9000010    2    1    2    0  502  0.25733069513E+03  0.26022015002E+03 -0.10130573528E+04  0.14704421035E+04  0.10009900931E+04 0.  0.
        -13    1    1    2    0    0 -0.42375569693E+03 -0.20586422085E+03 -0.18243028631E+03  0.50520272034E+03  0.10566000000E+00 0.  1.
         13    1    3    3    0    0 -0.20876308508E+03  0.41319353486E+03 -0.82317556176E+03  0.94441989580E+03  0.10566000000E+00 0. -1.
          2    1    1    2  502    0  0.16642500180E+03 -0.54355929176E+02 -0.75711482594E+03  0.77709375749E+03  0.00000000000E+00 0. -1.
         -4    1    3    3    0  502  0.46609378022E+03 -0.15297338483E+03 -0.18988179100E+03  0.52602220768E+03  0.00000000000E+00 0. -1.
</event>
<event>
 7    1  0.5696597E-006  0.1014732E+04  0.7818608E-02  0.9186190E-01
         -4   -1    0    0    0  501  0.00000000000E+00  0.00000000000E+00  0.11860774427E+04  0.11860774427E+04  0.00000000000E+00 0.  1.
         -4   -1    0    0    0  502 -0.00000000000E+00 -0.00000000000E+00 -0.25061698264E+04  0.25061698264E+04  0.00000000000E+00 0. -1.
   -9000010    2    1    2    0  501 -0.10314232724E+03 -0.14197767186E+03 -0.16654946977E+04  0.19499103130E+04  0.99874002703E+03 0.  0.
        -13    1    1    2    0    0  0.11972906450E+03  0.13418244330E+03 -0.68680928789E+03  0.70996266527E+03  0.10566000000E+00 0.  1.
         13    1    3    3    0    0 -0.27097631665E+03  0.36397009219E+03 -0.54569788285E+03  0.70971021037E+03  0.10566000000E+00 0. -1.
         -4    1    1    2    0  502 -0.16586737261E+02  0.77952285548E+01  0.10322116018E+04  0.10323742908E+04  0.00000000000E+00 0.  1.
         -4    1    3    3    0  501  0.16783398942E+03 -0.50594776405E+03 -0.11197968148E+04  0.12402001026E+04  0.00000000000E+00 0. -1.
</event>
<event>
 7    1  0.5696597E-006  0.8365542E+03  0.7818608E-02  0.9312634E-01
          2   -1    0    0  502    0  0.00000000000E+00  0.00000000000E+00  0.32021046602E+04  0.32021046602E+04  0.00000000000E+00 0.  1.
          4   -1    0    0  501    0 -0.00000000000E+00 -0.00000000000E+00 -0.30761125776E+03  0.30761125776E+03  0.00000000000E+00 0.  1.
    9000010    2    1    2  502    0 -0.19661698435E+03 -0.18113361401E+03  0.51054306511E+03  0.97480614466E+03  0.78620937013E+03 0.  0.
        -13    1    3    3    0    0  0.92627400571E+02 -0.18347981811E+03 -0.14950595330E+03  0.25415884841E+03  0.10566000000E+00 0.  1.
         13    1    1    2    0    0 -0.92357657088E+02  0.17430583948E+03  0.79950654555E+02  0.21284872757E+03  0.10566000000E+00 0. -1.
          2    1    1    2  501    0  0.28897464143E+03  0.68277745365E+01  0.23039996827E+04  0.23220610457E+04  0.00000000000E+00 0.  1.
          4    1    3    3  502    0 -0.28924438492E+03  0.23462040976E+01  0.66004901841E+03  0.72064729625E+03  0.00000000000E+00 0.  1.
</event>
<event>
 7    1  0.5696597E-006  0.1010348E+04  0.7818608E-02  0.9235711E-01
         -4   -1    0    0    0  501 -0.00000000000E+00  0.00000000000E+00  0.34484722977E+03  0.34484722977E+03  0.00000000000E+00 0. -1.
          2   -1    0    0  501    0  0.00000000000E+00 -0.00000000000E+00 -0.26649701471E+04  0.26649701471E+04  0.00000000000E+00 0. -1.
   -9000010    2    1    2    0  502 -0.54753752991E+02  0.13245081499E+03 -0.67195577214E+03  0.12125722749E+04  0.99913250882E+03 0.  0.
        -13    1    1    2    0    0 -0.86629964436E+01 -0.15153370514E+03 -0.40916410400E+01  0.15183630656E+03  0.10566000000E+00 0.  1.
         13    1    3    3    0    0  0.12823309276E+03 -0.40272705787E+03 -0.16727763862E+03  0.45454881891E+03  0.10566000000E+00 0. -1.
          2    1    1    2  502    0  0.63416749435E+02  0.19082890148E+02 -0.16440755042E+04  0.16454087955E+04  0.00000000000E+00 0. -1.
         -4    1    3    3    0  502 -0.18298684575E+03  0.53517787286E+03 -0.50467813352E+03  0.75802345595E+03  0.00000000000E+00 0. -1.
</event>
<event>
 7    1  0.5696597E-006  0.9943795E+03  0.7818608E-02  0.9476457E-01
         -4   -1    0    0    0  501 -0.00000000000E+00  0.00000000000E+00  0.21425296144E+04  0.21425296144E+04  0.00000000000E+00 0. -1.
          1   -1    0    0  501    0  0.00000000000E+00 -0.00000000000E+00 -0.26383338515E+03  0.26383338515E+03  0.00000000000E+00 0. -1.
   -9000010    2    1    2    0  502  0.40070914014E+02  0.38213644937E+02  0.19994550657E+04  0.22328438438E+04  0.99232308770E+03 0.  0.
        -13    1    1    2    0    0 -0.46297914880E+02 -0.48573906572E+02 -0.17221366322E+02  0.69278481103E+02  0.10566000000E+00 0.  1.
         13    1    3    3    0    0  0.25660300908E+03 -0.41704349186E+03  0.99889361358E+03  0.11124562197E+04  0.10566000000E+00 0. -1.
          1    1    1    2  502    0  0.62270008656E+01  0.10360261635E+02 -0.10353747004E+03  0.10424067470E+03  0.00000000000E+00 0. -1.
         -4    1    3    3    0  502 -0.21653209506E+03  0.45525713680E+03  0.10005614521E+04  0.11203876241E+04  0.00000000000E+00 0. -1.
</event>
<event>
 7    1  0.5696597E-006  0.1662929E+04  0.7818608E-02  0.8368042E-01
         -4   -1    0    0    0  501 -0.00000000000E+00  0.00000000000E+00  0.21735595202E+04  0.21735595202E+04  0.00000000000E+00 0. -1.
          2   -1    0    0  501    0  0.00000000000E+00 -0.00000000000E+00 -0.20860152628E+04  0.20860152628E+04  0.00000000000E+00 0.  1.
   -9000010    2    1    2    0  502 -0.57394010326E+03 -0.11998217771E+04  0.64128372612E+03  0.17783027852E+04  0.99102797118E+03 0.  0.
        -13    1    1    2    0    0  0.56701058071E+03  0.12138563280E+04  0.49807214935E+03  0.14293439267E+04  0.10566000000E+00 0.  1.
         13    1    3    3    0    0 -0.34371936351E+03 -0.33905344165E+03  0.73815563557E+03  0.88202833891E+03  0.10566000000E+00 0. -1.
          2    1    1    2  502    0  0.69295225484E+01 -0.14034550959E+02 -0.10518116180E+04  0.10519280711E+04  0.00000000000E+00 0.  1.
         -4    1    3    3    0  502 -0.23022073975E+03 -0.86076833541E+03 -0.96871909452E+02  0.89627444631E+03  0.00000000000E+00 0. -1.
</event>
<event>
 7    1  0.5696597E-006  0.1123251E+04  0.7818608E-02  0.8863354E-01
          2   -1    0    0  502    0  0.00000000000E+00  0.00000000000E+00  0.89853267764E+03  0.89853267764E+03  0.00000000000E+00 0.  1.
          4   -1    0    0  501    0 -0.00000000000E+00 -0.00000000000E+00 -0.27792181382E+04  0.27792181382E+04  0.00000000000E+00 0.  1.
    9000010    2    1    2  502    0  0.48799853734E+03  0.21809138362E+02 -0.10324876194E+04  0.15266865046E+04  0.10129771903E+04 0.  0.
        -13    1    3    3    0    0 -0.10598711422E+02 -0.43647319747E+03 -0.30381146724E+03  0.53190469408E+03  0.10566000000E+00 0.  1.
         13    1    1    2    0    0 -0.47725738455E+03 -0.89157849879E+02 -0.14583845352E+04  0.15370781363E+04  0.10566000000E+00 0. -1.
          2    1    1    2  501    0 -0.10741152790E+02  0.67348711517E+02  0.61018669411E+03  0.61398617491E+03  0.00000000000E+00 0.  1.
          4    1    3    3  502    0  0.49859724876E+03  0.45828233583E+03 -0.72867615216E+03  0.99478181052E+03  0.00000000000E+00 0.  1.
</event>
<event>
 7    1  0.5696597E-006  0.1011500E+04  0.7818608E-02  0.9187841E-01
          4   -1    0    0  501    0 -0.00000000000E+00  0.00000000000E+00  0.45098293630E+03  0.45098293630E+03  0.00000000000E+00 0.  1.
          2   -1    0    0  502    0  0.00000000000E+00 -0.00000000000E+00 -0.14689981883E+04  0.14689981883E+04  0.00000000000E+00 0.  1.
    9000010    2    1    2  502    0  0.11941369180E+03  0.13387792763E+03 -0.22310808845E+03  0.10357062959E+04  0.99535289368E+03 0.  0.
        -13    1    3    3    0    0 -0.35049382148E+03 -0.16819668068E+03  0.84713278656E+02  0.39788489923E+03  0.10566000000E+00 0.  1.
         13    1    1    2    0    0 -0.12729009113E+03 -0.12762481525E+03 -0.13729319288E+03  0.22658396400E+03  0.10566000000E+00 0. -1.
          2    1    1    2  501    0  0.78763993254E+01 -0.62531123727E+01 -0.65761397071E+03  0.65769086473E+03  0.00000000000E+00 0.  1.
          4    1    3    3  502    0  0.46990751328E+03  0.30207460831E+03 -0.30782136711E+03  0.63782139669E+03  0.00000000000E+00 0.  1.
</event>
<event>
 7    1  0.5696597E-006  0.1838156E+04  0.7818608E-02  0.8819571E-01
          2   -1    0    0  501    0  0.00000000000E+00  0.00000000000E+00  0.22914211628E+04  0.22914211628E+04  0.00000000000E+00 0.  1.
         -4   -1    0    0    0  501 -0.00000000000E+00 -0.00000000000E+00 -0.14100912878E+04  0.14100912878E+04  0.00000000000E+00 0. -1.
   -9000010    2    1    2    0  502 -0.15144670390E+04  0.31289532818E+03  0.11790044120E+03  0.18464930425E+04  0.10020589520E+04 0.  0.
        -13    1    1    2    0    0 -0.14940347471E+02 -0.13223506555E+03 -0.65145428225E+01  0.13323579465E+03  0.10566000000E+00 0.  1.
         13    1    3    3    0    0 -0.16004416628E+04  0.20361112464E+03  0.27509216814E+03  0.16366266277E+04  0.10566000000E+00 0. -1.
          2    1    1    2  502    0  0.15294073865E+04 -0.18066026262E+03  0.76994397656E+03  0.17217836134E+04  0.00000000000E+00 0.  1.
         -4    1    3    3    0  502  0.85974623788E+02  0.10928420354E+03 -0.15719172694E+03  0.20986641488E+03  0.00000000000E+00 0. -1.
</event>
<event>
 7    1  0.5696597E-006  0.1025936E+04  0.7818608E-02  0.9212364E-01
          2   -1    0    0  502    0  0.00000000000E+00  0.00000000000E+00  0.24922257587E+04  0.24922257587E+04  0.00000000000E+00 0.  1.
          4   -1    0    0  501    0 -0.00000000000E+00 -0.00000000000E+00 -0.28863122283E+03  0.28863122283E+03  0.00000000000E+00 0.  1.
    9000010    2    1    2  502    0 -0.23198803317E+02  0.19299723532E+03  0.21179810356E+04  0.23544306196E+04  0.10098087728E+04 0.  0.
        -13    1    3    3    0    0  0.45811018001E+02  0.39698290191E+03  0.24421748367E+03  0.46833349685E+03  0.10566000000E+00 0.  1.
         13    1    1    2    0    0  0.15006438706E+03 -0.45751992601E+02 -0.75374398205E+02  0.17405136069E+03  0.10566000000E+00 0. -1.
          2    1    1    2  501    0 -0.12686558374E+03 -0.14724524272E+03  0.16098789849E+03  0.25237500134E+03  0.00000000000E+00 0.  1.
          4    1    3    3  502    0 -0.69009821317E+02 -0.20398566659E+03  0.18737635520E+04  0.18860971227E+04  0.00000000000E+00 0.  1.
</event>
<event>
 7    1  0.5696597E-006  0.1149068E+04  0.7818608E-02  0.8830566E-01
         -4   -1    0    0    0  502 -0.00000000000E+00  0.00000000000E+00  0.27189869265E+04  0.27189869265E+04  0.00000000000E+00 0. -1.
         -2   -1    0    0    0  501  0.00000000000E+00 -0.00000000000E+00 -0.36888667720E+04  0.36888667720E+04  0.00000000000E+00 0. -1.
   -9000010    2    1    2    0  501  0.84923662914E+02  0.59717358415E+03  0.94988400679E+03  0.15218185293E+04  0.10246090433E+04 0.  0.
        -13    1    1    2    0    0 -0.11611995549E+03 -0.49435188891E+03  0.14387846393E+04  0.15257682929E+04  0.10566000000E+00 0.  1.
         13    1    3    3    0    0  0.87234840343E+01  0.88805932925E+03  0.72067049885E+03  0.11437182566E+04  0.10566000000E+00 0. -1.
         -2    1    1    2    0  502  0.31196292578E+02 -0.10282169525E+03 -0.33585484916E+04  0.33602668763E+04  0.00000000000E+00 0. -1.
         -4    1    3    3    0  501  0.76200178879E+02 -0.29088574510E+03  0.22921350794E+03  0.37810027266E+03  0.00000000000E+00 0. -1.
</event>
<event>
 6    1  0.1403972E-005  0.1720110E+04  0.7818608E-02  0.8552484E-01
         -4   -1    0    0    0  501 -0.00000000000E+00  0.00000000000E+00  0.14099051485E+04  0.14099051485E+04  0.00000000000E+00 0. -1.
          1   -1    0    0  501    0  0.00000000000E+00 -0.00000000000E+00 -0.96828507808E+03  0.96828507808E+03  0.00000000000E+00 0. -1.
        -13    1    1    2    0    0 -0.50597696132E+03  0.96145437086E+02  0.17287896350E+03  0.54327136649E+03  0.10566000000E+00 0.  1.
         13    1    1    2    0    0  0.39924028260E+03  0.10314623572E+02  0.10013332673E+04  0.10780387368E+04  0.10566000000E+00 0. -1.
          1    1    1    2  502    0 -0.13943035587E+02  0.13947652173E+02 -0.74444916802E+02  0.77012926708E+02  0.00000000000E+00 0. -1.
         -4    1    1    2    0  502  0.12067971431E+03 -0.12040771283E+03 -0.65814724357E+03  0.67986719658E+03  0.00000000000E+00 0. -1.
</event>
<event>
 7    1  0.5696597E-006  0.1680054E+04  0.7818608E-02  0.8742626E-01
          1   -1    0    0  501    0  0.00000000000E+00  0.00000000000E+00  0.20220655519E+04  0.20220655519E+04  0.00000000000E+00 0. -1.
         -4   -1    0    0    0  501 -0.00000000000E+00 -0.00000000000E+00 -0.27393930867E+04  0.27393930867E+04  0.00000000000E+00 0. -1.
   -9000010    2    1    2    0  502 -0.13138941965E+04  0.50112291151E+03 -0.16783963091E+04  0.24191922696E+04  0.10286082513E+04 0.  0.
        -13    1    1    2    0    0  0.17495223191E+03  0.16681668063E+03 -0.38636661311E+03  0.45575789546E+03  0.10566000000E+00 0.  1.
         13    1    3    3    0    0 -0.50121192527E+03  0.72396552510E+03 -0.67890165612E+03  0.11118664243E+04  0.10566000000E+00 0. -1.
          1    1    1    2  502    0  0.11389419646E+04 -0.66793959214E+03  0.13474353874E+04  0.18865084735E+04  0.00000000000E+00 0. -1.
         -4    1    3    3    0  502 -0.81268227127E+03 -0.22284261359E+03 -0.99949465299E+03  0.13073258453E+04  0.00000000000E+00 0. -1.
</event>
<event>
 7    1  0.5696597E-006  0.1061038E+04  0.7818608E-02  0.8998227E-01
          2   -1    0    0  501    0  0.00000000000E+00  0.00000000000E+00  0.21687111127E+04  0.21687111127E+04  0.00000000000E+00 0.  1.
         -4   -1    0    0    0  501 -0.00000000000E+00 -0.00000000000E+00 -0.65740322895E+03  0.65740322895E+03  0.00000000000E+00 0. -1.
   -9000010    2    1    2    0  502  0.35718386957E+03 -0.24302703857E+02  0.10736619774E+04  0.15156929036E+04  0.10081686357E+04 0.  0.
        -13    1    1    2    0    0 -0.31642834749E+03 -0.95384300276E+02 -0.36817004695E+03  0.49474666090E+03  0.10566000000E+00 0.  1.
         13    1    3    3    0    0 -0.10026377583E+03  0.15310268820E+03 -0.12424394312E+03  0.22120087352E+03  0.10566000000E+00 0. -1.
          2    1    1    2  502    0 -0.40755522080E+02  0.11968700413E+03  0.80581595324E+03  0.81567477712E+03  0.00000000000E+00 0.  1.
         -4    1    3    3    0  502  0.45744764541E+03 -0.17740539206E+03  0.11979059205E+04  0.12944920301E+04  0.00000000000E+00 0. -1.
</event>
<event>
 7    1  0.5696597E-006  0.1269916E+04  0.7818608E-02  0.9052676E-01
          4   -1    0    0  501    0 -0.00000000000E+00  0.00000000000E+00  0.15084690724E+04  0.15084690724E+04  0.00000000000E+00 0.  1.
          2   -1    0    0  502    0  0.00000000000E+00 -0.00000000000E+00 -0.13812623372E+04  0.13812623372E+04  0.00000000000E+00 0.  1.
    9000010    2    1    2  502    0 -0.60993233168E+03  0.70163562245E+03  0.67811544565E+03  0.14660847150E+04  0.90843482879E+03 0.  0.
        -13    1    3    3    0    0 -0.28769425805E+03  0.84816196789E+03  0.65831819505E+03  0.11115437765E+04  0.10566000000E+00 0.  1.
         13    1    1    2    0    0 -0.68467570890E+02 -0.13902365322E+03  0.20882957460E+03  0.26004843166E+03  0.10566000000E+00 0. -1.
          2    1    1    2  501    0  0.67839990257E+03 -0.56261196922E+03 -0.75973828508E+03  0.11635982630E+04  0.00000000000E+00 0.  1.
          4    1    3    3  502    0 -0.32223807363E+03 -0.14652634544E+03  0.19797250600E+02  0.35454093859E+03  0.00000000000E+00 0.  1.
</event>
<event>
 7    1  0.5696597E-006  0.1109998E+04  0.7818608E-02  0.8882772E-01
          4   -1    0    0  501    0 -0.00000000000E+00  0.00000000000E+00  0.79837543500E+03  0.79837543500E+03  0.00000000000E+00 0.  1.
          2   -1    0    0  502    0  0.00000000000E+00 -0.00000000000E+00 -0.16643612100E+04  0.16643612100E+04  0.00000000000E+00 0. -1.
    9000010    2    1    2  502    0 -0.16332813259E+03  0.43945564988E+03  0.19483604419E+03  0.11290146009E+04  0.10084223014E+04 0.  0.
        -13    1    3    3    0    0 -0.37395645805E+03  0.46171971674E+03  0.48693883014E+03  0.76820437698E+03  0.10566000000E+00 0.  1.
         13    1    1    2    0    0  0.15355197501E+03 -0.43339457208E+03 -0.25104438666E+03  0.52386292041E+03  0.10566000000E+00 0. -1.
          2    1    1    2  501    0  0.97761575809E+01 -0.60610778009E+01 -0.80977743250E+03  0.80985912362E+03  0.00000000000E+00 0. -1.
          4    1    3    3  502    0  0.21062832546E+03 -0.22264066861E+02 -0.29210278596E+03  0.36081022397E+03  0.00000000000E+00 0.  1.
</event>
<event>
 7    1  0.5696597E-006  0.1032684E+04  0.7818608E-02  0.9262462E-01
          2   -1    0    0  502    0  0.00000000000E+00  0.00000000000E+00  0.87713911021E+03  0.87713911021E+03  0.00000000000E+00 0.  1.
          4   -1    0    0  501    0 -0.00000000000E+00 -0.00000000000E+00 -0.70127557571E+03  0.70127557571E+03  0.00000000000E+00 0.  1.
    9000010    2    1    2  502    0 -0.63670706862E+02  0.11118993338E+03 -0.28607042662E+03  0.10717225217E+04  0.10248588754E+04 0.  0.
        -13    1    3    3    0    0  0.13551128071E+02 -0.36559684665E+03  0.17360303951E+03  0.40494779151E+03  0.10566000000E+00 0.  1.
         13    1    1    2    0    0  0.11207324763E+03 -0.69863468484E+02  0.22063014301E+03  0.25713612782E+03  0.10566000000E+00 0. -1.
          2    1    1    2  501    0 -0.48402540765E+02 -0.41326464898E+02  0.24130381811E+03  0.24955603637E+03  0.00000000000E+00 0.  1.
          4    1    3    3  502    0 -0.77221834933E+02  0.47678678004E+03 -0.45967346613E+03  0.66677473023E+03  0.00000000000E+00 0.  1.
</event>
<event>
 7    1  0.5696597E-006  0.1625269E+04  0.7818608E-02  0.8393476E-01
          1   -1    0    0  501    0  0.00000000000E+00  0.00000000000E+00  0.15897368870E+04  0.15897368870E+04  0.00000000000E+00 0.  1.
         -4   -1    0    0    0  501 -0.00000000000E+00 -0.00000000000E+00 -0.27417550310E+04  0.27417550310E+04  0.00000000000E+00 0. -1.
   -9000010    2    1    2    0  502  0.82211142503E+03  0.97842509521E+03 -0.48138796501E+03  0.17008316116E+04  0.10138594263E+04 0.  0.
        -13    1    1    2    0    0 -0.84780483828E+03 -0.94210298875E+03 -0.14065860331E+04  0.18933608650E+04  0.10566000000E+00 0.  1.
         13    1    3    3    0    0  0.26475122015E+03  0.96598723838E+03 -0.54403476226E+03  0.11398238403E+04  0.10566000000E+00 0. -1.
          1    1    1    2  502    0  0.25693413252E+02 -0.36322106459E+02  0.73595585419E+03  0.73729944135E+03  0.00000000000E+00 0.  1.
         -4    1    3    3    0  502  0.55736020488E+03  0.12437856829E+02  0.62646797246E+02  0.56100777131E+03  0.00000000000E+00 0. -1.
</event>
<event>
 7    1  0.5696597E-006  0.1087170E+04  0.7818608E-02  0.8921433E-01
          4   -1    0    0  501    0  0.00000000000E+00  0.00000000000E+00  0.16592468558E+04  0.16592468558E+04  0.00000000000E+00 0. -1.
         -4   -1    0    0    0  501 -0.00000000000E+00 -0.00000000000E+00 -0.17093811189E+04  0.17093811189E+04  0.00000000000E+00 0. -1.
   -9000010    2    1    2    0  502  0.16933657658E+03  0.36698365473E+03 -0.11207533046E+03  0.10866640540E+04  0.10024599780E+04 0.  0.
        -13    1    1    2    0    0 -0.18207481270E+03 -0.38080652739E+03 -0.10698037521E+04  0.11500630104E+04  0.10566000000E+00 0.  1.
         13    1    3    3    0    0  0.55607143875E+03  0.16098133704E+03  0.11941883762E+03  0.59109331396E+03  0.10566000000E+00 0. -1.
          4    1    1    2  502    0  0.12738236116E+02  0.13822872656E+02  0.11317448194E+04  0.11319009103E+04  0.00000000000E+00 0. -1.
         -4    1    3    3    0  502 -0.38673486217E+03  0.20600231770E+03 -0.23149416808E+03  0.49557074002E+03  0.00000000000E+00 0. -1.
</event>
<event>
 7    1  0.5696597E-006  0.1137797E+04  0.7818608E-02  0.8832341E-01
          4   -1    0    0  501    0 -0.00000000000E+00  0.00000000000E+00  0.22819523301E+04  0.22819523301E+04  0.00000000000E+00 0.  1.
          2   -1    0    0  502    0  0.00000000000E+00 -0.00000000000E+00 -0.20026988532E+04  0.20026988532E+04  0.00000000000E+00 0.  1.
    9000010    2    1    2  502    0  0.53640007045E+03  0.52613827331E+02  0.12040598696E+04  0.16589372266E+04  0.10058922914E+04 0.  0.
        -13    1    3    3    0    0  0.49396126804E+03  0.37034167152E+03  0.11869765550E+04  0.13379327491E+04  0.10566000000E+00 0.  1.
         13    1    1    2    0    0 -0.52914533272E+03 -0.17551815632E+02  0.76784808347E+03  0.93268083492E+03  0.10566000000E+00 0. -1.
          2    1    1    2  501    0 -0.72547377367E+01 -0.35062011699E+02 -0.16926544762E+04  0.16930331218E+04  0.00000000000E+00 0.  1.
          4    1    3    3  502    0  0.42438802408E+02 -0.31772784419E+03  0.17083314646E+02  0.32100447748E+03  0.00000000000E+00 0.  1.
</event>
<event>
 7    1  0.5696597E-006  0.1036622E+04  0.7818608E-02  0.9084689E-01
          4   -1    0    0  501    0 -0.00000000000E+00  0.00000000000E+00  0.10872931772E+04  0.10872931772E+04  0.00000000000E+00 0.  1.
          2   -1    0    0  502    0  0.00000000000E+00 -0.00000000000E+00 -0.30748278709E+04  0.30748278709E+04  0.00000000000E+00 0.  1.
    9000010    2    1    2  502    0 -0.47223857302E+02  0.30580931445E+02  0.29824394691E+02  0.10078420282E+04  0.10058284015E+04 0.  0.
        -13    1    3    3    0    0 -0.42055500550E+03  0.18502712617E+03  0.27479067824E+03  0.53536107262E+03  0.10566000000E+00 0.  1.
         13    1    1    2    0    0  0.17746827386E+03  0.19868655871E+03  0.53006457491E+03  0.59324514459E+03  0.10566000000E+00 0. -1.
          2    1    1    2  501    0 -0.13024441656E+03 -0.22926749016E+03 -0.25474236633E+04  0.25610338753E+04  0.00000000000E+00 0.  1.
          4    1    3    3  502    0  0.37333114820E+03 -0.15444619472E+03 -0.24496628355E+03  0.47248095555E+03  0.00000000000E+00 0.  1.
</event>
<event>
 6    1  0.5696597E-006  0.6529977E+03  0.7818608E-02  0.9647097E-01
          2   -1    0    0  501    0  0.00000000000E+00  0.00000000000E+00  0.28625819568E+04  0.28625819568E+04  0.00000000000E+00 0. -1.
         -4   -1    0    0    0  501 -0.00000000000E+00 -0.00000000000E+00 -0.13216176876E+03  0.13216176876E+03  0.00000000000E+00 0. -1.
        -13    1    1    2    0    0  0.13641509276E+03 -0.12039292691E+02  0.20585297010E+03  0.24724376345E+03  0.10566000000E+00 0.  1.
         13    1    1    2    0    0 -0.24134545816E+03  0.24169519875E+03  0.38050381682E+03  0.51131923986E+03  0.10566000000E+00 0. -1.
          2    1    1    2  502    0 -0.74310660098E+02  0.90400259383E+01  0.16968342948E+04  0.16984847425E+04  0.00000000000E+00 0. -1.
         -4    1    1    2    0  502  0.17924102549E+03 -0.23869593200E+03  0.44722910632E+03  0.53769597982E+03  0.00000000000E+00 0. -1.
</event>
<event>
 7    1  0.5696597E-006  0.1104549E+04  0.7818608E-02  0.8931199E-01
          2   -1    0    0  502    0  0.00000000000E+00  0.00000000000E+00  0.63076101237E+03  0.63076101237E+03  0.00000000000E+00 0.  1.
          4   -1    0    0  501    0 -0.00000000000E+00 -0.00000000000E+00 -0.12121627143E+04  0.12121627143E+04  0.00000000000E+00 0.  1.
    9000010    2    1    2  502    0  0.13049989814E+03 -0.36032495510E+03 -0.62442050112E+03  0.12681791595E+04  0.10351391798E+04 0.  0.
        -13    1    3    3    0    0 -0.69355132339E+02 -0.41774113561E+03 -0.85717482382E+03  0.95606824051E+03  0.10566000000E+00 0.  1.
         13    1    1    2    0    0 -0.14259026906E+03  0.35909460740E+03 -0.12515376256E+03  0.40613347232E+03  0.10566000000E+00 0. -1.
          2    1    1    2  501    0  0.12090370920E+02  0.12303477045E+01  0.16817256170E+03  0.16861109493E+03  0.00000000000E+00 0.  1.
          4    1    3    3  502    0  0.19985503048E+03  0.57416180507E+02  0.23275432270E+03  0.31211091895E+03  0.00000000000E+00 0.  1.
</event>
<event>
 7    1  0.5696597E-006  0.1006840E+04  0.7818608E-02  0.9319158E-01
          2   -1    0    0  501    0  0.00000000000E+00  0.00000000000E+00  0.13607473429E+04  0.13607473429E+04  0.00000000000E+00 0. -1.
         -4   -1    0    0    0  501 -0.00000000000E+00 -0.00000000000E+00 -0.47943684404E+03  0.47943684404E+03  0.00000000000E+00 0. -1.
   -9000010    2    1    2    0  502  0.24026122629E+03 -0.19145847970E+03  0.48426023508E+03  0.11396286498E+04  0.98481657064E+03 0.  0.
        -13    1    1    2    0    0 -0.63330638066E+02  0.90421100981E+02 -0.10893285161E+03  0.15509069135E+03  0.10566000000E+00 0.  1.
         13    1    3    3    0    0  0.20211825722E+03  0.72196022406E+02  0.73990783592E+03  0.77040747164E+03  0.10566000000E+00 0. -1.
          2    1    1    2  502    0 -0.17693058823E+03  0.10103737872E+03  0.50598311536E+03  0.54546484577E+03  0.00000000000E+00 0. -1.
         -4    1    3    3    0  502  0.38142969077E+02 -0.26365450211E+03 -0.25564760083E+03  0.36922117814E+03  0.00000000000E+00 0. -1.
</event>
<event>
 7    1  0.5696597E-006  0.1177183E+04  0.7818608E-02  0.8763782E-01
          2   -1    0    0  502    0  0.00000000000E+00  0.00000000000E+00  0.23752746741E+04  0.23752746741E+04  0.00000000000E+00 0.  1.
          4   -1    0    0  501    0 -0.00000000000E+00 -0.00000000000E+00 -0.12840347147E+04  0.12840347147E+04  0.00000000000E+00 0.  1.
    9000010    2    1    2  502    0  0.53713753867E+03 -0.43656625753E+03  0.20317430269E+04  0.23623694745E+04  0.98676388980E+03 0.  0.
        -13    1    3    3    0    0 -0.19681667836E+03  0.16331895212E+03  0.48392279317E+03  0.54734921752E+03  0.10566000000E+00 0.  1.
         13    1    1    2    0    0 -0.47647390309E+03  0.42703738518E+03 -0.10153444437E+04  0.12001302676E+04  0.10566000000E+00 0. -1.
          2    1    1    2  501    0 -0.60663635573E+02  0.95288723454E+01  0.74841376175E+02  0.96809646610E+02  0.00000000000E+00 0.  1.
          4    1    3    3  502    0  0.73395421703E+03 -0.59988520965E+03  0.15478202337E+04  0.18150202570E+04  0.00000000000E+00 0.  1.
</event>
<event>
 7    1  0.5696597E-006  0.1072005E+04  0.7818608E-02  0.9285657E-01
         -2   -1    0    0    0  501  0.00000000000E+00  0.00000000000E+00  0.20339876889E+03  0.20339876889E+03  0.00000000000E+00 0.  1.
         -4   -1    0    0    0  502 -0.00000000000E+00 -0.00000000000E+00 -0.32185970624E+04  0.32185970624E+04  0.00000000000E+00 0. -1.
   -9000010    2    1    2    0  501  0.65933848975E+02  0.83795317879E+02 -0.29575633291E+04  0.31459438168E+04  0.10669642567E+04 0.  0.
        -13    1    1    2    0    0 -0.73538813573E+02 -0.72799354284E+02 -0.15027276345E+03  0.18245442633E+03  0.10566000000E+00 0.  1.
         13    1    3    3    0    0  0.55454757259E+03 -0.67626334494E+02 -0.14457048823E+04  0.15498899797E+04  0.10566000000E+00 0. -1.
         -2    1    1    2    0  502  0.76049645973E+01 -0.10995963594E+02  0.92637799026E+02  0.93597588165E+02  0.00000000000E+00 0.  1.
         -4    1    3    3    0  501 -0.48861372362E+03  0.15142165237E+03 -0.15118584468E+04  0.15960538370E+04  0.00000000000E+00 0. -1.
</event>
<event>
 7    1  0.5696597E-006  0.1101058E+04  0.7818608E-02  0.8816639E-01
          4   -1    0    0  501    0 -0.00000000000E+00  0.00000000000E+00  0.29923754046E+04  0.29923754046E+04  0.00000000000E+00 0.  1.
          2   -1    0    0  502    0  0.00000000000E+00 -0.00000000000E+00 -0.52577962971E+03  0.52577962971E+03  0.00000000000E+00 0.  1.
    9000010    2    1    2  502    0  0.37920039825E+03 -0.47655456064E+03  0.20629582646E+04  0.23336751479E+04  0.90517716670E+03 0.  0.
        -13    1    3    3    0    0  0.14754437856E+03 -0.57546565682E+02 -0.50841745492E+02  0.16633052972E+03  0.10566000000E+00 0.  1.
         13    1    1    2    0    0 -0.38791104245E+03  0.51440312929E+03  0.66168112299E+03  0.92352989988E+03  0.10566000000E+00 0. -1.
          2    1    1    2  501    0  0.87106442029E+01 -0.37848568657E+02 -0.25804361265E+03  0.26094998659E+03  0.00000000000E+00 0.  1.
          4    1    3    3  502    0  0.23165601969E+03 -0.41900799495E+03  0.21138000101E+04  0.21673446182E+04  0.00000000000E+00 0.  1.
</event>
<event>
 7    1  0.5696597E-006  0.1036020E+04  0.7818608E-02  0.8975561E-01
          1   -1    0    0  501    0  0.00000000000E+00  0.00000000000E+00  0.69462316968E+03  0.69462316968E+03  0.00000000000E+00 0. -1.
         -4   -1    0    0    0  501 -0.00000000000E+00 -0.00000000000E+00 -0.26317280107E+04  0.26317280107E+04  0.00000000000E+00 0. -1.
   -9000010    2    1    2    0  502  0.23638733294E+03  0.30004086716E+03 -0.13113708318E+04  0.16694901642E+04  0.96000023793E+03 0.  0.
        -13    1    1    2    0    0 -0.24590318918E+03 -0.30393290514E+03 -0.11077608633E+04  0.11747245340E+04  0.10566000000E+00 0.  1.
         13    1    3    3    0    0 -0.85840956319E+02 -0.31403455327E+03 -0.29668836734E+03  0.44046608145E+03  0.10566000000E+00 0. -1.
          1    1    1    2  502    0  0.95158562379E+01  0.38920379742E+01  0.48202685403E+03  0.48213648222E+03  0.00000000000E+00 0. -1.
         -4    1    3    3    0  502  0.32222828926E+03  0.61407542043E+03 -0.10146824644E+04  0.12290240828E+04  0.00000000000E+00 0. -1.
</event>
<event>
 7    1  0.5696597E-006  0.1104036E+04  0.7818608E-02  0.8906946E-01
          4   -1    0    0  501    0 -0.00000000000E+00  0.00000000000E+00  0.15445994948E+04  0.15445994948E+04  0.00000000000E+00 0.  1.
          2   -1    0    0  502    0  0.00000000000E+00 -0.00000000000E+00 -0.84847769972E+03  0.84847769972E+03  0.00000000000E+00 0.  1.
    9000010    2    1    2  502    0 -0.19189917266E+03 -0.37220266606E+03  0.90495513873E+03  0.14252393954E+04  0.10183336457E+04 0.  0.
        -13    1    3    3    0    0  0.33211562139E+03 -0.11231609827E+03  0.34592185648E+01  0.35061042378E+03  0.10566000000E+00 0.  1.
         13    1    1    2    0    0  0.16065269190E+03  0.39964039215E+03  0.25606074772E+03  0.50108766512E+03  0.10566000000E+00 0. -1.
          2    1    1    2  501    0  0.31246480759E+02 -0.27437726091E+02 -0.46489409141E+03  0.46675013401E+03  0.00000000000E+00 0.  1.
          4    1    3    3  502    0 -0.52401479405E+03 -0.25988656778E+03  0.90149592016E+03  0.10746289716E+04  0.00000000000E+00 0.  1.
</event>
<event>
 7    1  0.5696597E-006  0.1039841E+04  0.7818608E-02  0.9052563E-01
         -4   -1    0    0    0  501 -0.00000000000E+00  0.00000000000E+00  0.60427079741E+03  0.60427079741E+03  0.00000000000E+00 0. -1.
          2   -1    0    0  501    0  0.00000000000E+00 -0.00000000000E+00 -0.15225851467E+04  0.15225851467E+04  0.00000000000E+00 0. -1.
   -9000010    2    1    2    0  502 -0.21024707895E+03 -0.15459541135E+03 -0.82891451896E+03  0.13254138713E+04  0.10007592493E+04 0.  0.
        -13    1    1    2    0    0  0.15950674855E+03  0.23536026428E+03  0.29243977118E+03  0.40786993977E+03  0.10566000000E+00 0.  1.
         13    1    3    3    0    0 -0.66218418158E+02 -0.17654020070E+03  0.20659747640E+03  0.27970314582E+03  0.10566000000E+00 0. -1.
          2    1    1    2  502    0  0.50740330404E+02 -0.80764852934E+02 -0.38183960155E+03  0.39357213305E+03  0.00000000000E+00 0. -1.
         -4    1    3    3    0  502 -0.14402866079E+03  0.21944789348E+02 -0.10355119954E+04  0.10457107255E+04  0.00000000000E+00 0. -1.
</event>
<event>
 7    1  0.5696597E-006  0.1021310E+04  0.7818608E-02  0.9120455E-01
         -4   -1    0    0    0  501 -0.00000000000E+00  0.00000000000E+00  0.36000980964E+04  0.36000980964E+04  0.00000000000E+00 0. -1.
          2   -1    0    0  501    0  0.00000000000E+00 -0.00000000000E+00 -0.49690141351E+03  0.49690141351E+03  0.00000000000E+00 0. -1.
   -9000010    2    1    2    0  502  0.16882220139E+03  0.15048114908E+03  0.29027152278E+04  0.30770371834E+04  0.99561871320E+03 0.  0.
        -13    1    1    2    0    0 -0.16246123071E+03 -0.16004283194E+03  0.58882729581E+03  0.63144671588E+03  0.10566000000E+00 0.  1.
         13    1    3    3    0    0 -0.24162575472E+03  0.44973170516E+03  0.15625044793E+04  0.16437949601E+04  0.10566000000E+00 0. -1.
          2    1    1    2  502    0 -0.63609706803E+01  0.95616828596E+01 -0.38834584073E+03  0.38851561068E+03  0.00000000000E+00 0. -1.
         -4    1    3    3    0  502  0.41044795612E+03 -0.29925055608E+03  0.13402107485E+04  0.14332422232E+04  0.00000000000E+00 0. -1.
</event>
<event>
 7    1  0.5696597E-006  0.1014763E+04  0.7818608E-02  0.9131021E-01
         -4   -1    0    0    0  501 -0.00000000000E+00  0.00000000000E+00  0.98277326810E+03  0.98277326810E+03  0.00000000000E+00 0. -1.
          2   -1    0    0  501    0  0.00000000000E+00 -0.00000000000E+00 -0.18888694573E+04  0.18888694573E+04  0.00000000000E+00 0. -1.
   -9000010    2    1    2    0  502 -0.61233688212E+02  0.18785237492E+03 -0.17743262298E+03  0.10250400010E+04  0.99004373070E+03 0.  0.
        -13    1    1    2    0    0  0.14599033739E+03 -0.17002463038E+03  0.53496579831E+03  0.58000859483E+03  0.10566000000E+00 0.  1.
         13    1    3    3    0    0  0.31255969386E+03 -0.25635539859E+03 -0.18470608119E+03  0.44444122244E+03  0.10566000000E+00 0. -1.
          2    1    1    2  502    0 -0.84756649178E+02 -0.17827744540E+02 -0.12636293645E+04  0.12665941295E+04  0.00000000000E+00 0. -1.
         -4    1    3    3    0  502 -0.37379338207E+03  0.44420777350E+03  0.72734582092E+01  0.58059877860E+03  0.00000000000E+00 0. -1.
</event>
<event>
 7    1  0.5696597E-006  0.1014409E+04  0.7818608E-02  0.9329271E-01
         -4   -1    0    0    0  501 -0.00000000000E+00  0.00000000000E+00  0.90792981117E+03  0.90792981117E+03  0.00000000000E+00 0. -1.
          2   -1    0    0  501    0  0.00000000000E+00 -0.00000000000E+00 -0.16641165366E+04  0.16641165366E+04  0.00000000000E+00 0.  1.
   -9000010    2    1    2    0  502  0.98904144190E+02  0.64040869725E+02  0.58502883974E+03  0.11723359081E+04  0.10090735728E+04 0.  0.
        -13    1    1    2    0    0 -0.82424516670E+02 -0.56376811357E+02 -0.56244103388E+02  0.11461045387E+03  0.10566000000E+00 0.  1.
         13    1    3    3    0    0 -0.98674432288E+02  0.45214979727E+03  0.57315183107E+03  0.73666757455E+03  0.10566000000E+00 0. -1.
          2    1    1    2  502    0 -0.16479627520E+02 -0.76640583682E+01 -0.12849714618E+04  0.12850999858E+04  0.00000000000E+00 0.  1.
         -4    1    3    3    0  502  0.19757857648E+03 -0.38810892755E+03  0.11877008664E+02  0.43566833355E+03  0.00000000000E+00 0. -1.
</event>
<event>
 7    1  0.5696597E-006  0.1078901E+04  0.7818608E-02  0.8928406E-01
          2   -1    0    0  502    0  0.00000000000E+00  0.00000000000E+00  0.52683926339E+03  0.52683926339E+03  0.00000000000E+00 0.  1.
          4   -1    0    0  501    0 -0.00000000000E+00 -0.00000000000E+00 -0.24240270227E+04  0.24240270227E+04  0.00000000000E+00 0.  1.
    9000010    2    1    2  502    0  0.12968517958E+03  0.38344694510E+03 -0.43772240745E+03  0.11595287212E+04  0.99451301837E+03 0.  0.
        -13    1    3    3    0    0  0.65057438146E+02  0.72310471708E+03 -0.26350687252E+03  0.77236570687E+03  0.10566000000E+00 0.  1.
         13    1    1    2    0    0 -0.16544826894E+03 -0.38538766666E+03 -0.15959988613E+04  0.16501845836E+04  0.10566000000E+00 0. -1.
          2    1    1    2  501    0  0.35763089352E+02  0.19407215579E+01  0.13653350944E+03  0.14115298141E+03  0.00000000000E+00 0.  1.
          4    1    3    3  502    0  0.64627741439E+02 -0.33965777198E+03 -0.17421553493E+03  0.38716301430E+03  0.00000000000E+00 0.  1.
</event>
<event>
 7    1  0.5696597E-006  0.1012546E+04  0.7818608E-02  0.9128680E-01
         -4   -1    0    0    0  501 -0.00000000000E+00  0.00000000000E+00  0.48503109810E+03  0.48503109810E+03  0.00000000000E+00 0. -1.
          2   -1    0    0  501    0  0.00000000000E+00 -0.00000000000E+00 -0.13872748754E+04  0.13872748754E+04  0.00000000000E+00 0.  1.
   -9000010    2    1    2    0  502  0.19038335098E+03  0.91097756578E+02 -0.44316162176E+03  0.11022894628E+04  0.98696768697E+03 0.  0.
        -13    1    1    2    0    0 -0.59014447413E+02 -0.22977689269E+03  0.35454623463E+02  0.23986906200E+03  0.10566000000E+00 0.  1.
         13    1    3    3    0    0  0.38744508816E+03  0.25264746529E+03 -0.63338830071E+03  0.78429917041E+03  0.10566000000E+00 0. -1.
          2    1    1    2  502    0 -0.13136890357E+03  0.13867913611E+03 -0.49453677902E+03  0.53014744875E+03  0.00000000000E+00 0.  1.
         -4    1    3    3    0  502 -0.19706173718E+03 -0.16154970872E+03  0.19022667895E+03  0.31799029235E+03  0.00000000000E+00 0. -1.
</event>
<event>
 7    1  0.5696597E-006  0.1175837E+04  0.7818608E-02  0.8844931E-01
          4   -1    0    0  501    0 -0.00000000000E+00  0.00000000000E+00  0.28919341617E+04  0.28919341617E+04  0.00000000000E+00 0.  1.
          2   -1    0    0  502    0  0.00000000000E+00 -0.00000000000E+00 -0.15376864124E+04  0.15376864124E+04  0.00000000000E+00 0.  1.
    9000010    2    1    2  502    0  0.52420616219E+03  0.64537671099E+03  0.17139810722E+04  0.21493978133E+04  0.99542786992E+03 0.  0.
        -13    1    3    3    0    0  0.75334262158E+03  0.57939840544E+03  0.92903881969E+03  0.13290375305E+04  0.10566000000E+00 0.  1.
         13    1    1    2    0    0 -0.45623677602E+03 -0.26371668481E+02  0.82424978085E+03  0.94246229266E+03  0.10566000000E+00 0. -1.
          2    1    1    2  501    0 -0.67969386171E+02 -0.61900504251E+03 -0.11839831038E+04  0.13377604681E+04  0.00000000000E+00 0.  1.
          4    1    3    3  502    0 -0.22913645939E+03  0.65978305552E+02  0.78494225251E+03  0.82036028280E+03  0.00000000000E+00 0.  1.
</event>
<event>
 7    1  0.5696597E-006  0.1333522E+04  0.7818608E-02  0.8606235E-01
          1   -1    0    0  501    0  0.00000000000E+00  0.00000000000E+00  0.12842374716E+04  0.12842374716E+04  0.00000000000E+00 0.  1.
         -4   -1    0    0    0  501 -0.00000000000E+00 -0.00000000000E+00 -0.22201172664E+04  0.22201172664E+04  0.00000000000E+00 0. -1.
   -9000010    2    1    2    0  502 -0.12538094255E+04 -0.22773230313E+03 -0.11440453812E+03  0.16273979303E+04  0.10057015203E+04 0.  0.
        -13    1    1    2    0    0  0.78860651591E+03 -0.19736216244E+03 -0.93247924648E+03  0.12370810872E+04  0.10566000000E+00 0.  1.
         13    1    3    3    0    0 -0.76637236508E+01  0.14727481041E+03  0.23727139967E+03  0.27936773383E+03  0.10566000000E+00 0. -1.
          1    1    1    2  502    0  0.46520290960E+03  0.42509446557E+03  0.11100398980E+03  0.63987572036E+03  0.00000000000E+00 0.  1.
         -4    1    3    3    0  502 -0.12461457019E+04 -0.37500711353E+03 -0.35167593779E+03  0.13480301965E+04  0.00000000000E+00 0. -1.
</event>
<event>
 7    1  0.5696597E-006  0.1100027E+04  0.7818608E-02  0.8878509E-01
          2   -1    0    0  501    0  0.00000000000E+00  0.00000000000E+00  0.33833247263E+03  0.33833247263E+03  0.00000000000E+00 0. -1.
         -4   -1    0    0    0  501 -0.00000000000E+00 -0.00000000000E+00 -0.33481748820E+04  0.33481748820E+04  0.00000000000E+00 0. -1.
   -9000010    2    1    2    0  502 -0.38311205579E+03  0.28935202638E+03 -0.15173062221E+04  0.18728131233E+04  0.98727472416E+03 0.  0.
        -13    1    1    2    0    0  0.38250374288E+03 -0.30005454513E+03 -0.16171382049E+04  0.16886319398E+04  0.10566000000E+00 0.  1.
         13    1    3    3    0    0  0.24844860421E+03  0.26944887286E+03 -0.21400510633E+03  0.42441442096E+03  0.10566000000E+00 0. -1.
          2    1    1    2  502    0  0.60831290599E+00  0.10702518754E+02  0.12460201760E+03  0.12506229145E+03  0.00000000000E+00 0. -1.
         -4    1    3    3    0  502 -0.63156066000E+03  0.19903153521E+02 -0.13033011157E+04  0.14483987024E+04  0.00000000000E+00 0. -1.
</event>
<event>
 7    1  0.5696597E-006  0.1012104E+04  0.7818608E-02  0.9387443E-01
         -4   -1    0    0    0  501  0.00000000000E+00  0.00000000000E+00  0.58721501529E+03  0.58721501529E+03  0.00000000000E+00 0. -1.
         -4   -1    0    0    0  502 -0.00000000000E+00 -0.00000000000E+00 -0.23455348677E+04  0.23455348677E+04  0.00000000000E+00 0. -1.
   -9000010    2    1    2    0  501  0.94729368228E+02  0.72350899202E+02 -0.17798018061E+04  0.20491889019E+04  0.10085992172E+04 0.  0.
        -13    1    1    2    0    0 -0.82722928907E+02 -0.11640781122E+02 -0.42483678017E+03  0.43297216043E+03  0.10566000000E+00 0.  1.
         13    1    3    3    0    0  0.39468297839E+03 -0.25677460495E+03 -0.13521557222E+04  0.14317936162E+04  0.10566000000E+00 0. -1.
         -4    1    1    2    0  502 -0.12006439321E+02 -0.60710118079E+02  0.44631873392E+03  0.45058882062E+03  0.00000000000E+00 0. -1.
         -4    1    3    3    0  501 -0.29995361017E+03  0.32912550415E+03 -0.42764608395E+03  0.61739528574E+03  0.00000000000E+00 0. -1.
</event>
<event>
 7    1  0.5696597E-006  0.1068835E+04  0.7818608E-02  0.8974222E-01
          2   -1    0    0  502    0  0.00000000000E+00  0.00000000000E+00  0.99727328296E+03  0.99727328296E+03  0.00000000000E+00 0. -1.
          4   -1    0    0  501    0 -0.00000000000E+00 -0.00000000000E+00 -0.81725481078E+03  0.81725481078E+03  0.00000000000E+00 0.  1.
    9000010    2    1    2  502    0 -0.20023990535E+03  0.29811183929E+03 -0.26265581358E+03  0.11014271841E+04  0.10075649245E+04 0.  0.
        -13    1    3    3    0    0 -0.62589975381E+02  0.60895220245E+03 -0.40379076918E+03  0.73333981641E+03  0.10566000000E+00 0.  1.
         13    1    1    2    0    0  0.21202194049E+03 -0.28531362828E+03  0.99013050729E+02  0.36899968172E+03  0.10566000000E+00 0. -1.
          2    1    1    2  501    0 -0.11782035147E+02 -0.12798211008E+02  0.34366123504E+03  0.34410122787E+03  0.00000000000E+00 0. -1.
          4    1    3    3  502    0 -0.13764992996E+03 -0.31084036316E+03  0.14113495561E+03  0.36808736773E+03  0.00000000000E+00 0.  1.
</event>
<event>
 7    1  0.5696597E-006  0.1001822E+04  0.7818608E-02  0.9235955E-01
         -4   -1    0    0    0  501 -0.00000000000E+00  0.00000000000E+00  0.19811044049E+04  0.19811044049E+04  0.00000000000E+00 0. -1.
          2   -1    0    0  501    0  0.00000000000E+00 -0.00000000000E+00 -0.97326142845E+03  0.97326142845E+03  0.00000000000E+00 0. -1.
   -9000010    2    1    2    0  502 -0.15282149945E+03 -0.64322148786E+02  0.17192206843E+04  0.19907763148E+04  0.98993879831E+03 0.  0.
        -13    1    1    2    0    0  0.11404266114E+03  0.10037731106E+03  0.79138698693E+02  0.17130171607E+03  0.10566000000E+00 0.  1.
         13    1    3    3    0    0  0.42194530866E+03 -0.37696726509E+02  0.82555632287E+03  0.92790200996E+03  0.10566000000E+00 0. -1.
          2    1    1    2  502    0  0.38778838314E+02 -0.36055162273E+02 -0.79051640656E+03  0.79228780255E+03  0.00000000000E+00 0. -1.
         -4    1    3    3    0  502 -0.57476680812E+03 -0.26625422277E+02  0.89366436148E+03  0.10628743048E+04  0.00000000000E+00 0. -1.
</event>
<event>
 7    1  0.5696597E-006  0.1018468E+04  0.7818608E-02  0.9220323E-01
          4   -1    0    0  501    0 -0.00000000000E+00  0.00000000000E+00  0.10508926335E+04  0.10508926335E+04  0.00000000000E+00 0.  1.
          2   -1    0    0  502    0  0.00000000000E+00 -0.00000000000E+00 -0.73908405962E+03  0.73908405962E+03  0.00000000000E+00 0.  1.
    9000010    2    1    2  502    0 -0.10976536411E+03  0.39031848660E+02  0.91151033247E+02  0.10173370961E+04  0.10065258745E+04 0.  0.
        -13    1    3    3    0    0 -0.26008577661E+03 -0.37296539136E+03  0.28629214631E+03  0.53731834005E+03  0.10566000000E+00 0.  1.
         13    1    1    2    0    0  0.94633147820E+02 -0.12537940067E+03  0.47674809877E+03  0.50196034467E+03  0.10566000000E+00 0. -1.
          2    1    1    2  501    0  0.15132216291E+02  0.86347552013E+02 -0.25609055809E+03  0.27067925235E+03  0.00000000000E+00 0.  1.
          4    1    3    3  502    0  0.15032041250E+03  0.41199724002E+03 -0.19514111306E+03  0.48001875610E+03  0.00000000000E+00 0.  1.
</event>
<event>
 7    1  0.5696597E-006  0.1304515E+04  0.7818608E-02  0.8975231E-01
          2   -1    0    0  502    0  0.00000000000E+00  0.00000000000E+00  0.17540061229E+04  0.17540061229E+04  0.00000000000E+00 0.  1.
          4   -1    0    0  501    0 -0.00000000000E+00 -0.00000000000E+00 -0.12516299442E+04  0.12516299442E+04  0.00000000000E+00 0.  1.
    9000010    2    1    2  502    0 -0.19392271704E+03 -0.46738587403E+02  0.17489643746E+03  0.13168007656E+04  0.12898003631E+04 0.  0.
        -13    1    3    3    0    0 -0.17666662709E+03 -0.50500112074E+03 -0.33482755643E+03  0.63114715621E+03  0.10566000000E+00 0.  1.
         13    1    1    2    0    0  0.18524600743E+03 -0.63685825984E+02 -0.66343457873E+03  0.69174953496E+03  0.10566000000E+00 0. -1.
          2    1    1    2  501    0  0.86767096124E+01  0.11042441339E+03  0.99091432001E+03  0.99708576660E+03  0.00000000000E+00 0.  1.
          4    1    3    3  502    0 -0.17256089952E+02  0.45826253334E+03  0.50972399389E+03  0.68565360938E+03  0.00000000000E+00 0.  1.
</event>
<event>
 7    1  0.5696597E-006  0.9364502E+03  0.7818608E-02  0.9219105E-01
          2   -1    0    0  501    0  0.00000000000E+00  0.00000000000E+00  0.49635978896E+03  0.49635978896E+03  0.00000000000E+00 0. -1.
         -4   -1    0    0    0  501 -0.00000000000E+00 -0.00000000000E+00 -0.97887067331E+03  0.97887067331E+03  0.00000000000E+00 0. -1.
   -9000010    2    1    2    0  502 -0.13566809209E+03 -0.15505199038E+03 -0.56571479637E+03  0.10949980009E+04  0.91462584712E+03 0.  0.
        -13    1    1    2    0    0  0.14688519164E+03  0.13565387924E+03 -0.80105455050E+02  0.21539296546E+03  0.10566000000E+00 0.  1.
         13    1    3    3    0    0 -0.17046275961E+03  0.32135952713E+03 -0.12354796857E+02  0.36398097514E+03  0.10566000000E+00 0. -1.
          2    1    1    2  502    0 -0.11217099545E+02  0.19398111135E+02  0.16330936707E+03  0.16483949591E+03  0.00000000000E+00 0. -1.
         -4    1    3    3    0  502  0.34794667513E+02 -0.47641151751E+03 -0.55335999951E+03  0.73101702577E+03  0.00000000000E+00 0. -1.
</event>
<event>
 7    1  0.5696597E-006  0.1451881E+04  0.7818608E-02  0.8497018E-01
         -4   -1    0    0    0  501 -0.00000000000E+00  0.00000000000E+00  0.12256715244E+04  0.12256715244E+04  0.00000000000E+00 0. -1.
          2   -1    0    0  501    0  0.00000000000E+00 -0.00000000000E+00 -0.31535123407E+04  0.31535123407E+04  0.00000000000E+00 0.  1.
   -9000010    2    1    2    0  502 -0.92154608634E+03  0.60143100819E+03  0.44705816766E+03  0.15142033853E+04  0.93914026645E+03 0.  0.
        -13    1    1    2    0    0  0.93872151443E+03 -0.61758760330E+03 -0.10437787404E+04  0.15336513944E+04  0.10566000000E+00 0.  1.
         13    1    3    3    0    0 -0.11153354126E+04  0.55561355276E+03  0.40895594061E+03  0.13114589110E+04  0.10566000000E+00 0. -1.
          2    1    1    2  502    0 -0.17175428094E+02  0.16156595118E+02 -0.13311202435E+04  0.13313290854E+04  0.00000000000E+00 0.  1.
         -4    1    3    3    0  502  0.19378932625E+03  0.45817455425E+02  0.38102227055E+02  0.20274447440E+03  0.00000000000E+00 0. -1.
</event>
<event>
 7    1  0.5696597E-006  0.1160806E+04  0.7818608E-02  0.8801178E-01
         -4   -1    0    0    0  501 -0.00000000000E+00  0.00000000000E+00  0.18338829043E+04  0.18338829043E+04  0.00000000000E+00 0. -1.
          2   -1    0    0  501    0  0.00000000000E+00 -0.00000000000E+00 -0.77650889294E+03  0.77650889294E+03  0.00000000000E+00 0.  1.
   -9000010    2    1    2    0  502 -0.34723653708E+03 -0.48177244466E+03  0.10423826246E+04  0.15686169559E+04  0.10106036401E+04 0.  0.
        -13    1    1    2    0    0  0.44592164228E+03  0.34884787586E+03  0.35174141424E+03  0.66653055834E+03  0.10566000000E+00 0.  1.
         13    1    3    3    0    0  0.22702186221E+03 -0.23926115985E+03 -0.26875416498E+02  0.33091861191E+03  0.10566000000E+00 0. -1.
          2    1    1    2  502    0 -0.98685105202E+02  0.13292456880E+03 -0.33675002740E+03  0.37524428301E+03  0.00000000000E+00 0.  1.
         -4    1    3    3    0  502 -0.57425839929E+03 -0.24251128481E+03  0.10692580411E+04  0.12376983440E+04  0.00000000000E+00 0. -1.
</event>
<event>
 7    1  0.5696597E-006  0.1287078E+04  0.7818608E-02  0.8911885E-01
          4   -1    0    0  501    0 -0.00000000000E+00  0.00000000000E+00  0.10190230910E+04  0.10190230910E+04  0.00000000000E+00 0.  1.
          2   -1    0    0  502    0  0.00000000000E+00 -0.00000000000E+00 -0.17626243204E+04  0.17626243204E+04  0.00000000000E+00 0. -1.
    9000010    2    1    2  502    0  0.47393874288E+02 -0.64884360296E+03  0.78322823672E+02  0.11910298398E+04  0.99457197534E+03 0.  0.
        -13    1    3    3    0    0 -0.16988797386E+03 -0.81505550178E+03 -0.13587103894E+03  0.84358659605E+03  0.10566000000E+00 0.  1.
         13    1    1    2    0    0  0.19220520755E+03 -0.18060349407E+03  0.13956207856E+03  0.29839244095E+03  0.10566000000E+00 0. -1.
          2    1    1    2  501    0 -0.23959908184E+03  0.82944709703E+03 -0.96148613168E+03  0.12922251306E+04  0.00000000000E+00 0. -1.
          4    1    3    3  502    0  0.21728184814E+03  0.16621189882E+03  0.21419386261E+03  0.34744324374E+03  0.00000000000E+00 0.  1.
</event>
<event>
 7    1  0.5696597E-006  0.2725366E+04  0.7818608E-02  0.7937575E-01
          4   -1    0    0  501    0 -0.00000000000E+00  0.00000000000E+00  0.24620051071E+04  0.24620051071E+04  0.00000000000E+00 0.  1.
          2   -1    0    0  502    0  0.00000000000E+00 -0.00000000000E+00 -0.43374594294E+04  0.43374594294E+04  0.00000000000E+00 0. -1.
    9000010    2    1    2  502    0 -0.46226674953E+03 -0.25076466402E+04 -0.23764090156E+04  0.36235543181E+04  0.99037561930E+03 0.  0.
        -13    1    3    3    0    0 -0.33532127237E+03 -0.79611234447E+03 -0.14109651643E+04  0.16544056113E+04  0.10566000000E+00 0.  1.
         13    1    1    2    0    0  0.46805179882E+03  0.24923222946E+04  0.96373138859E+03  0.27128437307E+04  0.10566000000E+00 0. -1.
          2    1    1    2  501    0 -0.57850492896E+01  0.15324345621E+02 -0.46277669523E+03  0.46306648768E+03  0.00000000000E+00 0. -1.
          4    1    3    3  502    0 -0.12694547716E+03 -0.17115342957E+04 -0.96544385133E+03  0.19691487069E+04  0.00000000000E+00 0.  1.
</event>
<event>
 7    1  0.5696597E-006  0.1074123E+04  0.7818608E-02  0.9154007E-01
          2   -1    0    0  501    0  0.00000000000E+00  0.00000000000E+00  0.29230203273E+04  0.29230203273E+04  0.00000000000E+00 0. -1.
         -4   -1    0    0    0  501 -0.00000000000E+00 -0.00000000000E+00 -0.68290955943E+03  0.68290955943E+03  0.00000000000E+00 0. -1.
   -9000010    2    1    2    0  502  0.82502070099E+02  0.19797441359E+03  0.12814751329E+04  0.16770506368E+04  0.10603395033E+04 0.  0.
        -13    1    1    2    0    0 -0.14840159837E+03 -0.86015258112E+02 -0.46691320236E+03  0.49742296764E+03  0.10566000000E+00 0.  1.
         13    1    3    3    0    0 -0.44533494193E+03  0.30789266607E+03  0.60182586426E+03  0.80951558749E+03  0.10566000000E+00 0. -1.
          2    1    1    2  502    0  0.65899528274E+02 -0.11195915548E+03  0.14255488374E+04  0.14314562823E+04  0.00000000000E+00 0. -1.
         -4    1    3    3    0  502  0.52783701203E+03 -0.10991825248E+03  0.67964926861E+03  0.86753504933E+03  0.00000000000E+00 0. -1.
</event>
<event>
 6    1  0.5696597E-006  0.1452338E+04  0.7818608E-02  0.8695696E-01
          2   -1    0    0  501    0  0.00000000000E+00  0.00000000000E+00  0.34282110347E+04  0.34282110347E+04  0.00000000000E+00 0. -1.
         -4   -1    0    0    0  501 -0.00000000000E+00 -0.00000000000E+00 -0.31961123748E+03  0.31961123748E+03  0.00000000000E+00 0. -1.
        -13    1    1    2    0    0  0.42337560069E+03 -0.97854335453E+01  0.88191134312E+03  0.97832013281E+03  0.10566000000E+00 0.  1.
         13    1    1    2    0    0 -0.18744173211E+03 -0.67697916501E+03  0.11914799623E+04  0.13831340154E+04  0.10566000000E+00 0. -1.
          2    1    1    2  502    0  0.11243790068E+03  0.46699780256E+02  0.40509179968E+03  0.42299233699E+03  0.00000000000E+00 0. -1.
         -4    1    1    2    0  502 -0.34837176927E+03  0.64006481830E+03  0.63011669210E+03  0.96337578697E+03  0.00000000000E+00 0. -1.
</event>
<event>
 7    1  0.5696597E-006  0.1285720E+04  0.7818608E-02  0.8649145E-01
          1   -1    0    0  501    0  0.00000000000E+00  0.00000000000E+00  0.14812258708E+04  0.14812258708E+04  0.00000000000E+00 0.  1.
         -4   -1    0    0    0  501 -0.00000000000E+00 -0.00000000000E+00 -0.27642785461E+04  0.27642785461E+04  0.00000000000E+00 0. -1.
   -9000010    2    1    2    0  502  0.43267042215E+03 -0.66740695272E+03 -0.18315043798E+04  0.22329345579E+04  0.99947621882E+03 0.  0.
        -13    1    1    2    0    0 -0.30260987803E+03  0.77717055050E+03 -0.48528413983E+03  0.96491839571E+03  0.10566000000E+00 0.  1.
         13    1    3    3    0    0  0.26722315631E+03  0.23045683830E+03 -0.65206023891E+03  0.74141832721E+03  0.10566000000E+00 0. -1.
          1    1    1    2  502    0 -0.13006054412E+03 -0.10976359778E+03  0.10337358443E+04  0.10476514632E+04  0.00000000000E+00 0.  1.
         -4    1    3    3    0  502  0.16544726585E+03 -0.89786379102E+03 -0.11794441409E+04  0.14915162307E+04  0.00000000000E+00 0. -1.
</event>
<event>
 7    1  0.5696597E-006  0.1141681E+04  0.7818608E-02  0.8841558E-01
          2   -1    0    0  501    0  0.00000000000E+00  0.00000000000E+00  0.29956187828E+04  0.29956187828E+04  0.00000000000E+00 0. -1.
         -4   -1    0    0    0  501 -0.00000000000E+00 -0.00000000000E+00 -0.19665016453E+04  0.19665016453E+04  0.00000000000E+00 0. -1.
   -9000010    2    1    2    0  502 -0.58159791866E+03  0.26013081424E+03  0.34586658463E+03  0.12422329727E+04  0.10087590815E+04 0.  0.
        -13    1    1    2    0    0  0.93323843666E+02 -0.49769006862E+03 -0.14409771237E+04  0.15273571378E+04  0.10566000000E+00 0.  1.
         13    1    3    3    0    0 -0.58413773149E+03 -0.18803111205E+03  0.47479392813E+03  0.77588779717E+03  0.10566000000E+00 0. -1.
          2    1    1    2  502    0  0.48827407500E+03  0.23755925438E+03  0.21242276766E+04  0.21925303176E+04  0.00000000000E+00 0. -1.
         -4    1    3    3    0  502  0.25398128283E+01  0.44816192629E+03 -0.12892734350E+03  0.46634517552E+03  0.00000000000E+00 0. -1.
</event>
<event>
 7    1  0.5696597E-006  0.1265034E+04  0.7818608E-02  0.8663417E-01
          2   -1    0    0  501    0  0.00000000000E+00  0.00000000000E+00  0.25304517009E+04  0.25304517009E+04  0.00000000000E+00 0. -1.
         -4   -1    0    0    0  501 -0.00000000000E+00 -0.00000000000E+00 -0.17305213078E+04  0.17305213078E+04  0.00000000000E+00 0. -1.
   -9000010    2    1    2    0  502  0.70092747248E+03 -0.31368782396E+03  0.49179893000E+03  0.13399731324E+04  0.98181588666E+03 0.  0.
        -13    1    1    2    0    0 -0.68201748820E+03  0.42302528706E+03 -0.11809198616E+04  0.14278200091E+04  0.10566000000E+00 0.  1.
         13    1    3    3    0    0 -0.17672861178E+02 -0.29005294148E+03 -0.19155532445E+03  0.34804668131E+03  0.10566000000E+00 0. -1.
          2    1    1    2  502    0 -0.18909984280E+02 -0.10933746310E+03  0.14890513247E+04  0.14931798672E+04  0.00000000000E+00 0. -1.
         -4    1    3    3    0  502  0.71860033366E+03 -0.23634882482E+02  0.68335425445E+03  0.99192645104E+03  0.00000000000E+00 0. -1.
</event>
<event>
 7    1  0.5696597E-006  0.1314319E+04  0.7818608E-02  0.8617886E-01
          2   -1    0    0  502    0  0.00000000000E+00  0.00000000000E+00  0.44037643102E+03  0.44037643102E+03  0.00000000000E+00 0.  1.
          4   -1    0    0  501    0 -0.00000000000E+00 -0.00000000000E+00 -0.29278890956E+04  0.29278890956E+04  0.00000000000E+00 0.  1.
    9000010    2    1    2  502    0 -0.39388912118E+03  0.79222774511E+03 -0.13847664618E+04  0.19165339584E+04  0.98628130870E+03 0.  0.
        -13    1    3    3    0    0 -0.65442186697E+03  0.21188880632E+03 -0.68304969632E+03  0.96939246181E+03  0.10566000000E+00 0.  1.
         13    1    1    2    0    0  0.44050582638E+03 -0.73922845320E+03 -0.10722171367E+04  0.13748286033E+04  0.10566000000E+00 0. -1.
          2    1    1    2  501    0 -0.46616705199E+02 -0.52999291909E+02 -0.30529066101E+02  0.76902964985E+02  0.00000000000E+00 0.  1.
          4    1    3    3  502    0  0.26053274579E+03  0.58033893879E+03 -0.70171676552E+03  0.94714149657E+03  0.00000000000E+00 0.  1.
</event>
<event>
 7    1  0.5696597E-006  0.1079968E+04  0.7818608E-02  0.8920719E-01
          2   -1    0    0  501    0  0.00000000000E+00  0.00000000000E+00  0.60599330910E+03  0.60599330910E+03  0.00000000000E+00 0.  1.
         -4   -1    0    0    0  501 -0.00000000000E+00 -0.00000000000E+00 -0.11650960857E+04  0.11650960857E+04  0.00000000000E+00 0. -1.
   -9000010    2    1    2    0  502  0.68570805128E+02 -0.44793130302E+03 -0.55470037681E+03  0.12223207156E+04  0.99047009856E+03 0.  0.
        -13    1    1    2    0    0 -0.49714741105E+02  0.41665560175E+03 -0.11269752678E+03  0.43448151820E+03  0.10566000000E+00 0.  1.
         13    1    3    3    0    0  0.32930759769E+03  0.13521132726E+03  0.28808631667E+02  0.35714919199E+03  0.10566000000E+00 0. -1.
          2    1    1    2  502    0 -0.18856064023E+02  0.31275701271E+02  0.10829512700E+03  0.11428716101E+03  0.00000000000E+00 0.  1.
         -4    1    3    3    0  502 -0.26073679256E+03 -0.58314263028E+03 -0.58350900848E+03  0.86517152358E+03  0.00000000000E+00 0. -1.
</event>
<event>
 7    1  0.5696597E-006  0.1235211E+04  0.7818608E-02  0.8686788E-01
          2   -1    0    0  502    0  0.00000000000E+00  0.00000000000E+00  0.13386896042E+04  0.13386896042E+04  0.00000000000E+00 0.  1.
          4   -1    0    0  501    0 -0.00000000000E+00 -0.00000000000E+00 -0.22060812589E+04  0.22060812589E+04  0.00000000000E+00 0.  1.
    9000010    2    1    2  502    0  0.15031562539E+03 -0.75950145785E+03 -0.11561266853E+04  0.16919776527E+04  0.96266412270E+03 0.  0.
        -13    1    3    3    0    0  0.35098758403E+03 -0.42270770920E+03 -0.90902532143E+02  0.55689978728E+03  0.10566000000E+00 0.  1.
         13    1    1    2    0    0 -0.18280598859E+03  0.75217918000E+03 -0.59008608343E+03  0.97334122758E+03  0.10566000000E+00 0. -1.
          2    1    1    2  501    0  0.32490363200E+02  0.73222778459E+01  0.87882111406E+03  0.87945198276E+03  0.00000000000E+00 0.  1.
          4    1    3    3  502    0 -0.20067195863E+03 -0.33679374865E+03 -0.10652241532E+04  0.11350778655E+04  0.00000000000E+00 0.  1.
</event>
<event>
 7    1  0.5696597E-006  0.1264047E+04  0.7818608E-02  0.8924586E-01
          2   -1    0    0  501    0  0.00000000000E+00  0.00000000000E+00  0.15171801241E+04  0.15171801241E+04  0.00000000000E+00 0. -1.
         -4   -1    0    0    0  501 -0.00000000000E+00 -0.00000000000E+00 -0.13991490544E+04  0.13991490544E+04  0.00000000000E+00 0. -1.
   -9000010    2    1    2    0  502  0.50297658267E+03 -0.17549421911E+03 -0.35158555436E+03  0.12386286698E+04  0.10615106763E+04 0.  0.
        -13    1    1    2    0    0  0.21046197619E+03  0.15974434635E+03 -0.44505986087E+03  0.51758167523E+03  0.10566000000E+00 0.  1.
         13    1    3    3    0    0  0.33947382718E+02  0.19403232869E+03  0.29741657843E+03  0.35673183438E+03  0.10566000000E+00 0. -1.
          2    1    1    2  502    0 -0.71343855886E+03  0.15749872759E+02  0.91467648491E+03  0.11601188335E+04  0.00000000000E+00 0. -1.
         -4    1    3    3    0  502  0.46902919996E+03 -0.36952654780E+03 -0.64900213279E+03  0.88189683541E+03  0.00000000000E+00 0. -1.
</event>
<event>
 7    1  0.5696597E-006  0.1110214E+04  0.7818608E-02  0.9009813E-01
          2   -1    0    0  502    0  0.00000000000E+00  0.00000000000E+00  0.11862269086E+04  0.11862269086E+04  0.00000000000E+00 0. -1.
          4   -1    0    0  501    0 -0.00000000000E+00 -0.00000000000E+00 -0.15737348235E+04  0.15737348235E+04  0.00000000000E+00 0.  1.
    9000010    2    1    2  502    0  0.32695735788E+02  0.25672129106E+03 -0.10555990138E+04  0.15290300447E+04  0.10754853636E+04 0.  0.
        -13    1    3    3    0    0 -0.43709601105E+03  0.29344611150E+03 -0.22178400142E+03  0.57127199974E+03  0.10566000000E+00 0.  1.
         13    1    1    2    0    0 -0.25995413876E+02 -0.27927394721E+03 -0.21133756473E+03  0.35118837760E+03  0.10566000000E+00 0. -1.
          2    1    1    2  501    0 -0.67003219117E+01  0.22552656148E+02  0.87942866364E+03  0.87974330975E+03  0.00000000000E+00 0. -1.
          4    1    3    3  502    0  0.46979174683E+03 -0.36724820444E+02 -0.83381501237E+03  0.95775804496E+03  0.00000000000E+00 0.  1.
</event>
<event>
 7    1  0.5696597E-006  0.1093296E+04  0.7818608E-02  0.8908127E-01
          2   -1    0    0  501    0  0.00000000000E+00  0.00000000000E+00  0.79623344224E+03  0.79623344224E+03  0.00000000000E+00 0. -1.
         -4   -1    0    0    0  501 -0.00000000000E+00 -0.00000000000E+00 -0.21077694613E+04  0.21077694613E+04  0.00000000000E+00 0. -1.
   -9000010    2    1    2    0  502  0.41004411790E+03  0.14407329060E+03 -0.15334504945E+04  0.18827256392E+04  0.10021437631E+04 0.  0.
        -13    1    1    2    0    0 -0.42253205127E+03 -0.11935010329E+03 -0.27860069273E+03  0.51999628716E+03  0.10566000000E+00 0.  1.
         13    1    3    3    0    0 -0.30076925655E+03  0.22681069019E+03 -0.52419572372E+03  0.64551251173E+03  0.10566000000E+00 0. -1.
          2    1    1    2  502    0  0.12487933364E+02 -0.24723187310E+02  0.50051516815E+03  0.50128097712E+03  0.00000000000E+00 0. -1.
         -4    1    3    3    0  502  0.71081337445E+03 -0.82737399588E+02 -0.10092547708E+04  0.12372131275E+04  0.00000000000E+00 0. -1.
</event>
<event>
 7    1  0.5696597E-006  0.1138015E+04  0.7818608E-02  0.8819575E-01
          2   -1    0    0  502    0  0.00000000000E+00  0.00000000000E+00  0.18061519791E+04  0.18061519791E+04  0.00000000000E+00 0. -1.
          4   -1    0    0  501    0 -0.00000000000E+00 -0.00000000000E+00 -0.63603776900E+03  0.63603776900E+03  0.00000000000E+00 0.  1.
    9000010    2    1    2  502    0 -0.43817392970E+03  0.35041472202E+03  0.34270891575E+03  0.11886268882E+04  0.99025128544E+03 0.  0.
        -13    1    3    3    0    0 -0.43827901797E+01 -0.29314888662E+03  0.28738989605E+03  0.41054651635E+03  0.10566000000E+00 0.  1.
         13    1    1    2    0    0  0.44413550484E+03 -0.34221426184E+03  0.15586460728E+03  0.58194564577E+03  0.10566000000E+00 0. -1.
          2    1    1    2  501    0 -0.59615751431E+01 -0.82004601888E+01  0.67154068705E+03  0.67161721411E+03  0.00000000000E+00 0. -1.
          4    1    3    3  502    0 -0.43379113952E+03  0.64356360865E+03  0.55319019704E+02  0.77808037184E+03  0.00000000000E+00 0.  1.
</event>
<event>
 7    1  0.5696597E-006  0.9733031E+03  0.7818608E-02  0.9094193E-01
          4   -1    0    0  501    0 -0.00000000000E+00  0.00000000000E+00  0.34450172643E+04  0.34450172643E+04  0.00000000000E+00 0.  1.
          2   -1    0    0  502    0  0.00000000000E+00 -0.00000000000E+00 -0.19887686483E+03  0.19887686483E+03  0.00000000000E+00 0.  1.
    9000010    2    1    2  502    0 -0.17635643912E+02  0.25712906795E+02  0.20761976207E+04  0.22773328608E+04  0.93524126788E+03 0.  0.
        -13    1    3    3    0    0 -0.96236517298E+02 -0.41467715371E+03  0.60596391971E+03  0.74054769747E+03  0.10566000000E+00 0.  1.
         13    1    1    2    0    0 -0.28591302292E+03 -0.58179988709E+02  0.94036563484E+03  0.98459062869E+03  0.10566000000E+00 0. -1.
          2    1    1    2  501    0  0.30354866683E+03  0.32467081914E+02  0.22957714393E+03  0.38197063965E+03  0.00000000000E+00 0.  1.
          4    1    3    3  502    0  0.78600873386E+02  0.44039006051E+03  0.14702337010E+04  0.15367851633E+04  0.00000000000E+00 0.  1.
</event>
<event>
 7    1  0.5696597E-006  0.1103606E+04  0.7818608E-02  0.8915086E-01
         -4   -1    0    0    0  501  0.00000000000E+00  0.00000000000E+00  0.15589614177E+04  0.15589614177E+04  0.00000000000E+00 0. -1.
         -4   -1    0    0    0  502 -0.00000000000E+00 -0.00000000000E+00 -0.82565069637E+03  0.82565069637E+03  0.00000000000E+00 0. -1.
   -9000010    2    1    2    0  501 -0.14177638998E+03  0.14618581329E+03  0.50544490000E+03  0.11354030468E+04  0.99608970224E+03 0.  0.
        -13    1    1    2    0    0 -0.14666521285E+03  0.38594421403E+03 -0.24591058792E+03  0.48055764422E+03  0.10566000000E+00 0.  1.
         13    1    3    3    0    0 -0.57389961999E+03  0.82580979509E+02  0.29629534473E+03  0.65113081210E+03  0.10566000000E+00 0. -1.
         -4    1    1    2    0  502  0.28844160283E+03 -0.53213002733E+03  0.47377640922E+03  0.76865142305E+03  0.00000000000E+00 0. -1.
         -4    1    3    3    0  501  0.43212323001E+03  0.63604833783E+02  0.20914955527E+03  0.48427223466E+03  0.00000000000E+00 0. -1.
</event>
<event>
 7    1  0.5696597E-006  0.1078035E+04  0.7818608E-02  0.8917489E-01
          2   -1    0    0  501    0  0.00000000000E+00  0.00000000000E+00  0.24411052150E+03  0.24411052150E+03  0.00000000000E+00 0.  1.
         -4   -1    0    0    0  501 -0.00000000000E+00 -0.00000000000E+00 -0.40368394127E+04  0.40368394127E+04  0.00000000000E+00 0. -1.
   -9000010    2    1    2    0  502 -0.21674488362E+03 -0.37836503007E+03 -0.18624663393E+04  0.21514459537E+04  0.98478443641E+03 0.  0.
        -13    1    1    2    0    0  0.22762532473E+03  0.37540331605E+03 -0.20057214821E+04  0.20532071530E+04  0.10566000000E+00 0.  1.
         13    1    3    3    0    0 -0.41812839908E+02 -0.55699330748E+03 -0.45071964478E+03  0.71773119447E+03  0.10566000000E+00 0. -1.
          2    1    1    2  502    0 -0.10880441114E+02  0.29617140105E+01  0.75458930170E+02  0.76296827529E+02  0.00000000000E+00 0.  1.
         -4    1    3    3    0  502 -0.17493204371E+03  0.17862827741E+03 -0.14117466945E+04  0.14337147592E+04  0.00000000000E+00 0. -1.
</event>
<event>
 7    1  0.5696597E-006  0.1307120E+04  0.7818608E-02  0.9078604E-01
          2   -1    0    0  501    0  0.00000000000E+00  0.00000000000E+00  0.23706202469E+04  0.23706202469E+04  0.00000000000E+00 0. -1.
         -4   -1    0    0    0  501 -0.00000000000E+00 -0.00000000000E+00 -0.86990927418E+03  0.86990927418E+03  0.00000000000E+00 0. -1.
   -9000010    2    1    2    0  502  0.78734167573E+03  0.46924345103E+03  0.13760299224E+03  0.13783380949E+04  0.10201887030E+04 0.  0.
        -13    1    1    2    0    0 -0.73830253142E+02 -0.10474539221E+03 -0.12059662850E+03  0.17597176319E+03  0.10566000000E+00 0.  1.
         13    1    3    3    0    0 -0.23177743245E+03  0.18340974298E+03  0.12206160457E+03  0.31977954670E+03  0.10566000000E+00 0. -1.
          2    1    1    2  502    0 -0.71351142259E+03 -0.36449805883E+03  0.14837046090E+04  0.16862196630E+04  0.00000000000E+00 0. -1.
         -4    1    3    3    0  502  0.10191191082E+04  0.28583370805E+03  0.15541387670E+02  0.10585585482E+04  0.00000000000E+00 0. -1.
</event>
<event>
 7    1  0.5696597E-006  0.1110800E+04  0.7818608E-02  0.8990709E-01
         -4   -1    0    0    0  501 -0.00000000000E+00  0.00000000000E+00  0.19290775630E+04  0.19290775630E+04  0.00000000000E+00 0. -1.
          1   -1    0    0  501    0  0.00000000000E+00 -0.00000000000E+00 -0.19793748547E+04  0.19793748547E+04  0.00000000000E+00 0. -1.
   -9000010    2    1    2    0  502 -0.16089064597E+03  0.18007958154E+03  0.42242646486E+03  0.11757206291E+04  0.10703085648E+04 0.  0.
        -13    1    1    2    0    0  0.16835709810E+03 -0.24859672856E+03  0.11092970505E+04  0.11492103390E+04  0.10566000000E+00 0.  1.
         13    1    3    3    0    0  0.54358117991E+02  0.78883429723E+02 -0.35241040846E+03  0.36519927113E+03  0.10566000000E+00 0. -1.
          1    1    1    2  502    0 -0.74664521305E+01  0.68517147020E+02 -0.15820208070E+04  0.15835214495E+04  0.00000000000E+00 0. -1.
         -4    1    3    3    0  502 -0.21524876396E+03  0.10119615181E+03  0.77483687332E+03  0.81052135800E+03  0.00000000000E+00 0. -1.
</event>
<event>
 7    1  0.5696597E-006  0.1106012E+04  0.7818608E-02  0.8855575E-01
         -4   -1    0    0    0  501 -0.00000000000E+00  0.00000000000E+00  0.30416749598E+04  0.30416749598E+04  0.00000000000E+00 0. -1.
          2   -1    0    0  501    0  0.00000000000E+00 -0.00000000000E+00 -0.55554720635E+03  0.55554720635E+03  0.00000000000E+00 0.  1.
   -9000010    2    1    2    0  502 -0.55559022240E+03  0.23822329270E+02  0.25416153616E+04  0.27778559892E+04  0.97335874768E+03 0.  0.
        -13    1    1    2    0    0  0.48316924571E+03 -0.37794649352E+02  0.22140124536E+03  0.53282218247E+03  0.10566000000E+00 0.  1.
         13    1    3    3    0    0 -0.80612600073E+03  0.93705293533E+02  0.15135367530E+04  0.17173856076E+04  0.10566000000E+00 0. -1.
          2    1    1    2  502    0  0.72420976689E+02  0.13972320082E+02 -0.27688885350E+03  0.28654399450E+03  0.00000000000E+00 0.  1.
         -4    1    3    3    0  502  0.25053577833E+03 -0.69882964263E+02  0.10280786085E+04  0.10604703816E+04  0.00000000000E+00 0. -1.
</event>
<event>
 7    1  0.5696597E-006  0.1042172E+04  0.7818608E-02  0.9065319E-01
         -4   -1    0    0    0  501 -0.00000000000E+00  0.00000000000E+00  0.13922999173E+04  0.13922999173E+04  0.00000000000E+00 0. -1.
          2   -1    0    0  501    0  0.00000000000E+00 -0.00000000000E+00 -0.17911670232E+04  0.17911670232E+04  0.00000000000E+00 0. -1.
   -9000010    2    1    2    0  502  0.34512652938E+02 -0.44445493695E+02 -0.67741296626E+03  0.12096240512E+04  0.10005675855E+04 0.  0.
        -13    1    1    2    0    0  0.65364970530E+02 -0.25844125030E+03  0.10793941123E+04  0.11118255799E+04  0.10566000000E+00 0.  1.
         13    1    3    3    0    0  0.22906245534E+03  0.22675995468E+03  0.12097735572E+03  0.34427491523E+03  0.10566000000E+00 0. -1.
          2    1    1    2  502    0 -0.99877623468E+02  0.30288674400E+03 -0.80084825187E+03  0.86201730950E+03  0.00000000000E+00 0. -1.
         -4    1    3    3    0  502 -0.19454980240E+03 -0.27120544838E+03 -0.79839032199E+03  0.86534913595E+03  0.00000000000E+00 0. -1.
</event>
<event>
 7    1  0.5696597E-006  0.1010878E+04  0.7818608E-02  0.9188258E-01
          3   -1    0    0  501    0  0.00000000000E+00  0.00000000000E+00  0.75541384036E+03  0.75541384036E+03  0.00000000000E+00 0. -1.
         -4   -1    0    0    0  501 -0.00000000000E+00 -0.00000000000E+00 -0.23184512515E+04  0.23184512515E+04  0.00000000000E+00 0. -1.
   -9000010    2    1    2    0  502 -0.60763191805E+02 -0.14015654612E+03 -0.16601816458E+04  0.19413900970E+04  0.99471422461E+03 0.  0.
        -13    1    1    2    0    0  0.12725157053E+03  0.13325518265E+03 -0.49934342433E+03  0.53225348519E+03  0.10566000000E+00 0.  1.
         13    1    3    3    0    0  0.22839836802E+03 -0.28384806865E+03 -0.15619577419E+04  0.16038851391E+04  0.10566000000E+00 0. -1.
          3    1    1    2  502    0 -0.66488378729E+02  0.69013634700E+01  0.59648765902E+03  0.60022150968E+03  0.00000000000E+00 0. -1.
         -4    1    3    3    0  502 -0.28916155983E+03  0.14369152253E+03 -0.98223903910E+02  0.33750495793E+03  0.00000000000E+00 0. -1.
</event>
<event>
 7    1  0.5696597E-006  0.1085677E+04  0.7818608E-02  0.8916787E-01
          4   -1    0    0  501    0 -0.00000000000E+00  0.00000000000E+00  0.18755972459E+04  0.18755972459E+04  0.00000000000E+00 0.  1.
          2   -1    0    0  502    0  0.00000000000E+00 -0.00000000000E+00 -0.26485515536E+04  0.26485515536E+04  0.00000000000E+00 0. -1.
    9000010    2    1    2  502    0  0.51992903925E+02 -0.44901030346E+03 -0.59282804816E+03  0.12445914942E+04  0.99661897343E+03 0.  0.
        -13    1    3    3    0    0  0.79613492451E+02  0.30258017927E+03 -0.31176922850E+03  0.44169348656E+03  0.10566000000E+00 0.  1.
         13    1    1    2    0    0  0.24628833042E+03  0.35679395102E+03  0.15047695535E+04  0.15659793375E+04  0.10566000000E+00 0. -1.
          2    1    1    2  501    0 -0.29828123435E+03  0.92216352438E+02 -0.16848958131E+04  0.17135779677E+04  0.00000000000E+00 0. -1.
          4    1    3    3  502    0 -0.27620588526E+02 -0.75159048273E+03 -0.28105881966E+03  0.80289800769E+03  0.00000000000E+00 0.  1.
</event>
<event>
 7    1  0.5696597E-006  0.1007209E+04  0.7818608E-02  0.9324664E-01
          2   -1    0    0  501    0  0.00000000000E+00  0.00000000000E+00  0.32296637981E+04  0.32296637981E+04  0.00000000000E+00 0. -1.
         -4   -1    0    0    0  501 -0.00000000000E+00 -0.00000000000E+00 -0.54571289588E+03  0.54571289588E+03  0.00000000000E+00 0. -1.
   -9000010    2    1    2    0  502 -0.16209753863E+02 -0.16854047041E+03  0.15987854128E+03  0.10281217247E+04  0.10014012615E+04 0.  0.
        -13    1    1    2    0    0  0.59084199002E+02  0.88240307340E+02 -0.85351938887E+02  0.13624338166E+03  0.10566000000E+00 0.  1.
         13    1    3    3    0    0 -0.35182637420E+03  0.16721718099E+03  0.34325875672E+03  0.51920127930E+03  0.10566000000E+00 0. -1.
          2    1    1    2  502    0 -0.42874445139E+02  0.80300163074E+02  0.26094242998E+04  0.26110115876E+04  0.00000000000E+00 0. -1.
         -4    1    3    3    0  502  0.33561662034E+03 -0.33575765140E+03 -0.18338021544E+03  0.50892044539E+03  0.00000000000E+00 0. -1.
</event>
<event>
 7    1  0.5696597E-006  0.1278443E+04  0.7818608E-02  0.8664483E-01
          2   -1    0    0  502    0  0.00000000000E+00  0.00000000000E+00  0.13212743263E+04  0.13212743263E+04  0.00000000000E+00 0.  1.
          4   -1    0    0  501    0 -0.00000000000E+00 -0.00000000000E+00 -0.15080823544E+04  0.15080823544E+04  0.00000000000E+00 0.  1.
    9000010    2    1    2  502    0 -0.31114875681E+03 -0.72498162273E+03 -0.60155348730E+03  0.14236898781E+04  0.10210848979E+04 0.  0.
        -13    1    3    3    0    0 -0.58321264195E+03 -0.65791737951E+03 -0.14947647845E+03  0.89181584016E+03  0.10566000000E+00 0.  1.
         13    1    1    2    0    0  0.27336306874E+03  0.70451920263E+03 -0.20613214350E+03  0.78330399333E+03  0.10566000000E+00 0. -1.
          2    1    1    2  501    0  0.37785688064E+02  0.20462420109E+02  0.62087760268E+03  0.62236280928E+03  0.00000000000E+00 0.  1.
          4    1    3    3  502    0  0.27206388515E+03 -0.67064243229E+02 -0.45207700884E+03  0.53187403795E+03  0.00000000000E+00 0.  1.
</event>
<event>
 7    1  0.5696597E-006  0.1064116E+04  0.7818608E-02  0.8947222E-01
          2   -1    0    0  501    0  0.00000000000E+00  0.00000000000E+00  0.85861171252E+03  0.85861171252E+03  0.00000000000E+00 0. -1.
         -4   -1    0    0    0  501 -0.00000000000E+00 -0.00000000000E+00 -0.22355075617E+04  0.22355075617E+04  0.00000000000E+00 0. -1.
   -9000010    2    1    2    0  502  0.49216381449E+02 -0.58305670657E+03 -0.73196980791E+03  0.13592745428E+04  0.98461673145E+03 0.  0.
        -13    1    1    2    0    0 -0.28659049783E+03  0.27531794680E+03 -0.10803928924E+04  0.11511658866E+04  0.10566000000E+00 0.  1.
         13    1    3    3    0    0  0.14387952069E+03 -0.16523821383E+02 -0.77012241977E+03  0.78362165983E+03  0.10566000000E+00 0. -1.
          2    1    1    2  502    0  0.23737411638E+03  0.30773875977E+03  0.43546685116E+03  0.58367884479E+03  0.00000000000E+00 0. -1.
         -4    1    3    3    0  502 -0.94663139242E+02 -0.56653288519E+03  0.38152611868E+02  0.57565288301E+03  0.00000000000E+00 0. -1.
</event>
<event>
 7    1  0.5696597E-006  0.1041599E+04  0.7818608E-02  0.9110162E-01
          4   -1    0    0  501    0 -0.00000000000E+00  0.00000000000E+00  0.21806477624E+03  0.21806477624E+03  0.00000000000E+00 0.  1.
          2   -1    0    0  502    0  0.00000000000E+00 -0.00000000000E+00 -0.31975941193E+04  0.31975941193E+04  0.00000000000E+00 0.  1.
    9000010    2    1    2  502    0  0.29707097666E+03 -0.51945343086E+02 -0.16404344353E+04  0.19420993474E+04  0.99487449203E+03 0.  0.
        -13    1    3    3    0    0  0.51111198044E+02  0.40994140516E+03 -0.11612891178E+04  0.12325813306E+04  0.10566000000E+00 0.  1.
         13    1    1    2    0    0 -0.26104097058E+02  0.22195358424E+03 -0.23602067449E+03  0.32503936283E+03  0.10566000000E+00 0. -1.
          2    1    1    2  501    0 -0.27096687961E+03 -0.17000824115E+03 -0.11030742333E+04  0.11485201853E+04  0.00000000000E+00 0.  1.
          4    1    3    3  502    0  0.24595977862E+03 -0.46188674825E+03 -0.47914531744E+03  0.70951801678E+03  0.00000000000E+00 0.  1.
</event>
<event>
 7    1  0.5696597E-006  0.9980388E+03  0.7818608E-02  0.9107048E-01
          4   -1    0    0  501    0 -0.00000000000E+00  0.00000000000E+00  0.78400888254E+03  0.78400888254E+03  0.00000000000E+00 0.  1.
          2   -1    0    0  502    0  0.00000000000E+00 -0.00000000000E+00 -0.90215142794E+03  0.90215142794E+03  0.00000000000E+00 0.  1.
    9000010    2    1    2  502    0 -0.24951860596E+03 -0.91375383788E+02  0.23999285932E+03  0.10286603274E+04  0.96433215290E+03 0.  0.
        -13    1    3    3    0    0  0.17815763870E+03 -0.40550545227E+03  0.22736375299E+03  0.49786454321E+03  0.10566000000E+00 0.  1.
         13    1    1    2    0    0  0.24756245210E+03  0.61753389508E+02  0.39995341386E+02  0.25826398763E+03  0.10566000000E+00 0. -1.
          2    1    1    2  501    0  0.19561538570E+01  0.29621994280E+02 -0.39813074611E+03  0.39923599547E+03  0.00000000000E+00 0.  1.
          4    1    3    3  502    0 -0.42767624466E+03  0.31413006848E+03  0.12629106326E+02  0.53079578417E+03  0.00000000000E+00 0.  1.
</event>
<event>
 7    1  0.5696597E-006  0.1053836E+04  0.7818608E-02  0.9057263E-01
         -4   -1    0    0    0  501 -0.00000000000E+00  0.00000000000E+00  0.33672616377E+04  0.33672616377E+04  0.00000000000E+00 0. -1.
          3   -1    0    0  501    0  0.00000000000E+00 -0.00000000000E+00 -0.48298028460E+03  0.48298028460E+03  0.00000000000E+00 0. -1.
   -9000010    2    1    2    0  502 -0.19976700182E+03 -0.16577738514E+03  0.26125097234E+04  0.28164298028E+04  0.10196473817E+04 0.  0.
        -13    1    1    2    0    0  0.20227202229E+03  0.17590466910E+03  0.62519276668E+03  0.68023703978E+03  0.10566000000E+00 0.  1.
         13    1    3    3    0    0 -0.60056713608E+03  0.30453365443E+02  0.16277047186E+04  0.17352322480E+04  0.10566000000E+00 0. -1.
          3    1    1    2  502    0 -0.25050204619E+01 -0.10127283965E+02 -0.35342113690E+03  0.35357507975E+03  0.00000000000E+00 0. -1.
         -4    1    3    3    0  502  0.40080013426E+03 -0.19623075058E+03  0.98480500474E+03  0.10811975548E+04  0.00000000000E+00 0. -1.
</event>
<event>
 7    1  0.5696597E-006  0.1003289E+04  0.7818608E-02  0.9262288E-01
         -4   -1    0    0    0  501 -0.00000000000E+00  0.00000000000E+00  0.36573962340E+03  0.36573962340E+03  0.00000000000E+00 0. -1.
          2   -1    0    0  501    0  0.00000000000E+00 -0.00000000000E+00 -0.27864308949E+04  0.27864308949E+04  0.00000000000E+00 0. -1.
   -9000010    2    1    2    0  502 -0.71367250756E+02 -0.41147625204E+02 -0.46047121669E+03  0.10982878600E+04  0.99368811527E+03 0.  0.
        -13    1    1    2    0    0  0.30126920526E+02  0.14893490904E+03 -0.83045945038E+02  0.17316431105E+03  0.10566000000E+00 0.  1.
         13    1    3    3    0    0  0.17900558648E+03  0.33308394092E+03  0.88428523939E+02  0.38833944778E+03  0.10566000000E+00 0. -1.
          2    1    1    2  502    0  0.41240330230E+02 -0.10778728383E+03 -0.18771741098E+04  0.18807183473E+04  0.00000000000E+00 0. -1.
         -4    1    3    3    0  502 -0.25037283724E+03 -0.37423156612E+03 -0.54889974063E+03  0.70994841219E+03  0.00000000000E+00 0. -1.
</event>
<event>
 7    1  0.5696597E-006  0.1064769E+04  0.7818608E-02  0.8948685E-01
         -4   -1    0    0    0  501 -0.00000000000E+00  0.00000000000E+00  0.20923067567E+04  0.20923067567E+04  0.00000000000E+00 0. -1.
          2   -1    0    0  501    0  0.00000000000E+00 -0.00000000000E+00 -0.54300014980E+03  0.54300014980E+03  0.00000000000E+00 0. -1.
   -9000010    2    1    2    0  502 -0.14356720495E+03 -0.37965341533E+03  0.13713418759E+04  0.17374457371E+04  0.98660574227E+03 0.  0.
        -13    1    1    2    0    0  0.13406114108E+03  0.37500141918E+03  0.46409161322E+03  0.61153862556E+03  0.10566000000E+00 0.  1.
         13    1    3    3    0    0  0.15310516577E+03 -0.64378796377E+03  0.75235880359E+03  0.10019720129E+04  0.10566000000E+00 0. -1.
          2    1    1    2  502    0  0.95060638672E+01  0.46519961532E+01 -0.28612688227E+03  0.28632254378E+03  0.00000000000E+00 0. -1.
         -4    1    3    3    0  502 -0.29667237072E+03  0.26413454844E+03  0.61898307233E+03  0.73547372424E+03  0.00000000000E+00 0. -1.
</event>
<event>
 7    1  0.5696597E-006  0.1011441E+04  0.7818608E-02  0.9114988E-01
          1   -1    0    0  501    0  0.00000000000E+00  0.00000000000E+00  0.46386180775E+03  0.46386180775E+03  0.00000000000E+00 0. -1.
         -4   -1    0    0    0  501 -0.00000000000E+00 -0.00000000000E+00 -0.21771164380E+04  0.21771164380E+04  0.00000000000E+00 0. -1.
   -9000010    2    1    2    0  502  0.97728947668E+00 -0.12637997432E+03 -0.95202162440E+03  0.13740400078E+04  0.98268403711E+03 0.  0.
        -13    1    1    2    0    0  0.12093274040E+03  0.21770869930E+03 -0.97396100183E+03  0.10052968963E+04  0.10566000000E+00 0.  1.
         13    1    3    3    0    0  0.18996845955E+03 -0.24167836884E+03  0.80729734911E+02  0.31782660501E+03  0.10566000000E+00 0. -1.
          1    1    1    2  502    0 -0.12191002987E+03 -0.91328724977E+02  0.21272799596E+03  0.26164134164E+03  0.00000000000E+00 0. -1.
         -4    1    3    3    0  502 -0.18899117008E+03  0.11529839451E+03 -0.10327513593E+04  0.10562134028E+04  0.00000000000E+00 0. -1.
</event>
<event>
 7    1  0.5696597E-006  0.1020447E+04  0.7818608E-02  0.9121890E-01
          4   -1    0    0  502    0  0.00000000000E+00  0.00000000000E+00  0.35176058765E+03  0.35176058765E+03  0.00000000000E+00 0.  1.
          4   -1    0    0  501    0 -0.00000000000E+00 -0.00000000000E+00 -0.36203892916E+04  0.36203892916E+04  0.00000000000E+00 0.  1.
    9000010    2    1    2  502    0 -0.15753432497E+03 -0.13072224808E+03 -0.24681415821E+04  0.26689784088E+04  0.99489572702E+03 0.  0.
        -13    1    3    3    0    0  0.36406378129E+03 -0.25206797026E+03 -0.14828655972E+04  0.15475694133E+04  0.10566000000E+00 0.  1.
         13    1    1    2    0    0  0.17411967610E+03  0.14982268194E+03 -0.10386102420E+04  0.10637084862E+04  0.10566000000E+00 0. -1.
          4    1    1    2  501    0 -0.16585351125E+02 -0.19100433868E+02  0.23812312020E+03  0.23946298424E+03  0.00000000000E+00 0.  1.
          4    1    3    3  502    0 -0.52159810626E+03  0.12134572219E+03 -0.98527598495E+03  0.11214089955E+04  0.00000000000E+00 0.  1.
</event>
<event>
 7    1  0.5696597E-006  0.1026874E+04  0.7818608E-02  0.9118033E-01
         -4   -1    0    0    0  501 -0.00000000000E+00  0.00000000000E+00  0.20979652024E+04  0.20979652024E+04  0.00000000000E+00 0. -1.
          2   -1    0    0  501    0  0.00000000000E+00 -0.00000000000E+00 -0.43013404866E+03  0.43013404866E+03  0.00000000000E+00 0. -1.
   -9000010    2    1    2    0  502  0.55002109216E+02 -0.22713069230E+03  0.11977399003E+04  0.15787784458E+04  0.10016720664E+04 0.  0.
        -13    1    1    2    0    0  0.48557880275E+00  0.22596012898E+03  0.68815586304E+03  0.72430429978E+03  0.10566000000E+00 0.  1.
         13    1    3    3    0    0 -0.22798544531E+03  0.13135325824E+03  0.10737637435E+04  0.11055313789E+04  0.10566000000E+00 0. -1.
          2    1    1    2  502    0 -0.55487688019E+02  0.11705633203E+01 -0.21806460969E+03  0.22501650548E+03  0.00000000000E+00 0. -1.
         -4    1    3    3    0  502  0.28298755453E+03 -0.35848395054E+03  0.12397615683E+03  0.47324706684E+03  0.00000000000E+00 0. -1.
</event>
<event>
 7    1  0.5696597E-006  0.8674556E+03  0.7818608E-02  0.9339795E-01
         -2   -1    0    0    0  501  0.00000000000E+00  0.00000000000E+00  0.76972510281E+03  0.76972510281E+03  0.00000000000E+00 0. -1.
         -4   -1    0    0    0  502 -0.00000000000E+00 -0.00000000000E+00 -0.42748104968E+03  0.42748104968E+03  0.00000000000E+00 0. -1.
   -9000010    2    1    2    0  501 -0.15545180296E+03  0.77360515946E+02  0.21415553691E+03  0.89609369606E+03  0.85262618166E+03 0.  0.
        -13    1    1    2    0    0  0.13087626912E+03 -0.88609093952E+02 -0.11937995025E+02  0.15850140768E+03  0.10566000000E+00 0.  1.
         13    1    3    3    0    0 -0.34083746818E+03  0.33142425602E+02 -0.23017589515E+03  0.41261308021E+03  0.10566000000E+00 0. -1.
         -2    1    1    2    0  502  0.24575533844E+02  0.11248578005E+02  0.14002651125E+03  0.14261104874E+03  0.00000000000E+00 0. -1.
         -4    1    3    3    0  501  0.18538566522E+03  0.44218090345E+02  0.44433143206E+03  0.48348061585E+03  0.00000000000E+00 0. -1.
</event>
<event>
 7    1  0.5696597E-006  0.1028301E+04  0.7818608E-02  0.9423663E-01
          1   -1    0    0  501    0  0.00000000000E+00  0.00000000000E+00  0.21542651504E+04  0.21542651504E+04  0.00000000000E+00 0. -1.
         -4   -1    0    0    0  501 -0.00000000000E+00 -0.00000000000E+00 -0.19937642963E+03  0.19937642963E+03  0.00000000000E+00 0. -1.
   -9000010    2    1    2    0  502  0.72147446032E+02 -0.73765586297E+02  0.16122874005E+04  0.19137913586E+04  0.10259045212E+04 0.  0.
        -13    1    1    2    0    0 -0.69748266957E+02  0.62439230191E+01 -0.18542531316E+02  0.72440623615E+02  0.10566000000E+00 0.  1.
         13    1    3    3    0    0 -0.38912664650E+03 -0.17117528627E+03  0.30253607229E+03  0.52177448371E+03  0.10566000000E+00 0. -1.
          1    1    1    2  502    0 -0.23991790751E+01  0.67521663278E+02  0.36114385157E+03  0.36740959786E+03  0.00000000000E+00 0. -1.
         -4    1    3    3    0  502  0.46127409253E+03  0.97409699968E+02  0.13097513282E+04  0.13920168749E+04  0.00000000000E+00 0. -1.
</event>
<event>
 7    1  0.5696597E-006  0.1306843E+04  0.7818608E-02  0.8630913E-01
          2   -1    0    0  501    0  0.00000000000E+00  0.00000000000E+00  0.22798603852E+04  0.22798603852E+04  0.00000000000E+00 0.  1.
         -4   -1    0    0    0  501 -0.00000000000E+00 -0.00000000000E+00 -0.72018607585E+03  0.72018607585E+03  0.00000000000E+00 0. -1.
   -9000010    2    1    2    0  502  0.23447029834E+03 -0.81090003215E+03  0.90946377335E+03  0.15972698875E+04  0.10057890215E+04 0.  0.
        -13    1    1    2    0    0 -0.17414432357E+03  0.81294564740E+03  0.86536650044E+02  0.83588005959E+03  0.10566000000E+00 0.  1.
         13    1    3    3    0    0 -0.30075734003E+03 -0.14298041048E+03  0.60170039540E+03  0.68770760673E+03  0.10566000000E+00 0. -1.
          2    1    1    2  502    0 -0.60325974778E+02 -0.20456152462E+01  0.56367388598E+03  0.56689651393E+03  0.00000000000E+00 0.  1.
         -4    1    3    3    0  502  0.53522763837E+03 -0.66791962167E+03  0.30776337794E+03  0.90956228082E+03  0.00000000000E+00 0. -1.
</event>
<event>
 7    1  0.5696597E-006  0.1037133E+04  0.7818608E-02  0.9135122E-01
         -4   -1    0    0    0  501 -0.00000000000E+00  0.00000000000E+00  0.11248538337E+04  0.11248538337E+04  0.00000000000E+00 0. -1.
          2   -1    0    0  501    0  0.00000000000E+00 -0.00000000000E+00 -0.11726425694E+04  0.11726425694E+04  0.00000000000E+00 0.  1.
   -9000010    2    1    2    0  502  0.24398497590E+02  0.20270079664E+03  0.70924944080E+03  0.12562891700E+04  0.10166340589E+04 0.  0.
        -13    1    1    2    0    0 -0.12037929343E+02 -0.20518818164E+03  0.67676652460E+02  0.21639603065E+03  0.10566000000E+00 0.  1.
         13    1    3    3    0    0  0.12818320268E+03 -0.79121379778E+02 -0.22734547829E+03  0.27272166003E+03  0.10566000000E+00 0. -1.
          2    1    1    2  502    0 -0.12360568247E+02  0.24873850018E+01 -0.82471482889E+03  0.82481120247E+03  0.00000000000E+00 0.  1.
         -4    1    3    3    0  502 -0.10378470509E+03  0.28182217642E+03  0.93659491910E+03  0.98356750994E+03  0.00000000000E+00 0. -1.
</event>
<event>
 7    1  0.5696597E-006  0.1051687E+04  0.7818608E-02  0.8996919E-01
         -4   -1    0    0    0  501 -0.00000000000E+00  0.00000000000E+00  0.56741151541E+03  0.56741151541E+03  0.00000000000E+00 0. -1.
          2   -1    0    0  501    0  0.00000000000E+00 -0.00000000000E+00 -0.33889514128E+04  0.33889514128E+04  0.00000000000E+00 0.  1.
   -9000010    2    1    2    0  502 -0.18932460062E+03  0.49024840917E+03 -0.62518788370E+03  0.12870504399E+04  0.99471183660E+03 0.  0.
        -13    1    1    2    0    0  0.24882128657E+03 -0.21010961108E+03  0.11114649865E+03  0.34410991942E+03  0.10566000000E+00 0.  1.
         13    1    3    3    0    0 -0.27511974793E+03  0.73629198689E+03 -0.23968908541E+03  0.82174669727E+03  0.10566000000E+00 0. -1.
          2    1    1    2  502    0 -0.59496685952E+02 -0.28013879809E+03 -0.23074985124E+04  0.23252025689E+04  0.00000000000E+00 0.  1.
         -4    1    3    3    0  502  0.85795147309E+02 -0.24604357771E+03 -0.38549879828E+03  0.46530374264E+03  0.00000000000E+00 0. -1.
</event>
<event>
 7    1  0.5696597E-006  0.1192236E+04  0.7818608E-02  0.9030606E-01
          2   -1    0    0  502    0  0.00000000000E+00  0.00000000000E+00  0.19652365421E+04  0.19652365421E+04  0.00000000000E+00 0.  1.
          4   -1    0    0  501    0 -0.00000000000E+00 -0.00000000000E+00 -0.81628334632E+03  0.81628334632E+03  0.00000000000E+00 0.  1.
    9000010    2    1    2  502    0 -0.59689340865E+03  0.48535154108E+02 -0.16665144076E+03  0.11796157997E+04  0.10025384430E+04 0.  0.
        -13    1    3    3    0    0 -0.42432643865E+03 -0.17385012442E+03  0.35964607653E+03  0.58277105610E+03  0.10566000000E+00 0.  1.
         13    1    1    2    0    0 -0.64984994667E+01  0.20449327105E+03  0.11529573296E+03  0.23484642983E+03  0.10566000000E+00 0. -1.
          2    1    1    2  501    0  0.60339190812E+03 -0.25302842516E+03  0.12003089036E+04  0.13670576589E+04  0.00000000000E+00 0.  1.
          4    1    3    3  502    0 -0.17256697000E+03  0.22238527853E+03 -0.52629751729E+03  0.59684474359E+03  0.00000000000E+00 0.  1.
</event>
<event>
 7    1  0.5696597E-006  0.1052036E+04  0.7818608E-02  0.9004043E-01
          2   -1    0    0  501    0  0.00000000000E+00  0.00000000000E+00  0.14223626844E+04  0.14223626844E+04  0.00000000000E+00 0. -1.
         -4   -1    0    0    0  501 -0.00000000000E+00 -0.00000000000E+00 -0.45283327634E+03  0.45283327634E+03  0.00000000000E+00 0. -1.
   -9000010    2    1    2    0  502 -0.73941393406E+02  0.28439214543E+03  0.61544292783E+03  0.12091532158E+04  0.99846646403E+03 0.  0.
        -13    1    1    2    0    0  0.14510138568E+03 -0.30769405132E+03  0.39277288020E+02  0.34245110288E+03  0.10566000000E+00 0.  1.
         13    1    3    3    0    0  0.10684937897E+03 -0.35781983689E+03  0.23229841997E+03  0.43978903186E+03  0.10566000000E+00 0. -1.
          2    1    1    2  502    0 -0.71159992274E+02  0.23301905898E+02  0.31480919225E+03  0.32359164211E+03  0.00000000000E+00 0. -1.
         -4    1    3    3    0  502 -0.18079077238E+03  0.64221198232E+03  0.38314450786E+03  0.76936418393E+03  0.00000000000E+00 0. -1.
</event>
<event>
 7    1  0.5696597E-006  0.1023285E+04  0.7818608E-02  0.9146150E-01
          4   -1    0    0  501    0 -0.00000000000E+00  0.00000000000E+00  0.99148145474E+03  0.99148145474E+03  0.00000000000E+00 0.  1.
          2   -1    0    0  502    0  0.00000000000E+00 -0.00000000000E+00 -0.71647358887E+03  0.71647358887E+03  0.00000000000E+00 0. -1.
    9000010    2    1    2  502    0  0.17065833666E+03  0.98780969446E+02  0.50887225058E+03  0.11415305142E+04  0.10026260517E+04 0.  0.
        -13    1    3    3    0    0  0.24595082839E+03 -0.21486420305E+03 -0.18571812821E+03  0.37569890877E+03  0.10566000000E+00 0.  1.
         13    1    1    2    0    0 -0.17341218455E+03 -0.11139484526E+03  0.10223942422E+03  0.23007283266E+03  0.10566000000E+00 0. -1.
          2    1    1    2  501    0  0.27538478820E+01  0.12613875818E+02 -0.33610380893E+03  0.33635169676E+03  0.00000000000E+00 0. -1.
          4    1    3    3  502    0 -0.75292491725E+02  0.31364517250E+03  0.69459037879E+03  0.76583160542E+03  0.00000000000E+00 0.  1.
</event>
<event>
 7    1  0.5696597E-006  0.1179637E+04  0.7818608E-02  0.8763007E-01
          1   -1    0    0  501    0  0.00000000000E+00  0.00000000000E+00  0.11428047292E+04  0.11428047292E+04  0.00000000000E+00 0.  1.
         -4   -1    0    0    0  501 -0.00000000000E+00 -0.00000000000E+00 -0.99062222290E+03  0.99062222290E+03  0.00000000000E+00 0. -1.
   -9000010    2    1    2    0  502 -0.64990081841E+03  0.90908215754E+02 -0.61925174587E+02  0.11901148023E+04  0.99091025730E+03 0.  0.
        -13    1    1    2    0    0  0.63054469345E+03 -0.49757005163E+02 -0.87292853524E+02  0.63850013581E+03  0.10566000000E+00 0.  1.
         13    1    3    3    0    0 -0.23911513323E+03  0.93848079115E+02 -0.51684973093E+03  0.57716303106E+03  0.10566000000E+00 0. -1.
          1    1    1    2  502    0  0.19356124965E+02 -0.41151210591E+02  0.30140053445E+03  0.30481201399E+03  0.00000000000E+00 0.  1.
         -4    1    3    3    0  502 -0.41078568518E+03 -0.29398633609E+01  0.45492455634E+03  0.61295177127E+03  0.00000000000E+00 0. -1.
</event>
<event>
 7    1  0.5696597E-006  0.9360925E+03  0.7818608E-02  0.9692153E-01
          2   -1    0    0  501    0  0.00000000000E+00  0.00000000000E+00  0.72537763608E+03  0.72537763608E+03  0.00000000000E+00 0. -1.
         -4   -1    0    0    0  501 -0.00000000000E+00 -0.00000000000E+00 -0.20461647664E+04  0.20461647664E+04  0.00000000000E+00 0. -1.
   -9000010    2    1    2    0  502 -0.82538841520E+02  0.10387942098E+02 -0.19126169725E+04  0.21304726085E+04  0.93482045476E+03 0.  0.
        -13    1    1    2    0    0  0.35412792379E+02  0.21555533879E+01 -0.10319573581E+02  0.36948843519E+02  0.10566000000E+00 0.  1.
         13    1    3    3    0    0  0.28282530365E+03  0.15829913484E+03 -0.21797122557E+03  0.39058959896E+03  0.10566000000E+00 0. -1.
          2    1    1    2  502    0  0.47126049141E+02 -0.12543495486E+02  0.60214941577E+03  0.60412095038E+03  0.00000000000E+00 0. -1.
         -4    1    3    3    0  502 -0.36536414517E+03 -0.14791119274E+03 -0.16946457469E+04  0.17398830096E+04  0.00000000000E+00 0. -1.
</event>
<event>
 7    1  0.5696597E-006  0.1007340E+04  0.7818608E-02  0.9159374E-01
          4   -1    0    0  501    0 -0.00000000000E+00  0.00000000000E+00  0.13516187764E+04  0.13516187764E+04  0.00000000000E+00 0.  1.
          2   -1    0    0  502    0  0.00000000000E+00 -0.00000000000E+00 -0.12246728236E+04  0.12246728236E+04  0.00000000000E+00 0.  1.
    9000010    2    1    2  502    0 -0.18873388104E+03 -0.16037729627E+03 -0.18537578391E+02  0.10173272407E+04  0.98654433137E+03 0.  0.
        -13    1    3    3    0    0  0.81464126757E+02  0.35566186247E+03 -0.18830083392E+03  0.41059588355E+03  0.10566000000E+00 0.  1.
         13    1    1    2    0    0  0.20217165399E+03 -0.31330839411E+02  0.82645201558E+03  0.85139764176E+03  0.10566000000E+00 0. -1.
          2    1    1    2  501    0 -0.13437772952E+02  0.19170813568E+03 -0.68096848446E+03  0.70756671760E+03  0.00000000000E+00 0.  1.
          4    1    3    3  502    0 -0.27019800779E+03 -0.51603915875E+03  0.16976325553E+03  0.60673135711E+03  0.00000000000E+00 0.  1.
</event>
<event>
 7    1  0.5696597E-006  0.1078826E+04  0.7818608E-02  0.8905861E-01
         -4   -1    0    0    0  502 -0.00000000000E+00  0.00000000000E+00  0.22269373922E+04  0.22269373922E+04  0.00000000000E+00 0. -1.
         -2   -1    0    0    0  501  0.00000000000E+00 -0.00000000000E+00 -0.98158941799E+03  0.98158941799E+03  0.00000000000E+00 0.  1.
   -9000010    2    1    2    0  501  0.45503555349E+03  0.17345117929E+02  0.16010983798E+04  0.19297472023E+04  0.97624281559E+03 0.  0.
        -13    1    1    2    0    0 -0.46108997864E+03 -0.26260346819E+02  0.34592286690E+03  0.57702358291E+03  0.10566000000E+00 0.  1.
         13    1    3    3    0    0  0.18942692919E+03 -0.46449248300E+03  0.97336484714E+03  0.10950228149E+04  0.10566000000E+00 0. -1.
         -2    1    1    2    0  502  0.60544251501E+01  0.89152288898E+01 -0.70167327244E+03  0.70175602501E+03  0.00000000000E+00 0.  1.
         -4    1    3    3    0  501  0.26560862431E+03  0.48183760093E+03  0.62773353264E+03  0.83472438744E+03  0.00000000000E+00 0. -1.
</event>
<event>
 7    1  0.5696597E-006  0.1498493E+04  0.7818608E-02  0.8473760E-01
          1   -1    0    0  501    0  0.00000000000E+00  0.00000000000E+00  0.17263438484E+04  0.17263438484E+04  0.00000000000E+00 0. -1.
         -4   -1    0    0    0  501 -0.00000000000E+00 -0.00000000000E+00 -0.15554410390E+04  0.15554410390E+04  0.00000000000E+00 0. -1.
   -9000010    2    1    2    0  502  0.43961941682E+03 -0.10142080153E+04 -0.15867618570E+03  0.14963515922E+04  0.99599539448E+03 0.  0.
        -13    1    1    2    0    0 -0.41472476604E+03  0.10502104524E+04 -0.28882159926E+03  0.11654855440E+04  0.10566000000E+00 0.  1.
         13    1    3    3    0    0 -0.25027884417E+03  0.12663365124E+02 -0.36206062738E+02  0.25320100868E+03  0.10566000000E+00 0. -1.
          1    1    1    2  502    0 -0.24894650777E+02 -0.36002437098E+02  0.61840059432E+03  0.61994775116E+03  0.00000000000E+00 0. -1.
         -4    1    3    3    0  502  0.68989826099E+03 -0.10268713804E+04 -0.12247012296E+03  0.12431505836E+04  0.00000000000E+00 0. -1.
</event>
<event>
 7    1  0.5696597E-006  0.1077696E+04  0.7818608E-02  0.8884364E-01
         -4   -1    0    0    0  501 -0.00000000000E+00  0.00000000000E+00  0.20002369679E+04  0.20002369679E+04  0.00000000000E+00 0. -1.
          2   -1    0    0  501    0  0.00000000000E+00 -0.00000000000E+00 -0.15442599837E+04  0.15442599837E+04  0.00000000000E+00 0.  1.
   -9000010    2    1    2    0  502 -0.16846692301E+03 -0.48365126035E+03  0.13707025469E+04  0.17461484699E+04  0.95284277867E+03 0.  0.
        -13    1    1    2    0    0  0.25483350667E+03  0.43161533582E+03  0.29688006031E+03  0.58255445720E+03  0.10566000000E+00 0.  1.
         13    1    3    3    0    0 -0.50286502940E+03 -0.19451180385E+02  0.54722429601E+03  0.74344201355E+03  0.10566000000E+00 0. -1.
          2    1    1    2  502    0 -0.86366583655E+02  0.52035924533E+02 -0.12116056230E+04  0.12157940245E+04  0.00000000000E+00 0.  1.
         -4    1    3    3    0  502  0.33439810638E+03 -0.46420007996E+03  0.82347825091E+03  0.10027064563E+04  0.00000000000E+00 0. -1.
</event>
<event>
 7    1  0.5696597E-006  0.1032920E+04  0.7818608E-02  0.9161423E-01
          4   -1    0    0  501    0 -0.00000000000E+00  0.00000000000E+00  0.12784726019E+04  0.12784726019E+04  0.00000000000E+00 0.  1.
          2   -1    0    0  502    0  0.00000000000E+00 -0.00000000000E+00 -0.39433457225E+03  0.39433457225E+03  0.00000000000E+00 0.  1.
    9000010    2    1    2  502    0 -0.12292374590E+03 -0.18983850883E+03  0.77354335908E+03  0.12966634826E+04  0.10157844023E+04 0.  0.
        -13    1    3    3    0    0 -0.32889760800E+03 -0.47686438842E+03  0.18119482103E+03  0.60696363632E+03  0.10566000000E+00 0.  1.
         13    1    1    2    0    0  0.17186139085E+03  0.72182084579E+02  0.15372391960E+03  0.24161466351E+03  0.10566000000E+00 0. -1.
          2    1    1    2  501    0 -0.48937644948E+02  0.11765642425E+03 -0.43129249052E+02  0.13452902803E+03  0.00000000000E+00 0.  1.
          4    1    3    3  502    0  0.20597386210E+03  0.28702587959E+03  0.59234853805E+03  0.68969984627E+03  0.00000000000E+00 0.  1.
</event>
<event>
 7    1  0.5696597E-006  0.1071624E+04  0.7818608E-02  0.8960931E-01
         -4   -1    0    0    0  501 -0.00000000000E+00  0.00000000000E+00  0.27286512440E+04  0.27286512440E+04  0.00000000000E+00 0. -1.
          1   -1    0    0  501    0  0.00000000000E+00 -0.00000000000E+00 -0.25196835771E+03  0.25196835771E+03  0.00000000000E+00 0. -1.
   -9000010    2    1    2    0  502  0.30869539619E+03  0.17892281690E+03  0.10797083097E+04  0.15171914682E+04  0.10043872237E+04 0.  0.
        -13    1    1    2    0    0 -0.34215881848E+03 -0.15533567136E+03  0.13490044465E+04  0.14003623944E+04  0.10566000000E+00 0.  1.
         13    1    3    3    0    0  0.59762443953E+03 -0.38224702468E+02  0.32724623744E+03  0.68242670645E+03  0.10566000000E+00 0. -1.
          1    1    1    2  502    0  0.33463422292E+02 -0.23587145547E+02  0.47970130060E+02  0.63065739070E+02  0.00000000000E+00 0. -1.
         -4    1    3    3    0  502 -0.28892904334E+03  0.21714751937E+03  0.75246207230E+03  0.83476476178E+03  0.00000000000E+00 0. -1.
</event>
<event>
 7    1  0.5696597E-006  0.1297291E+04  0.7818608E-02  0.8649015E-01
          2   -1    0    0  501    0  0.00000000000E+00  0.00000000000E+00  0.25215065099E+04  0.25215065099E+04  0.00000000000E+00 0.  1.
         -4   -1    0    0    0  501 -0.00000000000E+00 -0.00000000000E+00 -0.21641806924E+04  0.21641806924E+04  0.00000000000E+00 0. -1.
   -9000010    2    1    2    0  502  0.57170281259E+03 -0.54275217870E+03 -0.10334121710E+04  0.16588335570E+04  0.10307104449E+04 0.  0.
        -13    1    1    2    0    0 -0.51602065301E+03  0.59673893976E+03 -0.62694056478E+03  0.10076850498E+04  0.10566000000E+00 0.  1.
         13    1    3    3    0    0 -0.60182909500E+02 -0.64181187855E+03 -0.63747723050E+03  0.90659897453E+03  0.10566000000E+00 0. -1.
          2    1    1    2  502    0 -0.55682159572E+02 -0.53986761065E+02  0.20176785532E+04  0.20191685956E+04  0.00000000000E+00 0.  1.
         -4    1    3    3    0  502  0.63188572209E+03  0.99059699855E+02 -0.39593494049E+03  0.75223458244E+03  0.00000000000E+00 0. -1.
</event>
<event>
 7    1  0.5696597E-006  0.1344475E+04  0.7818608E-02  0.8602955E-01
          4   -1    0    0  501    0  0.00000000000E+00  0.00000000000E+00  0.13803487949E+04  0.13803487949E+04  0.00000000000E+00 0.  1.
         -4   -1    0    0    0  501 -0.00000000000E+00 -0.00000000000E+00 -0.15440322327E+04  0.15440322327E+04  0.00000000000E+00 0. -1.
   -9000010    2    1    2    0  502 -0.89568916272E+02  0.86422319310E+03 -0.78601235641E+03  0.15584275167E+04  0.10276072120E+04 0.  0.
        -13    1    1    2    0    0  0.73958795815E+02 -0.86142754260E+03  0.13111283387E+03  0.87448150409E+03  0.10566000000E+00 0.  1.
         13    1    3    3    0    0  0.49284580640E+02  0.73243017313E+03  0.15620070847E+02  0.73425263103E+03  0.10566000000E+00 0. -1.
          4    1    1    2  502    0  0.15610120458E+02 -0.27956504944E+01  0.49121608482E+03  0.49147200684E+03  0.00000000000E+00 0.  1.
         -4    1    3    3    0  502 -0.13885349691E+03  0.13179301997E+03 -0.80163242726E+03  0.82417488566E+03  0.00000000000E+00 0. -1.
</event>
<event>
 7    1  0.5696597E-006  0.1022125E+04  0.7818608E-02  0.9088691E-01
         -2   -1    0    0    0  501  0.00000000000E+00  0.00000000000E+00  0.25044942252E+04  0.25044942252E+04  0.00000000000E+00 0. -1.
         -4   -1    0    0    0  502 -0.00000000000E+00 -0.00000000000E+00 -0.18029377075E+03  0.18029377075E+03  0.00000000000E+00 0. -1.
   -9000010    2    1    2    0  501  0.10370752349E+03  0.24501746601E+03  0.17821161897E+04  0.20555214832E+04  0.98916209258E+03 0.  0.
        -13    1    1    2    0    0 -0.10584910516E+03 -0.23289003090E+03  0.33347668598E+03  0.42029574208E+03  0.10566000000E+00 0.  1.
         13    1    3    3    0    0  0.17757373050E+03 -0.27826731358E+03  0.12963271292E+04  0.13376954679E+04  0.10566000000E+00 0. -1.
         -2    1    1    2    0  502  0.21415816771E+01 -0.12127435105E+02  0.20860757877E+03  0.20897077062E+03  0.00000000000E+00 0. -1.
         -4    1    3    3    0  501 -0.73866207016E+02  0.52328477959E+03  0.48578906043E+03  0.71782601536E+03  0.00000000000E+00 0. -1.
</event>
<event>
 7    1  0.5696597E-006  0.1336463E+04  0.7818608E-02  0.8603054E-01
         -4   -1    0    0    0  501 -0.00000000000E+00  0.00000000000E+00  0.27598935889E+04  0.27598935889E+04  0.00000000000E+00 0. -1.
          2   -1    0    0  501    0  0.00000000000E+00 -0.00000000000E+00 -0.84710844372E+03  0.84710844372E+03  0.00000000000E+00 0. -1.
   -9000010    2    1    2    0  502  0.71957137505E+03  0.48829937615E+03  0.19910823589E+04  0.23934005633E+04  0.10038615701E+04 0.  0.
        -13    1    1    2    0    0 -0.72138538487E+03 -0.54806414009E+03  0.20098502695E+03  0.92799039186E+03  0.10566000000E+00 0.  1.
         13    1    3    3    0    0 -0.36491593778E+02  0.27882858100E+03  0.31945385295E+02  0.28301507522E+03  0.10566000000E+00 0. -1.
          2    1    1    2  502    0  0.18140098257E+01  0.59764763935E+02 -0.27928224066E+03  0.28561107750E+03  0.00000000000E+00 0. -1.
         -4    1    3    3    0  502  0.75606296883E+03  0.20947079516E+03  0.19591369736E+04  0.21103854881E+04  0.00000000000E+00 0. -1.
</event>
<event>
 7    1  0.5696597E-006  0.1081641E+04  0.7818608E-02  0.8935635E-01
         -4   -1    0    0    0  501 -0.00000000000E+00  0.00000000000E+00  0.27783158598E+04  0.27783158598E+04  0.00000000000E+00 0. -1.
          2   -1    0    0  501    0  0.00000000000E+00 -0.00000000000E+00 -0.31353788813E+03  0.31353788813E+03  0.00000000000E+00 0. -1.
   -9000010    2    1    2    0  502  0.14135646819E+02 -0.41724810283E+03  0.94905078021E+03  0.14431050325E+04  0.10037723624E+04 0.  0.
        -13    1    1    2    0    0 -0.67515108082E+02  0.39610203244E+03  0.15361322005E+04  0.15878152470E+04  0.10566000000E+00 0.  1.
         13    1    3    3    0    0  0.42748063310E+03 -0.11609237832E+03  0.79313192940E+03  0.90844669661E+03  0.10566000000E+00 0. -1.
          2    1    1    2  502    0  0.53379461263E+02  0.21146070393E+02 -0.20405009093E+02  0.60933468422E+02  0.00000000000E+00 0. -1.
         -4    1    3    3    0  502 -0.41334498628E+03 -0.30115572451E+03  0.15591885081E+03  0.53465833588E+03  0.00000000000E+00 0. -1.
</event>
<event>
 7    1  0.5696597E-006  0.1386825E+04  0.7818608E-02  0.8587467E-01
          2   -1    0    0  502    0  0.00000000000E+00  0.00000000000E+00  0.18438404293E+04  0.18438404293E+04  0.00000000000E+00 0. -1.
          4   -1    0    0  501    0 -0.00000000000E+00 -0.00000000000E+00 -0.10149803255E+04  0.10149803255E+04  0.00000000000E+00 0.  1.
    9000010    2    1    2  502    0  0.81719979597E+03 -0.24612453345E+03  0.97572495870E+02  0.13947082212E+04  0.10987710579E+04 0.  0.
        -13    1    3    3    0    0  0.97289130999E+03 -0.48350591744E+03  0.17508753071E+03  0.11004322459E+04  0.10566000000E+00 0.  1.
         13    1    1    2    0    0 -0.80640680832E+03  0.24024669405E+03  0.11679928228E+03  0.84950132314E+03  0.10566000000E+00 0. -1.
          2    1    1    2  501    0 -0.10792987650E+02  0.58778394025E+01  0.61448832573E+03  0.61461121047E+03  0.00000000000E+00 0. -1.
          4    1    3    3  502    0 -0.15569151402E+03  0.23738138399E+03 -0.77515034840E+02  0.29427597528E+03  0.00000000000E+00 0.  1.
</event>
<event>
 7    1  0.5696597E-006  0.1352524E+04  0.7818608E-02  0.8586964E-01
          4   -1    0    0  501    0 -0.00000000000E+00  0.00000000000E+00  0.24214980858E+04  0.24214980858E+04  0.00000000000E+00 0.  1.
          2   -1    0    0  502    0  0.00000000000E+00 -0.00000000000E+00 -0.36930910341E+04  0.36930910341E+04  0.00000000000E+00 0. -1.
    9000010    2    1    2  502    0  0.74485903809E+03 -0.52012743867E+03  0.14200197745E+04  0.19583961287E+04  0.99675056960E+03 0.  0.
        -13    1    3    3    0    0  0.91687955855E+01  0.26397629959E+03  0.19418129723E+03  0.32783218407E+03  0.10566000000E+00 0.  1.
         13    1    1    2    0    0 -0.70635804715E+03  0.59303440236E+03  0.44113138148E+03  0.10223641230E+04  0.10566000000E+00 0. -1.
          2    1    1    2  501    0 -0.38500990937E+02 -0.72906963683E+02 -0.31327441043E+04  0.31338288681E+04  0.00000000000E+00 0. -1.
          4    1    3    3  502    0  0.73569024250E+03 -0.78410373826E+03  0.12258384773E+04  0.16305639447E+04  0.00000000000E+00 0.  1.
</event>
<event>
 7    1  0.5696597E-006  0.1019272E+04  0.7818608E-02  0.9195343E-01
          2   -1    0    0  502    0  0.00000000000E+00  0.00000000000E+00  0.72739130499E+03  0.72739130499E+03  0.00000000000E+00 0. -1.
          4   -1    0    0  501    0 -0.00000000000E+00 -0.00000000000E+00 -0.10929051340E+04  0.10929051340E+04  0.00000000000E+00 0.  1.
    9000010    2    1    2  502    0 -0.86197366771E+02 -0.18081262353E+03 -0.19125012574E+03  0.10423126118E+04  0.10048461471E+04 0.  0.
        -13    1    3    3    0    0 -0.17065867260E+03  0.38124128432E+03  0.57988820731E+02  0.42170133257E+03  0.10566000000E+00 0.  1.
         13    1    1    2    0    0  0.73356572631E+02  0.15316790728E+03 -0.46014377745E+03  0.49048333474E+03  0.10566000000E+00 0. -1.
          2    1    1    2  501    0  0.12840794140E+02  0.27644716256E+02  0.28588007418E+03  0.28750049242E+03  0.00000000000E+00 0. -1.
          4    1    3    3  502    0  0.84461305825E+02 -0.56205390785E+03 -0.24923894647E+03  0.62061127926E+03  0.00000000000E+00 0.  1.
</event>
<event>
 7    1  0.5696597E-006  0.1043697E+04  0.7818608E-02  0.9229603E-01
          2   -1    0    0  501    0  0.00000000000E+00  0.00000000000E+00  0.92286131679E+03  0.92286131679E+03  0.00000000000E+00 0. -1.
         -4   -1    0    0    0  501 -0.00000000000E+00 -0.00000000000E+00 -0.62460287319E+03  0.62460287319E+03  0.00000000000E+00 0. -1.
   -9000010    2    1    2    0  502 -0.10270234973E+02  0.25889898172E+03  0.40935999922E+03  0.11310271086E+04  0.10220139681E+04 0.  0.
        -13    1    1    2    0    0 -0.10810638889E+03 -0.88048606498E+02 -0.15020072386E+03  0.20493856894E+03  0.10566000000E+00 0.  1.
         13    1    3    3    0    0 -0.39567774062E+03  0.28284070351E+03  0.53681833504E+03  0.72438503159E+03  0.10566000000E+00 0. -1.
          2    1    1    2  502    0  0.11837662386E+03 -0.17085037522E+03  0.39099168244E+02  0.21149851240E+03  0.00000000000E+00 0. -1.
         -4    1    3    3    0  502  0.38540750565E+03 -0.23941721791E+02 -0.12745833582E+03  0.40664207705E+03  0.00000000000E+00 0. -1.
</event>
<event>
 7    1  0.5696597E-006  0.1015837E+04  0.7818608E-02  0.9196116E-01
         -4   -1    0    0    0  501 -0.00000000000E+00  0.00000000000E+00  0.18712240776E+04  0.18712240776E+04  0.00000000000E+00 0. -1.
          2   -1    0    0  501    0  0.00000000000E+00 -0.00000000000E+00 -0.91837951657E+03  0.91837951657E+03  0.00000000000E+00 0.  1.
   -9000010    2    1    2    0  502  0.98386504361E+02  0.15738742742E+03  0.12707122291E+04  0.16283326229E+04  0.10011527630E+04 0.  0.
        -13    1    1    2    0    0 -0.77266945753E+02 -0.15238689281E+03  0.40422586430E+03  0.43885134902E+03  0.10566000000E+00 0.  1.
         13    1    3    3    0    0  0.10973827576E+03 -0.39787477284E+03  0.80048963936E+03  0.90062783541E+03  0.10566000000E+00 0. -1.
          2    1    1    2  502    0 -0.21119558608E+02 -0.50005346138E+01 -0.72209353241E+03  0.72241962228E+03  0.00000000000E+00 0.  1.
         -4    1    3    3    0  502 -0.11351771397E+02  0.55526220026E+03  0.47022258978E+03  0.72770478746E+03  0.00000000000E+00 0. -1.
</event>
<event>
 7    1  0.5696597E-006  0.1202908E+04  0.7818608E-02  0.8789800E-01
          2   -1    0    0  501    0  0.00000000000E+00  0.00000000000E+00  0.53642599496E+03  0.53642599496E+03  0.00000000000E+00 0. -1.
         -4   -1    0    0    0  501 -0.00000000000E+00 -0.00000000000E+00 -0.36743504497E+04  0.36743504497E+04  0.00000000000E+00 0. -1.
   -9000010    2    1    2    0  502 -0.15659562500E+03  0.62288669232E+03 -0.15472661395E+04  0.19541143750E+04  0.10059922777E+04 0.  0.
        -13    1    1    2    0    0  0.53780499579E+03 -0.28414135198E+02 -0.14360794557E+04  0.15337424135E+04  0.10566000000E+00 0.  1.
         13    1    3    3    0    0  0.13131777379E+03  0.63994940228E+03 -0.15317901002E+04  0.16652809124E+04  0.10566000000E+00 0. -1.
          2    1    1    2  502    0 -0.38120937079E+03 -0.59447255712E+03 -0.15457885953E+03  0.72291965623E+03  0.00000000000E+00 0. -1.
         -4    1    3    3    0  502 -0.28791339879E+03 -0.17062709961E+02 -0.15476039314E+02  0.28883346251E+03  0.00000000000E+00 0. -1.
</event>
<event>
 7    1  0.5696597E-006  0.1039433E+04  0.7818608E-02  0.9081254E-01
          2   -1    0    0  501    0  0.00000000000E+00  0.00000000000E+00  0.13611323174E+04  0.13611323174E+04  0.00000000000E+00 0.  1.
         -4   -1    0    0    0  501 -0.00000000000E+00 -0.00000000000E+00 -0.11648948075E+04  0.11648948075E+04  0.00000000000E+00 0. -1.
   -9000010    2    1    2    0  502  0.20246327777E+03  0.20316897915E+03  0.44666098716E+03  0.11395630511E+04  0.10083793419E+04 0.  0.
        -13    1    1    2    0    0 -0.11782483447E+03 -0.22233370661E+03 -0.79559038184E+03  0.83443336196E+03  0.10566000000E+00 0.  1.
         13    1    3    3    0    0  0.52239508491E+03 -0.13953173342E+03  0.84779792366E+02  0.54731467523E+03  0.10566000000E+00 0. -1.
          2    1    1    2  502    0 -0.84638443303E+02  0.19164727458E+02  0.54516690462E+03  0.55203071179E+03  0.00000000000E+00 0.  1.
         -4    1    3    3    0  502 -0.31993180714E+03  0.34270071257E+03  0.36188119479E+03  0.59224837590E+03  0.00000000000E+00 0. -1.
</event>
<event>
 7    1  0.5696597E-006  0.1136558E+04  0.7818608E-02  0.8882814E-01
         -2   -1    0    0    0  501  0.00000000000E+00  0.00000000000E+00  0.50138311318E+03  0.50138311318E+03  0.00000000000E+00 0. -1.
         -4   -1    0    0    0  502 -0.00000000000E+00 -0.00000000000E+00 -0.17693066185E+04  0.17693066185E+04  0.00000000000E+00 0. -1.
   -9000010    2    1    2    0  501  0.42945095634E+03  0.10144700272E+03 -0.43308462209E+03  0.12195884092E+04  0.10512440153E+04 0.  0.
        -13    1    1    2    0    0 -0.41646338731E+03 -0.11057305176E+03 -0.89261953095E+03  0.99117999927E+03  0.10566000000E+00 0.  1.
         13    1    3    3    0    0  0.37057784803E+03 -0.21406034377E+03 -0.68764381843E+03  0.80994061783E+03  0.10566000000E+00 0. -1.
         -2    1    1    2    0  502 -0.12987569031E+02  0.91260490446E+01  0.57780647721E+02  0.59921323179E+02  0.00000000000E+00 0. -1.
         -4    1    3    3    0  501  0.58873108307E+02  0.31550734649E+03  0.25455919633E+03  0.40964779141E+03  0.00000000000E+00 0. -1.
</event>
<event>
 7    1  0.5696597E-006  0.1068894E+04  0.7818608E-02  0.8959386E-01
         -4   -1    0    0    0  501 -0.00000000000E+00  0.00000000000E+00  0.19212357910E+04  0.19212357910E+04  0.00000000000E+00 0. -1.
          1   -1    0    0  501    0  0.00000000000E+00 -0.00000000000E+00 -0.10692479290E+04  0.10692479290E+04  0.00000000000E+00 0. -1.
   -9000010    2    1    2    0  502  0.28476849280E+03 -0.25383489034E+03  0.14953101183E+04  0.18386070761E+04  0.99949906675E+03 0.  0.
        -13    1    1    2    0    0 -0.29032073616E+03  0.24026765860E+03  0.11454151696E+03  0.39387110567E+03  0.10566000000E+00 0.  1.
         13    1    3    3    0    0  0.28113820082E+03  0.10415996664E+03 -0.12542146964E+01  0.29981589489E+03  0.10566000000E+00 0. -1.
          1    1    1    2  502    0  0.55522433588E+01  0.13567231746E+02 -0.75786377328E+03  0.75800553826E+03  0.00000000000E+00 0. -1.
         -4    1    3    3    0  502  0.36302919783E+01 -0.35799485698E+03  0.14965643330E+04  0.15387911812E+04  0.00000000000E+00 0. -1.
</event>
<event>
 7    1  0.5696597E-006  0.1381796E+04  0.7818608E-02  0.8561505E-01
         -4   -1    0    0    0  501 -0.00000000000E+00  0.00000000000E+00  0.12490091026E+04  0.12490091026E+04  0.00000000000E+00 0. -1.
          2   -1    0    0  501    0  0.00000000000E+00 -0.00000000000E+00 -0.15008873354E+04  0.15008873354E+04  0.00000000000E+00 0.  1.
   -9000010    2    1    2    0  502  0.67805242602E+03  0.68788348766E+03 -0.36175080875E+03  0.14320303265E+04  0.99343264661E+03 0.  0.
        -13    1    1    2    0    0 -0.66531902176E+03 -0.68998924351E+03  0.39191059277E+03  0.10355329453E+04  0.10566000000E+00 0.  1.
         13    1    3    3    0    0 -0.22673437026E+02 -0.17133407079E+03  0.13284931067E+03  0.21798715345E+03  0.10566000000E+00 0. -1.
          2    1    1    2  502    0 -0.12733404265E+02  0.21057558465E+01 -0.28203801684E+03  0.28233316620E+03  0.00000000000E+00 0.  1.
         -4    1    3    3    0  502  0.70072586305E+03  0.85921755845E+03 -0.49460011942E+03  0.12140431730E+04  0.00000000000E+00 0. -1.
</event>
<event>
 7    1  0.5696597E-006  0.1168020E+04  0.7818608E-02  0.8782043E-01
          2   -1    0    0  502    0  0.00000000000E+00  0.00000000000E+00  0.97810604395E+03  0.97810604395E+03  0.00000000000E+00 0. -1.
          4   -1    0    0  501    0 -0.00000000000E+00 -0.00000000000E+00 -0.26337232658E+04  0.26337232658E+04  0.00000000000E+00 0.  1.
    9000010    2    1    2  502    0  0.60210799433E+03  0.75663033606E+02 -0.74102312862E+03  0.13827557656E+04  0.99731604755E+03 0.  0.
        -13    1    3    3    0    0 -0.64198558630E+02 -0.25563502588E+03  0.79269103787E+02  0.27523503295E+03  0.10566000000E+00 0.  1.
         13    1    1    2    0    0 -0.45440763705E+03 -0.43474142533E+03 -0.14425782719E+04  0.15736958058E+04  0.10566000000E+00 0. -1.
          2    1    1    2  501    0 -0.14770035728E+03  0.35907839172E+03  0.52798417868E+03  0.65537773831E+03  0.00000000000E+00 0. -1.
          4    1    3    3  502    0  0.66630655296E+03  0.33129805948E+03 -0.82029223240E+03  0.11075207327E+04  0.00000000000E+00 0.  1.
</event>
<event>
 7    1  0.5696597E-006  0.1122589E+04  0.7818608E-02  0.8868130E-01
          4   -1    0    0  502    0  0.00000000000E+00  0.00000000000E+00  0.12468853842E+04  0.12468853842E+04  0.00000000000E+00 0. -1.
          4   -1    0    0  501    0 -0.00000000000E+00 -0.00000000000E+00 -0.26966030531E+04  0.26966030531E+04  0.00000000000E+00 0.  1.
    9000010    2    1    2  502    0  0.47973388779E+03 -0.21973479148E+03 -0.12012791087E+04  0.16596798569E+04  0.10163846460E+04 0.  0.
        -13    1    3    3    0    0 -0.20979598873E+03  0.22964693598E+03 -0.23160120246E+03  0.38780304310E+03  0.10566000000E+00 0.  1.
         13    1    1    2    0    0 -0.44277807642E+03  0.14982320414E+03 -0.12213211793E+04  0.13077174204E+04  0.10566000000E+00 0. -1.
          4    1    1    2  501    0 -0.36955811373E+02  0.69911587338E+02  0.97288261912E+03  0.97609116000E+03  0.00000000000E+00 0. -1.
          4    1    3    3  502    0  0.68952987652E+03 -0.44938172746E+03 -0.96967790623E+03  0.12718768138E+04  0.00000000000E+00 0.  1.
</event>
<event>
 7    1  0.5696597E-006  0.1032943E+04  0.7818608E-02  0.9066172E-01
         -2   -1    0    0    0  501  0.00000000000E+00  0.00000000000E+00  0.23659513045E+04  0.23659513045E+04  0.00000000000E+00 0. -1.
         -4   -1    0    0    0  502 -0.00000000000E+00 -0.00000000000E+00 -0.26972596267E+03  0.26972596267E+03  0.00000000000E+00 0. -1.
   -9000010    2    1    2    0  501 -0.15088814758E+03  0.23228019221E+03  0.18089026048E+04  0.20835952559E+04  0.99625259654E+03 0.  0.
        -13    1    1    2    0    0  0.21006906784E+03 -0.17501310072E+03  0.22035712418E+02  0.27430673064E+03  0.10566000000E+00 0.  1.
         13    1    3    3    0    0 -0.10983491346E+03  0.55208625189E+03  0.16080385202E+04  0.17037167697E+04  0.10566000000E+00 0. -1.
         -2    1    1    2    0  502 -0.59180920256E+02 -0.57267091494E+02  0.26528702455E+03  0.27777528055E+03  0.00000000000E+00 0. -1.
         -4    1    3    3    0  501 -0.41053234128E+02 -0.31980605968E+03  0.20086408467E+03  0.37987848629E+03  0.00000000000E+00 0. -1.
</event>
<event>
 7    1  0.5696597E-006  0.1048126E+04  0.7818608E-02  0.8948255E-01
          2   -1    0    0  502    0  0.00000000000E+00  0.00000000000E+00  0.19347394849E+04  0.19347394849E+04  0.00000000000E+00 0.  1.
          4   -1    0    0  501    0 -0.00000000000E+00 -0.00000000000E+00 -0.94005904243E+03  0.94005904243E+03  0.00000000000E+00 0.  1.
    9000010    2    1    2  502    0 -0.35144599447E+03  0.15935017484E+03  0.47954799347E+03  0.11404313157E+04  0.96005757250E+03 0.  0.
        -13    1    3    3    0    0 -0.16925742862E+03 -0.40608245447E+03  0.18331102033E+03  0.47660673339E+03  0.10566000000E+00 0.  1.
         13    1    1    2    0    0  0.42692951493E+03  0.25285171666E+02 -0.52393589837E+03  0.67632609545E+03  0.10566000000E+00 0. -1.
          2    1    1    2  501    0 -0.75483520468E+02 -0.18463534651E+03  0.10390683474E+04  0.10580411162E+04  0.00000000000E+00 0.  1.
          4    1    3    3  502    0 -0.18218856584E+03  0.56543262931E+03  0.29623697314E+03  0.66382458230E+03  0.00000000000E+00 0.  1.
</event>
<event>
 7    1  0.5696597E-006  0.1019779E+04  0.7818608E-02  0.9525590E-01
         -4   -1    0    0    0  501 -0.00000000000E+00  0.00000000000E+00  0.15074338221E+04  0.15074338221E+04  0.00000000000E+00 0. -1.
          2   -1    0    0  501    0  0.00000000000E+00 -0.00000000000E+00 -0.97736638042E+03  0.97736638042E+03  0.00000000000E+00 0. -1.
   -9000010    2    1    2    0  502 -0.47440739864E+02 -0.57048063339E+02  0.11915379124E+04  0.15692025899E+04  0.10183953388E+04 0.  0.
        -13    1    1    2    0    0 -0.51043606601E+01  0.49310270545E+02  0.12129387440E+03  0.13103347820E+03  0.10566000000E+00 0.  1.
         13    1    3    3    0    0  0.41251832394E+03 -0.23286218259E+03  0.83936912407E+03  0.96381362372E+03  0.10566000000E+00 0. -1.
          2    1    1    2  502    0  0.52545100524E+02  0.77377927935E+01 -0.78276434511E+03  0.78456413441E+03  0.00000000000E+00 0. -1.
         -4    1    3    3    0  502 -0.45995906380E+03  0.17581411925E+03  0.35216878832E+03  0.60538896618E+03  0.00000000000E+00 0. -1.
</event>
<event>
 7    1  0.5696597E-006  0.1438706E+04  0.7818608E-02  0.8516201E-01
          2   -1    0    0  501    0  0.00000000000E+00  0.00000000000E+00  0.23591912451E+04  0.23591912451E+04  0.00000000000E+00 0. -1.
         -4   -1    0    0    0  501 -0.00000000000E+00 -0.00000000000E+00 -0.18340035175E+04  0.18340035175E+04  0.00000000000E+00 0. -1.
   -9000010    2    1    2    0  502  0.65101222996E+03  0.83485960105E+03  0.13036934591E+04  0.19498745221E+04  0.99075049322E+03 0.  0.
        -13    1    1    2    0    0 -0.59545903435E+03 -0.85467520098E+03 -0.13296181869E+04  0.16890605954E+04  0.10566000000E+00 0.  1.
         13    1    3    3    0    0  0.84871253791E+03  0.67964453607E+03  0.69272500653E+03  0.12892236475E+04  0.10566000000E+00 0. -1.
          2    1    1    2  502    0 -0.55553195614E+02  0.19815599932E+02  0.55111245544E+03  0.55425964501E+03  0.00000000000E+00 0. -1.
         -4    1    3    3    0  502 -0.19770030795E+03  0.15521506497E+03  0.61096845256E+03  0.66065087466E+03  0.00000000000E+00 0. -1.
</event>
<event>
 7    1  0.5696597E-006  0.1264409E+04  0.7818608E-02  0.8671554E-01
          2   -1    0    0  502    0  0.00000000000E+00  0.00000000000E+00  0.25080875953E+04  0.25080875953E+04  0.00000000000E+00 0.  1.
          4   -1    0    0  501    0 -0.00000000000E+00 -0.00000000000E+00 -0.43906918359E+03  0.43906918359E+03  0.00000000000E+00 0.  1.
    9000010    2    1    2  502    0 -0.52117005431E+03  0.58123015352E+03  0.15415319043E+04  0.19975005492E+04  0.10021183140E+04 0.  0.
        -13    1    3    3    0    0 -0.52631290548E+03  0.59153222233E+03  0.16806949361E+04  0.18578619766E+04  0.10566000000E+00 0.  1.
         13    1    1    2    0    0  0.52230178093E+03 -0.56182286090E+03  0.52608322051E+03  0.93016538500E+03  0.10566000000E+00 0. -1.
          2    1    1    2  501    0 -0.11317266150E+01 -0.19407292616E+02  0.14032868878E+01  0.19490844669E+02  0.00000000000E+00 0.  1.
          4    1    3    3  502    0  0.51428511719E+01 -0.10302068811E+02 -0.13916303182E+03  0.13963857263E+03  0.00000000000E+00 0.  1.
</event>
<event>
 7    1  0.5696597E-006  0.1021545E+04  0.7818608E-02  0.9041917E-01
          4   -1    0    0  501    0 -0.00000000000E+00  0.00000000000E+00  0.24065919620E+04  0.24065919620E+04  0.00000000000E+00 0.  1.
          2   -1    0    0  502    0  0.00000000000E+00 -0.00000000000E+00 -0.12232178897E+04  0.12232178897E+04  0.00000000000E+00 0.  1.
    9000010    2    1    2  502    0 -0.13305226706E+03 -0.28968992632E+03  0.13195865028E+04  0.16702933474E+04  0.97311261871E+03 0.  0.
        -13    1    3    3    0    0 -0.26178102074E+03 -0.61604000717E+03  0.93278624496E+03  0.11480961559E+04  0.10566000000E+00 0.  1.
         13    1    1    2    0    0  0.14180426987E+03  0.27528522841E+03  0.88528472391E+03  0.93788030232E+03  0.10566000000E+00 0. -1.
          2    1    1    2  501    0 -0.87520028046E+01  0.14404697910E+02 -0.10214971544E+04  0.10216362020E+04  0.00000000000E+00 0.  1.
          4    1    3    3  502    0  0.12872875368E+03  0.32635008086E+03  0.38680025784E+03  0.52219719145E+03  0.00000000000E+00 0.  1.
</event>
<event>
 7    1  0.5696597E-006  0.1037138E+04  0.7818608E-02  0.9219441E-01
         -4   -1    0    0    0  502 -0.00000000000E+00  0.00000000000E+00  0.50223131981E+03  0.50223131981E+03  0.00000000000E+00 0. -1.
         -2   -1    0    0    0  501  0.00000000000E+00 -0.00000000000E+00 -0.81749935108E+03  0.81749935108E+03  0.00000000000E+00 0. -1.
   -9000010    2    1    2    0  501 -0.15360063173E+03 -0.34489115610E+02 -0.28937016250E+03  0.10781180748E+04  0.10265577622E+04 0.  0.
        -13    1    1    2    0    0  0.13697138144E+03  0.53826595313E+02  0.54754320493E+02  0.15702391052E+03  0.10566000000E+00 0.  1.
         13    1    3    3    0    0  0.33064503506E+03 -0.22142185521E+02 -0.45790174183E+03  0.56523484670E+03  0.10566000000E+00 0. -1.
         -2    1    1    2    0  502  0.16629250284E+02 -0.19337479703E+02 -0.80652189259E+02  0.84588685523E+02  0.00000000000E+00 0. -1.
         -4    1    3    3    0  501 -0.48424566678E+03 -0.12346930089E+02  0.16853157933E+03  0.51288322815E+03  0.00000000000E+00 0. -1.
</event>
<event>
 7    1  0.5696597E-006  0.1391107E+04  0.7818608E-02  0.8551889E-01
          2   -1    0    0  502    0  0.00000000000E+00  0.00000000000E+00  0.17652285146E+04  0.17652285146E+04  0.00000000000E+00 0. -1.
          4   -1    0    0  501    0 -0.00000000000E+00 -0.00000000000E+00 -0.28126388984E+04  0.28126388984E+04  0.00000000000E+00 0.  1.
    9000010    2    1    2  502    0 -0.95937909890E+03 -0.19848783208E+03 -0.23000878587E+04  0.26869435135E+04  0.98460937028E+03 0.  0.
        -13    1    3    3    0    0 -0.11026466704E+04  0.28291633226E+02 -0.20033895134E+04  0.22869629752E+04  0.10566000000E+00 0.  1.
         13    1    1    2    0    0  0.97482532301E+03  0.19835830644E+03  0.45640670880E+03  0.10945033226E+04  0.10566000000E+00 0. -1.
          2    1    1    2  501    0 -0.15446224116E+02  0.12952564036E+00  0.79627076601E+03  0.79642057697E+03  0.00000000000E+00 0. -1.
          4    1    3    3  502    0  0.14326757150E+03 -0.22677946530E+03 -0.29669834529E+03  0.39998053830E+03  0.00000000000E+00 0.  1.
</event>
<event>
 7    1  0.5696597E-006  0.1040864E+04  0.7818608E-02  0.9062248E-01
          2   -1    0    0  501    0  0.00000000000E+00  0.00000000000E+00  0.36496870211E+04  0.36496870211E+04  0.00000000000E+00 0.  1.
         -4   -1    0    0    0  501 -0.00000000000E+00 -0.00000000000E+00 -0.26166534288E+03  0.26166534288E+03  0.00000000000E+00 0. -1.
   -9000010    2    1    2    0  502 -0.77350323127E+02 -0.28692848675E+03  0.17655159988E+04  0.20531382252E+04  0.10049969158E+04 0.  0.
        -13    1    1    2    0    0  0.16002783172E+03  0.21776852011E+03  0.41351158984E+02  0.27338976716E+03  0.10566000000E+00 0.  1.
         13    1    3    3    0    0  0.33195133663E+03 -0.22282477625E+03  0.22685894330E+03  0.45968202283E+03  0.10566000000E+00 0. -1.
          2    1    1    2  502    0 -0.82677508591E+02  0.69159966641E+02  0.15811545204E+04  0.15848243716E+04  0.00000000000E+00 0.  1.
         -4    1    3    3    0  502 -0.40930165976E+03 -0.64103710505E+02  0.15386570555E+04  0.15934562023E+04  0.00000000000E+00 0. -1.
</event>
<event>
 7    1  0.5696597E-006  0.1148670E+04  0.7818608E-02  0.8769728E-01
         -2   -1    0    0    0  501  0.00000000000E+00  0.00000000000E+00  0.13150568403E+04  0.13150568403E+04  0.00000000000E+00 0.  1.
         -4   -1    0    0    0  502 -0.00000000000E+00 -0.00000000000E+00 -0.77871024123E+03  0.77871024123E+03  0.00000000000E+00 0. -1.
   -9000010    2    1    2    0  501  0.65213512072E+03  0.11239124573E+03  0.21558187878E+03  0.11619279543E+04  0.93042410589E+03 0.  0.
        -13    1    1    2    0    0 -0.67261387152E+03 -0.10129476666E+03  0.74264198056E+02  0.68424062448E+03  0.10566000000E+00 0.  1.
         13    1    3    3    0    0  0.54693856887E+02  0.84660402113E+02 -0.33449221742E+03  0.34934775846E+03  0.10566000000E+00 0. -1.
         -2    1    1    2    0  502  0.20478750800E+02 -0.11096479077E+02  0.24650052219E+03  0.24759850267E+03  0.00000000000E+00 0.  1.
         -4    1    3    3    0  501  0.59744126383E+03  0.27730843621E+02  0.55007409619E+03  0.81258019587E+03  0.00000000000E+00 0. -1.
</event>
<event>
 7    1  0.5696597E-006  0.1029333E+04  0.7818608E-02  0.9103468E-01
         -4   -1    0    0    0  501 -0.00000000000E+00  0.00000000000E+00  0.21553590841E+04  0.21553590841E+04  0.00000000000E+00 0. -1.
          2   -1    0    0  501    0  0.00000000000E+00 -0.00000000000E+00 -0.56081495066E+03  0.56081495066E+03  0.00000000000E+00 0. -1.
   -9000010    2    1    2    0  502  0.23924438270E+03 -0.34602711518E+03  0.80049160858E+03  0.13493508564E+04  0.10014930250E+04 0.  0.
        -13    1    1    2    0    0 -0.10014664749E+03  0.20658936204E+03  0.10324060530E+04  0.10576250683E+04  0.10566000000E+00 0.  1.
         13    1    3    3    0    0  0.41922746987E+03  0.16903469493E+03  0.63451738344E+03  0.77906143572E+03  0.10566000000E+00 0. -1.
          2    1    1    2  502    0 -0.13909773521E+03  0.13943775314E+03 -0.23835352814E+03  0.30919811015E+03  0.00000000000E+00 0. -1.
         -4    1    3    3    0  502 -0.17998308718E+03 -0.51506181010E+03  0.16597422514E+03  0.57028942065E+03  0.00000000000E+00 0. -1.
</event>
<event>
 7    1  0.5696597E-006  0.1018598E+04  0.7818608E-02  0.9211865E-01
          4   -1    0    0  502    0  0.00000000000E+00  0.00000000000E+00  0.12262296358E+04  0.12262296358E+04  0.00000000000E+00 0.  1.
          4   -1    0    0  501    0 -0.00000000000E+00 -0.00000000000E+00 -0.80094870030E+03  0.80094870030E+03  0.00000000000E+00 0.  1.
    9000010    2    1    2  502    0  0.14782946664E+03  0.93546294522E+02 -0.13065953891E+03  0.10292823746E+04  0.10058557706E+04 0.  0.
        -13    1    3    3    0    0 -0.19425225994E+03  0.43135853142E+03  0.11863051928E+03  0.48772670051E+03  0.10566000000E+00 0.  1.
         13    1    1    2    0    0 -0.11697022357E+03 -0.10897292121E+03 -0.19161404401E+03  0.24954575489E+03  0.10566000000E+00 0. -1.
          4    1    1    2  501    0 -0.30859243071E+02  0.15426626687E+02  0.74755451845E+03  0.74835020662E+03  0.00000000000E+00 0.  1.
          4    1    3    3  502    0  0.34208172658E+03 -0.33781223689E+03 -0.24929005819E+03  0.54155567412E+03  0.00000000000E+00 0.  1.
</event>
<event>
 7    1  0.5696597E-006  0.1098638E+04  0.7818608E-02  0.8892127E-01
          2   -1    0    0  502    0  0.00000000000E+00  0.00000000000E+00  0.25287279510E+04  0.25287279510E+04  0.00000000000E+00 0.  1.
          4   -1    0    0  501    0 -0.00000000000E+00 -0.00000000000E+00 -0.67442831579E+03  0.67442831579E+03  0.00000000000E+00 0.  1.
    9000010    2    1    2  502    0  0.99304625902E+02 -0.44671933440E+03 -0.14782771075E+03  0.11074766012E+04  0.99761306010E+03 0.  0.
        -13    1    3    3    0    0 -0.21357067403E+03 -0.66011583634E+03 -0.20730649690E+03  0.72411417954E+03  0.10566000000E+00 0.  1.
         13    1    1    2    0    0 -0.11353215730E+03  0.45251534288E+03  0.11182577010E+04  0.12116765176E+04  0.10566000000E+00 0. -1.
          2    1    1    2  501    0  0.14227531403E+02 -0.57960084828E+01  0.88386964500E+03  0.88400314803E+03  0.00000000000E+00 0.  1.
          4    1    3    3  502    0  0.31287529993E+03  0.21339650193E+03  0.59478786150E+02  0.38336242166E+03  0.00000000000E+00 0.  1.
</event>
<event>
 7    1  0.5696597E-006  0.1018689E+04  0.7818608E-02  0.9232758E-01
          2   -1    0    0  501    0  0.00000000000E+00  0.00000000000E+00  0.27553112281E+04  0.27553112281E+04  0.00000000000E+00 0. -1.
         -4   -1    0    0    0  501 -0.00000000000E+00 -0.00000000000E+00 -0.25543537968E+03  0.25543537968E+03  0.00000000000E+00 0. -1.
   -9000010    2    1    2    0  502  0.13359468265E+02 -0.25459134988E+03  0.15265658907E+04  0.18433715405E+04  0.10013091364E+04 0.  0.
        -13    1    1    2    0    0  0.10131137550E+03  0.10807990451E+03 -0.26422949729E+02  0.15047738701E+03  0.10566000000E+00 0.  1.
         13    1    3    3    0    0  0.23056574052E+03  0.33187169996E+03  0.67711754644E+03  0.78853507772E+03  0.10566000000E+00 0. -1.
          2    1    1    2  502    0 -0.11467084377E+03  0.14651144536E+03  0.99973290736E+03  0.10168976802E+04  0.00000000000E+00 0. -1.
         -4    1    3    3    0  502 -0.21720627226E+03 -0.58646304984E+03  0.84944834430E+03  0.10548364628E+04  0.00000000000E+00 0. -1.
</event>
<event>
 7    1  0.5696597E-006  0.1004293E+04  0.7818608E-02  0.9281287E-01
         -4   -1    0    0    0  501 -0.00000000000E+00  0.00000000000E+00  0.34938693318E+03  0.34938693318E+03  0.00000000000E+00 0. -1.
          1   -1    0    0  501    0  0.00000000000E+00 -0.00000000000E+00 -0.13737243497E+04  0.13737243497E+04  0.00000000000E+00 0.  1.
   -9000010    2    1    2    0  502  0.10334324159E+03  0.52964048976E+02 -0.53508599313E+03  0.11366258395E+04  0.99605033146E+03 0.  0.
        -13    1    1    2    0    0 -0.53253079423E+02 -0.12152950593E+03 -0.54371449987E+02  0.14339308567E+03  0.10566000000E+00 0.  1.
         13    1    3    3    0    0 -0.42668147737E+02  0.24992125399E+03  0.22437917836E+03  0.33856643494E+03  0.10566000000E+00 0. -1.
          1    1    1    2  502    0 -0.50090162169E+02  0.68565456956E+02 -0.43487997342E+03  0.44309235777E+03  0.00000000000E+00 0.  1.
         -4    1    3    3    0  502  0.14601138933E+03 -0.19695720501E+03 -0.75946517149E+03  0.79805940451E+03  0.00000000000E+00 0. -1.
</event>
<event>
 7    1  0.5696597E-006  0.1196738E+04  0.7818608E-02  0.8745682E-01
          4   -1    0    0  501    0 -0.00000000000E+00  0.00000000000E+00  0.71971945271E+03  0.71971945271E+03  0.00000000000E+00 0.  1.
          2   -1    0    0  502    0  0.00000000000E+00 -0.00000000000E+00 -0.13910949897E+04  0.13910949897E+04  0.00000000000E+00 0.  1.
    9000010    2    1    2  502    0  0.63279692078E+03  0.69841443963E+00 -0.36356160760E+03  0.12365390051E+04  0.99820801334E+03 0.  0.
        -13    1    3    3    0    0 -0.17923374265E+03  0.11808987213E+02  0.18395371092E+03  0.25710535897E+03  0.10566000000E+00 0.  1.
         13    1    1    2    0    0 -0.67306278312E+03  0.45872385901E+02 -0.13123274379E+03  0.68726983785E+03  0.10566000000E+00 0. -1.
          2    1    1    2  501    0  0.40265862337E+02 -0.46570800341E+02 -0.17658118565E+03  0.18700559948E+03  0.00000000000E+00 0.  1.
          4    1    3    3  502    0  0.81203066344E+03 -0.11110572773E+02 -0.54751531852E+03  0.97943364615E+03  0.00000000000E+00 0.  1.
</event>
<event>
 7    1  0.5696597E-006  0.1061115E+04  0.7818608E-02  0.9002040E-01
          2   -1    0    0  501    0  0.00000000000E+00  0.00000000000E+00  0.24655162082E+04  0.24655162082E+04  0.00000000000E+00 0. -1.
         -4   -1    0    0    0  501 -0.00000000000E+00 -0.00000000000E+00 -0.11434234757E+04  0.11434234757E+04  0.00000000000E+00 0. -1.
   -9000010    2    1    2    0  502  0.17743490039E+03 -0.29312587735E+03  0.13362623092E+04  0.17096609179E+04  0.10099195866E+04 0.  0.
        -13    1    1    2    0    0 -0.12696719973E+03  0.29957717171E+03 -0.92833236007E+03  0.98370124201E+03  0.10566000000E+00 0.  1.
         13    1    3    3    0    0 -0.14914916645E+03 -0.58248088185E+03  0.96381546582E+03  0.11359884308E+04  0.10566000000E+00 0. -1.
          2    1    1    2  502    0 -0.50467700661E+02 -0.64512943569E+01  0.91416278338E+03  0.91557752404E+03  0.00000000000E+00 0. -1.
         -4    1    3    3    0  502  0.32658406685E+03  0.28935500450E+03  0.37244684333E+03  0.57367248710E+03  0.00000000000E+00 0. -1.
</event>
<event>
 7    1  0.5696597E-006  0.1149296E+04  0.7818608E-02  0.8809114E-01
         -4   -1    0    0    0  501 -0.00000000000E+00  0.00000000000E+00  0.56002682183E+03  0.56002682183E+03  0.00000000000E+00 0. -1.
          1   -1    0    0  501    0  0.00000000000E+00 -0.00000000000E+00 -0.21229734403E+04  0.21229734403E+04  0.00000000000E+00 0. -1.
   -9000010    2    1    2    0  502  0.21896258942E+03  0.54173932049E+03 -0.44549788610E+03  0.12397612314E+04  0.99855567564E+03 0.  0.
        -13    1    1    2    0    0 -0.18759783943E+03 -0.52808849736E+03 -0.32057310578E+03  0.64562956694E+03  0.10566000000E+00 0.  1.
         13    1    3    3    0    0  0.32853115517E+03  0.53625199928E+03 -0.71295069531E+03  0.95068271876E+03  0.10566000000E+00 0. -1.
          1    1    1    2  502    0 -0.31364749991E+02 -0.13650823130E+02 -0.79687562657E+03  0.79760946379E+03  0.00000000000E+00 0. -1.
         -4    1    3    3    0  502 -0.10956856575E+03  0.54873212104E+01  0.26745280921E+03  0.28907851260E+03  0.00000000000E+00 0. -1.
</event>
<event>
 7    1  0.5696597E-006  0.1123690E+04  0.7818608E-02  0.8871589E-01
          4   -1    0    0  501    0 -0.00000000000E+00  0.00000000000E+00  0.69716206252E+03  0.69716206252E+03  0.00000000000E+00 0.  1.
          2   -1    0    0  502    0  0.00000000000E+00 -0.00000000000E+00 -0.17672015019E+04  0.17672015019E+04  0.00000000000E+00 0.  1.
    9000010    2    1    2  502    0  0.19796082038E+03  0.66969411845E+03 -0.40013024553E+03  0.12841910771E+04  0.10006816728E+04 0.  0.
        -13    1    3    3    0    0  0.24833416133E+03  0.92607395265E+03 -0.32368522746E+03  0.10119560065E+04  0.10566000000E+00 0.  1.
         13    1    1    2    0    0  0.22620985349E+03 -0.41018004354E+03 -0.26001086475E+03  0.53574642031E+03  0.10566000000E+00 0. -1.
          2    1    1    2  501    0 -0.42417067387E+03 -0.25951407491E+03 -0.40989832909E+03  0.64442606701E+03  0.00000000000E+00 0.  1.
          4    1    3    3  502    0 -0.50373340949E+02 -0.25637983420E+03 -0.76445018074E+02  0.27223507058E+03  0.00000000000E+00 0.  1.
</event>
<event>
 7    1  0.5696597E-006  0.1159758E+04  0.7818608E-02  0.8788981E-01
         -4   -1    0    0    0  501  0.00000000000E+00  0.00000000000E+00  0.17463762294E+04  0.17463762294E+04  0.00000000000E+00 0.  1.
         -4   -1    0    0    0  502 -0.00000000000E+00 -0.00000000000E+00 -0.54092857935E+03  0.54092857935E+03  0.00000000000E+00 0. -1.
   -9000010    2    1    2    0  501  0.37519951015E+03  0.47701841175E+03  0.43437479215E+03  0.12403237017E+04  0.99065644260E+03 0.  0.
        -13    1    1    2    0    0 -0.40440242673E+03 -0.44411923844E+03  0.52728964875E+03  0.79926066183E+03  0.10566000000E+00 0.  1.
         13    1    3    3    0    0  0.40935531412E+03  0.76509140325E+03  0.36922083779E+03  0.94300618595E+03  0.10566000000E+00 0. -1.
         -4    1    1    2    0  502  0.29202916580E+02 -0.32899173305E+02  0.24378320911E+03  0.24772044523E+03  0.00000000000E+00 0.  1.
         -4    1    3    3    0  501 -0.34155803973E+02 -0.28807299150E+03  0.65153954362E+02  0.29731751570E+03  0.00000000000E+00 0. -1.
</event>
<event>
 7    1  0.5696597E-006  0.9229283E+03  0.7818608E-02  0.9323194E-01
          4   -1    0    0  501    0  0.00000000000E+00  0.00000000000E+00  0.21988655914E+04  0.21988655914E+04  0.00000000000E+00 0. -1.
         -4   -1    0    0    0  501 -0.00000000000E+00 -0.00000000000E+00 -0.19354942424E+03  0.19354942424E+03  0.00000000000E+00 0. -1.
   -9000010    2    1    2    0  502  0.22382378688E+02 -0.31576304013E+03  0.14954717725E+04  0.17721290128E+04  0.89654790566E+03 0.  0.
        -13    1    1    2    0    0  0.43549410375E+02  0.13427347627E+03  0.31880620056E+03  0.34865932119E+03  0.10566000000E+00 0.  1.
         13    1    3    3    0    0 -0.14143258400E+03 -0.43261082957E+03  0.26781460302E+03  0.52809088085E+03  0.10566000000E+00 0. -1.
          4    1    1    2  502    0 -0.65931789063E+02  0.18148956386E+03  0.19103819410E+03  0.27162668169E+03  0.00000000000E+00 0. -1.
         -4    1    3    3    0  502  0.16381496269E+03  0.11684778944E+03  0.12276571695E+04  0.12440381319E+04  0.00000000000E+00 0. -1.
</event>
<event>
 7    1  0.5696597E-006  0.1165933E+04  0.7818608E-02  0.8825907E-01
         -4   -1    0    0    0  501 -0.00000000000E+00  0.00000000000E+00  0.88297966293E+03  0.88297966293E+03  0.00000000000E+00 0. -1.
          1   -1    0    0  501    0  0.00000000000E+00 -0.00000000000E+00 -0.12079015250E+04  0.12079015250E+04  0.00000000000E+00 0.  1.
   -9000010    2    1    2    0  502 -0.44864647061E+03  0.25380954120E+03  0.30352991220E+03  0.12080718670E+04  0.10495733845E+04 0.  0.
        -13    1    1    2    0    0  0.43648368517E+03 -0.24255106097E+03 -0.36423823859E+03  0.61807647602E+03  0.10566000000E+00 0.  1.
         13    1    3    3    0    0  0.51604819311E+02  0.52914204046E+03 -0.53956747225E+02  0.53438347475E+03  0.10566000000E+00 0. -1.
          1    1    1    2  502    0  0.12162785443E+02 -0.11258480228E+02 -0.26421353564E+03  0.26473284485E+03  0.00000000000E+00 0.  1.
         -4    1    3    3    0  502 -0.50025128992E+03 -0.27533249926E+03  0.35748665942E+03  0.67368839227E+03  0.00000000000E+00 0. -1.
</event>
<event>
 7    1  0.5696597E-006  0.1165280E+04  0.7818608E-02  0.8799124E-01
          1   -1    0    0  501    0  0.00000000000E+00  0.00000000000E+00  0.75070610311E+03  0.75070610311E+03  0.00000000000E+00 0. -1.
         -4   -1    0    0    0  501 -0.00000000000E+00 -0.00000000000E+00 -0.29431878687E+04  0.29431878687E+04  0.00000000000E+00 0. -1.
   -9000010    2    1    2    0  502  0.46240768249E+03  0.28059851224E+03 -0.17066768018E+04  0.20588541587E+04  0.10166505550E+04 0.  0.
        -13    1    1    2    0    0 -0.40003627058E+03 -0.43360634616E+03 -0.96339294531E+03  0.11296767057E+04  0.10566000000E+00 0.  1.
         13    1    3    3    0    0 -0.16180696387E+03  0.25456960906E+03 -0.73798954933E+02  0.31053739924E+03  0.10566000000E+00 0. -1.
          1    1    1    2  502    0 -0.62371411917E+02  0.15300783392E+03  0.47758798151E+03  0.50536310743E+03  0.00000000000E+00 0. -1.
         -4    1    3    3    0  502  0.62421464637E+03  0.26028903184E+02 -0.16328778469E+04  0.17483167595E+04  0.00000000000E+00 0. -1.
</event>
<event>
 7    1  0.5696597E-006  0.1020833E+04  0.7818608E-02  0.9148794E-01
          2   -1    0    0  502    0  0.00000000000E+00  0.00000000000E+00  0.85492197613E+03  0.85492197613E+03  0.00000000000E+00 0.  1.
          4   -1    0    0  501    0 -0.00000000000E+00 -0.00000000000E+00 -0.21855193220E+04  0.21855193220E+04  0.00000000000E+00 0.  1.
    9000010    2    1    2  502    0  0.32317167121E+02 -0.20358150961E+03 -0.19303233176E+04  0.21838382024E+04  0.10002556440E+04 0.  0.
        -13    1    3    3    0    0  0.25356387435E+03  0.21106736415E+03 -0.18902473764E+03  0.38022944808E+03  0.10566000000E+00 0.  1.
         13    1    1    2    0    0 -0.20365801307E+02  0.20164653037E+03 -0.48393999518E+02  0.20837005406E+03  0.10566000000E+00 0. -1.
          2    1    1    2  501    0 -0.11951365814E+02  0.19349792336E+01  0.64811997122E+03  0.64823304172E+03  0.00000000000E+00 0.  1.
          4    1    3    3  502    0 -0.22124670723E+03 -0.41464887375E+03 -0.17412985800E+04  0.18036087543E+04  0.00000000000E+00 0.  1.
</event>
<event>
 7    1  0.5696597E-006  0.1218523E+04  0.7818608E-02  0.8710567E-01
          2   -1    0    0  502    0  0.00000000000E+00  0.00000000000E+00  0.24504958856E+04  0.24504958856E+04  0.00000000000E+00 0. -1.
          4   -1    0    0  501    0 -0.00000000000E+00 -0.00000000000E+00 -0.12007899497E+04  0.12007899497E+04  0.00000000000E+00 0.  1.
    9000010    2    1    2  502    0 -0.20101209083E+03  0.70103831877E+03 -0.31218178645E+03  0.12590246052E+04  0.97766298058E+03 0.  0.
        -13    1    3    3    0    0  0.14116336244E+02  0.51785797044E+03 -0.64185519574E+03  0.82483589396E+03  0.10566000000E+00 0.  1.
         13    1    1    2    0    0  0.22945898273E+03 -0.68903318192E+03 -0.97354351999E+02  0.73273189609E+03  0.10566000000E+00 0. -1.
          2    1    1    2  501    0 -0.28446891898E+02 -0.12005136853E+02  0.16592420744E+04  0.16595293340E+04  0.00000000000E+00 0. -1.
          4    1    3    3  502    0 -0.21512842708E+03  0.18318034833E+03  0.32967340929E+03  0.43418871121E+03  0.00000000000E+00 0.  1.
</event>
<event>
 7    1  0.5696597E-006  0.1113908E+04  0.7818608E-02  0.8875499E-01
         -4   -1    0    0    0  501 -0.00000000000E+00  0.00000000000E+00  0.12112042324E+04  0.12112042324E+04  0.00000000000E+00 0. -1.
          2   -1    0    0  501    0  0.00000000000E+00 -0.00000000000E+00 -0.12667204227E+04  0.12667204227E+04  0.00000000000E+00 0.  1.
   -9000010    2    1    2    0  502  0.41830962067E+03  0.22508920357E+03  0.41125310191E+03  0.11881665125E+04  0.10084455659E+04 0.  0.
        -13    1    1    2    0    0 -0.41040792765E+03 -0.23408397965E+03  0.27580874985E+03  0.54708358983E+03  0.10566000000E+00 0.  1.
         13    1    3    3    0    0  0.71893606701E+03  0.27089272872E+03  0.14053332309E+03  0.78102596946E+03  0.10566000000E+00 0. -1.
          2    1    1    2  502    0 -0.79016930247E+01  0.89947760758E+01 -0.74257804206E+03  0.74267455275E+03  0.00000000000E+00 0.  1.
         -4    1    3    3    0  502 -0.30062644633E+03 -0.45803525148E+02  0.27071977883E+03  0.40714054305E+03  0.00000000000E+00 0. -1.
</event>
<event>
 7    1  0.5696597E-006  0.1072843E+04  0.7818608E-02  0.8888441E-01
         -4   -1    0    0    0  501 -0.00000000000E+00  0.00000000000E+00  0.43792349544E+03  0.43792349544E+03  0.00000000000E+00 0. -1.
          2   -1    0    0  501    0  0.00000000000E+00 -0.00000000000E+00 -0.22759287179E+04  0.22759287179E+04  0.00000000000E+00 0.  1.
   -9000010    2    1    2    0  502  0.44123455672E+03 -0.22304818356E+03 -0.67832921594E+03  0.12663943142E+04  0.94825397848E+03 0.  0.
        -13    1    1    2    0    0 -0.46183881547E+03  0.20521439520E+03 -0.30074533477E+03  0.58809506631E+03  0.10566000000E+00 0.  1.
         13    1    3    3    0    0  0.68712452616E+03 -0.11100234133E+02 -0.64076876147E+03  0.93959988638E+03  0.10566000000E+00 0. -1.
          2    1    1    2  502    0  0.20604258757E+02  0.17833788361E+02 -0.85893067179E+03  0.85936283282E+03  0.00000000000E+00 0.  1.
         -4    1    3    3    0  502 -0.24588996944E+03 -0.21194794943E+03 -0.37560454464E+02  0.32679442785E+03  0.00000000000E+00 0. -1.
</event>
<event>
 7    1  0.5696597E-006  0.1008164E+04  0.7818608E-02  0.9160806E-01
          1   -1    0    0  501    0  0.00000000000E+00  0.00000000000E+00  0.88812606321E+03  0.88812606321E+03  0.00000000000E+00 0. -1.
         -4   -1    0    0    0  501 -0.00000000000E+00 -0.00000000000E+00 -0.12378982606E+04  0.12378982606E+04  0.00000000000E+00 0. -1.
   -9000010    2    1    2    0  502 -0.20240531711E+03 -0.86494514987E+02 -0.89113152117E+02  0.10059508944E+04  0.97752075918E+03 0.  0.
        -13    1    1    2    0    0  0.12805865217E+03 -0.15621753332E+03 -0.63580159170E+03  0.66711813893E+03  0.10566000000E+00 0.  1.
         13    1    3    3    0    0 -0.52993557662E+03  0.32340469013E+02  0.18541900201E+03  0.56236806343E+03  0.10566000000E+00 0. -1.
          1    1    1    2  502    0  0.74346664937E+02  0.24271204831E+03  0.37514254644E+03  0.45295529043E+03  0.00000000000E+00 0. -1.
         -4    1    3    3    0  502  0.32753025951E+03 -0.11883498400E+03 -0.27453215413E+03  0.44358283101E+03  0.00000000000E+00 0. -1.
</event>
<event>
 7    1  0.5696597E-006  0.1510280E+04  0.7818608E-02  0.8521432E-01
         -4   -1    0    0    0  501 -0.00000000000E+00  0.00000000000E+00  0.16397414087E+04  0.16397414087E+04  0.00000000000E+00 0. -1.
          3   -1    0    0  501    0  0.00000000000E+00 -0.00000000000E+00 -0.11272394711E+04  0.11272394711E+04  0.00000000000E+00 0.  1.
   -9000010    2    1    2    0  502 -0.75434459165E+03  0.56200081806E+03  0.85642580237E+02  0.15483687728E+04  0.12268783650E+04 0.  0.
        -13    1    1    2    0    0  0.66781380162E+03 -0.54533702059E+03  0.58196865188E+03  0.10402188532E+04  0.10566000000E+00 0.  1.
         13    1    3    3    0    0 -0.48359805028E+01 -0.11262470610E+03  0.45932210166E+03  0.47295297374E+03  0.10566000000E+00 0. -1.
          3    1    1    2  502    0  0.86530790027E+02 -0.16663797470E+02 -0.15510929451E+03  0.17839325383E+03  0.00000000000E+00 0.  1.
         -4    1    3    3    0  502 -0.74950861115E+03  0.67462552417E+03 -0.37367952142E+03  0.10754157990E+04  0.00000000000E+00 0. -1.
</event>
<event>
 7    1  0.5696597E-006  0.1004171E+04  0.7818608E-02  0.9515910E-01
          4   -1    0    0  501    0 -0.00000000000E+00  0.00000000000E+00  0.49576505126E+03  0.49576505126E+03  0.00000000000E+00 0.  1.
          2   -1    0    0  502    0  0.00000000000E+00 -0.00000000000E+00 -0.18325315503E+04  0.18325315503E+04  0.00000000000E+00 0. -1.
    9000010    2    1    2  502    0  0.59584577888E+02 -0.20547636865E+02 -0.63141117433E+03  0.11866429665E+04  0.10027307373E+04 0.  0.
        -13    1    3    3    0    0  0.13751388155E+03  0.15267560658E+03 -0.86299902754E+03  0.88712301354E+03  0.10566000000E+00 0.  1.
         13    1    1    2    0    0 -0.47455487463E+02  0.25220337824E+02  0.21479278166E+03  0.22141372800E+03  0.10566000000E+00 0. -1.
          2    1    1    2  501    0 -0.12129090425E+02 -0.46727009590E+01 -0.92014810634E+03  0.92023990707E+03  0.00000000000E+00 0. -1.
          4    1    3    3  502    0 -0.77929303659E+02 -0.17322324345E+03  0.23158785321E+03  0.29951995291E+03  0.00000000000E+00 0.  1.
</event>
<event>
 7    1  0.5696597E-006  0.1286149E+04  0.7818608E-02  0.8645312E-01
         -4   -1    0    0    0  501 -0.00000000000E+00  0.00000000000E+00  0.23166116967E+04  0.23166116967E+04  0.00000000000E+00 0. -1.
          2   -1    0    0  501    0  0.00000000000E+00 -0.00000000000E+00 -0.15036114502E+04  0.15036114502E+04  0.00000000000E+00 0.  1.
   -9000010    2    1    2    0  502  0.80071979880E+03 -0.97209206408E+01  0.67019473601E+03  0.14385593696E+04  0.98946722186E+03 0.  0.
        -13    1    1    2    0    0 -0.82905784673E+03 -0.12011204765E+02  0.11257118749E+04  0.13981088723E+04  0.10566000000E+00 0.  1.
         13    1    3    3    0    0  0.20132308291E+03  0.33443226437E+02  0.79841420229E+03  0.82408414782E+03  0.10566000000E+00 0. -1.
          2    1    1    2  502    0  0.28338047926E+02  0.21732125406E+02 -0.98290636433E+03  0.98355490506E+03  0.00000000000E+00 0.  1.
         -4    1    3    3    0  502  0.59939671589E+03 -0.43164147077E+02 -0.12821946628E+03  0.61447522175E+03  0.00000000000E+00 0. -1.
</event>
<event>
 7    1  0.5696597E-006  0.1045306E+04  0.7818608E-02  0.9064915E-01
          2   -1    0    0  501    0  0.00000000000E+00  0.00000000000E+00  0.12221556147E+04  0.12221556147E+04  0.00000000000E+00 0. -1.
         -4   -1    0    0    0  501 -0.00000000000E+00 -0.00000000000E+00 -0.17748250098E+04  0.17748250098E+04  0.00000000000E+00 0. -1.
   -9000010    2    1    2    0  502 -0.87570792583E+02 -0.23944717296E+03 -0.25045034953E+03  0.10725539235E+04  0.10112581020E+04 0.  0.
        -13    1    1    2    0    0  0.10095036904E+03  0.24501074847E+03 -0.10974875450E+04  0.11290262028E+04  0.10566000000E+00 0.  1.
         13    1    3    3    0    0  0.19406504349E+03  0.27514584472E+03 -0.34073326365E+03  0.47902572487E+03  0.10566000000E+00 0. -1.
          2    1    1    2  502    0 -0.13379576457E+02 -0.55635755103E+01  0.79526849940E+03  0.79540049822E+03  0.00000000000E+00 0. -1.
         -4    1    3    3    0  502 -0.28163583607E+03 -0.51459301768E+03  0.90282914119E+02  0.59352819864E+03  0.00000000000E+00 0. -1.
</event>
<event>
 7    1  0.5696597E-006  0.1147476E+04  0.7818608E-02  0.9164304E-01
         -4   -1    0    0    0  501 -0.00000000000E+00  0.00000000000E+00  0.15250604525E+04  0.15250604525E+04  0.00000000000E+00 0. -1.
          2   -1    0    0  501    0  0.00000000000E+00 -0.00000000000E+00 -0.13410180283E+04  0.13410180283E+04  0.00000000000E+00 0.  1.
   -9000010    2    1    2    0  502 -0.35492632804E+03  0.28297570462E+03  0.99389345403E+03  0.14798963267E+04  0.99810870751E+03 0.  0.
        -13    1    1    2    0    0 -0.45455300623E+02  0.12726350241E+03  0.19029983975E+03  0.23340142153E+03  0.10566000000E+00 0.  1.
         13    1    3    3    0    0  0.34011136272E+03  0.11777967351E+03  0.19949709646E+03  0.41151779208E+03  0.10566000000E+00 0. -1.
          2    1    1    2  502    0  0.40038162866E+03 -0.41023920703E+03 -0.10001508696E+04  0.11527807326E+04  0.00000000000E+00 0.  1.
         -4    1    3    3    0  502 -0.69503769075E+03  0.16519603111E+03  0.79439635757E+03  0.10683785346E+04  0.00000000000E+00 0. -1.
</event>
<event>
 7    1  0.5696597E-006  0.1109166E+04  0.7818608E-02  0.9053558E-01
          4   -1    0    0  501    0 -0.00000000000E+00  0.00000000000E+00  0.59741460131E+03  0.59741460131E+03  0.00000000000E+00 0.  1.
          2   -1    0    0  502    0  0.00000000000E+00 -0.00000000000E+00 -0.12160699192E+04  0.12160699192E+04  0.00000000000E+00 0.  1.
    9000010    2    1    2  502    0  0.13664074000E+03 -0.25973011592E+03 -0.26514818978E+03  0.11545423034E+04  0.10846814937E+04 0.  0.
        -13    1    3    3    0    0  0.93760316637E+02  0.40756959741E+03 -0.24681563002E+03  0.48561501222E+03  0.10566000000E+00 0.  1.
         13    1    1    2    0    0 -0.73791905821E+02  0.21227900925E+03  0.64317270832E+02  0.23376130052E+03  0.10566000000E+00 0. -1.
          2    1    1    2  501    0 -0.62848834179E+02  0.47451106674E+02 -0.41782439898E+03  0.42518091663E+03  0.00000000000E+00 0.  1.
          4    1    3    3  502    0  0.42880423363E+02 -0.66729971333E+03 -0.18332559754E+02  0.66892729117E+03  0.00000000000E+00 0.  1.
</event>
<event>
 7    1  0.5696597E-006  0.1091120E+04  0.7818608E-02  0.8911528E-01
          2   -1    0    0  501    0  0.00000000000E+00  0.00000000000E+00  0.60119392498E+03  0.60119392498E+03  0.00000000000E+00 0. -1.
         -4   -1    0    0    0  501 -0.00000000000E+00 -0.00000000000E+00 -0.14962338713E+04  0.14962338713E+04  0.00000000000E+00 0. -1.
   -9000010    2    1    2    0  502  0.27161762915E+03  0.63094875666E+02 -0.73791276213E+02  0.10420160055E+04  0.10012967110E+04 0.  0.
        -13    1    1    2    0    0 -0.41954981255E+03 -0.17883791976E+03 -0.68672842757E+03  0.82437915497E+03  0.10566000000E+00 0.  1.
         13    1    3    3    0    0  0.25393311393E+03 -0.28463325356E+03  0.33315458697E+03  0.50644852193E+03  0.10566000000E+00 0. -1.
          2    1    1    2  502    0  0.14793218340E+03  0.11574304410E+03 -0.13452024252E+03  0.23103263577E+03  0.00000000000E+00 0. -1.
         -4    1    3    3    0  502  0.17684515222E+02  0.34772812922E+03 -0.40694586318E+03  0.53556748360E+03  0.00000000000E+00 0. -1.
</event>
<event>
 7    1  0.5696597E-006  0.1035196E+04  0.7818608E-02  0.9056690E-01
          2   -1    0    0  502    0  0.00000000000E+00  0.00000000000E+00  0.17473076443E+04  0.17473076443E+04  0.00000000000E+00 0. -1.
          4   -1    0    0  501    0 -0.00000000000E+00 -0.00000000000E+00 -0.71840618548E+03  0.71840618548E+03  0.00000000000E+00 0.  1.
    9000010    2    1    2  502    0 -0.27081147311E+03  0.34079425532E+02 -0.21450027315E+03  0.10549304614E+04  0.99617651550E+03 0.  0.
        -13    1    3    3    0    0 -0.63972432809E+03  0.10238929853E+03 -0.65226919946E+02  0.65114157190E+03  0.10566000000E+00 0.  1.
         13    1    1    2    0    0  0.28507317893E+03 -0.29346643760E+02  0.16184589095E+03  0.32912314781E+03  0.10566000000E+00 0. -1.
          2    1    1    2  501    0 -0.14261705821E+02 -0.47327817717E+01  0.10815558410E+04  0.10816602206E+04  0.00000000000E+00 0. -1.
          4    1    3    3  502    0  0.36891285499E+03 -0.68309873000E+02 -0.14927335320E+03  0.40378888952E+03  0.00000000000E+00 0.  1.
</event>
<event>
 7    1  0.5696597E-006  0.1361911E+04  0.7818608E-02  0.8858251E-01
          2   -1    0    0  501    0  0.00000000000E+00  0.00000000000E+00  0.15380560466E+04  0.15380560466E+04  0.00000000000E+00 0.  1.
         -4   -1    0    0    0  501 -0.00000000000E+00 -0.00000000000E+00 -0.11688121189E+04  0.11688121189E+04  0.00000000000E+00 0. -1.
   -9000010    2    1    2    0  502 -0.78769916676E+03  0.14712288760E+03  0.31893029598E+02  0.12436731511E+04  0.95057383729E+03 0.  0.
        -13    1    1    2    0    0 -0.27146670295E+03  0.60665772221E+02 -0.10416721305E+03  0.29702748386E+03  0.10566000000E+00 0.  1.
         13    1    3    3    0    0 -0.89360251274E+03  0.27232274061E+03  0.25352949889E+03  0.96796815226E+03  0.10566000000E+00 0. -1.
          2    1    1    2  502    0  0.10591658697E+04 -0.20778865983E+03  0.44151811116E+03  0.11661675305E+04  0.00000000000E+00 0.  1.
         -4    1    3    3    0  502  0.10590334598E+03 -0.12519985301E+03 -0.22163646929E+03  0.27570499887E+03  0.00000000000E+00 0. -1.
</event>
<event>
 7    1  0.5696597E-006  0.9989997E+03  0.7818608E-02  0.9349828E-01
         -4   -1    0    0    0  501 -0.00000000000E+00  0.00000000000E+00  0.49930069820E+03  0.49930069820E+03  0.00000000000E+00 0. -1.
          2   -1    0    0  501    0  0.00000000000E+00 -0.00000000000E+00 -0.17555252970E+04  0.17555252970E+04  0.00000000000E+00 0.  1.
   -9000010    2    1    2    0  502  0.12031401488E+03 -0.71126643080E+02 -0.96512963152E+03  0.13924329195E+04  0.99391134820E+03 0.  0.
        -13    1    1    2    0    0 -0.74068473977E+02  0.67822822458E+02  0.27584607465E+03  0.29355943546E+03  0.10566000000E+00 0.  1.
         13    1    3    3    0    0  0.18098719842E+03 -0.37410057792E+02  0.17242809545E+03  0.25275944627E+03  0.10566000000E+00 0. -1.
          2    1    1    2  502    0 -0.46245540903E+02  0.33038206219E+01 -0.56694104193E+03  0.56883364028E+03  0.00000000000E+00 0.  1.
         -4    1    3    3    0  502 -0.60673183537E+02 -0.33716585288E+02 -0.11375577270E+04  0.11396734732E+04  0.00000000000E+00 0. -1.
</event>
<event>
 7    1  0.5696597E-006  0.1240560E+04  0.7818608E-02  0.8879535E-01
          4   -1    0    0  501    0 -0.00000000000E+00  0.00000000000E+00  0.26767857773E+04  0.26767857773E+04  0.00000000000E+00 0.  1.
          2   -1    0    0  502    0  0.00000000000E+00 -0.00000000000E+00 -0.10562952728E+04  0.10562952728E+04  0.00000000000E+00 0. -1.
    9000010    2    1    2  502    0  0.65859064746E+03 -0.29224981195E+03  0.14920446392E+04  0.19247974987E+04  0.97953897936E+03 0.  0.
        -13    1    3    3    0    0  0.30516764437E+03 -0.64556875389E+03  0.93412260970E+03  0.11757854261E+04  0.10566000000E+00 0.  1.
         13    1    1    2    0    0  0.11378539552E+03  0.31698533422E+03  0.74636883779E+03  0.81883653529E+03  0.10566000000E+00 0. -1.
          2    1    1    2  501    0 -0.77237604298E+03 -0.24735522273E+02 -0.61792297241E+03  0.98944701610E+03  0.00000000000E+00 0. -1.
          4    1    3    3  502    0  0.35342300309E+03  0.35331894194E+03  0.55792202946E+03  0.74901207253E+03  0.00000000000E+00 0.  1.
</event>
<event>
 6    1  0.5696597E-006  0.8684667E+03  0.7818608E-02  0.9034162E-01
          2   -1    0    0  501    0  0.00000000000E+00  0.00000000000E+00  0.15842713756E+04  0.15842713756E+04  0.00000000000E+00 0. -1.
         -4   -1    0    0    0  501 -0.00000000000E+00 -0.00000000000E+00 -0.16925283364E+04  0.16925283364E+04  0.00000000000E+00 0. -1.
        -13    1    1    2    0    0  0.68584303952E+02  0.51477852500E+03 -0.83193579882E+03  0.98072316229E+03  0.10566000000E+00 0.  1.
         13    1    1    2    0    0  0.23365883772E+02 -0.68843228961E+03 -0.50984674559E+03  0.85698815456E+03  0.10566000000E+00 0. -1.
          2    1    1    2  502    0 -0.34527814654E+02  0.15048297432E+02  0.12666304291E+04  0.12671903034E+04  0.00000000000E+00 0. -1.
         -4    1    1    2    0  502 -0.57422373070E+02  0.15860546719E+03 -0.33104845507E+02  0.17189809175E+03  0.00000000000E+00 0. -1.
</event>
<event>
 7    1  0.5696597E-006  0.1041494E+04  0.7818608E-02  0.9043987E-01
          4   -1    0    0  501    0 -0.00000000000E+00  0.00000000000E+00  0.34425338004E+03  0.34425338004E+03  0.00000000000E+00 0.  1.
          2   -1    0    0  502    0  0.00000000000E+00 -0.00000000000E+00 -0.33588773783E+04  0.33588773783E+04  0.00000000000E+00 0.  1.
    9000010    2    1    2  502    0  0.33625461948E+03  0.31735193048E+03 -0.11585189789E+04  0.15987646916E+04  0.10000514476E+04 0.  0.
        -13    1    3    3    0    0  0.30352715366E+03  0.44391974209E+03 -0.11863768100E+03  0.55069808511E+03  0.10566000000E+00 0.  1.
         13    1    1    2    0    0 -0.10877270883E+03 -0.25199582384E+03 -0.45329011791E+02  0.27818721734E+03  0.10566000000E+00 0. -1.
          2    1    1    2  501    0 -0.22748191064E+03 -0.65356106646E+02 -0.18107760076E+04  0.18261788494E+04  0.00000000000E+00 0.  1.
          4    1    3    3  502    0  0.32727465814E+02 -0.12656781161E+03 -0.10398812979E+04  0.10480666065E+04  0.00000000000E+00 0.  1.
</event>
<event>
 7    1  0.5696597E-006  0.8999909E+03  0.7818608E-02  0.9301209E-01
         -4   -1    0    0    0  501 -0.00000000000E+00  0.00000000000E+00  0.14639259989E+04  0.14639259989E+04  0.00000000000E+00 0. -1.
          2   -1    0    0  501    0  0.00000000000E+00 -0.00000000000E+00 -0.83400393963E+03  0.83400393963E+03  0.00000000000E+00 0.  1.
   -9000010    2    1    2    0  502  0.13240686289E+03  0.93258487141E+02  0.12085176286E+04  0.15064406440E+04  0.88465803138E+03 0.  0.
        -13    1    1    2    0    0 -0.12291495813E+03 -0.11363667811E+03  0.40305628603E+02  0.17217995356E+03  0.10566000000E+00 0.  1.
         13    1    3    3    0    0  0.29551787363E+03  0.43004176959E+03  0.76726110471E+03  0.92787733628E+03  0.10566000000E+00 0. -1.
          2    1    1    2  502    0 -0.94919047556E+01  0.20378190972E+02 -0.61890119797E+03  0.61930934094E+03  0.00000000000E+00 0.  1.
         -4    1    3    3    0  502 -0.16311101074E+03 -0.33678328245E+03  0.44125652391E+03  0.57856330773E+03  0.00000000000E+00 0. -1.
</event>
<event>
 7    1  0.5696597E-006  0.1078882E+04  0.7818608E-02  0.8915891E-01
          4   -1    0    0  501    0 -0.00000000000E+00  0.00000000000E+00  0.22842140805E+04  0.22842140805E+04  0.00000000000E+00 0.  1.
          2   -1    0    0  502    0  0.00000000000E+00 -0.00000000000E+00 -0.46106619657E+03  0.46106619657E+03  0.00000000000E+00 0.  1.
    9000010    2    1    2  502    0 -0.15074894652E+03 -0.44764546228E+03  0.92476912098E+03  0.14311894126E+04  0.98488248181E+03 0.  0.
        -13    1    3    3    0    0 -0.17825715815E+03 -0.22795761105E+03 -0.15546731281E+03  0.32849715886E+03  0.10566000000E+00 0.  1.
         13    1    1    2    0    0  0.17778272324E+02  0.43729541904E+03  0.10346532772E+04  0.11234103283E+04  0.10566000000E+00 0. -1.
          2    1    1    2  501    0  0.13297067419E+03  0.10350043242E+02 -0.13627451432E+03  0.19068053609E+03  0.00000000000E+00 0.  1.
          4    1    3    3  502    0  0.27508211627E+02 -0.21968785123E+03  0.10802364338E+04  0.11026922538E+04  0.00000000000E+00 0.  1.
</event>
<event>
 7    1  0.5696597E-006  0.1010661E+04  0.7818608E-02  0.9111583E-01
          2   -1    0    0  502    0  0.00000000000E+00  0.00000000000E+00  0.42680458164E+03  0.42680458164E+03  0.00000000000E+00 0. -1.
          4   -1    0    0  501    0 -0.00000000000E+00 -0.00000000000E+00 -0.17278071961E+04  0.17278071961E+04  0.00000000000E+00 0.  1.
    9000010    2    1    2  502    0  0.22676891853E+03  0.11523900293E+03 -0.92831518115E+03  0.13743097510E+04  0.98094548574E+03 0.  0.
        -13    1    3    3    0    0  0.38744319170E+03 -0.11334481207E+02 -0.10616177631E+04  0.11301650249E+04  0.10566000000E+00 0.  1.
         13    1    1    2    0    0 -0.20817424462E+03 -0.12352126671E+03 -0.55047874532E+03  0.60134921607E+03  0.10566000000E+00 0. -1.
          2    1    1    2  501    0 -0.18594673903E+02  0.82822637718E+01  0.17779131204E+03  0.17895281062E+03  0.00000000000E+00 0. -1.
          4    1    3    3  502    0 -0.16067427317E+03  0.12657348414E+03  0.13330258199E+03  0.24414472616E+03  0.00000000000E+00 0.  1.
</event>
<event>
 6    1  0.5696597E-006  0.7399254E+03  0.7818608E-02  0.9203557E-01
         -4   -1    0    0    0  501 -0.00000000000E+00  0.00000000000E+00  0.12649327413E+04  0.12649327413E+04  0.00000000000E+00 0. -1.
          2   -1    0    0  501    0  0.00000000000E+00 -0.00000000000E+00 -0.89869964648E+03  0.89869964648E+03  0.00000000000E+00 0. -1.
        -13    1    1    2    0    0 -0.37105936269E+03 -0.22593061445E+03  0.90449054288E+03  0.10034106071E+04  0.10566000000E+00 0.  1.
         13    1    1    2    0    0  0.46486515395E+03  0.32955360527E+03 -0.10719119403E+03  0.57982338117E+03  0.10566000000E+00 0. -1.
          2    1    1    2  502    0  0.65866256548E+01  0.21852751460E+02 -0.41859899465E+03  0.41922075892E+03  0.00000000000E+00 0. -1.
         -4    1    1    2    0  502 -0.10039241692E+03 -0.12547574228E+03 -0.12467259337E+02  0.16117764060E+03  0.00000000000E+00 0. -1.
</event>
<event>
 7    1  0.5696597E-006  0.1187818E+04  0.7818608E-02  0.8729977E-01
          2   -1    0    0  501    0  0.00000000000E+00  0.00000000000E+00  0.13947440432E+04  0.13947440432E+04  0.00000000000E+00 0.  1.
         -4   -1    0    0    0  501 -0.00000000000E+00 -0.00000000000E+00 -0.23584562596E+04  0.23584562596E+04  0.00000000000E+00 0. -1.
   -9000010    2    1    2    0  502 -0.56022032732E+03 -0.43761624502E+03 -0.12224697964E+04  0.16997522142E+04  0.94306436334E+03 0.  0.
        -13    1    1    2    0    0  0.60937962998E+03  0.40210957935E+03 -0.74777803459E+03  0.10450873875E+04  0.10566000000E+00 0.  1.
         13    1    3    3    0    0  0.17452119309E+03 -0.36347828987E+03 -0.23499259976E+03  0.46668581203E+03  0.10566000000E+00 0. -1.
          2    1    1    2  502    0 -0.49159302659E+02  0.35506665668E+02  0.10065356145E+04  0.10083607012E+04  0.00000000000E+00 0.  1.
         -4    1    3    3    0  502 -0.73474152041E+03 -0.74137955156E+02 -0.98747719664E+03  0.12330664021E+04  0.00000000000E+00 0. -1.
</event>
<event>
 7    1  0.5696597E-006  0.1318653E+04  0.7818608E-02  0.8598585E-01
          2   -1    0    0  501    0  0.00000000000E+00  0.00000000000E+00  0.22726754037E+04  0.22726754037E+04  0.00000000000E+00 0.  1.
         -4   -1    0    0    0  501 -0.00000000000E+00 -0.00000000000E+00 -0.26364925249E+04  0.26364925249E+04  0.00000000000E+00 0. -1.
   -9000010    2    1    2    0  502 -0.85357590172E+03 -0.19502503459E+03 -0.13604386022E+04  0.18650812948E+04  0.92795929966E+03 0.  0.
        -13    1    1    2    0    0  0.92548502662E+03  0.38923433253E+03 -0.77005686681E+03  0.12653116175E+04  0.10566000000E+00 0.  1.
         13    1    3    3    0    0 -0.87376810865E+03  0.63775396252E+02 -0.13448304426E+04  0.16050255261E+04  0.10566000000E+00 0. -1.
          2    1    1    2  502    0 -0.71909124907E+02 -0.19420929794E+03  0.17666783479E+04  0.17787750163E+04  0.00000000000E+00 0.  1.
         -4    1    3    3    0  502  0.20192206936E+02 -0.25880043084E+03 -0.15608159644E+02  0.26005576877E+03  0.00000000000E+00 0. -1.
</event>
<event>
 7    1  0.5696597E-006  0.1035479E+04  0.7818608E-02  0.8965313E-01
         -4   -1    0    0    0  501 -0.00000000000E+00  0.00000000000E+00  0.26061393636E+04  0.26061393636E+04  0.00000000000E+00 0. -1.
          1   -1    0    0  501    0  0.00000000000E+00 -0.00000000000E+00 -0.26912021558E+03  0.26912021558E+03  0.00000000000E+00 0. -1.
   -9000010    2    1    2    0  502 -0.28582298767E+03 -0.32640411166E+03  0.20475729894E+04  0.22994649809E+04  0.95223401909E+03 0.  0.
        -13    1    1    2    0    0  0.26180092972E+03  0.28594266722E+03  0.33345545715E+03  0.51136629612E+03  0.10566000000E+00 0.  1.
         13    1    3    3    0    0  0.32937387554E+03  0.34587401369E+02  0.71578902755E+03  0.78869346475E+03  0.10566000000E+00 0. -1.
          1    1    1    2  502    0  0.24022057949E+02  0.40461444440E+02 -0.44009298558E+02  0.64428302118E+02  0.00000000000E+00 0. -1.
         -4    1    3    3    0  502 -0.61519686321E+03 -0.36099151303E+03  0.13317839619E+04  0.15107715162E+04  0.00000000000E+00 0. -1.
</event>
<event>
 7    1  0.5696597E-006  0.9993959E+03  0.7818608E-02  0.9447973E-01
         -4   -1    0    0    0  501 -0.00000000000E+00  0.00000000000E+00  0.28413352963E+03  0.28413352963E+03  0.00000000000E+00 0. -1.
          2   -1    0    0  501    0  0.00000000000E+00 -0.00000000000E+00 -0.35492129583E+04  0.35492129583E+04  0.00000000000E+00 0.  1.
   -9000010    2    1    2    0  502  0.15727916599E+02 -0.94248023562E+02 -0.10665447020E+04  0.14630639953E+04  0.99694964554E+03 0.  0.
        -13    1    1    2    0    0 -0.25477215568E+02  0.64789563574E+02  0.71640222115E+02  0.99895488636E+02  0.10566000000E+00 0.  1.
         13    1    3    3    0    0 -0.16791423852E+03 -0.39768428232E+03 -0.10171479380E+04  0.11049605961E+04  0.10566000000E+00 0. -1.
          2    1    1    2  502    0  0.97492989691E+01  0.29458459988E+02 -0.22701749488E+04  0.22703870040E+04  0.00000000000E+00 0.  1.
         -4    1    3    3    0  502  0.18364215512E+03  0.30343625876E+03 -0.49396763997E+02  0.35810339926E+03  0.00000000000E+00 0. -1.
</event>
<event>
 7    1  0.5696597E-006  0.1009115E+04  0.7818608E-02  0.9134446E-01
          3   -1    0    0  501    0  0.00000000000E+00  0.00000000000E+00  0.89444478708E+03  0.89444478708E+03  0.00000000000E+00 0.  1.
         -4   -1    0    0    0  501 -0.00000000000E+00 -0.00000000000E+00 -0.15296008714E+04  0.15296008714E+04  0.00000000000E+00 0. -1.
   -9000010    2    1    2    0  502 -0.27280345937E+03 -0.15912452621E+03 -0.64587550085E+03  0.12187403186E+04  0.98408864399E+03 0.  0.
        -13    1    1    2    0    0  0.13971293279E+03  0.16740238395E+03 -0.56957627678E+03  0.60988556957E+03  0.10566000000E+00 0.  1.
         13    1    3    3    0    0 -0.47113626968E+03 -0.15671427627E+03 -0.81748610033E+03  0.95645819793E+03  0.10566000000E+00 0. -1.
          3    1    1    2  502    0  0.13309052658E+03 -0.82778577357E+01  0.58029569333E+03  0.59541977032E+03  0.00000000000E+00 0.  1.
         -4    1    3    3    0  502  0.19833281031E+03 -0.24102499440E+01  0.17161059949E+03  0.26228212064E+03  0.00000000000E+00 0. -1.
</event>
<event>
 7    1  0.5696597E-006  0.1019216E+04  0.7818608E-02  0.9364523E-01
         -2   -1    0    0    0  501  0.00000000000E+00  0.00000000000E+00  0.82019183008E+03  0.82019183008E+03  0.00000000000E+00 0.  1.
         -4   -1    0    0    0  502 -0.00000000000E+00 -0.00000000000E+00 -0.23026560750E+04  0.23026560750E+04  0.00000000000E+00 0. -1.
   -9000010    2    1    2    0  501  0.34351659365E+02  0.91017817646E+02 -0.21192933572E+04  0.23519382304E+04  0.10152560397E+04 0.  0.
        -13    1    1    2    0    0 -0.35782913212E+02 -0.80305327072E+02 -0.38154792933E+02  0.95839249902E+02  0.10566000000E+00 0.  1.
         13    1    3    3    0    0 -0.33416008575E+03 -0.24638963067E+03 -0.46281685313E+03  0.62174774926E+03  0.10566000000E+00 0. -1.
         -2    1    1    2    0  502  0.14312538469E+01 -0.10712490574E+02  0.67498390528E+03  0.67507042472E+03  0.00000000000E+00 0.  1.
         -4    1    3    3    0  501  0.36851174512E+03  0.33740744831E+03 -0.16564765041E+04  0.17301904812E+04  0.00000000000E+00 0. -1.
</event>
<event>
 7    1  0.5696597E-006  0.1015131E+04  0.7818608E-02  0.9335315E-01
         -4   -1    0    0    0  501 -0.00000000000E+00  0.00000000000E+00  0.29163789969E+03  0.29163789969E+03  0.00000000000E+00 0. -1.
          2   -1    0    0  501    0  0.00000000000E+00 -0.00000000000E+00 -0.32680878430E+04  0.32680878430E+04  0.00000000000E+00 0.  1.
   -9000010    2    1    2    0  502 -0.24968276046E+03 -0.34489317573E+01 -0.96694510567E+03  0.14097919807E+04  0.99507648717E+03 0.  0.
        -13    1    1    2    0    0  0.64152088574E+02  0.78462645775E+02  0.25986244220E+02  0.10462874033E+03  0.10566000000E+00 0.  1.
         13    1    3    3    0    0 -0.42037336174E+03 -0.29181292728E+03 -0.16019990199E+03  0.53622063328E+03  0.10566000000E+00 0. -1.
          2    1    1    2  502    0  0.18553067188E+03 -0.75013714018E+02 -0.20354910819E+04  0.20453050217E+04  0.00000000000E+00 0.  1.
         -4    1    3    3    0  502  0.17069060128E+03  0.28836399552E+03 -0.80674520369E+03  0.87357134738E+03  0.00000000000E+00 0. -1.
</event>
<event>
 7    1  0.5696597E-006  0.1139713E+04  0.7818608E-02  0.8827555E-01
         -4   -1    0    0    0  501 -0.00000000000E+00  0.00000000000E+00  0.12308831244E+04  0.12308831244E+04  0.00000000000E+00 0. -1.
          4   -1    0    0  501    0  0.00000000000E+00 -0.00000000000E+00 -0.22659837909E+04  0.22659837909E+04  0.00000000000E+00 0.  1.
   -9000010    2    1    2    0  502  0.37332639394E+03  0.14992955423E+03 -0.47293300830E+03  0.11802733787E+04  0.10037570177E+04 0.  0.
        -13    1    1    2    0    0 -0.55742999020E+03 -0.69447362463E+01  0.77755135789E+03  0.95674581193E+03  0.10566000000E+00 0.  1.
         13    1    3    3    0    0 -0.29808884388E+01 -0.40630451093E+03 -0.13269015162E+03  0.42743295240E+03  0.10566000000E+00 0. -1.
          4    1    1    2  502    0  0.18410359626E+03 -0.14298481799E+03 -0.13397190161E+04  0.13598477247E+04  0.00000000000E+00 0.  1.
         -4    1    3    3    0  502  0.37630728238E+03  0.55623406516E+03 -0.34024285668E+03  0.75284042634E+03  0.00000000000E+00 0. -1.
</event>
<event>
 7    1  0.5696597E-006  0.1061035E+04  0.7818608E-02  0.8958842E-01
          4   -1    0    0  501    0 -0.00000000000E+00  0.00000000000E+00  0.14069480605E+04  0.14069480605E+04  0.00000000000E+00 0.  1.
          2   -1    0    0  502    0  0.00000000000E+00 -0.00000000000E+00 -0.85564896974E+03  0.85564896974E+03  0.00000000000E+00 0.  1.
    9000010    2    1    2  502    0 -0.12826186032E+03  0.36264928113E+03  0.84736290692E+03  0.13568648642E+04  0.98746785153E+03 0.  0.
        -13    1    3    3    0    0 -0.13717794907E+03  0.68414101283E+03  0.39493713961E+03  0.80177432645E+03  0.10566000000E+00 0.  1.
         13    1    1    2    0    0  0.83123860479E+02 -0.38202670828E+03  0.17768152243E+03  0.42944698928E+03  0.10566000000E+00 0. -1.
          2    1    1    2  501    0  0.45137999840E+02  0.19377427151E+02 -0.47374533861E+03  0.47628517672E+03  0.00000000000E+00 0.  1.
          4    1    3    3  502    0  0.89160887472E+01 -0.32149173170E+03  0.45242576731E+03  0.55509053777E+03  0.00000000000E+00 0.  1.
</event>
<event>
 7    1  0.5696597E-006  0.1173276E+04  0.7818608E-02  0.8782760E-01
         -4   -1    0    0    0  501 -0.00000000000E+00  0.00000000000E+00  0.91208083632E+03  0.91208083632E+03  0.00000000000E+00 0. -1.
          1   -1    0    0  501    0  0.00000000000E+00 -0.00000000000E+00 -0.11355625229E+04  0.11355625229E+04  0.00000000000E+00 0.  1.
   -9000010    2    1    2    0  502 -0.61749101327E+03  0.13494501132E+02 -0.20750336552E+03  0.12014553008E+04  0.10094354561E+04 0.  0.
        -13    1    1    2    0    0  0.59215369186E+03  0.15143224870E+01  0.20243217177E+03  0.62580115315E+03  0.10566000000E+00 0.  1.
         13    1    3    3    0    0 -0.88412394733E+03 -0.50232873236E+02 -0.53843409464E+02  0.88718522289E+03  0.10566000000E+00 0. -1.
          1    1    1    2  502    0  0.25337321411E+02 -0.15008823619E+02 -0.21841049282E+03  0.22038690527E+03  0.00000000000E+00 0.  1.
         -4    1    3    3    0  502  0.26663293406E+03  0.63727374368E+02 -0.15365995605E+03  0.31427007790E+03  0.00000000000E+00 0. -1.
</event>
<event>
 7    1  0.5696597E-006  0.1554270E+04  0.7818608E-02  0.8438876E-01
          2   -1    0    0  501    0  0.00000000000E+00  0.00000000000E+00  0.16315408010E+04  0.16315408010E+04  0.00000000000E+00 0.  1.
         -4   -1    0    0    0  501 -0.00000000000E+00 -0.00000000000E+00 -0.18674393600E+04  0.18674393600E+04  0.00000000000E+00 0. -1.
   -9000010    2    1    2    0  502 -0.55853564542E+03 -0.10270228855E+04 -0.78979779818E+03  0.17378984669E+04  0.10147770419E+04 0.  0.
        -13    1    1    2    0    0  0.56747225247E+03  0.10430032870E+04 -0.19348553916E+02  0.11875415747E+04  0.10566000000E+00 0.  1.
         13    1    3    3    0    0  0.17791595832E+03 -0.51085676306E+03  0.71268878843E-01  0.54095169547E+03  0.10566000000E+00 0. -1.
          2    1    1    2  502    0 -0.89366070486E+01 -0.15980401494E+02  0.57324779309E+03  0.57354011931E+03  0.00000000000E+00 0.  1.
         -4    1    3    3    0  502 -0.73645160374E+03 -0.51616612247E+03 -0.78986906706E+03  0.11969467715E+04  0.00000000000E+00 0. -1.
</event>
<event>
 6    1  0.5696597E-006  0.5908488E+03  0.7818608E-02  0.9617135E-01
         -4   -1    0    0    0  501 -0.00000000000E+00  0.00000000000E+00  0.28978178079E+03  0.28978178079E+03  0.00000000000E+00 0. -1.
          2   -1    0    0  501    0  0.00000000000E+00 -0.00000000000E+00 -0.21070246641E+04  0.21070246641E+04  0.00000000000E+00 0. -1.
        -13    1    1    2    0    0 -0.11342777342E+03  0.14446611166E+03 -0.33654864524E+02  0.18673237071E+03  0.10566000000E+00 0.  1.
         13    1    1    2    0    0  0.31359973545E+03  0.94880492254E+02 -0.30933623501E+02  0.32909573396E+03  0.10566000000E+00 0. -1.
          2    1    1    2  502    0  0.16489116561E+02 -0.20727706076E+03 -0.16013098893E+04  0.16147535516E+04  0.00000000000E+00 0. -1.
         -4    1    1    2    0  502 -0.21666107859E+03 -0.32069543159E+02 -0.15134450600E+03  0.26622478861E+03  0.00000000000E+00 0. -1.
</event>
<event>
 7    1  0.5696597E-006  0.1262656E+04  0.7818608E-02  0.8694746E-01
          1   -1    0    0  501    0  0.00000000000E+00  0.00000000000E+00  0.78364561113E+03  0.78364561113E+03  0.00000000000E+00 0.  1.
         -4   -1    0    0    0  501 -0.00000000000E+00 -0.00000000000E+00 -0.27274825067E+04  0.27274825067E+04  0.00000000000E+00 0. -1.
   -9000010    2    1    2    0  502  0.49904415890E+03 -0.47957297598E+03 -0.15512318745E+04  0.19974155486E+04  0.10508630899E+04 0.  0.
        -13    1    1    2    0    0 -0.38414479063E+03  0.59956894538E+03 -0.80163762141E+03  0.10722280670E+04  0.10566000000E+00 0.  1.
         13    1    3    3    0    0  0.83949302470E+02 -0.14618112986E+03  0.14327784654E+03  0.22123507992E+03  0.10566000000E+00 0. -1.
          1    1    1    2  502    0 -0.11489936827E+03 -0.11999596939E+03  0.40903260034E+03  0.44148450215E+03  0.00000000000E+00 0.  1.
         -4    1    3    3    0  502  0.41509485643E+03 -0.33339184612E+03 -0.16945097210E+04  0.17761804687E+04  0.00000000000E+00 0. -1.
</event>
<event>
 7    1  0.5696597E-006  0.1021662E+04  0.7818608E-02  0.9089457E-01
          5   -1    0    0  501    0  0.00000000000E+00  0.00000000000E+00  0.10190753786E+04  0.10190753786E+04  0.00000000000E+00 0. -1.
         -4   -1    0    0    0  501 -0.00000000000E+00 -0.00000000000E+00 -0.14069918619E+04  0.14069918619E+04  0.00000000000E+00 0. -1.
   -9000010    2    1    2    0  502  0.10215008066E+03  0.22921523358E+03 -0.55644009684E+03  0.11620310849E+04  0.98879542813E+03 0.  0.
        -13    1    1    2    0    0 -0.12475587768E+03 -0.22554644693E+03 -0.51723300031E+03  0.57789723698E+03  0.10566000000E+00 0.  1.
         13    1    3    3    0    0  0.23543533699E+03 -0.13551477958E+03 -0.69777599623E+03  0.74878929310E+03  0.10566000000E+00 0. -1.
          5    1    1    2  502    0  0.22605797017E+02 -0.36687866510E+01  0.68575661393E+03  0.68613891859E+03  0.00000000000E+00 0. -1.
         -4    1    3    3    0  502 -0.13328525633E+03  0.36473001316E+03  0.14133589939E+03  0.41324179183E+03  0.00000000000E+00 0. -1.
</event>
<event>
 7    1  0.5696597E-006  0.1475498E+04  0.7818608E-02  0.8490094E-01
          2   -1    0    0  502    0  0.00000000000E+00  0.00000000000E+00  0.38154089976E+04  0.38154089976E+04  0.00000000000E+00 0. -1.
          4   -1    0    0  501    0 -0.00000000000E+00 -0.00000000000E+00 -0.17998063896E+04  0.17998063896E+04  0.00000000000E+00 0.  1.
    9000010    2    1    2  502    0  0.34209329976E+03  0.68146348755E+03 -0.16330246651E+03  0.12649326001E+04  0.99597513857E+03 0.  0.
        -13    1    3    3    0    0  0.27018295979E+03  0.86923105930E+03  0.11936694094E+03  0.91804680924E+03  0.10566000000E+00 0.  1.
         13    1    1    2    0    0 -0.10241822873E+04 -0.94640987692E+03 -0.56937001795E+03  0.15062613456E+04  0.10566000000E+00 0. -1.
          2    1    1    2  501    0  0.68208898751E+03  0.26494638937E+03  0.27482750924E+04  0.28440214415E+04  0.00000000000E+00 0. -1.
          4    1    3    3  502    0  0.71910339978E+02 -0.18776757175E+03 -0.28266940746E+03  0.34688579087E+03  0.00000000000E+00 0.  1.
</event>
<event>
 7    1  0.5696597E-006  0.1044319E+04  0.7818608E-02  0.9019218E-01
          2   -1    0    0  501    0  0.00000000000E+00  0.00000000000E+00  0.17528218974E+04  0.17528218974E+04  0.00000000000E+00 0.  1.
         -4   -1    0    0    0  501 -0.00000000000E+00 -0.00000000000E+00 -0.12861945821E+04  0.12861945821E+04  0.00000000000E+00 0. -1.
   -9000010    2    1    2    0  502 -0.22941861272E+03  0.19898110068E+03 -0.11969807371E+03  0.10467022311E+04  0.99450065533E+03 0.  0.
        -13    1    1    2    0    0  0.16351739981E+03 -0.27628220985E+03 -0.66417341240E+03  0.73769650428E+03  0.10566000000E+00 0.  1.
         13    1    3    3    0    0 -0.42037285736E+03 -0.11829427203E+03  0.26654807199E+03  0.51161974145E+03  0.10566000000E+00 0. -1.
          2    1    1    2  502    0  0.65901212908E+02  0.77301109167E+02  0.12504988015E+04  0.12546177441E+04  0.00000000000E+00 0.  1.
         -4    1    3    3    0  502  0.19095424464E+03  0.31727537271E+03 -0.38624614570E+03  0.53508248966E+03  0.00000000000E+00 0. -1.
</event>
<event>
 7    1  0.5696597E-006  0.9613967E+03  0.7818608E-02  0.9298914E-01
          2   -1    0    0  501    0  0.00000000000E+00  0.00000000000E+00  0.27025787342E+04  0.27025787342E+04  0.00000000000E+00 0. -1.
         -4   -1    0    0    0  501 -0.00000000000E+00 -0.00000000000E+00 -0.49779172261E+03  0.49779172261E+03  0.00000000000E+00 0. -1.
   -9000010    2    1    2    0  502 -0.11669412772E+02  0.95178259880E+02  0.13860611117E+04  0.16840146194E+04  0.95160115416E+03 0.  0.
        -13    1    1    2    0    0 -0.31386736167E+01 -0.13722390590E+03 -0.33486475821E+03  0.36190422639E+03  0.10566000000E+00 0.  1.
         13    1    3    3    0    0  0.31010896565E+03 -0.30548919465E+03  0.53352626549E+03  0.68857933875E+03  0.10566000000E+00 0. -1.
          2    1    1    2  502    0  0.14808086389E+02  0.42045646024E+02  0.11535906581E+04  0.11544516111E+04  0.00000000000E+00 0. -1.
         -4    1    3    3    0  502 -0.32177837842E+03  0.40066745453E+03  0.85253484620E+03  0.99543528063E+03  0.00000000000E+00 0. -1.
</event>
<event>
 6    1  0.5696597E-006  0.6592492E+03  0.7818608E-02  0.9250610E-01
          1   -1    0    0  501    0  0.00000000000E+00  0.00000000000E+00  0.11322566766E+04  0.11322566766E+04  0.00000000000E+00 0.  1.
         -4   -1    0    0    0  501 -0.00000000000E+00 -0.00000000000E+00 -0.12075172337E+04  0.12075172337E+04  0.00000000000E+00 0. -1.
        -13    1    1    2    0    0 -0.54049415913E+03  0.38002030441E+02 -0.39301818134E+03  0.66935894137E+03  0.10566000000E+00 0.  1.
         13    1    1    2    0    0  0.48616015788E+03 -0.12366918101E+02 -0.29381935896E+03  0.56818523972E+03  0.10566000000E+00 0. -1.
          1    1    1    2  502    0  0.66147841354E+02 -0.15226315892E+03  0.83164703686E+03  0.84805447962E+03  0.00000000000E+00 0.  1.
         -4    1    1    2    0  502 -0.11813840104E+02  0.12662804658E+03 -0.22007005361E+03  0.25417524958E+03  0.00000000000E+00 0. -1.
</event>
<event>
 7    1  0.5696597E-006  0.1039185E+04  0.7818608E-02  0.9064813E-01
         -4   -1    0    0    0  501 -0.00000000000E+00  0.00000000000E+00  0.18985535951E+04  0.18985535951E+04  0.00000000000E+00 0. -1.
          2   -1    0    0  501    0  0.00000000000E+00 -0.00000000000E+00 -0.11520580877E+04  0.11520580877E+04  0.00000000000E+00 0.  1.
   -9000010    2    1    2    0  502  0.18510206131E+03 -0.29681427776E+03  0.35620612968E+03  0.11209630266E+04  0.10036502436E+04 0.  0.
        -13    1    1    2    0    0 -0.40216847453E+02  0.26422697493E+03  0.11371654435E+04  0.11681517651E+04  0.10566000000E+00 0.  1.
         13    1    3    3    0    0  0.44327944691E+03  0.18784442437E+03  0.30281036572E+02  0.48238900087E+03  0.10566000000E+00 0. -1.
          2    1    1    2  502    0 -0.14488521386E+03  0.32587302826E+02 -0.74687606587E+03  0.76149689118E+03  0.00000000000E+00 0.  1.
         -4    1    3    3    0  502 -0.25817738560E+03 -0.48465870213E+03  0.32592509311E+03  0.63857402570E+03  0.00000000000E+00 0. -1.
</event>
<event>
 7    1  0.5696597E-006  0.1063818E+04  0.7818608E-02  0.9189884E-01
          4   -1    0    0  501    0 -0.00000000000E+00  0.00000000000E+00  0.12662192744E+04  0.12662192744E+04  0.00000000000E+00 0.  1.
          2   -1    0    0  502    0  0.00000000000E+00 -0.00000000000E+00 -0.73008589585E+03  0.73008589585E+03  0.00000000000E+00 0.  1.
    9000010    2    1    2  502    0  0.15923279586E+02  0.17272213327E+03  0.71078195552E+03  0.12819665931E+04  0.10526827021E+04 0.  0.
        -13    1    3    3    0    0  0.11123691822E+03 -0.39692849489E+03  0.67957088934E+02  0.41778470428E+03  0.10566000000E+00 0.  1.
         13    1    1    2    0    0 -0.13418968703E+03 -0.82083954600E+02  0.23253733742E+03  0.28074592101E+03  0.10566000000E+00 0. -1.
          2    1    1    2  501    0  0.11826640745E+03 -0.90638178672E+02 -0.40718591440E+03  0.43359265613E+03  0.00000000000E+00 0.  1.
          4    1    3    3  502    0 -0.95313638630E+02  0.56965062816E+03  0.64282486659E+03  0.86418188883E+03  0.00000000000E+00 0.  1.
</event>
<event>
 7    1  0.5696597E-006  0.1004457E+04  0.7818608E-02  0.9469310E-01
         -4   -1    0    0    0  501 -0.00000000000E+00  0.00000000000E+00  0.34541408505E+03  0.34541408505E+03  0.00000000000E+00 0. -1.
          2   -1    0    0  501    0  0.00000000000E+00 -0.00000000000E+00 -0.33751385513E+04  0.33751385513E+04  0.00000000000E+00 0. -1.
   -9000010    2    1    2    0  502 -0.24570804528E+02 -0.75288512705E+01 -0.12885825246E+04  0.16327850893E+04  0.10024379369E+04 0.  0.
        -13    1    1    2    0    0  0.55607573816E+02 -0.31357819307E+02  0.16709866795E+03  0.17887842545E+03  0.10566000000E+00 0.  1.
         13    1    3    3    0    0 -0.28395244796E+03  0.37612300583E+03 -0.94549770299E+03  0.10564390308E+04  0.10566000000E+00 0. -1.
          2    1    1    2  502    0 -0.31036769288E+02  0.38886670577E+02 -0.19082406096E+04  0.19088891216E+04  0.00000000000E+00 0. -1.
         -4    1    3    3    0  502  0.25938164343E+03 -0.38365185710E+03 -0.34308482156E+03  0.57634605854E+03  0.00000000000E+00 0. -1.
</event>
<event>
 7    1  0.5696597E-006  0.9897687E+03  0.7818608E-02  0.9276414E-01
          1   -1    0    0  501    0  0.00000000000E+00  0.00000000000E+00  0.12072707519E+04  0.12072707519E+04  0.00000000000E+00 0. -1.
         -4   -1    0    0    0  501 -0.00000000000E+00 -0.00000000000E+00 -0.17468309429E+04  0.17468309429E+04  0.00000000000E+00 0. -1.
   -9000010    2    1    2    0  502  0.98764374687E+02 -0.69109285969E+02 -0.85455195573E+03  0.13060467335E+04  0.98029002335E+03 0.  0.
        -13    1    1    2    0    0 -0.97258801793E+02  0.96784535023E+02 -0.65927104966E+03  0.67339798695E+03  0.10566000000E+00 0.  1.
         13    1    3    3    0    0 -0.28179506653E+03 -0.37506597051E+03 -0.25890017833E+03  0.53582856891E+03  0.10566000000E+00 0. -1.
          1    1    1    2  502    0 -0.15055728937E+01 -0.27675249054E+02  0.97426281440E+03  0.97465697436E+03  0.00000000000E+00 0. -1.
         -4    1    3    3    0  502  0.38055944121E+03  0.30595668454E+03 -0.59565177740E+03  0.77021816457E+03  0.00000000000E+00 0. -1.
</event>
<event>
 7    1  0.5696597E-006  0.1541246E+04  0.7818608E-02  0.8443873E-01
          4   -1    0    0  501    0 -0.00000000000E+00  0.00000000000E+00  0.17583336147E+04  0.17583336147E+04  0.00000000000E+00 0.  1.
          2   -1    0    0  502    0  0.00000000000E+00 -0.00000000000E+00 -0.28149595674E+04  0.28149595674E+04  0.00000000000E+00 0. -1.
    9000010    2    1    2  502    0 -0.99977371510E+03  0.55632302433E+03  0.95125871669E+03  0.17880453444E+04  0.99154940309E+03 0.  0.
        -13    1    3    3    0    0  0.10370769803E+03  0.18865837205E+03 -0.83842613673E+02  0.23103433296E+03  0.10566000000E+00 0.  1.
         13    1    1    2    0    0  0.11228964277E+04 -0.59243960505E+03 -0.65931228197E+03  0.14305851143E+04  0.10566000000E+00 0. -1.
          2    1    1    2  501    0 -0.12312271262E+03  0.36116580713E+02 -0.13485723875E+04  0.13546627233E+04  0.00000000000E+00 0. -1.
          4    1    3    3  502    0 -0.11034814131E+04  0.36766465229E+03  0.10351013304E+04  0.15570110115E+04  0.00000000000E+00 0.  1.
</event>
<event>
 7    1  0.5696597E-006  0.1110249E+04  0.7818608E-02  0.8867239E-01
          2   -1    0    0  502    0  0.00000000000E+00  0.00000000000E+00  0.77542852098E+03  0.77542852098E+03  0.00000000000E+00 0.  1.
          4   -1    0    0  501    0 -0.00000000000E+00 -0.00000000000E+00 -0.32518945372E+04  0.32518945372E+04  0.00000000000E+00 0.  1.
    9000010    2    1    2  502    0  0.56602819572E+03  0.49136845842E+02 -0.11372833135E+04  0.16137882209E+04  0.99403055221E+03 0.  0.
        -13    1    3    3    0    0  0.71706395632E+03 -0.25284419933E+03 -0.55739106683E+03  0.94275962956E+03  0.10566000000E+00 0.  1.
         13    1    1    2    0    0 -0.48474260205E+03 -0.13651944257E+02 -0.18410731853E+04  0.19038677082E+04  0.10566000000E+00 0. -1.
          2    1    1    2  501    0 -0.81285593665E+02 -0.35484901585E+02  0.50189048254E+03  0.50966712905E+03  0.00000000000E+00 0.  1.
          4    1    3    3  502    0 -0.15103576060E+03  0.30198104517E+03 -0.57989224667E+03  0.67102859132E+03  0.00000000000E+00 0.  1.
</event>
<event>
 7    1  0.5696597E-006  0.1965188E+04  0.7818608E-02  0.8213617E-01
          2   -1    0    0  501    0  0.00000000000E+00  0.00000000000E+00  0.28403915997E+04  0.28403915997E+04  0.00000000000E+00 0.  1.
         -4   -1    0    0    0  501 -0.00000000000E+00 -0.00000000000E+00 -0.24825065855E+04  0.24825065855E+04  0.00000000000E+00 0. -1.
   -9000010    2    1    2    0  502  0.17002608529E+04  0.22979368097E+03  0.15982155164E+04  0.25501299044E+04  0.10025854522E+04 0.  0.
        -13    1    1    2    0    0 -0.16714965301E+04 -0.21950586964E+03 -0.16517823192E+04  0.23601839586E+04  0.10566000000E+00 0.  1.
         13    1    3    3    0    0  0.14111056705E+04  0.36702013275E+03  0.16752774547E+04  0.22209181778E+04  0.10566000000E+00 0. -1.
          2    1    1    2  502    0 -0.28764322734E+02 -0.10287811328E+02  0.41145181695E+03  0.41258432229E+03  0.00000000000E+00 0.  1.
         -4    1    3    3    0  502  0.28915518240E+03 -0.13722645178E+03 -0.77061938354E+02  0.32921172659E+03  0.00000000000E+00 0. -1.
</event>
<event>
 7    1  0.5696597E-006  0.1099709E+04  0.7818608E-02  0.8899423E-01
          4   -1    0    0  501    0 -0.00000000000E+00  0.00000000000E+00  0.77745465634E+03  0.77745465634E+03  0.00000000000E+00 0.  1.
          2   -1    0    0  502    0  0.00000000000E+00 -0.00000000000E+00 -0.16216371008E+04  0.16216371008E+04  0.00000000000E+00 0.  1.
    9000010    2    1    2  502    0 -0.27821799377E+03  0.49548159825E+03  0.76852628662E+02  0.11575776234E+04  0.10055706646E+04 0.  0.
        -13    1    3    3    0    0 -0.32117107824E+03  0.39977007394E+03 -0.41186742903E+03  0.65772468692E+03  0.10566000000E+00 0.  1.
         13    1    1    2    0    0  0.22362292106E+03 -0.31781614378E+03 -0.10215866907E+03  0.40180930415E+03  0.10566000000E+00 0. -1.
          2    1    1    2  501    0  0.54595072713E+02 -0.17766545447E+03 -0.81887640403E+03  0.83970482954E+03  0.00000000000E+00 0.  1.
          4    1    3    3  502    0  0.42953084469E+02  0.95711524305E+02  0.48872005770E+03  0.49985293652E+03  0.00000000000E+00 0.  1.
</event>
<event>
 7    1  0.5696597E-006  0.1003636E+04  0.7818608E-02  0.9120863E-01
         -4   -1    0    0    0  501 -0.00000000000E+00  0.00000000000E+00  0.19518624909E+04  0.19518624909E+04  0.00000000000E+00 0. -1.
          4   -1    0    0  501    0  0.00000000000E+00 -0.00000000000E+00 -0.52665153368E+03  0.52665153368E+03  0.00000000000E+00 0. -1.
   -9000010    2    1    2    0  502  0.22612260378E+03 -0.11131828412E+03  0.11777425994E+04  0.15493646488E+04  0.97464352062E+03 0.  0.
        -13    1    1    2    0    0 -0.21854133884E+03  0.94000804491E+02  0.56396480077E+03  0.61208886259E+03  0.10566000000E+00 0.  1.
         13    1    3    3    0    0  0.29405350142E+03 -0.50890734748E+03  0.82861843833E+03  0.10159048565E+04  0.10566000000E+00 0. -1.
          4    1    1    2  502    0 -0.75812649351E+01  0.17317479633E+02 -0.31649644289E+03  0.31706051322E+03  0.00000000000E+00 0. -1.
         -4    1    3    3    0  502 -0.67930897643E+02  0.39758906336E+03  0.34912416103E+03  0.53345979227E+03  0.00000000000E+00 0. -1.
</event>
<event>
 7    1  0.5696597E-006  0.9979108E+03  0.7818608E-02  0.9411674E-01
          2   -1    0    0  501    0  0.00000000000E+00  0.00000000000E+00  0.12362612361E+04  0.12362612361E+04  0.00000000000E+00 0. -1.
         -4   -1    0    0    0  501 -0.00000000000E+00 -0.00000000000E+00 -0.28774411548E+03  0.28774411548E+03  0.00000000000E+00 0. -1.
   -9000010    2    1    2    0  502 -0.75703931775E+02 -0.11478224009E+02  0.75977076011E+03  0.12539939676E+04  0.99467905772E+03 0.  0.
        -13    1    1    2    0    0  0.75243918589E+02  0.28495758683E+02 -0.39911951685E-01  0.80459109519E+02  0.10566000000E+00 0.  1.
         13    1    3    3    0    0 -0.92593428786E+01  0.37620648039E+03  0.77374763636E+03  0.86040831426E+03  0.10566000000E+00 0. -1.
          2    1    1    2  502    0  0.46001318619E+00 -0.17017534674E+02  0.18878627244E+03  0.18955227448E+03  0.00000000000E+00 0. -1.
         -4    1    3    3    0  502 -0.66444588897E+02 -0.38768470440E+03 -0.13976876248E+02  0.39358565331E+03  0.00000000000E+00 0. -1.
</event>
<event>
 7    1  0.5696597E-006  0.1229140E+04  0.7818608E-02  0.8713296E-01
          2   -1    0    0  501    0  0.00000000000E+00  0.00000000000E+00  0.10270235352E+04  0.10270235352E+04  0.00000000000E+00 0.  1.
         -4   -1    0    0    0  501 -0.00000000000E+00 -0.00000000000E+00 -0.10252709533E+04  0.10252709533E+04  0.00000000000E+00 0. -1.
   -9000010    2    1    2    0  502  0.17108451318E+03 -0.68757292189E+03 -0.42456171373E+02  0.12345707280E+04  0.10101167866E+04 0.  0.
        -13    1    1    2    0    0 -0.15445958091E+03  0.67868893918E+03 -0.72218991759E+02  0.69977998845E+03  0.10566000000E+00 0.  1.
         13    1    3    3    0    0  0.47946394158E+03 -0.67910638191E+03  0.18456114976E+03  0.85154798948E+03  0.10566000000E+00 0. -1.
          2    1    1    2  502    0 -0.16624932270E+02  0.88839827080E+01  0.11642774505E+03  0.11794377194E+03  0.00000000000E+00 0.  1.
         -4    1    3    3    0  502 -0.30837942840E+03 -0.84665399777E+01 -0.22701732113E+03  0.38302273856E+03  0.00000000000E+00 0. -1.
</event>
<event>
 7    1  0.5696597E-006  0.1048802E+04  0.7818608E-02  0.9034463E-01
          2   -1    0    0  502    0  0.00000000000E+00  0.00000000000E+00  0.16796483252E+04  0.16796483252E+04  0.00000000000E+00 0.  1.
          4   -1    0    0  501    0 -0.00000000000E+00 -0.00000000000E+00 -0.39926226376E+03  0.39926226376E+03  0.00000000000E+00 0.  1.
    9000010    2    1    2  502    0 -0.24573321593E+03 -0.16480625777E+03  0.10633625047E+04  0.14935531536E+04  0.10061884964E+04 0.  0.
        -13    1    3    3    0    0  0.31540237733E+03  0.56028688350E+02  0.74653529232E+03  0.81236249752E+03  0.10566000000E+00 0.  1.
         13    1    1    2    0    0  0.23784992529E+03  0.17611456992E+03 -0.64990961842E+02  0.30300621278E+03  0.10566000000E+00 0. -1.
          2    1    1    2  501    0  0.78832906343E+01 -0.11308312146E+02  0.28201451857E+03  0.28235122256E+03  0.00000000000E+00 0.  1.
          4    1    3    3  502    0 -0.56113559326E+03 -0.22083494612E+03  0.31682721239E+03  0.68119065610E+03  0.00000000000E+00 0.  1.
</event>
<event>
 7    1  0.5696597E-006  0.9987568E+03  0.7818608E-02  0.9245572E-01
         -4   -1    0    0    0  501 -0.00000000000E+00  0.00000000000E+00  0.15013371077E+04  0.15013371077E+04  0.00000000000E+00 0. -1.
          1   -1    0    0  501    0  0.00000000000E+00 -0.00000000000E+00 -0.49241500480E+03  0.49241500480E+03  0.00000000000E+00 0.  1.
   -9000010    2    1    2    0  502  0.12431863048E+03  0.62626982602E+02  0.10229690400E+04  0.14286240432E+04  0.98748353872E+03 0.  0.
        -13    1    1    2    0    0 -0.13488920391E+03 -0.67192689803E+02  0.25480319575E+03  0.29603147573E+03  0.10566000000E+00 0.  1.
         13    1    3    3    0    0 -0.17011218245E+03  0.34234699759E+03  0.93911104935E+03  0.10139374712E+04  0.10566000000E+00 0. -1.
          1    1    1    2  502    0  0.10570573422E+02  0.45657072005E+01 -0.26885013286E+03  0.26909659352E+03  0.00000000000E+00 0.  1.
         -4    1    3    3    0  502  0.29443081293E+03 -0.27972001499E+03  0.83857990616E+02  0.41468657198E+03  0.00000000000E+00 0. -1.
</event>
<event>
 7    1  0.5696597E-006  0.1163366E+04  0.7818608E-02  0.8833407E-01
          2   -1    0    0  502    0  0.00000000000E+00  0.00000000000E+00  0.44662809454E+03  0.44662809454E+03  0.00000000000E+00 0. -1.
          4   -1    0    0  501    0 -0.00000000000E+00 -0.00000000000E+00 -0.22441237092E+04  0.22441237092E+04  0.00000000000E+00 0.  1.
    9000010    2    1    2  502    0  0.29463354399E+03 -0.43000414147E+03 -0.49005669698E+03  0.12728052213E+04  0.10526941998E+04 0.  0.
        -13    1    3    3    0    0  0.36188264324E+03  0.77095440604E+02 -0.64042237986E+03  0.73962395191E+03  0.10566000000E+00 0.  1.
         13    1    1    2    0    0 -0.31214305820E+03  0.38066192458E+03 -0.12258712325E+04  0.13210212260E+04  0.10566000000E+00 0. -1.
          2    1    1    2  501    0  0.17509514218E+02  0.49342216886E+02 -0.81567685142E+02  0.96925356408E+02  0.00000000000E+00 0. -1.
          4    1    3    3  502    0 -0.67249099257E+02 -0.50709958207E+03  0.15036568288E+03  0.53318126943E+03  0.00000000000E+00 0.  1.
</event>
<event>
 7    1  0.5696597E-006  0.1046513E+04  0.7818608E-02  0.9039038E-01
         -4   -1    0    0    0  501 -0.00000000000E+00  0.00000000000E+00  0.17842581987E+04  0.17842581987E+04  0.00000000000E+00 0. -1.
          2   -1    0    0  501    0  0.00000000000E+00 -0.00000000000E+00 -0.82989233374E+03  0.82989233374E+03  0.00000000000E+00 0. -1.
   -9000010    2    1    2    0  502  0.34047626540E+02  0.28847748436E+03  0.15149110208E+04  0.18409225212E+04  0.10048193012E+04 0.  0.
        -13    1    1    2    0    0 -0.22343656261E+02 -0.29422196420E+03 -0.98612347056E+02  0.31111124916E+03  0.10566000000E+00 0.  1.
         13    1    3    3    0    0 -0.22982391685E+02  0.12793468910E+03 -0.13198089250E+03  0.18524157782E+03  0.10566000000E+00 0. -1.
          2    1    1    2  502    0 -0.11703970279E+02  0.57444798440E+01 -0.46193280880E+03  0.46211676210E+03  0.00000000000E+00 0. -1.
         -4    1    3    3    0  502  0.57030018225E+02  0.16054279526E+03  0.16468919133E+04  0.16556809433E+04  0.00000000000E+00 0. -1.
</event>
<event>
 7    1  0.5696597E-006  0.1080573E+04  0.7818608E-02  0.8933664E-01
          4   -1    0    0  501    0 -0.00000000000E+00  0.00000000000E+00  0.18960766603E+04  0.18960766603E+04  0.00000000000E+00 0.  1.
          2   -1    0    0  502    0  0.00000000000E+00 -0.00000000000E+00 -0.23971500262E+04  0.23971500262E+04  0.00000000000E+00 0.  1.
    9000010    2    1    2  502    0 -0.47488942922E+03 -0.75267670880E+02  0.13801854831E+04  0.17713598085E+04  0.10008088785E+04 0.  0.
        -13    1    3    3    0    0 -0.63957572606E+03 -0.24315514417E+03  0.46709121515E+03  0.82846590028E+03  0.10566000000E+00 0.  1.
         13    1    1    2    0    0  0.34998664135E+03  0.11825588334E+03  0.21100399819E+03  0.42543836391E+03  0.10566000000E+00 0. -1.
          2    1    1    2  501    0  0.12490278787E+03 -0.42988212461E+02 -0.20922628472E+04  0.20964285140E+04  0.00000000000E+00 0.  1.
          4    1    3    3  502    0  0.16468629684E+03  0.16788747329E+03  0.91309426795E+03  0.94289390825E+03  0.00000000000E+00 0.  1.
</event>
<event>
 7    1  0.5696597E-006  0.9880871E+03  0.7818608E-02  0.9307951E-01
          4   -1    0    0  501    0 -0.00000000000E+00  0.00000000000E+00  0.20300332424E+04  0.20300332424E+04  0.00000000000E+00 0.  1.
          2   -1    0    0  502    0  0.00000000000E+00 -0.00000000000E+00 -0.29328725003E+03  0.29328725003E+03  0.00000000000E+00 0.  1.
    9000010    2    1    2  502    0  0.18228783778E+02  0.15479689383E+03  0.18464756898E+04  0.20964816150E+04  0.98054491094E+03 0.  0.
        -13    1    3    3    0    0 -0.19558465825E+03  0.23240030672E+03  0.78223144070E+02  0.31365926184E+03  0.10566000000E+00 0.  1.
         13    1    1    2    0    0 -0.58273133698E+02 -0.91717766198E+02 -0.20711820306E+02  0.11062051081E+03  0.10566000000E+00 0. -1.
          2    1    1    2  501    0  0.40044349920E+02 -0.63079127632E+02 -0.89017877061E+02  0.11621836662E+03  0.00000000000E+00 0.  1.
          4    1    3    3  502    0  0.21381344202E+03 -0.77603412887E+02  0.17682525457E+04  0.17828223532E+04  0.00000000000E+00 0.  1.
</event>
<event>
 7    1  0.5696597E-006  0.1063247E+04  0.7818608E-02  0.9281074E-01
          2   -1    0    0  502    0  0.00000000000E+00  0.00000000000E+00  0.12311044316E+04  0.12311044316E+04  0.00000000000E+00 0. -1.
          4   -1    0    0  501    0 -0.00000000000E+00 -0.00000000000E+00 -0.86377020916E+03  0.86377020916E+03  0.00000000000E+00 0.  1.
    9000010    2    1    2  502    0  0.15429636344E+03 -0.46013761172E+03  0.41991777621E+03  0.11723756781E+04  0.98112170623E+03 0.  0.
        -13    1    3    3    0    0  0.51796621488E+00 -0.27132546554E+03 -0.30466493766E+03  0.40796876344E+03  0.10566000000E+00 0.  1.
         13    1    1    2    0    0  0.16761193494E+02  0.10698931213E+03 -0.39013942337E+03  0.40489064122E+03  0.10566000000E+00 0. -1.
          2    1    1    2  501    0 -0.17105755693E+03  0.35314829959E+03  0.33755586960E+03  0.51760832140E+03  0.00000000000E+00 0. -1.
          4    1    3    3  502    0  0.15377839722E+03 -0.18881214618E+03  0.72458271387E+03  0.76440691470E+03  0.00000000000E+00 0.  1.
</event>
<event>
 7    1  0.5696597E-006  0.1078701E+04  0.7818608E-02  0.8915908E-01
          1   -1    0    0  501    0  0.00000000000E+00  0.00000000000E+00  0.86085542215E+03  0.86085542215E+03  0.00000000000E+00 0. -1.
         -4   -1    0    0    0  501 -0.00000000000E+00 -0.00000000000E+00 -0.23655835225E+04  0.23655835225E+04  0.00000000000E+00 0. -1.
   -9000010    2    1    2    0  502 -0.14884082775E+03  0.42108534879E+03 -0.11987349887E+01  0.10811574544E+04  0.98459816238E+03 0.  0.
        -13    1    1    2    0    0  0.13905952693E+03 -0.41781455717E+03 -0.17977425525E+04  0.18508875850E+04  0.10566000000E+00 0.  1.
         13    1    3    3    0    0  0.41235419345E+03  0.24419770762E+03  0.84207146796E+02  0.48657923918E+03  0.10566000000E+00 0. -1.
          1    1    1    2  502    0  0.97813008205E+01 -0.32707916200E+01  0.29421318713E+03  0.29439390518E+03  0.00000000000E+00 0. -1.
         -4    1    3    3    0  502 -0.56119502120E+03  0.17688764117E+03 -0.85405881784E+02  0.59457821526E+03  0.00000000000E+00 0. -1.
</event>
<event>
 7    1  0.5696597E-006  0.1084863E+04  0.7818608E-02  0.9029499E-01
         -4   -1    0    0    0  501 -0.00000000000E+00  0.00000000000E+00  0.66155399625E+03  0.66155399625E+03  0.00000000000E+00 0. -1.
          1   -1    0    0  501    0  0.00000000000E+00 -0.00000000000E+00 -0.15748284338E+04  0.15748284338E+04  0.00000000000E+00 0. -1.
   -9000010    2    1    2    0  502  0.36344532525E+03  0.26111475114E+03 -0.49288881471E+03  0.12218398845E+04  0.10245388729E+04 0.  0.
        -13    1    1    2    0    0 -0.26104207636E+03  0.79115903688E+02  0.17293584122E+03  0.32296920626E+03  0.10566000000E+00 0.  1.
         13    1    3    3    0    0 -0.10022693932E+03  0.57734583218E+01  0.27297570764E+03  0.29085137152E+03  0.10566000000E+00 0. -1.
          1    1    1    2  502    0 -0.10240324889E+03 -0.34023065483E+03 -0.59332146408E+03  0.69157333928E+03  0.00000000000E+00 0. -1.
         -4    1    3    3    0  502  0.46367226457E+03  0.25534129282E+03 -0.76586452235E+03  0.93098851301E+03  0.00000000000E+00 0. -1.
</event>
<event>
 7    1  0.5696597E-006  0.1046300E+04  0.7818608E-02  0.9138759E-01
          2   -1    0    0  501    0  0.00000000000E+00  0.00000000000E+00  0.15189256100E+04  0.15189256100E+04  0.00000000000E+00 0. -1.
         -4   -1    0    0    0  501 -0.00000000000E+00 -0.00000000000E+00 -0.43889053756E+03  0.43889053756E+03  0.00000000000E+00 0. -1.
   -9000010    2    1    2    0  502 -0.10860922152E+03  0.14215001466E+03  0.29578814089E+03  0.10841713971E+04  0.10275866894E+04 0.  0.
        -13    1    1    2    0    0  0.22741789310E+03 -0.47944506275E+02  0.50405635925E+03  0.55505891422E+03  0.10566000000E+00 0.  1.
         13    1    3    3    0    0 -0.76303189482E+02 -0.28482500997E+03  0.52227610179E+03  0.59976645513E+03  0.10566000000E+00 0. -1.
          2    1    1    2  502    0 -0.11880867157E+03 -0.94205508389E+02  0.28019057230E+03  0.31858583625E+03  0.00000000000E+00 0. -1.
         -4    1    3    3    0  502 -0.32306032040E+02  0.42697502464E+03 -0.22648796090E+03  0.48440494197E+03  0.00000000000E+00 0. -1.
</event>
<event>
 7    1  0.5696597E-006  0.1006170E+04  0.7818608E-02  0.9258647E-01
          4   -1    0    0  501    0 -0.00000000000E+00  0.00000000000E+00  0.18667436339E+04  0.18667436339E+04  0.00000000000E+00 0.  1.
          2   -1    0    0  502    0  0.00000000000E+00 -0.00000000000E+00 -0.65656687557E+03  0.65656687557E+03  0.00000000000E+00 0. -1.
    9000010    2    1    2  502    0  0.10817447578E+03  0.80865026327E+01  0.14791807803E+04  0.17868250448E+04  0.99649428063E+03 0.  0.
        -13    1    3    3    0    0  0.38424183387E+03 -0.70565158369E+02  0.14460197235E+04  0.14978632382E+04  0.10566000000E+00 0.  1.
         13    1    1    2    0    0 -0.13614484398E+03 -0.47358171203E+02  0.21019181252E+03  0.25487021038E+03  0.10566000000E+00 0. -1.
          2    1    1    2  501    0  0.27970368205E+02  0.39271668571E+02 -0.47919583443E+03  0.48161525431E+03  0.00000000000E+00 0. -1.
          4    1    3    3  502    0 -0.27606735809E+03  0.78651661002E+02  0.33161056759E+02  0.28896180659E+03  0.00000000000E+00 0.  1.
</event>
<event>
 7    1  0.5696597E-006  0.1043341E+04  0.7818608E-02  0.9059692E-01
          1   -1    0    0  501    0  0.00000000000E+00  0.00000000000E+00  0.12865925492E+04  0.12865925492E+04  0.00000000000E+00 0.  1.
         -4   -1    0    0    0  501 -0.00000000000E+00 -0.00000000000E+00 -0.16983764165E+04  0.16983764165E+04  0.00000000000E+00 0. -1.
   -9000010    2    1    2    0  502 -0.27772022791E+02 -0.11984836892E+03 -0.65618882749E+03  0.12084902440E+04  0.10073380643E+04 0.  0.
        -13    1    1    2    0    0  0.13374989149E+03  0.25356966264E+03 -0.73155183882E+03  0.78571923187E+03  0.10566000000E+00 0.  1.
         13    1    3    3    0    0  0.43263539553E+03  0.17612470813E+03 -0.31857263610E+03  0.56540413327E+03  0.10566000000E+00 0. -1.
          1    1    1    2  502    0 -0.10597786870E+03 -0.13372129373E+03  0.97595679901E+03  0.99075948978E+03  0.00000000000E+00 0.  1.
         -4    1    3    3    0  502 -0.46040741833E+03 -0.29597307705E+03 -0.33761619138E+03  0.64308611078E+03  0.00000000000E+00 0. -1.
</event>
<event>
 7    1  0.5696597E-006  0.1040882E+04  0.7818608E-02  0.9057398E-01
          2   -1    0    0  502    0  0.00000000000E+00  0.00000000000E+00  0.30057774791E+04  0.30057774791E+04  0.00000000000E+00 0.  1.
          4   -1    0    0  501    0 -0.00000000000E+00 -0.00000000000E+00 -0.17219722781E+04  0.17219722781E+04  0.00000000000E+00 0.  1.
    9000010    2    1    2  502    0  0.10476914287E+03  0.18043024967E+03 -0.99922485703E+03  0.14314855055E+04  0.10035779936E+04 0.  0.
        -13    1    3    3    0    0 -0.36902222073E+03  0.20166120044E+03 -0.12806945262E+03  0.43959803800E+03  0.10566000000E+00 0.  1.
         13    1    1    2    0    0 -0.11602487102E+03 -0.26502670868E+03 -0.46459663918E+03  0.54731250242E+03  0.10566000000E+00 0. -1.
          2    1    1    2  501    0  0.11255728146E+02  0.84596459005E+02  0.27476266973E+04  0.27489517493E+04  0.00000000000E+00 0.  1.
          4    1    3    3  502    0  0.47379136360E+03 -0.21230950769E+02 -0.87115540441E+03  0.99188746747E+03  0.00000000000E+00 0.  1.
</event>
<event>
 7    1  0.8644973E-006  0.9070216E+03  0.7818608E-02  0.9292166E-01
          2   -1    0    0  501    0  0.00000000000E+00  0.00000000000E+00  0.10803943526E+04  0.10803943526E+04  0.00000000000E+00 0. -1.
         -4   -1    0    0    0  501 -0.00000000000E+00 -0.00000000000E+00 -0.12095551086E+04  0.12095551086E+04  0.00000000000E+00 0. -1.
   -9000010    2    1    2    0  502 -0.48958585300E+02 -0.34893683816E+03 -0.93917101267E+03  0.13374683630E+04  0.88466127470E+03 0.  0.
        -13    1    1    2    0    0  0.70662932995E+02  0.15158015870E+03  0.61669780855E+02  0.17824973393E+03  0.10566000000E+00 0.  1.
         13    1    3    3    0    0 -0.12128400256E+03 -0.28208392593E+03 -0.11037536105E+04  0.11456671394E+04  0.10566000000E+00 0. -1.
          2    1    1    2  502    0 -0.21704347695E+02  0.19735667946E+03  0.74834047579E+03  0.77423136422E+03  0.00000000000E+00 0. -1.
         -4    1    3    3    0  502  0.72325417264E+02 -0.66852912224E+02  0.16458259783E+03  0.19180122357E+03  0.00000000000E+00 0. -1.
</event>
<event>
 7    1  0.5696597E-006  0.1028067E+04  0.7818608E-02  0.9135566E-01
         -4   -1    0    0    0  501 -0.00000000000E+00  0.00000000000E+00  0.18883942851E+04  0.18883942851E+04  0.00000000000E+00 0. -1.
          4   -1    0    0  501    0  0.00000000000E+00 -0.00000000000E+00 -0.10465616100E+04  0.10465616100E+04  0.00000000000E+00 0. -1.
   -9000010    2    1    2    0  502 -0.15106656546E+03 -0.13427673650E+03  0.15851991881E+04  0.18884935631E+04  0.10063300266E+04 0.  0.
        -13    1    1    2    0    0  0.15563820383E+03  0.14748131637E+03  0.75617767601E+02  0.22735885097E+03  0.10566000000E+00 0.  1.
         13    1    3    3    0    0  0.23991889494E+02 -0.32258993905E+03  0.44546323728E+02  0.32653371290E+03  0.10566000000E+00 0. -1.
          4    1    1    2  502    0 -0.45716383717E+01 -0.13204579871E+02 -0.81898428062E+03  0.81910348108E+03  0.00000000000E+00 0. -1.
         -4    1    3    3    0  502 -0.17505845496E+03  0.18831320255E+03  0.15406528644E+04  0.15619598502E+04  0.00000000000E+00 0. -1.
</event>
<event>
 7    1  0.5696597E-006  0.1046661E+04  0.7818608E-02  0.9039060E-01
          2   -1    0    0  502    0  0.00000000000E+00  0.00000000000E+00  0.18941249459E+04  0.18941249459E+04  0.00000000000E+00 0.  1.
          4   -1    0    0  501    0 -0.00000000000E+00 -0.00000000000E+00 -0.28503397844E+04  0.28503397844E+04  0.00000000000E+00 0.  1.
    9000010    2    1    2  502    0 -0.28227783153E+03  0.14422186705E+03 -0.21079933366E+04  0.23567299198E+04  0.10050170577E+04 0.  0.
        -13    1    3    3    0    0 -0.59720241230E+03 -0.14082493134E+03 -0.10421531203E+04  0.12093657511E+04  0.10566000000E+00 0.  1.
         13    1    1    2    0    0  0.28382388416E+03 -0.51412438603E+02 -0.58301184164E+03  0.65046295415E+03  0.10566000000E+00 0. -1.
          2    1    1    2  501    0 -0.15460526292E+01 -0.92809428445E+02  0.17347903398E+04  0.17372718565E+04  0.00000000000E+00 0.  1.
          4    1    3    3  502    0  0.31492458077E+03  0.28504679839E+03 -0.10658402164E+04  0.11473641687E+04  0.00000000000E+00 0.  1.
</event>
<event>
 7    1  0.5696597E-006  0.1044301E+04  0.7818608E-02  0.9009923E-01
         -4   -1    0    0    0  501 -0.00000000000E+00  0.00000000000E+00  0.14431721973E+04  0.14431721973E+04  0.00000000000E+00 0. -1.
          2   -1    0    0  501    0  0.00000000000E+00 -0.00000000000E+00 -0.20239212755E+04  0.20239212755E+04  0.00000000000E+00 0.  1.
   -9000010    2    1    2    0  502 -0.69978065318E+02  0.28773902311E+03  0.34881768216E+03  0.10910728924E+04  0.99049260781E+03 0.  0.
        -13    1    1    2    0    0  0.99466676523E+02 -0.31944697120E+03  0.68422632535E+03  0.76164667833E+03  0.10566000000E+00 0.  1.
         13    1    3    3    0    0 -0.10610686484E+02  0.39289500450E+03 -0.25944012729E+03  0.47094401158E+03  0.10566000000E+00 0. -1.
          2    1    1    2  502    0 -0.29488611205E+02  0.31707948098E+02 -0.16137930857E+04  0.16143739021E+04  0.00000000000E+00 0.  1.
         -4    1    3    3    0  502 -0.59367378833E+02 -0.10515598139E+03  0.60825780945E+03  0.62012888083E+03  0.00000000000E+00 0. -1.
</event>
<event>
 7    1  0.5696597E-006  0.1864687E+04  0.7818608E-02  0.8579451E-01
          2   -1    0    0  502    0  0.00000000000E+00  0.00000000000E+00  0.25162672175E+04  0.25162672175E+04  0.00000000000E+00 0. -1.
          4   -1    0    0  501    0 -0.00000000000E+00 -0.00000000000E+00 -0.22467116165E+04  0.22467116165E+04  0.00000000000E+00 0.  1.
    9000010    2    1    2  502    0  0.11001033476E+04  0.10220724441E+04 -0.21306571554E+03  0.18121412832E+04  0.99176588703E+03 0.  0.
        -13    1    3    3    0    0  0.28220738590E+01 -0.17538015005E+03 -0.21543077236E+02  0.17672089994E+03  0.10566000000E+00 0.  1.
         13    1    1    2    0    0 -0.18185755969E+03  0.31154463886E+03 -0.80497846900E+03  0.88211256693E+03  0.10566000000E+00 0. -1.
          2    1    1    2  501    0 -0.91824578792E+03 -0.13336170830E+04  0.12875997856E+04  0.20687249839E+04  0.00000000000E+00 0. -1.
          4    1    3    3  502    0  0.10972812738E+04  0.11974525941E+04 -0.19152263830E+03  0.16354203832E+04  0.00000000000E+00 0.  1.
</event>
<event>
 7    1  0.5696597E-006  0.8082880E+03  0.7818608E-02  0.9403268E-01
          4   -1    0    0  501    0 -0.00000000000E+00  0.00000000000E+00  0.55405836170E+03  0.55405836170E+03  0.00000000000E+00 0.  1.
          2   -1    0    0  502    0  0.00000000000E+00 -0.00000000000E+00 -0.38533983124E+04  0.38533983124E+04  0.00000000000E+00 0.  1.
    9000010    2    1    2  502    0 -0.11202035851E+03 -0.80909877953E+02 -0.15946399525E+03  0.78966005407E+03  0.76094629649E+03 0.  0.
        -13    1    3    3    0    0 -0.38966727691E+03 -0.41653349338E+02 -0.28285489440E+03  0.48330372506E+03  0.10566000000E+00 0.  1.
         13    1    1    2    0    0 -0.34660371738E+02 -0.15187950937E+03  0.20731117430E+03  0.25931961147E+03  0.10566000000E+00 0. -1.
          2    1    1    2  501    0  0.14668073025E+03  0.23278938733E+03 -0.33471871298E+04  0.33584770086E+04  0.00000000000E+00 0.  1.
          4    1    3    3  502    0  0.27764691840E+03 -0.39256528615E+02  0.12339089915E+03  0.30635632901E+03  0.00000000000E+00 0.  1.
</event>
<event>
 7    1  0.5696597E-006  0.1019319E+04  0.7818608E-02  0.9222941E-01
          2   -1    0    0  502    0  0.00000000000E+00  0.00000000000E+00  0.17491496685E+04  0.17491496685E+04  0.00000000000E+00 0.  1.
          4   -1    0    0  501    0 -0.00000000000E+00 -0.00000000000E+00 -0.12870386640E+04  0.12870386640E+04  0.00000000000E+00 0.  1.
    9000010    2    1    2  502    0  0.33694944162E+02 -0.39157629910E+03 -0.73737584479E+03  0.12942351051E+04  0.98835925826E+03 0.  0.
        -13    1    3    3    0    0 -0.31262587255E+03 -0.56902334876E+03 -0.59262959555E+03  0.87905196451E+03  0.10566000000E+00 0.  1.
         13    1    1    2    0    0 -0.52226799061E+02  0.14440716667E+03 -0.23800730159E+03  0.28324645647E+03  0.10566000000E+00 0. -1.
          2    1    1    2  501    0  0.18531854899E+02  0.24716913243E+03  0.14374941509E+04  0.14587067710E+04  0.00000000000E+00 0.  1.
          4    1    3    3  502    0  0.34632081671E+03  0.17744704966E+03 -0.14474624923E+03  0.41518314054E+03  0.00000000000E+00 0.  1.
</event>
<event>
 7    1  0.5696597E-006  0.1140085E+04  0.7818608E-02  0.8824589E-01
         -4   -1    0    0    0  501 -0.00000000000E+00  0.00000000000E+00  0.28550902019E+04  0.28550902019E+04  0.00000000000E+00 0. -1.
          2   -1    0    0  501    0  0.00000000000E+00 -0.00000000000E+00 -0.67924566406E+03  0.67924566406E+03  0.00000000000E+00 0. -1.
   -9000010    2    1    2    0  502 -0.13307376067E+03 -0.53434557036E+03  0.94813256074E+03  0.14845131502E+04  0.10007947472E+04 0.  0.
        -13    1    1    2    0    0  0.10973914202E+03  0.53421767170E+03  0.15930105335E+04  0.16837796088E+04  0.10566000000E+00 0.  1.
         13    1    3    3    0    0 -0.51339688720E+03 -0.37832534425E+02  0.38384464521E+03  0.64214047315E+03  0.10566000000E+00 0. -1.
          2    1    1    2  502    0  0.23334618650E+02  0.12789865782E+00 -0.36529855643E+03  0.36604310691E+03  0.00000000000E+00 0. -1.
         -4    1    3    3    0  502  0.38032312653E+03 -0.49651303593E+03  0.56428791554E+03  0.84237267705E+03  0.00000000000E+00 0. -1.
</event>
<event>
 7    1  0.5696597E-006  0.1064746E+04  0.7818608E-02  0.9053169E-01
          2   -1    0    0  502    0  0.00000000000E+00  0.00000000000E+00  0.66863665593E+03  0.66863665593E+03  0.00000000000E+00 0.  1.
          4   -1    0    0  501    0 -0.00000000000E+00 -0.00000000000E+00 -0.14426231047E+04  0.14426231047E+04  0.00000000000E+00 0.  1.
    9000010    2    1    2  502    0 -0.25612904229E+03 -0.72424720667E+01 -0.10448631957E+04  0.14907116628E+04  0.10319048523E+04 0.  0.
        -13    1    3    3    0    0  0.19952513993E+03  0.36539922917E+03 -0.20222971215E+03  0.46284311142E+03  0.10566000000E+00 0.  1.
         13    1    1    2    0    0  0.25774951257E+03  0.72750370830E+02 -0.67246971361E+02  0.27613329029E+03  0.10566000000E+00 0. -1.
          2    1    1    2  501    0 -0.16204702853E+01 -0.65507898764E+02  0.33812371834E+03  0.34441480751E+03  0.00000000000E+00 0.  1.
          4    1    3    3  502    0 -0.45565418222E+03 -0.37264170124E+03 -0.84263348358E+03  0.10278685514E+04  0.00000000000E+00 0.  1.
</event>
<event>
 7    1  0.5696597E-006  0.1028844E+04  0.7818608E-02  0.9295565E-01
          4   -1    0    0  501    0 -0.00000000000E+00  0.00000000000E+00  0.11101059186E+04  0.11101059186E+04  0.00000000000E+00 0.  1.
          2   -1    0    0  502    0  0.00000000000E+00 -0.00000000000E+00 -0.67370199739E+03  0.67370199739E+03  0.00000000000E+00 0. -1.
    9000010    2    1    2  502    0 -0.64070706207E+02  0.62466189318E+02  0.61448729584E+03  0.11963799118E+04  0.10226060710E+04 0.  0.
        -13    1    3    3    0    0 -0.42016960249E+03  0.32595281664E+03  0.14563964037E+03  0.55136072543E+03  0.10566000000E+00 0.  1.
         13    1    1    2    0    0  0.63346047754E+02 -0.95423090980E+02  0.18784965533E+03  0.22001316376E+03  0.10566000000E+00 0. -1.
          2    1    1    2  501    0  0.72465845291E+00  0.32956901661E+02 -0.36593303001E+03  0.36741484041E+03  0.00000000000E+00 0. -1.
          4    1    3    3  502    0  0.35609889628E+03 -0.26348662733E+03  0.46884765547E+03  0.64501918635E+03  0.00000000000E+00 0.  1.
</event>
<event>
 7    1  0.5696597E-006  0.1028435E+04  0.7818608E-02  0.9217244E-01
          2   -1    0    0  501    0  0.00000000000E+00  0.00000000000E+00  0.16476647244E+04  0.16476647244E+04  0.00000000000E+00 0. -1.
         -4   -1    0    0    0  501 -0.00000000000E+00 -0.00000000000E+00 -0.38627881188E+03  0.38627881188E+03  0.00000000000E+00 0. -1.
   -9000010    2    1    2    0  502 -0.11169861188E+03 -0.38314232784E+02  0.10103124274E+04  0.14312746437E+04  0.10069117859E+04 0.  0.
        -13    1    1    2    0    0 -0.12544656483E+02 -0.15232018454E+03 -0.10119371240E+03  0.18330026082E+03  0.10566000000E+00 0.  1.
         13    1    3    3    0    0  0.26806888018E+03 -0.27861353703E+03  0.75345747503E+02  0.39390788310E+03  0.10566000000E+00 0. -1.
          2    1    1    2  502    0  0.12424326836E+03  0.19063441732E+03  0.35226719758E+03  0.41936863175E+03  0.00000000000E+00 0. -1.
         -4    1    3    3    0  502 -0.37976749206E+03  0.24029930424E+03  0.93496667986E+03  0.10373667606E+04  0.00000000000E+00 0. -1.
</event>
<event>
 7    1  0.5696597E-006  0.1049161E+04  0.7818608E-02  0.8992005E-01
          2   -1    0    0  502    0  0.00000000000E+00  0.00000000000E+00  0.12469125481E+04  0.12469125481E+04  0.00000000000E+00 0.  1.
          4   -1    0    0  501    0 -0.00000000000E+00 -0.00000000000E+00 -0.13925840448E+04  0.13925840448E+04  0.00000000000E+00 0.  1.
    9000010    2    1    2  502    0 -0.27498312543E+02 -0.36291353428E+03 -0.50614226940E+02  0.10548317322E+04  0.98875972446E+03 0.  0.
        -13    1    3    3    0    0  0.20939873653E+03 -0.32752635813E+03 -0.44656703260E+03  0.59206711773E+03  0.10566000000E+00 0.  1.
         13    1    1    2    0    0  0.38484404281E+02  0.34778640375E+03 -0.80328690767E+03  0.87618850666E+03  0.10566000000E+00 0. -1.
          2    1    1    2  501    0 -0.10986091738E+02  0.15127130529E+02  0.70822963786E+03  0.70847635404E+03  0.00000000000E+00 0.  1.
          4    1    3    3  502    0 -0.23689704907E+03 -0.35387176153E+02  0.39595280566E+03  0.46276461447E+03  0.00000000000E+00 0.  1.
</event>
<event>
 7    1  0.5696597E-006  0.1029667E+04  0.7818608E-02  0.9181131E-01
          2   -1    0    0  502    0  0.00000000000E+00  0.00000000000E+00  0.26855661978E+04  0.26855661978E+04  0.00000000000E+00 0.  1.
          4   -1    0    0  501    0 -0.00000000000E+00 -0.00000000000E+00 -0.21589117873E+03  0.21589117873E+03  0.00000000000E+00 0.  1.
    9000010    2    1    2  502    0 -0.11687825564E+03  0.13506093882E+03  0.13939475265E+04  0.17333563730E+04  0.10146588714E+04 0.  0.
        -13    1    3    3    0    0 -0.39290077197E+03  0.30633765860E+03  0.27680538968E+03  0.56994299067E+03  0.10566000000E+00 0.  1.
         13    1    1    2    0    0  0.13471780389E+03 -0.11173794216E+03  0.12067032834E+03  0.21259255327E+03  0.10566000000E+00 0. -1.
          2    1    1    2  501    0 -0.17839548243E+02 -0.23322996663E+02  0.95505716424E+03  0.95550845032E+03  0.00000000000E+00 0.  1.
          4    1    3    3  502    0  0.27602251632E+03 -0.17127671978E+03  0.11171421368E+04  0.11634133823E+04  0.00000000000E+00 0.  1.
</event>
<event>
 7    1  0.5696597E-006  0.1119622E+04  0.7818608E-02  0.8856168E-01
         -4   -1    0    0    0  501 -0.00000000000E+00  0.00000000000E+00  0.38438703911E+04  0.38438703911E+04  0.00000000000E+00 0. -1.
          1   -1    0    0  501    0  0.00000000000E+00 -0.00000000000E+00 -0.68125540718E+03  0.68125540718E+03  0.00000000000E+00 0.  1.
   -9000010    2    1    2    0  502  0.13200465358E+03 -0.56296345282E+03  0.33859832291E+04  0.35773925349E+04  0.99925064104E+03 0.  0.
        -13    1    1    2    0    0 -0.89640905805E+01  0.41459928245E+03  0.21626759984E+03  0.46770140670E+03  0.10566000000E+00 0.  1.
         13    1    3    3    0    0  0.33709239326E+03  0.82742763533E+02  0.47317422021E+03  0.58683174790E+03  0.10566000000E+00 0. -1.
          1    1    1    2  502    0 -0.12304056300E+03  0.14836417037E+03 -0.43963584500E+03  0.48003185665E+03  0.00000000000E+00 0.  1.
         -4    1    3    3    0  502 -0.20508773967E+03 -0.64570621635E+03  0.29128090089E+04  0.29905607870E+04  0.00000000000E+00 0. -1.
</event>
<event>
 7    1  0.5696597E-006  0.1045659E+04  0.7818608E-02  0.8988150E-01
         -4   -1    0    0    0  501 -0.00000000000E+00  0.00000000000E+00  0.15068595422E+04  0.15068595422E+04  0.00000000000E+00 0. -1.
          1   -1    0    0  501    0  0.00000000000E+00 -0.00000000000E+00 -0.12801141334E+04  0.12801141334E+04  0.00000000000E+00 0. -1.
   -9000010    2    1    2    0  502  0.63068500835E+02  0.35801400456E+03  0.82066624370E+03  0.13302148734E+04  0.98174684240E+03 0.  0.
        -13    1    1    2    0    0 -0.49732771445E+02 -0.35551304340E+03  0.35668832972E+03  0.50605281177E+03  0.10566000000E+00 0.  1.
         13    1    3    3    0    0 -0.35710676898E+03  0.28595626987E+03  0.64305878510E+02  0.46198646074E+03  0.10566000000E+00 0. -1.
          1    1    1    2  502    0 -0.13335729390E+02 -0.25009611624E+01 -0.95060916457E+03  0.95070599043E+03  0.00000000000E+00 0. -1.
         -4    1    3    3    0  502  0.42017526982E+03  0.72057734693E+02  0.75636036519E+03  0.86822841265E+03  0.00000000000E+00 0. -1.
</event>
<event>
 7    1  0.5696597E-006  0.1100105E+04  0.7818608E-02  0.8872206E-01
          4   -1    0    0  501    0 -0.00000000000E+00  0.00000000000E+00  0.20091559711E+04  0.20091559711E+04  0.00000000000E+00 0.  1.
          2   -1    0    0  502    0  0.00000000000E+00 -0.00000000000E+00 -0.10483943127E+04  0.10483943127E+04  0.00000000000E+00 0.  1.
    9000010    2    1    2  502    0 -0.18741719156E+03  0.62094605127E+01  0.71610964441E+03  0.12289366191E+04  0.98097320546E+03 0.  0.
        -13    1    3    3    0    0  0.21927794383E+03  0.31447957880E+03  0.45259918040E+02  0.38604234674E+03  0.10566000000E+00 0.  1.
         13    1    1    2    0    0  0.44988111144E+03  0.70214857187E+03  0.56582742832E+03  0.10077531053E+04  0.10566000000E+00 0. -1.
          2    1    1    2  501    0 -0.26246391988E+03 -0.70835803238E+03 -0.32117541432E+03  0.82086055944E+03  0.00000000000E+00 0.  1.
          4    1    3    3  502    0 -0.40669513540E+03 -0.30827011829E+03  0.67084972637E+03  0.84289427234E+03  0.00000000000E+00 0.  1.
</event>
<event>
 7    1  0.5696597E-006  0.1002544E+04  0.7818608E-02  0.9662544E-01
         -4   -1    0    0    0  501 -0.00000000000E+00  0.00000000000E+00  0.53272926084E+03  0.53272926084E+03  0.00000000000E+00 0. -1.
          4   -1    0    0  501    0  0.00000000000E+00 -0.00000000000E+00 -0.90424631515E+03  0.90424631515E+03  0.00000000000E+00 0. -1.
   -9000010    2    1    2    0  502  0.12976655871E+02 -0.23018550837E+02 -0.83417589966E+02  0.10052971068E+04  0.10014816680E+04 0.  0.
        -13    1    1    2    0    0 -0.23228318782E+02 -0.22058694350E+02  0.66640049567E+02  0.73939489856E+02  0.10566000000E+00 0.  1.
         13    1    3    3    0    0 -0.28056886106E+03  0.34096659171E+03 -0.25178567783E+03  0.50830418175E+03  0.10566000000E+00 0. -1.
          4    1    1    2  502    0  0.10251662910E+02  0.45077245187E+02 -0.35473951391E+03  0.35773897936E+03  0.00000000000E+00 0. -1.
         -4    1    3    3    0  502  0.29354551693E+03 -0.36398514255E+03  0.16836808786E+03  0.49699292502E+03  0.00000000000E+00 0. -1.
</event>
<event>
 7    1  0.5696597E-006  0.9842593E+03  0.7818608E-02  0.9348766E-01
          4   -1    0    0  501    0 -0.00000000000E+00  0.00000000000E+00  0.16541698204E+04  0.16541698204E+04  0.00000000000E+00 0.  1.
          2   -1    0    0  502    0  0.00000000000E+00 -0.00000000000E+00 -0.34581061392E+03  0.34581061392E+03  0.00000000000E+00 0.  1.
    9000010    2    1    2  502    0  0.37493447505E+02  0.99034891144E+02  0.14399319750E+04  0.17441929336E+04  0.97856590411E+03 0.  0.
        -13    1    3    3    0    0 -0.29597343152E+03 -0.30443376423E+03  0.41702527914E+03  0.59513887755E+03  0.10566000000E+00 0.  1.
         13    1    1    2    0    0 -0.49598903592E+02 -0.93511370766E+02  0.16490236821E+02  0.10712780580E+03  0.10566000000E+00 0. -1.
          2    1    1    2  501    0  0.12105456087E+02 -0.55235203783E+01 -0.14806300534E+03  0.14865969492E+03  0.00000000000E+00 0.  1.
          4    1    3    3  502    0  0.33346687902E+03  0.40346865537E+03  0.10229066958E+04  0.11490540560E+04  0.00000000000E+00 0.  1.
</event>
<event>
 7    1  0.5696597E-006  0.1015810E+04  0.7818608E-02  0.9344401E-01
          4   -1    0    0  501    0 -0.00000000000E+00  0.00000000000E+00  0.25894559123E+04  0.25894559123E+04  0.00000000000E+00 0.  1.
          2   -1    0    0  502    0  0.00000000000E+00 -0.00000000000E+00 -0.79572743856E+03  0.79572743856E+03  0.00000000000E+00 0.  1.
    9000010    2    1    2  502    0  0.29157819656E+02 -0.10940045975E+03  0.23953327263E+04  0.26024512682E+04  0.10110959869E+04 0.  0.
        -13    1    3    3    0    0 -0.48491020648E+03 -0.37444245335E+02  0.96058709451E+03  0.10766928797E+04  0.10566000000E+00 0.  1.
         13    1    1    2    0    0 -0.21678946670E+02  0.91573225818E+02  0.65940303262E+02  0.11490764628E+03  0.10566000000E+00 0. -1.
          2    1    1    2  501    0 -0.74788729859E+01  0.17827233933E+02 -0.66754455580E+03  0.66782443635E+03  0.00000000000E+00 0.  1.
          4    1    3    3  502    0  0.51406802614E+03 -0.71956214416E+02  0.14347456318E+04  0.15257583885E+04  0.00000000000E+00 0.  1.
</event>
<event>
 7    1  0.5696597E-006  0.1233642E+04  0.7818608E-02  0.8707904E-01
          2   -1    0    0  502    0  0.00000000000E+00  0.00000000000E+00  0.13755673734E+04  0.13755673734E+04  0.00000000000E+00 0. -1.
          4   -1    0    0  501    0 -0.00000000000E+00 -0.00000000000E+00 -0.14186698013E+04  0.14186698013E+04  0.00000000000E+00 0.  1.
    9000010    2    1    2  502    0 -0.42264581642E+03 -0.47257024347E+03 -0.56246876487E+03  0.13181481984E+04  0.10095501178E+04 0.  0.
        -13    1    3    3    0    0 -0.53848633439E+03 -0.28556907003E+02 -0.65666815954E+03  0.84970354370E+03  0.10566000000E+00 0.  1.
         13    1    1    2    0    0  0.61513699052E+03  0.47808094905E+03 -0.13790853186E+03  0.79118498803E+03  0.10566000000E+00 0. -1.
          2    1    1    2  501    0 -0.19249117410E+03 -0.55107055801E+01  0.65727486882E+03  0.68490398828E+03  0.00000000000E+00 0. -1.
          4    1    3    3  502    0  0.11584051796E+03 -0.44401333647E+03  0.94199394663E+02  0.46844465470E+03  0.00000000000E+00 0.  1.
</event>
<event>
 7    1  0.5696597E-006  0.1083323E+04  0.7818608E-02  0.8886819E-01
          4   -1    0    0  501    0 -0.00000000000E+00  0.00000000000E+00  0.15683097272E+04  0.15683097272E+04  0.00000000000E+00 0.  1.
          2   -1    0    0  502    0  0.00000000000E+00 -0.00000000000E+00 -0.11263974924E+04  0.11263974924E+04  0.00000000000E+00 0. -1.
    9000010    2    1    2  502    0 -0.23072457934E+03 -0.46488726157E+03  0.69975174601E+03  0.13007055368E+04  0.96583041468E+03 0.  0.
        -13    1    3    3    0    0 -0.69033322762E+02 -0.55913274232E+03  0.87737601257E+03  0.10426810163E+04  0.10566000000E+00 0.  1.
         13    1    1    2    0    0  0.24649604528E+03  0.41353294856E+03  0.46490808131E+03  0.66926028951E+03  0.10566000000E+00 0. -1.
          2    1    1    2  501    0 -0.15771465943E+02  0.51354313016E+02 -0.72274759254E+03  0.72474139327E+03  0.00000000000E+00 0. -1.
          4    1    3    3  502    0 -0.16169125658E+03  0.94245480746E+02 -0.17762426656E+03  0.25802452048E+03  0.00000000000E+00 0.  1.
</event>
<event>
 7    1  0.5696597E-006  0.1075793E+04  0.7818608E-02  0.8914111E-01
          4   -1    0    0  501    0 -0.00000000000E+00  0.00000000000E+00  0.16459188896E+04  0.16459188896E+04  0.00000000000E+00 0.  1.
          2   -1    0    0  502    0  0.00000000000E+00 -0.00000000000E+00 -0.10825077489E+04  0.10825077489E+04  0.00000000000E+00 0.  1.
    9000010    2    1    2  502    0  0.54844631230E+03 -0.21944872419E+03  0.40051056962E+03  0.12109546190E+04  0.97828997384E+03 0.  0.
        -13    1    3    3    0    0  0.52693993111E+03 -0.56478990810E+03  0.15801570353E+03  0.78843027911E+03  0.10566000000E+00 0.  1.
         13    1    1    2    0    0 -0.38898702897E+03  0.17874494821E+03  0.77405560575E+03  0.88454663934E+03  0.10566000000E+00 0. -1.
          2    1    1    2  501    0 -0.15945928333E+03  0.40703775987E+02 -0.61115503463E+03  0.63292538010E+03  0.00000000000E+00 0.  1.
          4    1    3    3  502    0  0.21506381196E+02  0.34534118391E+03  0.24249486609E+03  0.42252433991E+03  0.00000000000E+00 0.  1.
</event>
<event>
 7    1  0.5696597E-006  0.1033590E+04  0.7818608E-02  0.9086361E-01
         -4   -1    0    0    0  501 -0.00000000000E+00  0.00000000000E+00  0.72697514073E+03  0.72697514073E+03  0.00000000000E+00 0. -1.
          1   -1    0    0  501    0  0.00000000000E+00 -0.00000000000E+00 -0.11820099259E+04  0.11820099259E+04  0.00000000000E+00 0. -1.
   -9000010    2    1    2    0  502  0.23108974692E+03  0.19941885999E+02 -0.10125384997E+03  0.10340197827E+04  0.10025689098E+04 0.  0.
        -13    1    1    2    0    0 -0.24989667360E+03 -0.42659874493E+02  0.19844950276E+03  0.32194786640E+03  0.10566000000E+00 0.  1.
         13    1    3    3    0    0 -0.62646854750E+01  0.47641265256E+03  0.90466804090E+02  0.48496650978E+03  0.10566000000E+00 0. -1.
          1    1    1    2  502    0  0.18806926677E+02  0.22717988494E+02 -0.55223043793E+03  0.55301741751E+03  0.00000000000E+00 0. -1.
         -4    1    3    3    0  502  0.23735443239E+03 -0.45647076656E+03 -0.19172065406E+03  0.54905327291E+03  0.00000000000E+00 0. -1.
</event>
<event>
 7    1  0.5696597E-006  0.1018235E+04  0.7818608E-02  0.9136396E-01
          2   -1    0    0  502    0  0.00000000000E+00  0.00000000000E+00  0.75088978184E+03  0.75088978184E+03  0.00000000000E+00 0.  1.
          4   -1    0    0  501    0 -0.00000000000E+00 -0.00000000000E+00 -0.94563915430E+03  0.94563915430E+03  0.00000000000E+00 0.  1.
    9000010    2    1    2  502    0  0.13249886328E+03 -0.14520659419E+03 -0.13291664663E+03  0.10230183653E+04  0.99511749914E+03 0.  0.
        -13    1    3    3    0    0 -0.28860816732E+03  0.23087029123E+03 -0.25027723182E+03  0.44635688585E+03  0.10566000000E+00 0.  1.
         13    1    1    2    0    0 -0.11517055823E+03  0.18432388737E+03 -0.33373137241E+03  0.39826648495E+03  0.10566000000E+00 0. -1.
          2    1    1    2  501    0 -0.17328305042E+02 -0.39117293182E+02  0.27189864659E+03  0.27524408586E+03  0.00000000000E+00 0.  1.
          4    1    3    3  502    0  0.42110703059E+03 -0.37607688542E+03  0.11736058519E+03  0.57666147948E+03  0.00000000000E+00 0.  1.
</event>
<event>
 7    1  0.5696597E-006  0.1330479E+04  0.7818608E-02  0.8606989E-01
          4   -1    0    0  501    0 -0.00000000000E+00  0.00000000000E+00  0.37650604247E+04  0.37650604247E+04  0.00000000000E+00 0.  1.
          2   -1    0    0  502    0  0.00000000000E+00 -0.00000000000E+00 -0.11803729757E+04  0.11803729757E+04  0.00000000000E+00 0. -1.
    9000010    2    1    2  502    0  0.54784039673E+03 -0.70305017799E+03  0.11982513526E+04  0.17967012352E+04  0.99895964455E+03 0.  0.
        -13    1    3    3    0    0  0.41864010814E+03 -0.43641917378E+03  0.13385914890E+04  0.14688595647E+04  0.10566000000E+00 0.  1.
         13    1    1    2    0    0 -0.53580140723E+03  0.69208045395E+03  0.21830402256E+04  0.23519615516E+04  0.10566000000E+00 0. -1.
          2    1    1    2  501    0 -0.12038989501E+02  0.10969724038E+02 -0.79660412917E+03  0.79677061362E+03  0.00000000000E+00 0. -1.
          4    1    3    3  502    0  0.12920028859E+03 -0.26663100420E+03 -0.14034013641E+03  0.32784167042E+03  0.00000000000E+00 0.  1.
</event>
<event>
 7    1  0.5696597E-006  0.1273346E+04  0.7818608E-02  0.8671069E-01
          2   -1    0    0  501    0  0.00000000000E+00  0.00000000000E+00  0.25291805320E+04  0.25291805320E+04  0.00000000000E+00 0.  1.
         -4   -1    0    0    0  501 -0.00000000000E+00 -0.00000000000E+00 -0.12147427558E+04  0.12147427558E+04  0.00000000000E+00 0. -1.
   -9000010    2    1    2    0  502  0.72668677570E+03 -0.16338937183E+03 -0.52202011155E+03  0.13698098686E+04  0.10242579375E+04 0.  0.
        -13    1    1    2    0    0 -0.75109348845E+03  0.17759937375E+03  0.28552924238E+03  0.82292765501E+03  0.10566000000E+00 0.  1.
         13    1    3    3    0    0  0.30604114717E+03 -0.16048210538E+02 -0.79164757605E+03  0.84889612124E+03  0.10566000000E+00 0. -1.
          2    1    1    2  502    0  0.24406712756E+02 -0.14210001930E+02  0.15509286454E+04  0.15511857641E+04  0.00000000000E+00 0.  1.
         -4    1    3    3    0  502  0.42064562853E+03 -0.14734116129E+03  0.26962746450E+03  0.52091374739E+03  0.00000000000E+00 0. -1.
</event>
<event>
 7    1  0.5696597E-006  0.1020658E+04  0.7818608E-02  0.9105642E-01
          2   -1    0    0  502    0  0.00000000000E+00  0.00000000000E+00  0.25021527243E+04  0.25021527243E+04  0.00000000000E+00 0.  1.
          4   -1    0    0  501    0 -0.00000000000E+00 -0.00000000000E+00 -0.77601832615E+03  0.77601832615E+03  0.00000000000E+00 0.  1.
    9000010    2    1    2  502    0 -0.22519886870E+03  0.16660630794E+02  0.34793303549E+03  0.10748588919E+04  0.99160079326E+03 0.  0.
        -13    1    3    3    0    0 -0.36261598481E+03  0.38734664490E+03  0.41533346994E+03  0.67381724390E+03  0.10566000000E+00 0.  1.
         13    1    1    2    0    0  0.19211288133E+03 -0.15127036204E+03 -0.37334353892E+03  0.44629081419E+03  0.10566000000E+00 0. -1.
          2    1    1    2  501    0  0.33085987366E+02  0.13460973125E+03  0.17515449016E+04  0.17570213444E+04  0.00000000000E+00 0.  1.
          4    1    3    3  502    0  0.13741711612E+03 -0.37068601410E+03 -0.67400434453E+02  0.40104164799E+03  0.00000000000E+00 0.  1.
</event>
<event>
 7    1  0.5696597E-006  0.1011724E+04  0.7818608E-02  0.9086281E-01
         -4   -1    0    0    0  501 -0.00000000000E+00  0.00000000000E+00  0.30590070254E+04  0.30590070254E+04  0.00000000000E+00 0. -1.
          1   -1    0    0  501    0  0.00000000000E+00 -0.00000000000E+00 -0.63060481403E+03  0.63060481403E+03  0.00000000000E+00 0. -1.
   -9000010    2    1    2    0  502 -0.20545676416E+03 -0.12733120993E+03  0.17079213644E+04  0.19817037796E+04  0.97556586879E+03 0.  0.
        -13    1    1    2    0    0  0.17777867794E+03  0.20603679440E+03  0.11952632691E+04  0.12258510157E+04  0.10566000000E+00 0.  1.
         13    1    3    3    0    0 -0.57271888908E+03  0.76290399902E+02  0.86893225405E+03  0.10434895420E+04  0.10566000000E+00 0. -1.
          1    1    1    2  502    0  0.27678086223E+02 -0.78705584479E+02 -0.47478242209E+03  0.48205704415E+03  0.00000000000E+00 0. -1.
         -4    1    3    3    0  502  0.36726212493E+03 -0.20362160983E+03  0.83898911032E+03  0.93821423760E+03  0.00000000000E+00 0. -1.
</event>
<event>
 7    1  0.5696597E-006  0.1461581E+04  0.7818608E-02  0.8500957E-01
          2   -1    0    0  502    0  0.00000000000E+00  0.00000000000E+00  0.12681978280E+04  0.12681978280E+04  0.00000000000E+00 0. -1.
          4   -1    0    0  501    0 -0.00000000000E+00 -0.00000000000E+00 -0.13794343304E+04  0.13794343304E+04  0.00000000000E+00 0.  1.
    9000010    2    1    2  502    0  0.93608185436E+03  0.52122567636E+03 -0.25431357155E+03  0.14873589606E+04  0.99981790399E+03 0.  0.
        -13    1    3    3    0    0  0.11204489828E+04  0.26860480802E+03 -0.21615932461E+03  0.11722966053E+04  0.10566000000E+00 0.  1.
         13    1    1    2    0    0 -0.93336029884E+03 -0.50531680825E+03  0.46533408254E+02  0.10623897088E+04  0.10566000000E+00 0. -1.
          2    1    1    2  501    0 -0.27215555187E+01 -0.15908868109E+02  0.96543660905E+02  0.97883488954E+02  0.00000000000E+00 0. -1.
          4    1    3    3  502    0 -0.18436712844E+03  0.25262086834E+03 -0.38154246946E+02  0.31506235530E+03  0.00000000000E+00 0.  1.
</event>
<event>
 7    1  0.5696597E-006  0.1226205E+04  0.7818608E-02  0.8711545E-01
         -4   -1    0    0    0  501 -0.00000000000E+00  0.00000000000E+00  0.30850542064E+04  0.30850542064E+04  0.00000000000E+00 0. -1.
          2   -1    0    0  501    0  0.00000000000E+00 -0.00000000000E+00 -0.44440337208E+03  0.44440337208E+03  0.00000000000E+00 0.  1.
   -9000010    2    1    2    0  502 -0.41748784284E+03 -0.58337921635E+03  0.18449884818E+04  0.22174486365E+04  0.99923398076E+03 0.  0.
        -13    1    1    2    0    0  0.38431600148E+03  0.59313428104E+03  0.93295320346E+03  0.11704310126E+04  0.10566000000E+00 0.  1.
         13    1    3    3    0    0 -0.60588942437E+03 -0.34607064783E+03  0.17739304619E+04  0.19062256380E+04  0.10566000000E+00 0. -1.
          2    1    1    2  502    0  0.33171841362E+02 -0.97550646934E+01 -0.13729085092E+03  0.14157792940E+03  0.00000000000E+00 0.  1.
         -4    1    3    3    0  502  0.18840158152E+03 -0.23730856851E+03  0.71058019885E+02  0.31122299851E+03  0.00000000000E+00 0. -1.
</event>
<event>
 7    1  0.5696597E-006  0.9935582E+03  0.7818608E-02  0.9187742E-01
          2   -1    0    0  501    0  0.00000000000E+00  0.00000000000E+00  0.62948485232E+03  0.62948485232E+03  0.00000000000E+00 0. -1.
         -4   -1    0    0    0  501 -0.00000000000E+00 -0.00000000000E+00 -0.20325248683E+04  0.20325248683E+04  0.00000000000E+00 0. -1.
   -9000010    2    1    2    0  502  0.87120705094E+02  0.24508524640E+03 -0.13624651356E+04  0.16949018096E+04  0.97402469340E+03 0.  0.
        -13    1    1    2    0    0  0.92506326911E+02 -0.16597587129E+03 -0.46345650561E+03  0.50089655033E+03  0.10566000000E+00 0.  1.
         13    1    3    3    0    0 -0.28734618747E+03  0.45730387584E+03 -0.52450255509E+03  0.75285962023E+03  0.10566000000E+00 0. -1.
          2    1    1    2  502    0 -0.17962703201E+03 -0.79109375114E+02  0.42288162522E+03  0.46621136066E+03  0.00000000000E+00 0. -1.
         -4    1    3    3    0  502  0.37446689256E+03 -0.21221862944E+03 -0.83796258048E+03  0.94204218939E+03  0.00000000000E+00 0. -1.
</event>
<event>
 7    1  0.5696597E-006  0.1208322E+04  0.7818608E-02  0.9063193E-01
          2   -1    0    0  502    0  0.00000000000E+00  0.00000000000E+00  0.10908951514E+04  0.10908951514E+04  0.00000000000E+00 0.  1.
          4   -1    0    0  501    0 -0.00000000000E+00 -0.00000000000E+00 -0.15094625876E+04  0.15094625876E+04  0.00000000000E+00 0.  1.
    9000010    2    1    2  502    0 -0.16092662065E+03  0.20245105759E+03 -0.81715101342E+03  0.14264189667E+04  0.11401980012E+04 0.  0.
        -13    1    3    3    0    0 -0.38781759509E+03  0.26956434559E+03 -0.10140209923E+04  0.11186179006E+04  0.10566000000E+00 0.  1.
         13    1    1    2    0    0  0.18901617027E+01  0.17248528518E+03 -0.31108542367E+03  0.35570900790E+03  0.10566000000E+00 0. -1.
          2    1    1    2  501    0  0.15903645895E+03 -0.37493634277E+03  0.70966900090E+03  0.81822976433E+03  0.00000000000E+00 0.  1.
          4    1    3    3  502    0  0.22689097444E+03 -0.67113287998E+02  0.19686997890E+03  0.30780106611E+03  0.00000000000E+00 0.  1.
</event>
<event>
 7    1  0.5696597E-006  0.1049102E+04  0.7818608E-02  0.9015007E-01
         -4   -1    0    0    0  501  0.00000000000E+00  0.00000000000E+00  0.30891384597E+03  0.30891384597E+03  0.00000000000E+00 0. -1.
         -4   -1    0    0    0  502 -0.00000000000E+00 -0.00000000000E+00 -0.30883035751E+04  0.30883035751E+04  0.00000000000E+00 0. -1.
   -9000010    2    1    2    0  501 -0.13045016511E+03  0.40156451558E+03 -0.10911549588E+04  0.15385936566E+04  0.99918966684E+03 0.  0.
        -13    1    1    2    0    0 -0.84425544656E+02 -0.30556643712E+03 -0.15574384120E+04  0.15893750150E+04  0.10566000000E+00 0.  1.
         13    1    3    3    0    0 -0.69732552163E+02 -0.10725941684E+03  0.14920883416E+03  0.19654642883E+03  0.10566000000E+00 0. -1.
         -4    1    1    2    0  502  0.21487570977E+03 -0.95998078459E+02 -0.13079635835E+03  0.26924874944E+03  0.00000000000E+00 0. -1.
         -4    1    3    3    0  501 -0.60717612947E+02  0.50882393242E+03 -0.12403637930E+04  0.13420472278E+04  0.00000000000E+00 0. -1.
</event>
<event>
 7    1  0.5696597E-006  0.9982627E+03  0.7818608E-02  0.9458618E-01
          1   -1    0    0  501    0  0.00000000000E+00  0.00000000000E+00  0.17324193997E+03  0.17324193997E+03  0.00000000000E+00 0. -1.
         -4   -1    0    0    0  501 -0.00000000000E+00 -0.00000000000E+00 -0.24133800882E+04  0.24133800882E+04  0.00000000000E+00 0. -1.
   -9000010    2    1    2    0  502  0.98853921115E+02 -0.82235536493E+02 -0.20524378356E+04  0.22846059867E+04  0.99518272905E+03 0.  0.
        -13    1    1    2    0    0 -0.23353810686E+02  0.63262155863E+02 -0.21038677106E+03  0.22093009175E+03  0.10566000000E+00 0.  1.
         13    1    3    3    0    0  0.24958975573E+03 -0.28077190823E+03 -0.22011778762E+03  0.43540758171E+03  0.10566000000E+00 0. -1.
          1    1    1    2  502    0 -0.75500110429E+02  0.18973380630E+02  0.22686458438E+02  0.81085949731E+02  0.00000000000E+00 0. -1.
         -4    1    3    3    0  502 -0.15073583462E+03  0.19853637174E+03 -0.18323200480E+04  0.18491984050E+04  0.00000000000E+00 0. -1.
</event>
<event>
 7    1  0.5696597E-006  0.1215785E+04  0.7818608E-02  0.8997343E-01
          2   -1    0    0  502    0  0.00000000000E+00  0.00000000000E+00  0.13606728295E+04  0.13606728295E+04  0.00000000000E+00 0.  1.
          4   -1    0    0  501    0 -0.00000000000E+00 -0.00000000000E+00 -0.10198128596E+04  0.10198128596E+04  0.00000000000E+00 0.  1.
    9000010    2    1    2  502    0 -0.21510193748E+03  0.17881652854E+03 -0.46261852136E+03  0.13121398852E+04  0.11955964986E+04 0.  0.
        -13    1    3    3    0    0  0.32790341064E+03  0.23214719630E+02 -0.64050247003E+03  0.71993263241E+03  0.10566000000E+00 0.  1.
         13    1    1    2    0    0  0.51820506647E+02 -0.21082600462E+03 -0.29334179187E+02  0.21907412984E+03  0.10566000000E+00 0. -1.
          2    1    1    2  501    0  0.16328143084E+03  0.32009476073E+02  0.83281267046E+03  0.84927167402E+03  0.00000000000E+00 0.  1.
          4    1    3    3  502    0 -0.54300534813E+03  0.15560180891E+03  0.17788394868E+03  0.59220725277E+03  0.00000000000E+00 0.  1.
</event>
<event>
 7    1  0.5696597E-006  0.1256007E+04  0.7818608E-02  0.8683767E-01
          4   -1    0    0  501    0 -0.00000000000E+00  0.00000000000E+00  0.25878394246E+04  0.25878394246E+04  0.00000000000E+00 0.  1.
          2   -1    0    0  502    0  0.00000000000E+00 -0.00000000000E+00 -0.38256226537E+04  0.38256226537E+04  0.00000000000E+00 0. -1.
    9000010    2    1    2  502    0  0.20202637151E+03 -0.63660992028E+03 -0.20096852946E+03  0.12278787696E+04  0.10105498887E+04 0.  0.
        -13    1    3    3    0    0 -0.95704663492E+02  0.15575879075E+03 -0.32450178395E+03  0.37245349033E+03  0.10566000000E+00 0.  1.
         13    1    1    2    0    0 -0.38531360539E+03  0.64919419656E+03  0.20028334487E+04  0.21403881689E+04  0.10566000000E+00 0. -1.
          2    1    1    2  501    0  0.18328723388E+03 -0.12584276272E+02 -0.30396481483E+04  0.30451951398E+04  0.00000000000E+00 0. -1.
          4    1    3    3  502    0  0.29773103500E+03 -0.79236871104E+03  0.12353325449E+03  0.85542527926E+03  0.00000000000E+00 0.  1.
</event>
<event>
 7    1  0.5696597E-006  0.1067985E+04  0.7818608E-02  0.9005446E-01
          4   -1    0    0  501    0 -0.00000000000E+00  0.00000000000E+00  0.15754601074E+04  0.15754601074E+04  0.00000000000E+00 0.  1.
          2   -1    0    0  502    0  0.00000000000E+00 -0.00000000000E+00 -0.15733813348E+04  0.15733813348E+04  0.00000000000E+00 0. -1.
    9000010    2    1    2  502    0  0.15171208648E+03 -0.26068187103E+03  0.11738851011E+04  0.15844053284E+04  0.10204716650E+04 0.  0.
        -13    1    3    3    0    0  0.43593588583E+03 -0.27570369895E+03  0.17331646466E+03  0.54414265983E+03  0.10566000000E+00 0.  1.
         13    1    1    2    0    0 -0.12227107261E+03  0.30116408858E+03  0.60916412465E+02  0.33069751121E+03  0.10566000000E+00 0. -1.
          2    1    1    2  501    0 -0.29441013871E+02 -0.40482217549E+02 -0.12327227410E+04  0.12337386026E+04  0.00000000000E+00 0. -1.
          4    1    3    3  502    0 -0.28422379935E+03  0.15021827915E+02  0.10005686364E+04  0.10402626686E+04  0.00000000000E+00 0.  1.
</event>
<event>
 7    1  0.5696597E-006  0.9994465E+03  0.7818608E-02  0.9291324E-01
         -4   -1    0    0    0  501 -0.00000000000E+00  0.00000000000E+00  0.65907468994E+03  0.65907468994E+03  0.00000000000E+00 0. -1.
          2   -1    0    0  501    0  0.00000000000E+00 -0.00000000000E+00 -0.12725721816E+04  0.12725721816E+04  0.00000000000E+00 0.  1.
   -9000010    2    1    2    0  502  0.10172935555E+03 -0.35739976979E+02  0.66341887550E+01  0.99741553862E+03  0.99154805051E+03 0.  0.
        -13    1    1    2    0    0 -0.12638316184E+03  0.61309349571E+01  0.13098964755E+03  0.18212246124E+03  0.10566000000E+00 0.  1.
         13    1    3    3    0    0  0.39265986676E+03  0.17237775612E+01  0.36376176078E+03  0.53526383414E+03  0.10566000000E+00 0. -1.
          2    1    1    2  502    0  0.24653806284E+02  0.29609042022E+02 -0.75112132797E+03  0.75210887169E+03  0.00000000000E+00 0.  1.
         -4    1    3    3    0  502 -0.29093051120E+03 -0.37463754540E+02 -0.35712757202E+03  0.46215170448E+03  0.00000000000E+00 0. -1.
</event>
<event>
 7    1  0.5696597E-006  0.1029666E+04  0.7818608E-02  0.9064543E-01
         -4   -1    0    0    0  501 -0.00000000000E+00  0.00000000000E+00  0.36678208019E+03  0.36678208019E+03  0.00000000000E+00 0. -1.
          2   -1    0    0  501    0  0.00000000000E+00 -0.00000000000E+00 -0.12834373106E+04  0.12834373106E+04  0.00000000000E+00 0. -1.
   -9000010    2    1    2    0  502  0.26312351264E+03 -0.13902959928E+03 -0.84224447692E+03  0.13346436272E+04  0.99163231107E+03 0.  0.
        -13    1    1    2    0    0 -0.23812566810E+03  0.13512176589E+03 -0.87044978507E+02  0.28729525731E+03  0.10566000000E+00 0.  1.
         13    1    3    3    0    0 -0.26789037976E+03 -0.28246426041E+03 -0.63900740914E+03  0.74825249353E+03  0.10566000000E+00 0. -1.
          2    1    1    2  502    0 -0.24997844538E+02  0.39078333911E+01  0.12634225027E+02  0.28280506279E+02  0.00000000000E+00 0. -1.
         -4    1    3    3    0  502  0.53101389239E+03  0.14343466112E+03 -0.20323706778E+03  0.58639113367E+03  0.00000000000E+00 0. -1.
</event>
<event>
 7    1  0.5696597E-006  0.1209101E+04  0.7818608E-02  0.8732918E-01
          4   -1    0    0  501    0 -0.00000000000E+00  0.00000000000E+00  0.29091744957E+04  0.29091744957E+04  0.00000000000E+00 0.  1.
          2   -1    0    0  502    0  0.00000000000E+00 -0.00000000000E+00 -0.23804242971E+04  0.23804242971E+04  0.00000000000E+00 0.  1.
    9000010    2    1    2  502    0  0.19291760077E+03 -0.63107204426E+03  0.10393241621E+04  0.15875971030E+04  0.10023974870E+04 0.  0.
        -13    1    3    3    0    0  0.13891171668E+03  0.78482414740E+02  0.83092244627E+03  0.84610169444E+03  0.10566000000E+00 0.  1.
         13    1    1    2    0    0  0.99275152960E+02  0.68740014966E+03  0.15087163589E+04  0.16609032436E+04  0.10566000000E+00 0. -1.
          2    1    1    2  501    0 -0.29219275373E+03 -0.56328105406E+02 -0.20192903224E+04  0.20410984462E+04  0.00000000000E+00 0.  1.
          4    1    3    3  502    0  0.54005884094E+02 -0.70955445900E+03  0.20840171583E+03  0.74149540859E+03  0.00000000000E+00 0.  1.
</event>
<event>
 7    1  0.5696597E-006  0.1140865E+04  0.7818608E-02  0.8732804E-01
          4   -1    0    0  501    0 -0.00000000000E+00  0.00000000000E+00  0.11358726392E+04  0.11358726392E+04  0.00000000000E+00 0.  1.
          2   -1    0    0  502    0  0.00000000000E+00 -0.00000000000E+00 -0.14772016319E+04  0.14772016319E+04  0.00000000000E+00 0. -1.
    9000010    2    1    2  502    0  0.25965108682E+03  0.67077179728E+03 -0.63131432782E+03  0.12526398101E+04  0.80820493837E+03 0.  0.
        -13    1    3    3    0    0  0.43544888381E+03  0.76528098147E+03 -0.54229683466E+03  0.10340969873E+04  0.10566000000E+00 0.  1.
         13    1    1    2    0    0 -0.28908967078E+03 -0.77183599411E+03  0.60881624894E+03  0.10246759857E+04  0.10566000000E+00 0. -1.
          2    1    1    2  501    0  0.29438583964E+02  0.10106419684E+03 -0.31883091385E+03  0.33575847530E+03  0.00000000000E+00 0. -1.
          4    1    3    3  502    0 -0.17579779699E+03 -0.94509184191E+02 -0.89017493155E+02  0.21854282283E+03  0.00000000000E+00 0.  1.
</event>
<event>
 7    1  0.5696597E-006  0.1002746E+04  0.7818608E-02  0.9301124E-01
          2   -1    0    0  501    0  0.00000000000E+00  0.00000000000E+00  0.51145453381E+03  0.51145453381E+03  0.00000000000E+00 0. -1.
         -4   -1    0    0    0  501 -0.00000000000E+00 -0.00000000000E+00 -0.31417754889E+04  0.31417754889E+04  0.00000000000E+00 0. -1.
   -9000010    2    1    2    0  502  0.10234391427E+03 -0.10605491101E+02 -0.28635570420E+04  0.30334357090E+04  0.99558350462E+03 0.  0.
        -13    1    1    2    0    0 -0.12273048916E+03  0.14086261263E+02 -0.17324947693E+03  0.21278296019E+03  0.10566000000E+00 0.  1.
         13    1    3    3    0    0  0.41662929583E+03  0.29016545191E+03 -0.20378572413E+04  0.21001519247E+04  0.10566000000E+00 0. -1.
          2    1    1    2  502    0  0.20386574888E+02 -0.34807701626E+01  0.40648556389E+03  0.40701135347E+03  0.00000000000E+00 0. -1.
         -4    1    3    3    0  502 -0.31428538156E+03 -0.30077094301E+03 -0.82569980070E+03  0.93328378434E+03  0.00000000000E+00 0. -1.
</event>
<event>
 7    1  0.5696597E-006  0.1136904E+04  0.7818608E-02  0.8824625E-01
         -4   -1    0    0    0  501 -0.00000000000E+00  0.00000000000E+00  0.66148742257E+03  0.66148742257E+03  0.00000000000E+00 0. -1.
          2   -1    0    0  501    0  0.00000000000E+00 -0.00000000000E+00 -0.33423082489E+04  0.33423082489E+04  0.00000000000E+00 0. -1.
   -9000010    2    1    2    0  502  0.36159295628E+03  0.65626132584E+03 -0.22736046951E+04  0.25923164099E+04  0.99468470659E+03 0.  0.
        -13    1    1    2    0    0 -0.41346732219E+03 -0.34860965650E+03  0.31421693633E+03  0.62547279187E+03  0.10566000000E+00 0.  1.
         13    1    3    3    0    0  0.58674466736E+03  0.12618613333E+03 -0.15838351529E+04  0.16937313977E+04  0.10566000000E+00 0. -1.
          2    1    1    2  502    0  0.51874365911E+02 -0.30765166934E+03 -0.72143306755E+03  0.78600646972E+03  0.00000000000E+00 0. -1.
         -4    1    3    3    0  502 -0.22515171108E+03  0.53007519251E+03 -0.68976954220E+03  0.89858501215E+03  0.00000000000E+00 0. -1.
</event>
<event>
 7    1  0.5696597E-006  0.1025919E+04  0.7818608E-02  0.9107839E-01
          1   -1    0    0  501    0  0.00000000000E+00  0.00000000000E+00  0.84823649236E+03  0.84823649236E+03  0.00000000000E+00 0.  1.
         -4   -1    0    0    0  501 -0.00000000000E+00 -0.00000000000E+00 -0.34883445808E+04  0.34883445808E+04  0.00000000000E+00 0. -1.
   -9000010    2    1    2    0  502 -0.33699101872E+03 -0.22358051471E+03 -0.27776825807E+04  0.29780261896E+04  0.99477046288E+03 0.  0.
        -13    1    1    2    0    0  0.23598455750E+03 -0.53277358468E+01 -0.56523238876E+03  0.61253959922E+03  0.10566000000E+00 0.  1.
         13    1    3    3    0    0  0.15166910219E+03  0.28682434575E+03 -0.13030536269E+04  0.13428404550E+04  0.10566000000E+00 0. -1.
          1    1    1    2  502    0  0.10100646122E+03  0.22890825056E+03  0.70280688103E+03  0.74601528429E+03  0.00000000000E+00 0.  1.
         -4    1    3    3    0  502 -0.48866012091E+03 -0.51040486046E+03 -0.14746289537E+04  0.16351857346E+04  0.00000000000E+00 0. -1.
</event>
<event>
 7    1  0.5696597E-006  0.1317202E+04  0.7818608E-02  0.8618006E-01
          2   -1    0    0  502    0  0.00000000000E+00  0.00000000000E+00  0.23336088205E+04  0.23336088205E+04  0.00000000000E+00 0. -1.
          4   -1    0    0  501    0 -0.00000000000E+00 -0.00000000000E+00 -0.67384448331E+03  0.67384448331E+03  0.00000000000E+00 0.  1.
    9000010    2    1    2  502    0 -0.78010462136E+03 -0.41440759353E+02  0.98055575416E+03  0.16008606206E+04  0.99548208556E+03 0.  0.
        -13    1    3    3    0    0 -0.67670214205E+03  0.28350044225E+03  0.10212140663E+04  0.12574483966E+04  0.10566000000E+00 0.  1.
         13    1    1    2    0    0  0.89578500635E+03 -0.14081078379E+03  0.27367172229E+03  0.94718249413E+03  0.10566000000E+00 0. -1.
          2    1    1    2  501    0 -0.11568038499E+03  0.18225154314E+03  0.40553686076E+03  0.45941018914E+03  0.00000000000E+00 0. -1.
          4    1    3    3  502    0 -0.10340247932E+03 -0.32494120160E+03 -0.40658312110E+02  0.34341222397E+03  0.00000000000E+00 0.  1.
</event>
<event>
 7    1  0.5696597E-006  0.1348267E+04  0.7818608E-02  0.8629137E-01
          1   -1    0    0  501    0  0.00000000000E+00  0.00000000000E+00  0.18714207887E+04  0.18714207887E+04  0.00000000000E+00 0.  1.
         -4   -1    0    0    0  501 -0.00000000000E+00 -0.00000000000E+00 -0.98288823116E+03  0.98288823116E+03  0.00000000000E+00 0. -1.
   -9000010    2    1    2    0  502 -0.48304165192E+03 -0.52209215964E+03 -0.21414448995E+03  0.13353442062E+04  0.11096741981E+04 0.  0.
        -13    1    1    2    0    0  0.54272753532E+03  0.67162690232E+03  0.80499518723E+03  0.11805308705E+04  0.10566000000E+00 0.  1.
         13    1    3    3    0    0 -0.11965322426E+03  0.34917131531E+03 -0.85249760393E+01  0.36920209627E+03  0.10566000000E+00 0. -1.
          1    1    1    2  502    0 -0.59685883402E+02 -0.14953474268E+03  0.29768186024E+03  0.33843394313E+03  0.00000000000E+00 0.  1.
         -4    1    3    3    0  502 -0.36338842765E+03 -0.87126347495E+03 -0.20561951391E+03  0.96614210996E+03  0.00000000000E+00 0. -1.
</event>
<event>
 7    1  0.5696597E-006  0.1152521E+04  0.7818608E-02  0.8803290E-01
         -4   -1    0    0    0  501 -0.00000000000E+00  0.00000000000E+00  0.50363910765E+03  0.50363910765E+03  0.00000000000E+00 0. -1.
          2   -1    0    0  501    0  0.00000000000E+00 -0.00000000000E+00 -0.17596778592E+04  0.17596778592E+04  0.00000000000E+00 0.  1.
   -9000010    2    1    2    0  502  0.40805840991E+03  0.34938697188E+03 -0.62628489112E+03  0.12940944443E+04  0.99692765226E+03 0.  0.
        -13    1    1    2    0    0 -0.39535310367E+03 -0.46665373820E+03 -0.57392216354E+03  0.83872310623E+03  0.10566000000E+00 0.  1.
         13    1    3    3    0    0 -0.21213790576E+03  0.40080654906E+03 -0.46860816020E+03  0.65210581948E+03  0.10566000000E+00 0. -1.
          2    1    1    2  502    0 -0.12705306244E+02  0.11726676632E+03 -0.55831696874E+02  0.13049941634E+03  0.00000000000E+00 0.  1.
         -4    1    3    3    0  502  0.62019631566E+03 -0.51419577187E+02 -0.15767673091E+03  0.64198862479E+03  0.00000000000E+00 0. -1.
</event>
<event>
 7    1  0.5696597E-006  0.9988538E+03  0.7818608E-02  0.9235380E-01
          1   -1    0    0  501    0  0.00000000000E+00  0.00000000000E+00  0.16286328866E+04  0.16286328866E+04  0.00000000000E+00 0. -1.
         -4   -1    0    0    0  501 -0.00000000000E+00 -0.00000000000E+00 -0.39626931317E+03  0.39626931317E+03  0.00000000000E+00 0. -1.
   -9000010    2    1    2    0  502  0.67676823300E+02  0.22832873660E+03  0.76361946570E+03  0.12701722021E+04  0.98666537903E+03 0.  0.
        -13    1    1    2    0    0 -0.91743199909E+02 -0.12208452196E+03 -0.95467212078E+02  0.18009843136E+03  0.10566000000E+00 0.  1.
         13    1    3    3    0    0  0.44049503298E+03 -0.84060109141E+02  0.61585684758E+03  0.76182783088E+03  0.10566000000E+00 0. -1.
          1    1    1    2  502    0  0.24066376609E+02 -0.10624421464E+03  0.56421131977E+03  0.57463156630E+03  0.00000000000E+00 0. -1.
         -4    1    3    3    0  502 -0.37281820968E+03  0.31238884574E+03  0.14776261812E+03  0.50834437120E+03  0.00000000000E+00 0. -1.
</event>
<event>
 7    1  0.5696597E-006  0.1916607E+04  0.7818608E-02  0.8441455E-01
          2   -1    0    0  501    0  0.00000000000E+00  0.00000000000E+00  0.14863976855E+04  0.14863976855E+04  0.00000000000E+00 0.  1.
         -4   -1    0    0    0  501 -0.00000000000E+00 -0.00000000000E+00 -0.42793764723E+04  0.42793764723E+04  0.00000000000E+00 0. -1.
   -9000010    2    1    2    0  502  0.70006276198E+03  0.16218311854E+04 -0.13306915462E+04  0.24307460119E+04  0.10086436035E+04 0.  0.
        -13    1    1    2    0    0 -0.62022355282E+03 -0.16736130068E+02 -0.16058555831E+04  0.17215485815E+04  0.10566000000E+00 0.  1.
         13    1    3    3    0    0  0.30140702989E+03  0.15924300364E+04 -0.11746992088E+04  0.20016487856E+04  0.10566000000E+00 0. -1.
          2    1    1    2  502    0 -0.79839209153E+02 -0.16050950553E+04  0.14356834248E+03  0.16134795644E+04  0.00000000000E+00 0.  1.
         -4    1    3    3    0  502  0.39865573209E+03  0.29401148925E+02 -0.15599233735E+03  0.42909722628E+03  0.00000000000E+00 0. -1.
</event>
<event>
 7    1  0.5696597E-006  0.1051479E+04  0.7818608E-02  0.8987312E-01
          2   -1    0    0  501    0  0.00000000000E+00  0.00000000000E+00  0.76458886295E+03  0.76458886295E+03  0.00000000000E+00 0.  1.
         -4   -1    0    0    0  501 -0.00000000000E+00 -0.00000000000E+00 -0.20931648963E+04  0.20931648963E+04  0.00000000000E+00 0. -1.
   -9000010    2    1    2    0  502  0.78472371768E+02  0.34055676353E+03 -0.15129489629E+04  0.18413503969E+04  0.98965645430E+03 0.  0.
        -13    1    1    2    0    0 -0.88025777946E+02 -0.34696043520E+03 -0.33894189624E+03  0.49296217032E+03  0.10566000000E+00 0.  1.
         13    1    3    3    0    0 -0.33201497947E+03 -0.14732063628E+03 -0.30027851946E+03  0.47127965889E+03  0.10566000000E+00 0. -1.
          2    1    1    2  502    0  0.95534061778E+01  0.64036716724E+01  0.52331482580E+03  0.52344119200E+03  0.00000000000E+00 0.  1.
         -4    1    3    3    0  502  0.41048735124E+03  0.48787739981E+03 -0.12126704435E+04  0.13700707380E+04  0.00000000000E+00 0. -1.
</event>
<event>
 7    1  0.5696597E-006  0.1102935E+04  0.7818608E-02  0.8893981E-01
          2   -1    0    0  501    0  0.00000000000E+00  0.00000000000E+00  0.34528931142E+04  0.34528931142E+04  0.00000000000E+00 0. -1.
         -4   -1    0    0    0  501 -0.00000000000E+00 -0.00000000000E+00 -0.23689348917E+03  0.23689348917E+03  0.00000000000E+00 0. -1.
   -9000010    2    1    2    0  502 -0.45009595202E+03 -0.27064217972E+03  0.21392042156E+04  0.24217300042E+04  0.10063538054E+04 0.  0.
        -13    1    1    2    0    0  0.38933984940E+03  0.19398789870E+03  0.42219639618E+03  0.60619025997E+03  0.10566000000E+00 0.  1.
         13    1    3    3    0    0 -0.29307021445E+03 -0.28003690974E+03  0.22116879250E+04  0.22485271424E+04  0.10566000000E+00 0. -1.
          2    1    1    2  502    0  0.60756102621E+02  0.76654281019E+02  0.65459901324E+03  0.66186633918E+03  0.00000000000E+00 0. -1.
         -4    1    3    3    0  502 -0.15702573757E+03  0.93947300193E+01 -0.72483709384E+02  0.17320286180E+03  0.00000000000E+00 0. -1.
</event>
<event>
 7    1  0.5696597E-006  0.1079775E+04  0.7818608E-02  0.9099041E-01
         -4   -1    0    0    0  501 -0.00000000000E+00  0.00000000000E+00  0.19316072002E+04  0.19316072002E+04  0.00000000000E+00 0. -1.
          2   -1    0    0  501    0  0.00000000000E+00 -0.00000000000E+00 -0.25975214778E+04  0.25975214778E+04  0.00000000000E+00 0. -1.
   -9000010    2    1    2    0  502 -0.10366046424E+03 -0.24635095781E+03  0.98656345757E+03  0.14109931735E+04  0.97270755811E+03 0.  0.
        -13    1    1    2    0    0 -0.27846175700E+02 -0.20776989440E+03  0.69375949810E+03  0.72473856727E+03  0.10566000000E+00 0.  1.
         13    1    3    3    0    0 -0.30951851070E+02 -0.31821721407E+03 -0.87975481257E+02  0.33160203389E+03  0.10566000000E+00 0. -1.
          2    1    1    2  502    0  0.13150663994E+03  0.45412085220E+03 -0.23462372332E+04  0.23933969372E+04  0.00000000000E+00 0. -1.
         -4    1    3    3    0  502 -0.72708613172E+02  0.71866256265E+02  0.10745389388E+04  0.10793911396E+04  0.00000000000E+00 0. -1.
</event>
<event>
 7    1  0.5696597E-006  0.1115163E+04  0.7818608E-02  0.8851412E-01
         -4   -1    0    0    0  501 -0.00000000000E+00  0.00000000000E+00  0.45523019066E+04  0.45523019066E+04  0.00000000000E+00 0. -1.
          2   -1    0    0  501    0  0.00000000000E+00 -0.00000000000E+00 -0.12173282151E+04  0.12173282151E+04  0.00000000000E+00 0.  1.
   -9000010    2    1    2    0  502 -0.21478777095E+03  0.47876878081E+03  0.39100603532E+04  0.40664085978E+04  0.98577562687E+03 0.  0.
        -13    1    1    2    0    0  0.22489164319E+03 -0.46487951544E+03  0.44578087686E+03  0.68220951063E+03  0.10566000000E+00 0.  1.
         13    1    3    3    0    0  0.82329941854E+02 -0.28407620775E+03  0.92603682992E+03  0.97212228277E+03  0.10566000000E+00 0. -1.
          2    1    1    2  502    0 -0.10103872236E+02 -0.13889265373E+02 -0.10208675386E+04  0.10210120133E+04  0.00000000000E+00 0.  1.
         -4    1    3    3    0  502 -0.29711771281E+03  0.76284498856E+03  0.29840235233E+04  0.30942863150E+04  0.00000000000E+00 0. -1.
</event>
<event>
 7    1  0.5696597E-006  0.1019734E+04  0.7818608E-02  0.9353848E-01
          2   -1    0    0  501    0  0.00000000000E+00  0.00000000000E+00  0.14351222069E+04  0.14351222069E+04  0.00000000000E+00 0. -1.
         -4   -1    0    0    0  501 -0.00000000000E+00 -0.00000000000E+00 -0.10262782876E+04  0.10262782876E+04  0.00000000000E+00 0. -1.
   -9000010    2    1    2    0  502 -0.76329860388E+02  0.26619555575E+02 -0.53507699352E+03  0.11506522981E+04  0.10154597352E+04 0.  0.
        -13    1    1    2    0    0  0.58542859753E+02 -0.73847391731E+02 -0.17070013688E+03  0.19498525993E+03  0.10566000000E+00 0.  1.
         13    1    3    3    0    0  0.20695723594E+03 -0.24387115941E+03  0.15632762234E+03  0.35600951752E+03  0.10566000000E+00 0. -1.
          2    1    1    2  502    0  0.17787000635E+02  0.47227836156E+02  0.11146210498E+04  0.11157629365E+04  0.00000000000E+00 0. -1.
         -4    1    3    3    0  502 -0.28328709633E+03  0.27049071498E+03 -0.69140461586E+03  0.79464278054E+03  0.00000000000E+00 0. -1.
</event>
<event>
 7    1  0.5696597E-006  0.9880887E+03  0.7818608E-02  0.9569531E-01
          2   -1    0    0  502    0  0.00000000000E+00  0.00000000000E+00  0.74667669985E+03  0.74667669985E+03  0.00000000000E+00 0.  1.
          4   -1    0    0  501    0 -0.00000000000E+00 -0.00000000000E+00 -0.61174630790E+03  0.61174630790E+03  0.00000000000E+00 0.  1.
    9000010    2    1    2  502    0  0.28236564338E+02 -0.18536042681E+02  0.57271649551E+02  0.98922960548E+03  0.98699254408E+03 0.  0.
        -13    1    3    3    0    0  0.42129103926E+03  0.19550545816E+03 -0.16064386567E+03  0.49144174291E+03  0.10566000000E+00 0.  1.
         13    1    1    2    0    0 -0.39356813096E+02  0.24992232851E+02 -0.14184653369E+03  0.14931182379E+03  0.10566000000E+00 0. -1.
          2    1    1    2  501    0  0.11120248758E+02 -0.64561901698E+01  0.21950527609E+03  0.21988157848E+03  0.00000000000E+00 0.  1.
          4    1    3    3  502    0 -0.39305447493E+03 -0.21404150084E+03  0.21791551522E+03  0.49778786257E+03  0.00000000000E+00 0.  1.
</event>
<event>
 7    1  0.5696597E-006  0.1244548E+04  0.7818608E-02  0.8699605E-01
          2   -1    0    0  502    0  0.00000000000E+00  0.00000000000E+00  0.70975681832E+03  0.70975681832E+03  0.00000000000E+00 0. -1.
          4   -1    0    0  501    0 -0.00000000000E+00 -0.00000000000E+00 -0.31522173645E+04  0.31522173645E+04  0.00000000000E+00 0.  1.
    9000010    2    1    2  502    0 -0.41779201203E+03 -0.63368404797E+03 -0.23726492427E+04  0.26911245579E+04  0.10181263770E+04 0.  0.
        -13    1    3    3    0    0 -0.23334711523E+03 -0.87625658877E+03 -0.13677847147E+04  0.16410702369E+04  0.10566000000E+00 0.  1.
         13    1    1    2    0    0  0.26936463677E+03  0.61428997909E+03 -0.41904294885E+03  0.79088968263E+03  0.10566000000E+00 0. -1.
          2    1    1    2  501    0  0.14842737525E+03  0.19394068880E+02  0.34923164534E+03  0.37995994228E+03  0.00000000000E+00 0. -1.
          4    1    3    3  502    0 -0.18444489680E+03  0.24257254080E+03 -0.10048645279E+04  0.10500543210E+04  0.00000000000E+00 0.  1.
</event>
<event>
 7    1  0.5696597E-006  0.1147292E+04  0.7818608E-02  0.8945285E-01
          4   -1    0    0  501    0 -0.00000000000E+00  0.00000000000E+00  0.11292957013E+04  0.11292957013E+04  0.00000000000E+00 0.  1.
          2   -1    0    0  502    0  0.00000000000E+00 -0.00000000000E+00 -0.13009774304E+04  0.13009774304E+04  0.00000000000E+00 0. -1.
    9000010    2    1    2  502    0  0.20653452715E+03 -0.16219669941E+03  0.64235735036E+02  0.11209373044E+04  0.10878464646E+04 0.  0.
        -13    1    3    3    0    0 -0.38190708780E+03 -0.23105466574E+03  0.23488854955E+03  0.50439262895E+03  0.10566000000E+00 0.  1.
         13    1    1    2    0    0  0.15652666960E+03  0.28433805463E+03  0.43141564812E+03  0.53987794937E+03  0.10566000000E+00 0. -1.
          2    1    1    2  501    0 -0.36306119675E+03 -0.12214135522E+03 -0.66733311225E+03  0.76945787795E+03  0.00000000000E+00 0. -1.
          4    1    3    3  502    0  0.58844161495E+03  0.68857966328E+02 -0.17065281451E+03  0.61654467545E+03  0.00000000000E+00 0.  1.
</event>
<event>
 7    1  0.5696597E-006  0.1057576E+04  0.7818608E-02  0.8971752E-01
          4   -1    0    0  501    0 -0.00000000000E+00  0.00000000000E+00  0.18667032021E+04  0.18667032021E+04  0.00000000000E+00 0.  1.
          2   -1    0    0  502    0  0.00000000000E+00 -0.00000000000E+00 -0.18168491140E+04  0.18168491140E+04  0.00000000000E+00 0.  1.
    9000010    2    1    2  502    0  0.31789306303E+03  0.24116293246E+03 -0.95488803511E+03  0.14321902044E+04  0.99002124342E+03 0.  0.
        -13    1    3    3    0    0  0.23516990885E+03  0.51210995638E+03 -0.15623736669E+03  0.58478339525E+03  0.10566000000E+00 0.  1.
         13    1    1    2    0    0 -0.19617658695E+03 -0.31594887992E+03  0.15982269887E+04  0.16409261003E+04  0.10566000000E+00 0. -1.
          2    1    1    2  501    0 -0.12171647608E+03  0.74785947459E+02 -0.59348486544E+03  0.61043601139E+03  0.00000000000E+00 0.  1.
          4    1    3    3  502    0  0.82723154183E+02 -0.27094702392E+03 -0.79865066841E+03  0.84740680913E+03  0.00000000000E+00 0.  1.
</event>
<event>
 7    1  0.5696597E-006  0.1005429E+04  0.7818608E-02  0.9077922E-01
         -4   -1    0    0    0  501 -0.00000000000E+00  0.00000000000E+00  0.45582309113E+03  0.45582309113E+03  0.00000000000E+00 0. -1.
          2   -1    0    0  501    0  0.00000000000E+00 -0.00000000000E+00 -0.14452603226E+04  0.14452603226E+04  0.00000000000E+00 0. -1.
   -9000010    2    1    2    0  502 -0.10702125255E+03 -0.28671442168E+03 -0.82925843237E+03  0.13086225940E+04  0.96496882737E+03 0.  0.
        -13    1    1    2    0    0 -0.12607490827E+03  0.26101846156E+03  0.28780555591E+02  0.29129684398E+03  0.10566000000E+00 0.  1.
         13    1    3    3    0    0  0.17865999150E+03 -0.32871000222E+03  0.55242962505E+02  0.37818177401E+03  0.10566000000E+00 0. -1.
          2    1    1    2  502    0  0.23309616082E+03  0.25695960122E+02 -0.18895935468E+03  0.30116397573E+03  0.00000000000E+00 0. -1.
         -4    1    3    3    0  502 -0.28568124406E+03  0.41995580536E+02 -0.88450139488E+03  0.93044082001E+03  0.00000000000E+00 0. -1.
</event>
<event>
 7    1  0.5696597E-006  0.1045885E+04  0.7818608E-02  0.9751216E-01
         -4   -1    0    0    0  501 -0.00000000000E+00  0.00000000000E+00  0.32880977351E+03  0.32880977351E+03  0.00000000000E+00 0. -1.
          1   -1    0    0  501    0  0.00000000000E+00 -0.00000000000E+00 -0.15583726133E+04  0.15583726133E+04  0.00000000000E+00 0. -1.
   -9000010    2    1    2    0  502  0.37251226699E+01  0.19607222155E+02 -0.68132425741E+03  0.12482175207E+04  0.10456796429E+04 0.  0.
        -13    1    1    2    0    0  0.97841808018E+01 -0.18285748296E+02  0.42910783661E+02  0.47659682155E+02  0.10566000000E+00 0.  1.
         13    1    3    3    0    0  0.42722670556E+03 -0.28868186342E+03 -0.40707987776E+03  0.65694285464E+03  0.10566000000E+00 0. -1.
          1    1    1    2  502    0 -0.13509303472E+02 -0.13214738593E+01 -0.59114936605E+03  0.59130518395E+03  0.00000000000E+00 0. -1.
         -4    1    3    3    0  502 -0.42350158289E+03  0.30828908558E+03 -0.27424437965E+03  0.59127466610E+03  0.00000000000E+00 0. -1.
</event>
<event>
 7    1  0.5696597E-006  0.9924983E+03  0.7818608E-02  0.9203709E-01
          4   -1    0    0  501    0 -0.00000000000E+00  0.00000000000E+00  0.13674168788E+04  0.13674168788E+04  0.00000000000E+00 0.  1.
          2   -1    0    0  502    0  0.00000000000E+00 -0.00000000000E+00 -0.12657753094E+04  0.12657753094E+04  0.00000000000E+00 0.  1.
    9000010    2    1    2  502    0 -0.65970541875E+02 -0.12035963927E+03  0.46346959612E+03  0.10893072613E+04  0.97619039526E+03 0.  0.
        -13    1    3    3    0    0 -0.31913309738E+03  0.58384012919E+02 -0.18293661395E+03  0.37245193340E+03  0.10566000000E+00 0.  1.
         13    1    1    2    0    0  0.12121241483E+03  0.13468826719E+03  0.57625261117E+03  0.60406991472E+03  0.10566000000E+00 0. -1.
          2    1    1    2  501    0 -0.55241872954E+02 -0.14328627912E+02 -0.93808063785E+03  0.93981501223E+03  0.00000000000E+00 0.  1.
          4    1    3    3  502    0  0.25316255550E+03 -0.17874365219E+03  0.64640621007E+03  0.71685532789E+03  0.00000000000E+00 0.  1.
</event>
<event>
 7    1  0.5696597E-006  0.1247857E+04  0.7818608E-02  0.8689534E-01
          2   -1    0    0  501    0  0.00000000000E+00  0.00000000000E+00  0.47808232645E+04  0.47808232645E+04  0.00000000000E+00 0. -1.
         -4   -1    0    0    0  501 -0.00000000000E+00 -0.00000000000E+00 -0.11168961883E+04  0.11168961883E+04  0.00000000000E+00 0. -1.
   -9000010    2    1    2    0  502  0.32637008570E+03  0.70742648156E+03 -0.50087196277E+03  0.13655628649E+04  0.10034538132E+04 0.  0.
        -13    1    1    2    0    0  0.12808622782E+03 -0.74832415505E+03  0.68495837741E+03  0.10225278054E+04  0.10566000000E+00 0.  1.
         13    1    3    3    0    0 -0.21615679693E+03 -0.99925832043E+02  0.56138759712E+02  0.24466406413E+03  0.10566000000E+00 0. -1.
          2    1    1    2  502    0 -0.45445631351E+03  0.40897673487E+02  0.34798406616E+04  0.35096287825E+04  0.00000000000E+00 0. -1.
         -4    1    3    3    0  502  0.54252688263E+03  0.80735231361E+03 -0.55701072248E+03  0.11208988008E+04  0.00000000000E+00 0. -1.
</event>
<event>
 7    1  0.5696597E-006  0.9980738E+03  0.7818608E-02  0.9340452E-01
          4   -1    0    0  501    0 -0.00000000000E+00  0.00000000000E+00  0.25015299023E+03  0.25015299023E+03  0.00000000000E+00 0.  1.
          2   -1    0    0  502    0  0.00000000000E+00 -0.00000000000E+00 -0.22048965939E+04  0.22048965939E+04  0.00000000000E+00 0.  1.
    9000010    2    1    2  502    0  0.70391648851E+02  0.48208645639E+02 -0.97485882929E+03  0.13938577737E+04  0.99257780476E+03 0.  0.
        -13    1    3    3    0    0 -0.15455644595E+03  0.28289585003E+03 -0.10162465795E+04  0.10661495572E+04  0.10566000000E+00 0.  1.
         13    1    1    2    0    0 -0.87054989203E+02 -0.59982403823E+02 -0.28371271555E+02  0.10945958216E+03  0.10566000000E+00 0. -1.
          2    1    1    2  501    0  0.16663340352E+02  0.11773758184E+02 -0.95151350279E+03  0.95173222825E+03  0.00000000000E+00 0.  1.
          4    1    3    3  502    0  0.22494809481E+03 -0.23468720439E+03  0.41387750191E+02  0.32770821644E+03  0.00000000000E+00 0.  1.
</event>
<event>
 7    1  0.5696597E-006  0.1017643E+04  0.7818608E-02  0.9185204E-01
          4   -1    0    0  501    0 -0.00000000000E+00  0.00000000000E+00  0.19047674618E+04  0.19047674618E+04  0.00000000000E+00 0.  1.
          2   -1    0    0  502    0  0.00000000000E+00 -0.00000000000E+00 -0.40218820910E+03  0.40218820910E+03  0.00000000000E+00 0.  1.
    9000010    2    1    2  502    0  0.25495316244E+02 -0.55873105064E+02  0.78089685692E+03  0.12717211151E+04  0.10018497285E+04 0.  0.
        -13    1    3    3    0    0 -0.42767252922E+03 -0.22321108482E+03  0.21637073570E+03  0.52871853294E+03  0.10566000000E+00 0.  1.
         13    1    1    2    0    0 -0.91107727677E+02  0.15905882081E+03  0.84316956823E+03  0.86286456555E+03  0.10566000000E+00 0. -1.
          2    1    1    2  501    0  0.65612411433E+02 -0.10318571575E+03 -0.12148717243E+03  0.17236999024E+03  0.00000000000E+00 0.  1.
          4    1    3    3  502    0  0.45316784546E+03  0.16733797976E+03  0.56452612122E+03  0.74300258221E+03  0.00000000000E+00 0.  1.
</event>
<event>
 7    1  0.5696597E-006  0.1156205E+04  0.7818608E-02  0.8788740E-01
         -4   -1    0    0    0  501 -0.00000000000E+00  0.00000000000E+00  0.12457812482E+04  0.12457812482E+04  0.00000000000E+00 0. -1.
          2   -1    0    0  501    0  0.00000000000E+00 -0.00000000000E+00 -0.77869604081E+03  0.77869604081E+03  0.00000000000E+00 0. -1.
   -9000010    2    1    2    0  502 -0.60977999242E+03  0.35720175204E+01  0.47686745041E+03  0.12509604064E+04  0.98267745202E+03 0.  0.
        -13    1    1    2    0    0  0.60869996773E+03  0.20878879146E+02  0.13735824570E+03  0.62435476865E+03  0.10566000000E+00 0.  1.
         13    1    3    3    0    0 -0.52042259620E+03 -0.42691661224E+03  0.45157999619E+03  0.81056892154E+03  0.10566000000E+00 0. -1.
          2    1    1    2  502    0  0.10800246851E+01 -0.24450896666E+02 -0.14714048874E+03  0.14916211391E+03  0.00000000000E+00 0. -1.
         -4    1    3    3    0  502 -0.89357396222E+02  0.43048862977E+03  0.25287454224E+02  0.44039148488E+03  0.00000000000E+00 0. -1.
</event>
<event>
 7    1  0.5696597E-006  0.8409605E+03  0.7818608E-02  0.9116032E-01
          4   -1    0    0  501    0 -0.00000000000E+00  0.00000000000E+00  0.26925530096E+04  0.26925530096E+04  0.00000000000E+00 0.  1.
          2   -1    0    0  502    0  0.00000000000E+00 -0.00000000000E+00 -0.47448256472E+03  0.47448256472E+03  0.00000000000E+00 0. -1.
    9000010    2    1    2  502    0  0.38884541184E+03 -0.51795876520E+02  0.21850152664E+04  0.23373567657E+04  0.73147889150E+03 0.  0.
        -13    1    3    3    0    0  0.59209761808E+03  0.15169899021E+02  0.13292012772E+04  0.14551926889E+04  0.10566000000E+00 0.  1.
         13    1    1    2    0    0 -0.41098035627E+03  0.29000344903E+03  0.19641916721E+03  0.53998829070E+03  0.10566000000E+00 0. -1.
          2    1    1    2  501    0  0.22134944428E+02 -0.23820757251E+03 -0.16336398870E+03  0.28969051792E+03  0.00000000000E+00 0. -1.
          4    1    3    3  502    0 -0.20325220623E+03 -0.66965775541E+02  0.85581398916E+03  0.88216407685E+03  0.00000000000E+00 0.  1.
</event>
<event>
 7    1  0.5696597E-006  0.1026572E+04  0.7818608E-02  0.9190616E-01
          1   -1    0    0  501    0  0.00000000000E+00  0.00000000000E+00  0.16852635387E+04  0.16852635387E+04  0.00000000000E+00 0. -1.
         -4   -1    0    0    0  501 -0.00000000000E+00 -0.00000000000E+00 -0.34674895559E+03  0.34674895559E+03  0.00000000000E+00 0. -1.
   -9000010    2    1    2    0  502  0.19465127462E+03 -0.97997625461E+01  0.69748511262E+03  0.12447087073E+04  0.10123384462E+04 0.  0.
        -13    1    1    2    0    0 -0.16611346661E+03  0.25017937774E+02  0.24309880598E+02  0.16973674457E+03  0.10566000000E+00 0.  1.
         13    1    3    3    0    0  0.28418484714E+03  0.73535279300E+02 -0.18945566124E+03  0.34937361575E+03  0.10566000000E+00 0. -1.
          1    1    1    2  502    0 -0.28537808010E+02 -0.15218175228E+02  0.61671958988E+03  0.61756704242E+03  0.00000000000E+00 0. -1.
         -4    1    3    3    0  502 -0.89533572515E+02 -0.83335041846E+02  0.88694077385E+03  0.89533509153E+03  0.00000000000E+00 0. -1.
</event>
<event>
 7    1  0.5696597E-006  0.1099689E+04  0.7818608E-02  0.8890253E-01
          2   -1    0    0  501    0  0.00000000000E+00  0.00000000000E+00  0.44439652157E+03  0.44439652157E+03  0.00000000000E+00 0.  1.
         -4   -1    0    0    0  501 -0.00000000000E+00 -0.00000000000E+00 -0.20530275638E+04  0.20530275638E+04  0.00000000000E+00 0. -1.
   -9000010    2    1    2    0  502  0.10256499651E+03  0.46782279938E+03 -0.13444536270E+04  0.17413745005E+04  0.99772333124E+03 0.  0.
        -13    1    1    2    0    0 -0.29171749195E+03 -0.36960033074E+03 -0.27011740692E+03  0.54283231691E+03  0.10566000000E+00 0.  1.
         13    1    3    3    0    0  0.53100744212E+02 -0.13110276983E+03  0.10243475974E+03  0.17464397058E+03  0.10566000000E+00 0. -1.
          2    1    1    2  502    0  0.18915249544E+03 -0.98222468638E+02  0.59399916491E+01  0.21321726801E+03  0.00000000000E+00 0.  1.
         -4    1    3    3    0  502  0.49464252302E+02  0.59892556921E+03 -0.14468883867E+04  0.15667305299E+04  0.00000000000E+00 0. -1.
</event>
<event>
 7    1  0.5696597E-006  0.1054174E+04  0.7818608E-02  0.9023838E-01
          2   -1    0    0  501    0  0.00000000000E+00  0.00000000000E+00  0.26367592627E+04  0.26367592627E+04  0.00000000000E+00 0.  1.
         -4   -1    0    0    0  501 -0.00000000000E+00 -0.00000000000E+00 -0.66688768319E+03  0.66688768319E+03  0.00000000000E+00 0. -1.
   -9000010    2    1    2    0  502  0.28865888969E+03  0.16349014838E+03  0.13711230482E+03  0.10712775267E+04  0.10093476962E+04 0.  0.
        -13    1    1    2    0    0 -0.26780464360E+03 -0.13317933591E+03 -0.87600886206E+02  0.31165684507E+03  0.10566000000E+00 0.  1.
         13    1    3    3    0    0  0.43712227967E+03  0.49474057665E+03  0.22556749078E+03  0.69765667031E+03  0.10566000000E+00 0. -1.
          2    1    1    2  502    0 -0.20854246092E+02 -0.30310812464E+02  0.19203601609E+04  0.19207125742E+04  0.00000000000E+00 0.  1.
         -4    1    3    3    0  502 -0.14846338998E+03 -0.33125042827E+03 -0.88455185961E+02  0.37362085637E+03  0.00000000000E+00 0. -1.
</event>
<event>
 7    1  0.5696597E-006  0.1082628E+04  0.7818608E-02  0.8934879E-01
         -4   -1    0    0    0  501 -0.00000000000E+00  0.00000000000E+00  0.10210353583E+04  0.10210353583E+04  0.00000000000E+00 0. -1.
          2   -1    0    0  501    0  0.00000000000E+00 -0.00000000000E+00 -0.14606296613E+04  0.14606296613E+04  0.00000000000E+00 0. -1.
   -9000010    2    1    2    0  502  0.23387146802E+03  0.29659604258E+03  0.28611875011E+03  0.11109027027E+04  0.10047764924E+04 0.  0.
        -13    1    1    2    0    0 -0.25896484054E+03 -0.31943021319E+03  0.19100910721E+03  0.45341254938E+03  0.10566000000E+00 0.  1.
         13    1    3    3    0    0  0.52624404312E+03 -0.40485951270E+02  0.38570406010E+03  0.65371212189E+03  0.10566000000E+00 0. -1.
          2    1    1    2  502    0  0.25093372517E+02  0.22834170612E+02 -0.91672216031E+03  0.91734976748E+03  0.00000000000E+00 0. -1.
         -4    1    3    3    0  502 -0.29237257510E+03  0.33708199385E+03 -0.99585309997E+02  0.45719058085E+03  0.00000000000E+00 0. -1.
</event>
<event>
 7    1  0.5696597E-006  0.1037317E+04  0.7818608E-02  0.9074478E-01
          4   -1    0    0  501    0 -0.00000000000E+00  0.00000000000E+00  0.15804611346E+04  0.15804611346E+04  0.00000000000E+00 0.  1.
          2   -1    0    0  502    0  0.00000000000E+00 -0.00000000000E+00 -0.22003381886E+04  0.22003381886E+04  0.00000000000E+00 0. -1.
    9000010    2    1    2  502    0  0.29162915931E+03  0.28699741616E+02 -0.67308856860E+02  0.10480883928E+04  0.10040356344E+04 0.  0.
        -13    1    3    3    0    0  0.26651128405E+02 -0.15760893361E+03 -0.49008108444E+03  0.51549038700E+03  0.10566000000E+00 0.  1.
         13    1    1    2    0    0 -0.25545756984E+03 -0.47200667495E+02  0.10743366148E+04  0.11052988944E+04  0.10566000000E+00 0. -1.
          2    1    1    2  501    0 -0.36171589472E+02  0.18500925879E+02 -0.16269048119E+04  0.16274120360E+04  0.00000000000E+00 0. -1.
          4    1    3    3  502    0  0.26497803090E+03  0.18630867522E+03  0.42277222758E+03  0.53259800576E+03  0.00000000000E+00 0.  1.
</event>
<event>
 7    1  0.5696597E-006  0.1035383E+04  0.7818608E-02  0.9130800E-01
          4   -1    0    0  501    0 -0.00000000000E+00  0.00000000000E+00  0.19507655230E+03  0.19507655230E+03  0.00000000000E+00 0.  1.
          2   -1    0    0  502    0  0.00000000000E+00 -0.00000000000E+00 -0.26935199562E+04  0.26935199562E+04  0.00000000000E+00 0.  1.
    9000010    2    1    2  502    0 -0.12623139908E+03  0.15696709700E+03 -0.17542105455E+04  0.20361352076E+04  0.10139126737E+04 0.  0.
        -13    1    3    3    0    0 -0.19385867349E+03 -0.20225461445E+03 -0.39537823455E+02  0.28293349926E+03  0.10566000000E+00 0.  1.
         13    1    1    2    0    0  0.12877572249E+03 -0.16672208142E+03 -0.15111778151E+03  0.25926055270E+03  0.10566000000E+00 0. -1.
          2    1    1    2  501    0 -0.25443234064E+01  0.97549844156E+01 -0.59311507683E+03  0.59320074820E+03  0.00000000000E+00 0.  1.
          4    1    3    3  502    0  0.67627274405E+02  0.35922171145E+03 -0.17146727221E+04  0.17532017083E+04  0.00000000000E+00 0.  1.
</event>
<event>
 7    1  0.5696597E-006  0.1002393E+04  0.7818608E-02  0.9202557E-01
          4   -1    0    0  501    0 -0.00000000000E+00  0.00000000000E+00  0.23870476382E+03  0.23870476382E+03  0.00000000000E+00 0.  1.
          2   -1    0    0  502    0  0.00000000000E+00 -0.00000000000E+00 -0.33856568461E+04  0.33856568461E+04  0.00000000000E+00 0.  1.
    9000010    2    1    2  502    0  0.28621911114E+03 -0.65920496197E+02 -0.22266633752E+04  0.24528043314E+04  0.98587646804E+03 0.  0.
        -13    1    3    3    0    0  0.49114678795E+03  0.32345950667E+03 -0.12323006647E+04  0.13654362523E+04  0.10566000000E+00 0.  1.
         13    1    1    2    0    0 -0.16373298526E+03 -0.60929580387E+02  0.52889440204E+02  0.18253275946E+03  0.10566000000E+00 0. -1.
          2    1    1    2  501    0 -0.12248612588E+03  0.12685007658E+03 -0.97317814728E+03  0.98902451906E+03  0.00000000000E+00 0.  1.
          4    1    3    3  502    0 -0.20492767681E+03 -0.38938000287E+03 -0.99436271057E+03  0.10873680791E+04  0.00000000000E+00 0.  1.
</event>
<event>
 7    1  0.5696597E-006  0.1007544E+04  0.7818608E-02  0.9917667E-01
         -4   -1    0    0    0  501 -0.00000000000E+00  0.00000000000E+00  0.15465008487E+04  0.15465008487E+04  0.00000000000E+00 0. -1.
          1   -1    0    0  501    0  0.00000000000E+00 -0.00000000000E+00 -0.59035913230E+03  0.59035913230E+03  0.00000000000E+00 0. -1.
   -9000010    2    1    2    0  502 -0.18396531847E+03 -0.69706280896E+02  0.13444242288E+04  0.16808671418E+04  0.98951282826E+03 0.  0.
        -13    1    1    2    0    0  0.10769868308E+02 -0.76064344249E+01  0.88585294733E+01  0.15884980847E+02  0.10566000000E+00 0.  1.
         13    1    3    3    0    0  0.14043157927E+03 -0.41357782463E+03  0.10140938001E+04  0.11041530202E+04  0.10566000000E+00 0. -1.
          1    1    1    2  502    0  0.17319545017E+03  0.77312715321E+02 -0.39714104185E+03  0.44010785840E+03  0.00000000000E+00 0. -1.
         -4    1    3    3    0  502 -0.32439689775E+03  0.34387154373E+03  0.33033042866E+03  0.57671412152E+03  0.00000000000E+00 0. -1.
</event>
<event>
 6    1  0.5696597E-006  0.7087657E+03  0.7818608E-02  0.9271936E-01
          2   -1    0    0  502    0  0.00000000000E+00  0.00000000000E+00  0.81642743367E+03  0.81642743367E+03  0.00000000000E+00 0. -1.
          4   -1    0    0  501    0 -0.00000000000E+00 -0.00000000000E+00 -0.29684254511E+04  0.29684254511E+04  0.00000000000E+00 0.  1.
        -13    1    1    2    0    0 -0.94507643802E+02  0.65714733148E+03 -0.85730498688E+03  0.10843182935E+04  0.10566000000E+00 0.  1.
         13    1    1    2    0    0 -0.22813912650E+03 -0.30207776256E+03 -0.13814130717E+04  0.14323409236E+04  0.10566000000E+00 0. -1.
          2    1    1    2  501    0  0.35865347283E+03 -0.32501444214E+03  0.58977579300E+03  0.76295621576E+03  0.00000000000E+00 0. -1.
          4    1    1    2  502    0 -0.36006702528E+02 -0.30055126782E+02 -0.50305575189E+03  0.50523745188E+03  0.00000000000E+00 0.  1.
</event>
<event>
 7    1  0.5696597E-006  0.1712889E+04  0.7818608E-02  0.8340861E-01
          2   -1    0    0  502    0  0.00000000000E+00  0.00000000000E+00  0.13332538025E+04  0.13332538025E+04  0.00000000000E+00 0. -1.
          4   -1    0    0  501    0 -0.00000000000E+00 -0.00000000000E+00 -0.43323512297E+04  0.43323512297E+04  0.00000000000E+00 0.  1.
    9000010    2    1    2  502    0  0.61661738936E+03  0.11815326313E+04 -0.19355857969E+04  0.25552693177E+04  0.10033307256E+04 0.  0.
        -13    1    3    3    0    0  0.75299586356E+03  0.10619433132E+04 -0.19789722542E+04  0.23687670981E+04  0.10566000000E+00 0.  1.
         13    1    1    2    0    0 -0.40114862651E+03 -0.13894999874E+04 -0.18036688420E+04  0.23118935395E+04  0.10566000000E+00 0. -1.
          2    1    1    2  501    0 -0.21546876285E+03  0.20796735610E+03  0.74015721160E+03  0.79844217502E+03  0.00000000000E+00 0. -1.
          4    1    3    3  502    0 -0.13637847420E+03  0.11958931814E+03  0.43386457296E+02  0.18650221960E+03  0.00000000000E+00 0.  1.
</event>
<event>
 7    1  0.5696597E-006  0.1161148E+04  0.7818608E-02  0.9511957E-01
          4   -1    0    0  501    0 -0.00000000000E+00  0.00000000000E+00  0.10180051502E+04  0.10180051502E+04  0.00000000000E+00 0.  1.
          2   -1    0    0  502    0  0.00000000000E+00 -0.00000000000E+00 -0.10123041429E+04  0.10123041429E+04  0.00000000000E+00 0.  1.
    9000010    2    1    2  502    0  0.67919834216E+03  0.10269558897E+03  0.14792958996E+03  0.11846603154E+04  0.95377152789E+03 0.  0.
        -13    1    3    3    0    0  0.89010487021E+03  0.45854479822E+02  0.27400797162E+03  0.93245358756E+03  0.10566000000E+00 0.  1.
         13    1    1    2    0    0 -0.34381852525E+02  0.79119251634E+01  0.13172854016E+03  0.13637129390E+03  0.10566000000E+00 0. -1.
          2    1    1    2  501    0 -0.64481648963E+03 -0.11060751413E+03 -0.27395712289E+03  0.70927768375E+03  0.00000000000E+00 0.  1.
          4    1    3    3  502    0 -0.21090652805E+03  0.56841109149E+02 -0.12607838166E+03  0.25220672788E+03  0.00000000000E+00 0.  1.
</event>
<event>
 7    1  0.5696597E-006  0.1103268E+04  0.7818608E-02  0.9045511E-01
          4   -1    0    0  501    0  0.00000000000E+00  0.00000000000E+00  0.11491228743E+04  0.11491228743E+04  0.00000000000E+00 0. -1.
         -4   -1    0    0    0  501 -0.00000000000E+00 -0.00000000000E+00 -0.74604532471E+03  0.74604532471E+03  0.00000000000E+00 0. -1.
   -9000010    2    1    2    0  502  0.24848892804E+03 -0.30514364582E+03  0.10085167928E+03  0.11276693157E+04  0.10519541969E+04 0.  0.
        -13    1    1    2    0    0  0.77195397705E+02  0.23063213740E+03 -0.83551072352E+02  0.25715968790E+03  0.10566000000E+00 0.  1.
         13    1    3    3    0    0 -0.20921928453E+02 -0.52377219578E+03 -0.29482935383E+03  0.60141449867E+03  0.10566000000E+00 0. -1.
          4    1    1    2  502    0 -0.32568432574E+03  0.74511508426E+02  0.38577694269E+03  0.51033919547E+03  0.00000000000E+00 0. -1.
         -4    1    3    3    0  502  0.26941085649E+03  0.21862854995E+03  0.39568103311E+03  0.52625481700E+03  0.00000000000E+00 0. -1.
</event>
<event>
 7    1  0.5696597E-006  0.1224296E+04  0.7818608E-02  0.8718586E-01
         -4   -1    0    0    0  501 -0.00000000000E+00  0.00000000000E+00  0.12825277697E+04  0.12825277697E+04  0.00000000000E+00 0. -1.
          2   -1    0    0  501    0  0.00000000000E+00 -0.00000000000E+00 -0.11541202417E+04  0.11541202417E+04  0.00000000000E+00 0. -1.
   -9000010    2    1    2    0  502 -0.69325367130E+03 -0.22764911883E+03 -0.17757546940E+03  0.12581947201E+04  0.10095029135E+04 0.  0.
        -13    1    1    2    0    0  0.65916257142E+03  0.18502185878E+03  0.58108345989E+03  0.89799019054E+03  0.10566000000E+00 0.  1.
         13    1    3    3    0    0 -0.52259716763E+03  0.31519446134E+03  0.11078471080E+03  0.62026495257E+03  0.10566000000E+00 0. -1.
          2    1    1    2  502    0  0.34091099884E+02  0.42627260045E+02 -0.27510046250E+03  0.28046310071E+03  0.00000000000E+00 0. -1.
         -4    1    3    3    0  502 -0.17065650367E+03 -0.54284358017E+03 -0.28836018020E+03  0.63792976753E+03  0.00000000000E+00 0. -1.
</event>
<event>
 7    1  0.5696597E-006  0.1068554E+04  0.7818608E-02  0.8977340E-01
          2   -1    0    0  502    0  0.00000000000E+00  0.00000000000E+00  0.32635646129E+03  0.32635646129E+03  0.00000000000E+00 0.  1.
          4   -1    0    0  501    0 -0.00000000000E+00 -0.00000000000E+00 -0.28369485085E+04  0.28369485085E+04  0.00000000000E+00 0.  1.
    9000010    2    1    2  502    0  0.25867680182E+03 -0.25006165152E+03 -0.19853075760E+04  0.22557628549E+04  0.10087494083E+04 0.  0.
        -13    1    3    3    0    0  0.36635140235E+03 -0.29829876884E+01 -0.19497904009E+04  0.19839115068E+04  0.10566000000E+00 0.  1.
         13    1    1    2    0    0 -0.25866505093E+03  0.23605179451E+03 -0.67327032019E+03  0.75889458654E+03  0.10566000000E+00 0. -1.
          2    1    1    2  501    0 -0.11750889292E-01  0.14009857005E+02  0.14798584891E+03  0.14864752844E+03  0.00000000000E+00 0.  1.
          4    1    3    3  502    0 -0.10767460052E+03 -0.24707866383E+03 -0.35517175078E+02  0.27185134806E+03  0.00000000000E+00 0.  1.
</event>
<event>
 7    1  0.5696597E-006  0.9714318E+03  0.7818608E-02  0.9155399E-01
         -4   -1    0    0    0  501 -0.00000000000E+00  0.00000000000E+00  0.88509508638E+03  0.88509508638E+03  0.00000000000E+00 0. -1.
          2   -1    0    0  501    0  0.00000000000E+00 -0.00000000000E+00 -0.23459890601E+04  0.23459890601E+04  0.00000000000E+00 0. -1.
   -9000010    2    1    2    0  502  0.24167387186E+03 -0.13628731174E+03  0.29173088212E+03  0.10259555601E+04  0.94366170427E+03 0.  0.
        -13    1    1    2    0    0 -0.14155041330E+03  0.17612420051E+03  0.16794714811E+03  0.28153598213E+03  0.10566000000E+00 0.  1.
         13    1    3    3    0    0  0.33365057332E+03 -0.24447808249E+03  0.57544896566E+03  0.70868452865E+03  0.10566000000E+00 0. -1.
          2    1    1    2  502    0 -0.10012345856E+03 -0.39836888774E+02 -0.19205720040E+04  0.19235926042E+04  0.00000000000E+00 0. -1.
         -4    1    3    3    0  502 -0.91976701466E+02  0.10819077075E+03 -0.28371808354E+03  0.31727103148E+03  0.00000000000E+00 0. -1.
</event>
<event>
 7    1  0.5696597E-006  0.1037756E+04  0.7818608E-02  0.9139392E-01
          4   -1    0    0  501    0 -0.00000000000E+00  0.00000000000E+00  0.30270574007E+04  0.30270574007E+04  0.00000000000E+00 0.  1.
          2   -1    0    0  502    0  0.00000000000E+00 -0.00000000000E+00 -0.45346207741E+03  0.45346207741E+03  0.00000000000E+00 0. -1.
    9000010    2    1    2  502    0  0.17176993643E+03 -0.12158419777E+03  0.19156266023E+04  0.21795149647E+04  0.10180238571E+04 0.  0.
        -13    1    3    3    0    0  0.18920285955E+03 -0.54609961685E+03  0.80988628837E+03  0.99495644369E+03  0.10566000000E+00 0.  1.
         13    1    1    2    0    0 -0.15714408905E+03  0.12488629285E+03  0.96902046450E+03  0.98959159386E+03  0.10566000000E+00 0. -1.
          2    1    1    2  501    0 -0.14625847380E+02 -0.33020950748E+01 -0.31105174357E+03  0.31141291949E+03  0.00000000000E+00 0. -1.
          4    1    3    3  502    0 -0.17432923114E+02  0.42451541908E+03  0.11057403140E+04  0.11845585211E+04  0.00000000000E+00 0.  1.
</event>
<event>
 7    1  0.5696597E-006  0.1359301E+04  0.7818608E-02  0.8592460E-01
          4   -1    0    0  501    0 -0.00000000000E+00  0.00000000000E+00  0.89026639224E+03  0.89026639224E+03  0.00000000000E+00 0.  1.
          2   -1    0    0  502    0  0.00000000000E+00 -0.00000000000E+00 -0.22902952522E+04  0.22902952522E+04  0.00000000000E+00 0. -1.
    9000010    2    1    2  502    0 -0.12169057272E+03  0.83907646843E+03 -0.93405213320E+02  0.13426968907E+04  0.10369438225E+04 0.  0.
        -13    1    3    3    0    0 -0.53726478331E+03  0.43650343556E+03  0.16089628824E+03  0.71068721909E+03  0.10566000000E+00 0.  1.
         13    1    1    2    0    0  0.29991195143E+03 -0.87336964586E+03 -0.58354750746E+03  0.10923595661E+04  0.10566000000E+00 0. -1.
          2    1    1    2  501    0 -0.17822137871E+03  0.34293177429E+02 -0.72307613918E+03  0.74550518771E+03  0.00000000000E+00 0. -1.
          4    1    3    3  502    0  0.41557421059E+03  0.40257303287E+03 -0.25430150156E+03  0.63200967160E+03  0.00000000000E+00 0.  1.
</event>
<event>
 7    1  0.5696597E-006  0.9982677E+03  0.7818608E-02  0.9242932E-01
          1   -1    0    0  501    0  0.00000000000E+00  0.00000000000E+00  0.84876283659E+03  0.84876283659E+03  0.00000000000E+00 0. -1.
         -4   -1    0    0    0  501 -0.00000000000E+00 -0.00000000000E+00 -0.79863991821E+03  0.79863991821E+03  0.00000000000E+00 0. -1.
   -9000010    2    1    2    0  502  0.11172322196E+03  0.10015390509E+03 -0.24429120502E+03  0.10275274861E+04  0.98672268584E+03 0.  0.
        -13    1    1    2    0    0 -0.12055931297E+03 -0.91819794412E+02 -0.12734279673E+03  0.19794348091E+03  0.10566000000E+00 0.  1.
         13    1    3    3    0    0 -0.21825303429E+02  0.13720779743E+03  0.37134497242E+03  0.39648382470E+03  0.10566000000E+00 0. -1.
          1    1    1    2  502    0  0.88360910131E+01 -0.83341106804E+01  0.42175692012E+03  0.42193178783E+03  0.00000000000E+00 0. -1.
         -4    1    3    3    0  502  0.13354852539E+03 -0.37053892337E+02 -0.61563617745E+03  0.63104366137E+03  0.00000000000E+00 0. -1.
</event>
<event>
 7    1  0.5696597E-006  0.1197589E+04  0.7818608E-02  0.8748427E-01
          4   -1    0    0  501    0 -0.00000000000E+00  0.00000000000E+00  0.33477917317E+04  0.33477917317E+04  0.00000000000E+00 0.  1.
          2   -1    0    0  502    0  0.00000000000E+00 -0.00000000000E+00 -0.12648046864E+04  0.12648046864E+04  0.00000000000E+00 0.  1.
    9000010    2    1    2  502    0 -0.13872849883E+03  0.62420771235E+03  0.66473123454E+03  0.13642378544E+04  0.10051847814E+04 0.  0.
        -13    1    3    3    0    0 -0.52941284691E+03  0.34875374502E+03  0.61564132675E+03  0.88369756790E+03  0.10566000000E+00 0.  1.
         13    1    1    2    0    0 -0.65945539955E+02 -0.65304052534E+03  0.22746080722E+04  0.23674147578E+04  0.10566000000E+00 0. -1.
          2    1    1    2  501    0  0.20467403878E+03  0.28832812993E+02 -0.85635226152E+03  0.88094380586E+03  0.00000000000E+00 0.  1.
          4    1    3    3  502    0  0.39068434808E+03  0.27545396733E+03  0.49089907782E+02  0.48054028655E+03  0.00000000000E+00 0.  1.
</event>
<event>
 7    1  0.5696597E-006  0.1362378E+04  0.7818608E-02  0.8581876E-01
          1   -1    0    0  501    0  0.00000000000E+00  0.00000000000E+00  0.25124423854E+04  0.25124423854E+04  0.00000000000E+00 0. -1.
         -4   -1    0    0    0  501 -0.00000000000E+00 -0.00000000000E+00 -0.87215757193E+03  0.87215757193E+03  0.00000000000E+00 0. -1.
   -9000010    2    1    2    0  502 -0.50443106016E+03 -0.77216185284E+03  0.11729652479E+04  0.18014860688E+04  0.10093661187E+04 0.  0.
        -13    1    1    2    0    0  0.51366156069E+03  0.75505312200E+03 -0.18395103038E+03  0.93155322377E+03  0.10566000000E+00 0.  1.
         13    1    3    3    0    0 -0.62492165509E+03 -0.54970143212E+03  0.28743004282E+03  0.88051960805E+03  0.10566000000E+00 0. -1.
          1    1    1    2  502    0 -0.92305005341E+01  0.17108730840E+02  0.65127059590E+03  0.65156066479E+03  0.00000000000E+00 0. -1.
         -4    1    3    3    0  502  0.12049059493E+03 -0.22246042072E+03  0.88553520512E+03  0.92096646071E+03  0.00000000000E+00 0. -1.
</event>
<event>
 7    1  0.5696597E-006  0.1014003E+04  0.7818608E-02  0.9226419E-01
          4   -1    0    0  501    0  0.00000000000E+00  0.00000000000E+00  0.25484582661E+04  0.25484582661E+04  0.00000000000E+00 0. -1.
         -4   -1    0    0    0  501 -0.00000000000E+00 -0.00000000000E+00 -0.26092283348E+03  0.26092283348E+03  0.00000000000E+00 0. -1.
   -9000010    2    1    2    0  502  0.11955911473E+03 -0.75417317590E+02  0.16797763466E+04  0.19611590354E+04  0.10022544756E+04 0.  0.
        -13    1    1    2    0    0 -0.12744697118E+03  0.86903576490E+02 -0.70653077604E+02  0.16966682236E+03  0.10566000000E+00 0.  1.
         13    1    3    3    0    0 -0.10763132528E+03 -0.13245692578E+03 -0.78136197746E+02  0.18770885949E+03  0.10566000000E+00 0. -1.
          4    1    1    2  502    0  0.78878564481E+01 -0.11486258900E+02  0.67841216360E+03  0.67855524178E+03  0.00000000000E+00 0. -1.
         -4    1    3    3    0  502  0.22719044002E+03  0.57039608188E+02  0.17579125444E+04  0.17734501760E+04  0.00000000000E+00 0. -1.
</event>
<event>
 7    1  0.5696597E-006  0.1150802E+04  0.7818608E-02  0.8789886E-01
          2   -1    0    0  501    0  0.00000000000E+00  0.00000000000E+00  0.77192695606E+03  0.77192695606E+03  0.00000000000E+00 0. -1.
         -4   -1    0    0    0  501 -0.00000000000E+00 -0.00000000000E+00 -0.12565225501E+04  0.12565225501E+04  0.00000000000E+00 0. -1.
   -9000010    2    1    2    0  502  0.30893166793E+03  0.57563562328E+03 -0.11889073029E+03  0.11778103144E+04  0.97278311288E+03 0.  0.
        -13    1    1    2    0    0 -0.15095041302E+03 -0.58615435401E+03 -0.25166322948E+03  0.65551304041E+03  0.10566000000E+00 0.  1.
         13    1    3    3    0    0  0.47755906158E+03  0.73928031157E+03 -0.24166850846E+03  0.91268927654E+03  0.10566000000E+00 0. -1.
          2    1    1    2  502    0 -0.15798125490E+03  0.10518730731E+02 -0.11404163424E+03  0.19512615134E+03  0.00000000000E+00 0. -1.
         -4    1    3    3    0  502 -0.16862739365E+03 -0.16364468830E+03  0.12277777817E+03  0.26512103785E+03  0.00000000000E+00 0. -1.
</event>
<event>
 7    1  0.5696597E-006  0.1000697E+04  0.7818608E-02  0.9261341E-01
          1   -1    0    0  501    0  0.00000000000E+00  0.00000000000E+00  0.37757816162E+03  0.37757816162E+03  0.00000000000E+00 0. -1.
         -4   -1    0    0    0  501 -0.00000000000E+00 -0.00000000000E+00 -0.19761799963E+04  0.19761799963E+04  0.00000000000E+00 0. -1.
   -9000010    2    1    2    0  502  0.10162687720E+03 -0.12312698320E+03 -0.10094050727E+04  0.14234347016E+04  0.99084785553E+03 0.  0.
        -13    1    1    2    0    0 -0.84845232444E+02  0.11066676846E+03 -0.75269048607E+03  0.76549906995E+03  0.10566000000E+00 0.  1.
         13    1    3    3    0    0  0.25079864353E+03  0.50866873134E+02  0.11164381796E+03  0.27919840908E+03  0.10566000000E+00 0. -1.
          1    1    1    2  502    0 -0.16781644759E+02  0.12460214740E+02  0.16349372404E+03  0.16482438640E+03  0.00000000000E+00 0. -1.
         -4    1    3    3    0  502 -0.14917176633E+03 -0.17399385633E+03 -0.11210488906E+04  0.11442362925E+04  0.00000000000E+00 0. -1.
</event>
<event>
 7    1  0.5696597E-006  0.1053344E+04  0.7818608E-02  0.9015206E-01
          4   -1    0    0  501    0 -0.00000000000E+00  0.00000000000E+00  0.18881397482E+04  0.18881397482E+04  0.00000000000E+00 0.  1.
          2   -1    0    0  502    0  0.00000000000E+00 -0.00000000000E+00 -0.96755913868E+03  0.96755913868E+03  0.00000000000E+00 0.  1.
    9000010    2    1    2  502    0  0.71351550303E+02  0.29482011078E+03  0.13751500598E+04  0.17300145595E+04  0.10049391760E+04 0.  0.
        -13    1    3    3    0    0 -0.43765816712E+03  0.51197952428E+02  0.85821493110E+03  0.96472730898E+03  0.10566000000E+00 0.  1.
         13    1    1    2    0    0 -0.86031696555E+02 -0.30928357014E+03  0.25859348164E+03  0.41222370078E+03  0.10566000000E+00 0. -1.
          2    1    1    2  501    0  0.14680146251E+02  0.14463459359E+02 -0.71316293190E+03  0.71346062666E+03  0.00000000000E+00 0.  1.
          4    1    3    3  502    0  0.50900971742E+03  0.24362215836E+03  0.51693512872E+03  0.76528725050E+03  0.00000000000E+00 0.  1.
</event>
<event>
 7    1  0.5696597E-006  0.1040133E+04  0.7818608E-02  0.8973428E-01
          2   -1    0    0  501    0  0.00000000000E+00  0.00000000000E+00  0.18072918050E+04  0.18072918050E+04  0.00000000000E+00 0.  1.
         -4   -1    0    0    0  501 -0.00000000000E+00 -0.00000000000E+00 -0.40193434665E+03  0.40193434665E+03  0.00000000000E+00 0. -1.
   -9000010    2    1    2    0  502 -0.27776346619E+03 -0.27142540105E+03  0.43604437987E+03  0.11278604230E+04  0.96494048575E+03 0.  0.
        -13    1    1    2    0    0  0.28748612907E+03  0.26107614318E+03  0.61878677444E+03  0.73055192172E+03  0.10566000000E+00 0.  1.
         13    1    3    3    0    0 -0.33442072659E+03  0.26130655067E+03  0.41214297047E+03  0.59159122295E+03  0.10566000000E+00 0. -1.
          2    1    1    2  502    0 -0.97226628788E+01  0.10349257866E+02  0.35052630407E+03  0.35081380697E+03  0.00000000000E+00 0.  1.
         -4    1    3    3    0  502  0.56657260398E+02 -0.53273195172E+03  0.23901409398E+02  0.53626920004E+03  0.00000000000E+00 0. -1.
</event>
<event>
 7    1  0.5696597E-006  0.1039160E+04  0.7818608E-02  0.9083151E-01
          2   -1    0    0  501    0  0.00000000000E+00  0.00000000000E+00  0.13278549068E+04  0.13278549068E+04  0.00000000000E+00 0. -1.
         -4   -1    0    0    0  501 -0.00000000000E+00 -0.00000000000E+00 -0.78534806907E+03  0.78534806907E+03  0.00000000000E+00 0. -1.
   -9000010    2    1    2    0  502  0.12682212168E+03  0.18449054792E+03  0.15655825935E+03  0.10448666201E+04  0.10085212701E+04 0.  0.
        -13    1    1    2    0    0  0.12265431829E+03 -0.23285626036E+03 -0.26259530432E+03  0.37178276560E+03  0.10566000000E+00 0.  1.
         13    1    3    3    0    0  0.39137557899E+03  0.11228986001E+03  0.47433656210E+03  0.62512322130E+03  0.10566000000E+00 0. -1.
          2    1    1    2  502    0 -0.24947643997E+03  0.48365712442E+02  0.64854388271E+03  0.69655359021E+03  0.00000000000E+00 0. -1.
         -4    1    3    3    0  502 -0.26455345731E+03  0.72200687905E+02 -0.31777830275E+03  0.41974339876E+03  0.00000000000E+00 0. -1.
</event>
<event>
 7    1  0.5696597E-006  0.1030624E+04  0.7818608E-02  0.9173518E-01
          2   -1    0    0  502    0  0.00000000000E+00  0.00000000000E+00  0.77084239951E+03  0.77084239951E+03  0.00000000000E+00 0.  1.
          4   -1    0    0  501    0 -0.00000000000E+00 -0.00000000000E+00 -0.17196125715E+04  0.17196125715E+04  0.00000000000E+00 0.  1.
    9000010    2    1    2  502    0  0.10880762706E+03  0.12907287467E+03 -0.11359859060E+04  0.15325711477E+04  0.10147962542E+04 0.  0.
        -13    1    3    3    0    0 -0.33493718304E+02 -0.30054884464E+03  0.77913999678E+01  0.30250975895E+03  0.10566000000E+00 0.  1.
         13    1    1    2    0    0 -0.11181624342E+03 -0.14249709946E+03 -0.36395784398E+03  0.40653858243E+03  0.10566000000E+00 0. -1.
          2    1    1    2  501    0  0.30086163603E+01  0.13424224796E+02  0.55117357795E+03  0.55134524086E+03  0.00000000000E+00 0.  1.
          4    1    3    3  502    0  0.14230134537E+03  0.42962171931E+03 -0.11437773060E+04  0.12300613888E+04  0.00000000000E+00 0.  1.
</event>
<event>
 7    1  0.5696597E-006  0.1072082E+04  0.7818608E-02  0.8954367E-01
         -4   -1    0    0    0  501 -0.00000000000E+00  0.00000000000E+00  0.10634119490E+04  0.10634119490E+04  0.00000000000E+00 0. -1.
          1   -1    0    0  501    0  0.00000000000E+00 -0.00000000000E+00 -0.96961454813E+03  0.96961454813E+03  0.00000000000E+00 0. -1.
   -9000010    2    1    2    0  502  0.23886656658E+03  0.30229005218E+03  0.46922267509E+03  0.11709260992E+04  0.10012299929E+04 0.  0.
        -13    1    1    2    0    0 -0.22595283359E+03 -0.30861983185E+03  0.92852420036E+02  0.39360191398E+03  0.10566000000E+00 0.  1.
         13    1    3    3    0    0 -0.11911950376E+03  0.59269573034E+03  0.19829388247E+03  0.63623750276E+03  0.10566000000E+00 0. -1.
          1    1    1    2  502    0 -0.12913732994E+02  0.63297796726E+01 -0.46827769422E+03  0.46849848400E+03  0.00000000000E+00 0. -1.
         -4    1    3    3    0  502  0.35798607034E+03 -0.29040567816E+03  0.27092879262E+03  0.53468859642E+03  0.00000000000E+00 0. -1.
</event>
<event>
 7    1  0.5696597E-006  0.1102730E+04  0.7818608E-02  0.9126918E-01
          2   -1    0    0  502    0  0.00000000000E+00  0.00000000000E+00  0.17140412411E+04  0.17140412411E+04  0.00000000000E+00 0.  1.
          4   -1    0    0  501    0 -0.00000000000E+00 -0.00000000000E+00 -0.96085325871E+03  0.96085325871E+03  0.00000000000E+00 0.  1.
    9000010    2    1    2  502    0  0.44968183113E+03 -0.13404155531E+03 -0.23236359191E+03  0.11297112881E+04  0.10010363969E+04 0.  0.
        -13    1    3    3    0    0  0.15772357424E+03 -0.36724608777E+03  0.28545330575E+03  0.49115172379E+03  0.10566000000E+00 0.  1.
         13    1    1    2    0    0 -0.85771884384E+02 -0.15402649565E+03 -0.20321187078E+03  0.26902797829E+03  0.10566000000E+00 0. -1.
          2    1    1    2  501    0 -0.36390994674E+03  0.28806805096E+03  0.11887634451E+04  0.12761552334E+04  0.00000000000E+00 0.  1.
          4    1    3    3  502    0  0.29195825689E+03  0.23320453246E+03 -0.51781689766E+03  0.63855956435E+03  0.00000000000E+00 0.  1.
</event>
<event>
 6    1  0.5696597E-006  0.6401137E+03  0.7818608E-02  0.1012571E+00
          4   -1    0    0  501    0 -0.00000000000E+00  0.00000000000E+00  0.43917677294E+03  0.43917677294E+03  0.00000000000E+00 0.  1.
          2   -1    0    0  502    0  0.00000000000E+00 -0.00000000000E+00 -0.93437775164E+03  0.93437775164E+03  0.00000000000E+00 0.  1.
        -13    1    1    2    0    0  0.34689587027E+03  0.23988341627E+02 -0.11079882901E+03  0.36495010209E+03  0.10566000000E+00 0.  1.
         13    1    1    2    0    0 -0.17389407794E+02 -0.19429154540E+02  0.73634024147E+01  0.27094545737E+02  0.10566000000E+00 0. -1.
          2    1    1    2  501    0 -0.23218344410E+03  0.11952751613E+03 -0.63784631453E+03  0.68923428512E+03  0.00000000000E+00 0.  1.
          4    1    1    2  502    0 -0.97323018376E+02 -0.12408670321E+03  0.24608076243E+03  0.29227559162E+03  0.00000000000E+00 0.  1.
</event>
<event>
 7    1  0.5696597E-006  0.1191083E+04  0.7818608E-02  0.8797286E-01
         -4   -1    0    0    0  501 -0.00000000000E+00  0.00000000000E+00  0.12681801784E+04  0.12681801784E+04  0.00000000000E+00 0. -1.
          2   -1    0    0  501    0  0.00000000000E+00 -0.00000000000E+00 -0.36220219916E+04  0.36220219916E+04  0.00000000000E+00 0. -1.
   -9000010    2    1    2    0  502  0.56821119461E+03  0.68445147867E+03 -0.12755565461E+04  0.18836764645E+04  0.10629462508E+04 0.  0.
        -13    1    1    2    0    0 -0.14625613603E+03 -0.50345114539E+03  0.86405015325E+03  0.10106614624E+04  0.10566000000E+00 0.  1.
         13    1    3    3    0    0  0.37770853118E+03 -0.23598721860E+03 -0.38128271406E+03  0.58628510221E+03  0.10566000000E+00 0. -1.
          2    1    1    2  502    0 -0.42195505858E+03 -0.18100033329E+03 -0.19423354203E+04  0.19958642432E+04  0.00000000000E+00 0. -1.
         -4    1    3    3    0  502  0.19050266344E+03  0.92043869728E+03 -0.89427383206E+03  0.12973913623E+04  0.00000000000E+00 0. -1.
</event>
<event>
 7    1  0.5696597E-006  0.1352477E+04  0.7818608E-02  0.8586922E-01
          2   -1    0    0  501    0  0.00000000000E+00  0.00000000000E+00  0.11373589919E+04  0.11373589919E+04  0.00000000000E+00 0.  1.
         -4   -1    0    0    0  501 -0.00000000000E+00 -0.00000000000E+00 -0.17020860237E+04  0.17020860237E+04  0.00000000000E+00 0. -1.
   -9000010    2    1    2    0  502  0.54871841489E+03  0.74473816917E+03 -0.65640353873E+03  0.15097983140E+04  0.99644292555E+03 0.  0.
        -13    1    1    2    0    0 -0.62030746494E+03 -0.66427011316E+03 -0.27333435745E+03  0.94907735008E+03  0.10566000000E+00 0.  1.
         13    1    3    3    0    0  0.78034439425E+03  0.26556799375E+03 -0.34855398395E+03  0.89496012416E+03  0.10566000000E+00 0. -1.
          2    1    1    2  502    0  0.71589050054E+02 -0.80468056013E+02  0.36501086447E+03  0.38056935151E+03  0.00000000000E+00 0.  1.
         -4    1    3    3    0  502 -0.23162597936E+03  0.47917017542E+03 -0.30784955478E+03  0.61483818985E+03  0.00000000000E+00 0. -1.
</event>
<event>
 7    1  0.5696597E-006  0.1248821E+04  0.7818608E-02  0.8693395E-01
         -4   -1    0    0    0  501 -0.00000000000E+00  0.00000000000E+00  0.15274489513E+04  0.15274489513E+04  0.00000000000E+00 0. -1.
          1   -1    0    0  501    0  0.00000000000E+00 -0.00000000000E+00 -0.85466735973E+03  0.85466735973E+03  0.00000000000E+00 0. -1.
   -9000010    2    1    2    0  502 -0.65641560797E+03 -0.31035042147E+03  0.14468733589E+03  0.12562025227E+04  0.10148455638E+04 0.  0.
        -13    1    1    2    0    0  0.67308602705E+03  0.27855955074E+03  0.66380610699E+03  0.98553476953E+03  0.10566000000E+00 0.  1.
         13    1    3    3    0    0 -0.30357600014E+03 -0.20095840699E+03  0.58029819850E+03  0.68504647984E+03  0.10566000000E+00 0. -1.
          1    1    1    2  502    0 -0.16670419077E+02  0.31790870729E+02 -0.13571185130E+03  0.14037901879E+03  0.00000000000E+00 0. -1.
         -4    1    3    3    0  502 -0.35283960784E+03 -0.10939201448E+03 -0.43561086261E+03  0.57115604287E+03  0.00000000000E+00 0. -1.
</event>
<event>
 7    1  0.5696597E-006  0.1025908E+04  0.7818608E-02  0.9511846E-01
          4   -1    0    0  501    0 -0.00000000000E+00  0.00000000000E+00  0.33902469778E+03  0.33902469778E+03  0.00000000000E+00 0.  1.
          2   -1    0    0  502    0  0.00000000000E+00 -0.00000000000E+00 -0.21634408187E+04  0.21634408187E+04  0.00000000000E+00 0.  1.
    9000010    2    1    2  502    0 -0.17194707037E+02 -0.12303777583E+02 -0.49124697087E+03  0.11365032520E+04  0.10246311603E+04 0.  0.
        -13    1    3    3    0    0  0.27417684692E+03  0.55598494320E+01  0.23032098955E+03  0.35812235996E+03  0.10566000000E+00 0.  1.
         13    1    1    2    0    0  0.13533030002E+02  0.51285766895E+02 -0.27574657541E+02  0.59780813725E+02  0.10566000000E+00 0. -1.
          2    1    1    2  501    0  0.36616770349E+01 -0.38981989312E+02 -0.13055944925E+04  0.13061814507E+04  0.00000000000E+00 0.  1.
          4    1    3    3  502    0 -0.29137155395E+03 -0.17863627015E+02 -0.72156796041E+03  0.77838089206E+03  0.00000000000E+00 0.  1.
</event>
<event>
 7    1  0.5696597E-006  0.1016019E+04  0.7818608E-02  0.9643313E-01
          2   -1    0    0  502    0  0.00000000000E+00  0.00000000000E+00  0.22694156385E+04  0.22694156385E+04  0.00000000000E+00 0.  1.
          4   -1    0    0  501    0 -0.00000000000E+00 -0.00000000000E+00 -0.24168024514E+03  0.24168024514E+03  0.00000000000E+00 0.  1.
    9000010    2    1    2  502    0 -0.12699833563E+03  0.11964362968E+03  0.91323179272E+03  0.13625964654E+04  0.99610925350E+03 0.  0.
        -13    1    3    3    0    0 -0.42620836123E+03 -0.84226008737E+02  0.63658503661E+02  0.43908997253E+03  0.10566000000E+00 0.  1.
         13    1    1    2    0    0 -0.32822754319E+02  0.26507800017E+01  0.27146961734E+02  0.42677025800E+02  0.10566000000E+00 0. -1.
          2    1    1    2  501    0  0.15982108995E+03 -0.12229440968E+03  0.10873566389E+04  0.11058223924E+04  0.00000000000E+00 0.  1.
          4    1    3    3  502    0  0.29921002559E+03  0.20386963842E+03  0.84957328906E+03  0.92350649287E+03  0.00000000000E+00 0.  1.
</event>
<event>
 7    1  0.5696597E-006  0.1078718E+04  0.7818608E-02  0.8993383E-01
         -2   -1    0    0    0  501  0.00000000000E+00  0.00000000000E+00  0.47618012237E+03  0.47618012237E+03  0.00000000000E+00 0. -1.
         -4   -1    0    0    0  502 -0.00000000000E+00 -0.00000000000E+00 -0.14949900795E+04  0.14949900795E+04  0.00000000000E+00 0. -1.
   -9000010    2    1    2    0  501 -0.31441802405E+03  0.80778795523E+02 -0.87715253565E+03  0.13911782272E+04  0.10298526018E+04 0.  0.
        -13    1    1    2    0    0  0.24867935542E+03 -0.21420889312E+03 -0.23563779045E+03  0.40404461530E+03  0.10566000000E+00 0.  1.
         13    1    3    3    0    0 -0.54907497949E+02  0.43942494915E+03 -0.40580411729E+02  0.44469753793E+03  0.10566000000E+00 0. -1.
         -2    1    1    2    0  502  0.65738668629E+02  0.13343009760E+03  0.93980368988E+02  0.17594735932E+03  0.00000000000E+00 0. -1.
         -4    1    3    3    0  501 -0.25951052610E+03 -0.35864615362E+03 -0.83657212392E+03  0.94648068928E+03  0.00000000000E+00 0. -1.
</event>
<event>
 7    1  0.5696597E-006  0.1051970E+04  0.7818608E-02  0.9004223E-01
          2   -1    0    0  502    0  0.00000000000E+00  0.00000000000E+00  0.15519065677E+04  0.15519065677E+04  0.00000000000E+00 0.  1.
          4   -1    0    0  501    0 -0.00000000000E+00 -0.00000000000E+00 -0.60404871581E+03  0.60404871581E+03  0.00000000000E+00 0.  1.
    9000010    2    1    2  502    0  0.32710898240E+02 -0.33150399528E+03  0.86618259857E+03  0.13631410736E+04  0.99845700501E+03 0.  0.
        -13    1    3    3    0    0 -0.20377279631E+03 -0.31696638016E+03 -0.82142802383E+02  0.38566629334E+03  0.10566000000E+00 0.  1.
         13    1    1    2    0    0 -0.43495592358E+02  0.32826132077E+03 -0.27836955503E+03  0.43259332126E+03  0.10566000000E+00 0. -1.
          2    1    1    2  501    0  0.10784694118E+02  0.32426745015E+01  0.36004480833E+03  0.36022088858E+03  0.00000000000E+00 0.  1.
          4    1    3    3  502    0  0.23648369455E+03 -0.14537615113E+02  0.94832540096E+03  0.97747478031E+03  0.00000000000E+00 0.  1.
</event>
<event>
 7    1  0.5696597E-006  0.1139340E+04  0.7818608E-02  0.8980639E-01
         -4   -1    0    0    0  501 -0.00000000000E+00  0.00000000000E+00  0.11898902074E+04  0.11898902074E+04  0.00000000000E+00 0. -1.
          2   -1    0    0  501    0  0.00000000000E+00 -0.00000000000E+00 -0.10630676728E+04  0.10630676728E+04  0.00000000000E+00 0. -1.
   -9000010    2    1    2    0  502  0.30995955618E+03  0.91337968070E+01  0.16674886109E+03  0.10683894809E+04  0.10087083561E+04 0.  0.
        -13    1    1    2    0    0  0.26060274675E+03  0.11997243181E+03  0.37150523875E+03  0.46938611994E+03  0.10566000000E+00 0.  1.
         13    1    3    3    0    0 -0.22937742818E+03  0.21017390749E+03 -0.21459294899E+03  0.37793811777E+03  0.10566000000E+00 0. -1.
          2    1    1    2  502    0 -0.57056230293E+03 -0.12910622861E+03 -0.41143156517E+03  0.71518227929E+03  0.00000000000E+00 0. -1.
         -4    1    3    3    0  502  0.53933698436E+03 -0.20104011068E+03  0.38134181007E+03  0.69045136317E+03  0.00000000000E+00 0. -1.
</event>
<event>
 7    1  0.5696597E-006  0.1041895E+04  0.7818608E-02  0.9133918E-01
          2   -1    0    0  501    0  0.00000000000E+00  0.00000000000E+00  0.24781143765E+04  0.24781143765E+04  0.00000000000E+00 0.  1.
         -4   -1    0    0    0  501 -0.00000000000E+00 -0.00000000000E+00 -0.77575567611E+03  0.77575567611E+03  0.00000000000E+00 0. -1.
   -9000010    2    1    2    0  502 -0.68110734042E+02 -0.15086264900E+03  0.11265313391E+03  0.10412909745E+04  0.10218598505E+04 0.  0.
        -13    1    1    2    0    0  0.12630812795E+03  0.16252379267E+03 -0.27690354535E+03  0.34502653661E+03  0.10566000000E+00 0.  1.
         13    1    3    3    0    0 -0.11586895778E+03 -0.58013499123E+03  0.14192650367E+03  0.60837929537E+03  0.10566000000E+00 0. -1.
          2    1    1    2  502    0 -0.58197393912E+02 -0.11661143666E+02  0.18666091119E+04  0.18675525415E+04  0.00000000000E+00 0.  1.
         -4    1    3    3    0  502  0.47758223738E+02  0.42927234223E+03 -0.29273369755E+02  0.43291167911E+03  0.00000000000E+00 0. -1.
</event>
<event>
 7    1  0.5696597E-006  0.9451821E+03  0.7818608E-02  0.9141486E-01
         -4   -1    0    0    0  501 -0.00000000000E+00  0.00000000000E+00  0.92321351935E+03  0.92321351935E+03  0.00000000000E+00 0. -1.
          1   -1    0    0  501    0  0.00000000000E+00 -0.00000000000E+00 -0.84739298475E+03  0.84739298475E+03  0.00000000000E+00 0. -1.
   -9000010    2    1    2    0  502  0.19883785004E+03  0.10069356322E+03  0.28813644335E+03  0.97783700500E+03  0.90745077777E+03 0.  0.
        -13    1    1    2    0    0 -0.25004725852E+03 -0.10751763260E+03  0.22455300121E+03  0.35285653506E+03  0.10566000000E+00 0.  1.
         13    1    3    3    0    0 -0.25582856308E+02 -0.14770113936E+03 -0.28046444046E+03  0.31801009832E+03  0.10566000000E+00 0. -1.
          1    1    1    2  502    0  0.51209408485E+02  0.68240693815E+01 -0.43686890996E+03  0.43991296404E+03  0.00000000000E+00 0. -1.
         -4    1    3    3    0  502  0.22442070635E+03  0.24839470258E+03  0.56860088381E+03  0.65982690668E+03  0.00000000000E+00 0. -1.
</event>
<event>
 7    1  0.5696597E-006  0.1045485E+04  0.7818608E-02  0.9026349E-01
          4   -1    0    0  501    0 -0.00000000000E+00  0.00000000000E+00  0.46087078527E+03  0.46087078527E+03  0.00000000000E+00 0.  1.
          2   -1    0    0  502    0  0.00000000000E+00 -0.00000000000E+00 -0.22539404065E+04  0.22539404065E+04  0.00000000000E+00 0.  1.
    9000010    2    1    2  502    0 -0.92723918371E+01  0.31070083522E+03 -0.98890963806E+03  0.14395611960E+04  0.99888596871E+03 0.  0.
        -13    1    3    3    0    0 -0.22290396048E+03 -0.12723151937E+03 -0.91056041717E+03  0.94604139423E+03  0.10566000000E+00 0.  1.
         13    1    1    2    0    0 -0.11652995625E+02 -0.30830196061E+03  0.13434884516E+03  0.33650485076E+03  0.10566000000E+00 0. -1.
          2    1    1    2  501    0  0.20925387462E+02 -0.23988746082E+01 -0.93850882833E+03  0.93874514501E+03  0.00000000000E+00 0.  1.
          4    1    3    3  502    0  0.21363156864E+03  0.43793235458E+03 -0.78349220888E+02  0.49351980175E+03  0.00000000000E+00 0.  1.
</event>
<event>
 7    1  0.5696597E-006  0.9444044E+03  0.7818608E-02  0.9295806E-01
         -4   -1    0    0    0  501 -0.00000000000E+00  0.00000000000E+00  0.53284600497E+03  0.53284600497E+03  0.00000000000E+00 0. -1.
          2   -1    0    0  501    0  0.00000000000E+00 -0.00000000000E+00 -0.99810340012E+03  0.99810340012E+03  0.00000000000E+00 0. -1.
   -9000010    2    1    2    0  502 -0.97743035898E+02 -0.61607510717E+02 -0.45195500530E+02  0.94124328452E+03  0.93303113610E+03 0.  0.
        -13    1    1    2    0    0  0.13385848023E+03  0.68466877213E+02  0.16811082265E+02  0.15128922518E+03  0.10566000000E+00 0.  1.
         13    1    3    3    0    0 -0.18177957298E+03  0.40800286740E+03  0.65651656764E+02  0.45146462116E+03  0.10566000000E+00 0. -1.
          2    1    1    2  502    0 -0.36115444336E+02 -0.68593664961E+01 -0.43687297689E+03  0.43841689539E+03  0.00000000000E+00 0. -1.
         -4    1    3    3    0  502  0.84036537079E+02 -0.46961037812E+03 -0.11084715729E+03  0.48977866336E+03  0.00000000000E+00 0. -1.
</event>
<event>
 7    1  0.5696597E-006  0.1115325E+04  0.7818608E-02  0.8867609E-01
         -4   -1    0    0    0  501 -0.00000000000E+00  0.00000000000E+00  0.86505711456E+03  0.86505711456E+03  0.00000000000E+00 0. -1.
          1   -1    0    0  501    0  0.00000000000E+00 -0.00000000000E+00 -0.23999774058E+04  0.23999774058E+04  0.00000000000E+00 0. -1.
   -9000010    2    1    2    0  502  0.43824696879E+03 -0.16778689761E+02 -0.27885448729E+03  0.11299696157E+04  0.10033591467E+04 0.  0.
        -13    1    1    2    0    0 -0.40069368280E+03  0.32206101671E+03  0.26836548352E+03  0.57991272604E+03  0.10566000000E+00 0.  1.
         13    1    3    3    0    0  0.64932454090E+03  0.29118686803E+03 -0.25468960390E+03  0.75582997892E+03  0.10566000000E+00 0. -1.
          1    1    1    2  502    0 -0.37553285994E+02 -0.30528232694E+03 -0.15244312875E+04  0.15551521786E+04  0.00000000000E+00 0. -1.
         -4    1    3    3    0  502 -0.21107757212E+03 -0.30796555779E+03 -0.24164883390E+02  0.37413963680E+03  0.00000000000E+00 0. -1.
</event>
<event>
 7    1  0.5696597E-006  0.1020045E+04  0.7818608E-02  0.9251298E-01
          4   -1    0    0  501    0 -0.00000000000E+00  0.00000000000E+00  0.16614504796E+04  0.16614504796E+04  0.00000000000E+00 0.  1.
          2   -1    0    0  502    0  0.00000000000E+00 -0.00000000000E+00 -0.11774870680E+04  0.11774870680E+04  0.00000000000E+00 0.  1.
    9000010    2    1    2  502    0 -0.30390218023E+03  0.15082829459E+02  0.66712894200E+03  0.12442577991E+04  0.10052524153E+04 0.  0.
        -13    1    3    3    0    0 -0.61545271882E+03  0.23148343047E+03  0.32521756248E+03  0.73357555970E+03  0.10566000000E+00 0.  1.
         13    1    1    2    0    0  0.13302446294E+03 -0.34451644240E+02  0.69060671424E+03  0.70414492006E+03  0.10566000000E+00 0. -1.
          2    1    1    2  501    0  0.17087771729E+03  0.19368814780E+02 -0.87377224465E+03  0.89053482850E+03  0.00000000000E+00 0.  1.
          4    1    3    3  502    0  0.31155053859E+03 -0.21640060101E+03  0.34191137953E+03  0.51068223942E+03  0.00000000000E+00 0.  1.
</event>
<event>
 7    1  0.5696597E-006  0.1206290E+04  0.7818608E-02  0.8738590E-01
          2   -1    0    0  501    0  0.00000000000E+00  0.00000000000E+00  0.27231774763E+04  0.27231774763E+04  0.00000000000E+00 0. -1.
         -4   -1    0    0    0  501 -0.00000000000E+00 -0.00000000000E+00 -0.79016071012E+03  0.79016071012E+03  0.00000000000E+00 0. -1.
   -9000010    2    1    2    0  502 -0.23901780750E+03  0.66058591177E+03  0.23428899010E+04  0.26450439416E+04  0.10067875177E+04 0.  0.
        -13    1    1    2    0    0  0.30161141219E+03 -0.58895753057E+03 -0.31115316264E+03  0.73120224190E+03  0.10566000000E+00 0.  1.
         13    1    3    3    0    0  0.35068998224E+03  0.10103687800E+03  0.11083520657E+04  0.11668916946E+04  0.10566000000E+00 0. -1.
          2    1    1    2  502    0 -0.62593604688E+02 -0.71628381204E+02 -0.98719972187E+02  0.13709200287E+03  0.00000000000E+00 0. -1.
         -4    1    3    3    0  502 -0.58970778974E+03  0.55954903377E+03  0.12345378353E+04  0.14781522470E+04  0.00000000000E+00 0. -1.
</event>
<event>
 7    1  0.5696597E-006  0.1078678E+04  0.7818608E-02  0.9096178E-01
          2   -1    0    0  502    0  0.00000000000E+00  0.00000000000E+00  0.22091645505E+04  0.22091645505E+04  0.00000000000E+00 0.  1.
          4   -1    0    0  501    0 -0.00000000000E+00 -0.00000000000E+00 -0.44369492269E+03  0.44369492269E+03  0.00000000000E+00 0.  1.
    9000010    2    1    2  502    0 -0.43508098601E+03 -0.14362271689E+03  0.44634205819E+03  0.11838927792E+04  0.99622182802E+03 0.  0.
        -13    1    3    3    0    0 -0.38084569061E+03 -0.50257178157E+03  0.51534177591E+03  0.81437030450E+03  0.10566000000E+00 0.  1.
         13    1    1    2    0    0  0.14721437322E+03 -0.15347452077E+03  0.63308627483E+03  0.66785083870E+03  0.10566000000E+00 0. -1.
          2    1    1    2  501    0  0.28786661279E+03  0.29709723767E+03  0.68604129481E+03  0.80111585527E+03  0.00000000000E+00 0.  1.
          4    1    3    3  502    0 -0.54235295401E+02  0.35894906467E+03 -0.68999717718E+02  0.36952247474E+03  0.00000000000E+00 0.  1.
</event>
<event>
 7    1  0.5696597E-006  0.1199754E+04  0.7818608E-02  0.8724953E-01
         -2   -1    0    0    0  501  0.00000000000E+00  0.00000000000E+00  0.11116218008E+04  0.11116218008E+04  0.00000000000E+00 0. -1.
         -4   -1    0    0    0  502 -0.00000000000E+00 -0.00000000000E+00 -0.19735530716E+04  0.19735530716E+04  0.00000000000E+00 0. -1.
   -9000010    2    1    2    0  501  0.64159548721E+03 -0.99219414789E+02 -0.49845741315E+02  0.12049221640E+04  0.10138360626E+04 0.  0.
        -13    1    1    2    0    0 -0.35953591544E+03 -0.61935881689E+03 -0.84493073132E+03  0.11076007270E+04  0.10566000000E+00 0.  1.
         13    1    3    3    0    0 -0.14876406353E+03  0.38309266075E+02  0.29430404216E+03  0.33198377500E+03  0.10566000000E+00 0. -1.
         -2    1    1    2    0  502 -0.28205957176E+03  0.71857823168E+03  0.32845201803E+02  0.77265198139E+03  0.00000000000E+00 0. -1.
         -4    1    3    3    0  501  0.79035955074E+03 -0.13752868086E+03 -0.34414978348E+03  0.87293838899E+03  0.00000000000E+00 0. -1.
</event>
<event>
 7    1  0.5696597E-006  0.1048396E+04  0.7818608E-02  0.9025260E-01
          2   -1    0    0  501    0  0.00000000000E+00  0.00000000000E+00  0.29368365990E+03  0.29368365990E+03  0.00000000000E+00 0. -1.
         -4   -1    0    0    0  501 -0.00000000000E+00 -0.00000000000E+00 -0.27162070047E+04  0.27162070047E+04  0.00000000000E+00 0. -1.
   -9000010    2    1    2    0  502 -0.24284000456E+03  0.19261731734E+03 -0.13731464059E+04  0.17280697211E+04  0.10023079419E+04 0.  0.
        -13    1    1    2    0    0  0.23350698557E+03 -0.19955709165E+03 -0.11450044263E+04  0.11854887990E+04  0.10566000000E+00 0.  1.
         13    1    3    3    0    0  0.53908870417E+02  0.55896945869E+03 -0.59432033120E+03  0.81766110908E+03  0.10566000000E+00 0. -1.
          2    1    1    2  502    0  0.93330189944E+01  0.69397743050E+01  0.95627487399E+02  0.96332144465E+02  0.00000000000E+00 0. -1.
         -4    1    3    3    0  502 -0.29674887498E+03 -0.36635214135E+03 -0.77882607467E+03  0.91040861203E+03  0.00000000000E+00 0. -1.
</event>
<event>
 7    1  0.5696597E-006  0.1152895E+04  0.7818608E-02  0.9036663E-01
          2   -1    0    0  501    0  0.00000000000E+00  0.00000000000E+00  0.21192412100E+04  0.21192412100E+04  0.00000000000E+00 0.  1.
         -4   -1    0    0    0  501 -0.00000000000E+00 -0.00000000000E+00 -0.16023019786E+04  0.16023019786E+04  0.00000000000E+00 0. -1.
   -9000010    2    1    2    0  502  0.36271879506E+03 -0.16061991326E+03 -0.37641825653E+03  0.11420458579E+04  0.10026037886E+04 0.  0.
        -13    1    1    2    0    0  0.21066141625E+03  0.66235540677E+02 -0.77866616234E+03  0.80937406845E+03  0.10566000000E+00 0.  1.
         13    1    3    3    0    0  0.64982778110E+03 -0.32376889094E+03 -0.14917315828E+03  0.74118491764E+03  0.10566000000E+00 0. -1.
          2    1    1    2  502    0 -0.57338021132E+03  0.94384372581E+02  0.16720236503E+04  0.17701232623E+04  0.00000000000E+00 0.  1.
         -4    1    3    3    0  502 -0.28710898604E+03  0.16314897768E+03 -0.22724509825E+03  0.40086094030E+03  0.00000000000E+00 0. -1.
</event>
<event>
 7    1  0.5696597E-006  0.1066804E+04  0.7818608E-02  0.8969291E-01
          2   -1    0    0  501    0  0.00000000000E+00  0.00000000000E+00  0.69025064107E+03  0.69025064107E+03  0.00000000000E+00 0.  1.
         -4   -1    0    0    0  501 -0.00000000000E+00 -0.00000000000E+00 -0.32471737089E+04  0.32471737089E+04  0.00000000000E+00 0. -1.
   -9000010    2    1    2    0  502  0.29429823273E+03  0.21189817526E+03 -0.22444317309E+04  0.24845725714E+04  0.10020552787E+04 0.  0.
        -13    1    1    2    0    0 -0.18424681291E+03 -0.32751680949E+03 -0.83009607857E+03  0.91119353563E+03  0.10566000000E+00 0.  1.
         13    1    3    3    0    0  0.36613529259E+03 -0.23260241802E+03 -0.18014133464E+04  0.18529028558E+04  0.10566000000E+00 0. -1.
          2    1    1    2  502    0 -0.11005141982E+03  0.11561863423E+03  0.51760474162E+03  0.54165824293E+03  0.00000000000E+00 0.  1.
         -4    1    3    3    0  502 -0.71837059861E+02  0.44450059328E+03 -0.44301838449E+03  0.63166971559E+03  0.00000000000E+00 0. -1.
</event>
<event>
 7    1  0.5696597E-006  0.1081170E+04  0.7818608E-02  0.8934332E-01
          2   -1    0    0  501    0  0.00000000000E+00  0.00000000000E+00  0.59179251240E+03  0.59179251240E+03  0.00000000000E+00 0.  1.
         -4   -1    0    0    0  501 -0.00000000000E+00 -0.00000000000E+00 -0.15922677854E+04  0.15922677854E+04  0.00000000000E+00 0. -1.
   -9000010    2    1    2    0  502  0.33234771497E+03  0.24138726261E+03 -0.80027317865E+03  0.13466708900E+04  0.10021788819E+04 0.  0.
        -13    1    1    2    0    0 -0.33261427294E+03 -0.22970628709E+03 -0.43989312884E+03  0.59741376688E+03  0.10566000000E+00 0.  1.
         13    1    3    3    0    0  0.37524377547E+03  0.54634333957E+03 -0.23549753851E+03  0.70339038772E+03  0.10566000000E+00 0. -1.
          2    1    1    2  502    0  0.26655797487E+00 -0.11680975512E+02  0.23969103448E+03  0.23997564095E+03  0.00000000000E+00 0.  1.
         -4    1    3    3    0  502 -0.42896060504E+02 -0.30495607697E+03 -0.56477564014E+03  0.64328050226E+03  0.00000000000E+00 0. -1.
</event>
<event>
 7    1  0.5696597E-006  0.1103834E+04  0.7818608E-02  0.8948915E-01
          4   -1    0    0  501    0 -0.00000000000E+00  0.00000000000E+00  0.25528310997E+03  0.25528310997E+03  0.00000000000E+00 0.  1.
          2   -1    0    0  502    0  0.00000000000E+00 -0.00000000000E+00 -0.33044274523E+04  0.33044274523E+04  0.00000000000E+00 0.  1.
    9000010    2    1    2  502    0 -0.42788199123E+03 -0.10882560986E+03 -0.26017795502E+04  0.28379055916E+04  0.10438032895E+04 0.  0.
        -13    1    3    3    0    0 -0.65561451429E+02 -0.51992225785E+03 -0.17352207583E+04  0.18126247679E+04  0.10566000000E+00 0.  1.
         13    1    1    2    0    0  0.32504294132E+03  0.13548792459E+03 -0.11125857387E+03  0.36930796476E+03  0.10566000000E+00 0. -1.
          2    1    1    2  501    0  0.10283904992E+03 -0.26662314734E+02 -0.33610621828E+03  0.35249700592E+03  0.00000000000E+00 0.  1.
          4    1    3    3  502    0 -0.36232053980E+03  0.41109664800E+03 -0.86655879187E+03  0.10252808236E+04  0.00000000000E+00 0.  1.
</event>
<event>
 7    1  0.5696597E-006  0.1566869E+04  0.7818608E-02  0.8435793E-01
         -4   -1    0    0    0  501 -0.00000000000E+00  0.00000000000E+00  0.31362671632E+04  0.31362671632E+04  0.00000000000E+00 0. -1.
          2   -1    0    0  501    0  0.00000000000E+00 -0.00000000000E+00 -0.81979642724E+03  0.81979642724E+03  0.00000000000E+00 0.  1.
   -9000010    2    1    2    0  502 -0.43188810819E+03  0.10871148393E+04  0.21550248566E+04  0.26662888882E+04  0.10471954407E+04 0.  0.
        -13    1    1    2    0    0  0.44314221387E+03 -0.10697975305E+04  0.26191989237E+03  0.11871999912E+04  0.10566000000E+00 0.  1.
         13    1    3    3    0    0 -0.73999620262E+03  0.48245887454E+03  0.13506571172E+04  0.16138883496E+04  0.10566000000E+00 0. -1.
          2    1    1    2  502    0 -0.11254105675E+02 -0.17317308761E+02 -0.10047401293E+03  0.10257471107E+03  0.00000000000E+00 0.  1.
         -4    1    3    3    0  502  0.30810809442E+03  0.60465596472E+03  0.80436773935E+03  0.10524005386E+04  0.00000000000E+00 0. -1.
</event>
<event>
 7    1  0.5696597E-006  0.1012222E+04  0.7818608E-02  0.9191583E-01
          2   -1    0    0  501    0  0.00000000000E+00  0.00000000000E+00  0.24586836928E+04  0.24586836928E+04  0.00000000000E+00 0.  1.
         -4   -1    0    0    0  501 -0.00000000000E+00 -0.00000000000E+00 -0.36663456877E+03  0.36663456877E+03  0.00000000000E+00 0. -1.
   -9000010    2    1    2    0  502 -0.21004485617E+03 -0.15619542937E+03  0.11584411582E+04  0.15504041660E+04  0.99661994129E+03 0.  0.
        -13    1    1    2    0    0  0.91554193497E+02  0.14888343855E+03 -0.12168232807E+03  0.21296724807E+03  0.10566000000E+00 0.  1.
         13    1    3    3    0    0 -0.12839729368E+03  0.25825486348E+03 -0.29191745318E+02  0.28988550963E+03  0.10566000000E+00 0. -1.
          2    1    1    2  502    0  0.11849066267E+03  0.73119908115E+01  0.10552902939E+04  0.10619468474E+04  0.00000000000E+00 0.  1.
         -4    1    3    3    0  502 -0.81647562489E+02 -0.41445029285E+03  0.11876329035E+04  0.12605186564E+04  0.00000000000E+00 0. -1.
</event>
<event>
 7    1  0.5696597E-006  0.1009203E+04  0.7818608E-02  0.9288644E-01
         -4   -1    0    0    0  501 -0.00000000000E+00  0.00000000000E+00  0.13132139452E+04  0.13132139452E+04  0.00000000000E+00 0. -1.
          1   -1    0    0  501    0  0.00000000000E+00 -0.00000000000E+00 -0.71958858976E+03  0.71958858976E+03  0.00000000000E+00 0.  1.
   -9000010    2    1    2    0  502  0.11152181517E+02 -0.13653142914E+03  0.85761915579E+03  0.13257549424E+04  0.10016737736E+04 0.  0.
        -13    1    1    2    0    0 -0.20942553962E+02  0.12027239861E+03  0.20450047220E+03  0.23816904653E+03  0.10566000000E+00 0.  1.
         13    1    3    3    0    0  0.33575310570E+03 -0.29890526641E+03  0.85136331191E+03  0.96275334656E+03  0.10566000000E+00 0. -1.
          1    1    1    2  502    0  0.97903724453E+01  0.16259030533E+02 -0.46849427257E+03  0.46887854600E+03  0.00000000000E+00 0.  1.
         -4    1    3    3    0  502 -0.32460092419E+03  0.16237383727E+03  0.62558438767E+01  0.36300159586E+03  0.00000000000E+00 0. -1.
</event>
<event>
 7    1  0.5696597E-006  0.1045441E+04  0.7818608E-02  0.9224874E-01
          2   -1    0    0  501    0  0.00000000000E+00  0.00000000000E+00  0.17927135563E+04  0.17927135563E+04  0.00000000000E+00 0. -1.
         -4   -1    0    0    0  501 -0.00000000000E+00 -0.00000000000E+00 -0.32446257861E+03  0.32446257861E+03  0.00000000000E+00 0. -1.
   -9000010    2    1    2    0  502 -0.82893647881E+02  0.12785688188E+03  0.11667088790E+04  0.15676144627E+04  0.10358507403E+04 0.  0.
        -13    1    1    2    0    0  0.76048596137E+02 -0.11867881324E+03 -0.83843874014E+02  0.16400565862E+03  0.10566000000E+00 0.  1.
         13    1    3    3    0    0  0.39494241041E+03  0.47023361510E+02  0.96302650802E+03  0.10419264707E+04  0.10566000000E+00 0. -1.
          2    1    1    2  502    0  0.68450517440E+01 -0.91780686403E+01  0.38538597271E+03  0.38555601362E+03  0.00000000000E+00 0. -1.
         -4    1    3    3    0  502 -0.47783605829E+03  0.80833520372E+02  0.20368237097E+03  0.52568799194E+03  0.00000000000E+00 0. -1.
</event>
<event>
 7    1  0.5696597E-006  0.1043210E+04  0.7818608E-02  0.9063952E-01
         -4   -1    0    0    0  501 -0.00000000000E+00  0.00000000000E+00  0.27856617531E+04  0.27856617531E+04  0.00000000000E+00 0. -1.
          2   -1    0    0  501    0  0.00000000000E+00 -0.00000000000E+00 -0.25060009404E+03  0.25060009404E+03  0.00000000000E+00 0. -1.
   -9000010    2    1    2    0  502  0.26716279200E+03  0.52327374372E+02  0.18145007288E+04  0.20936565111E+04  0.10084000100E+04 0.  0.
        -13    1    1    2    0    0 -0.25955608093E+03 -0.60413944682E+02  0.80988003840E+03  0.85259890431E+03  0.10566000000E+00 0.  1.
         13    1    3    3    0    0  0.18401581479E+03  0.48505738222E+03  0.55695926647E+03  0.76114789615E+03  0.10566000000E+00 0. -1.
          2    1    1    2  502    0 -0.76067110671E+01  0.80865703101E+01 -0.89319108136E+02  0.90006431720E+02  0.00000000000E+00 0. -1.
         -4    1    3    3    0  502  0.83146977202E+02 -0.43273000785E+03  0.12575414623E+04  0.13325086150E+04  0.00000000000E+00 0. -1.
</event>
<event>
 7    1  0.5696597E-006  0.9907203E+03  0.7818608E-02  0.9287336E-01
          4   -1    0    0  501    0 -0.00000000000E+00  0.00000000000E+00  0.22364304353E+04  0.22364304353E+04  0.00000000000E+00 0.  1.
          2   -1    0    0  502    0  0.00000000000E+00 -0.00000000000E+00 -0.37925909987E+03  0.37925909987E+03  0.00000000000E+00 0. -1.
    9000010    2    1    2  502    0  0.13297082109E+02  0.47558638884E+02  0.14524565080E+04  0.17539982078E+04  0.98205965648E+03 0.  0.
        -13    1    3    3    0    0  0.19130980332E+03  0.46994091064E+03  0.59704495778E+03  0.78352191617E+03  0.10566000000E+00 0.  1.
         13    1    1    2    0    0  0.41561308294E+02 -0.12850294173E+03  0.61506820674E+03  0.62972157220E+03  0.10566000000E+00 0. -1.
          2    1    1    2  501    0 -0.54858390404E+02  0.80944302844E+02 -0.21035337927E+03  0.23196975520E+03  0.00000000000E+00 0. -1.
          4    1    3    3  502    0 -0.17801272121E+03 -0.42238227176E+03  0.85541155021E+03  0.97047629164E+03  0.00000000000E+00 0.  1.
</event>
<event>
 7    1  0.5696597E-006  0.9076202E+03  0.7818608E-02  0.9216810E-01
         -4   -1    0    0    0  501 -0.00000000000E+00  0.00000000000E+00  0.13558413075E+04  0.13558413075E+04  0.00000000000E+00 0. -1.
          2   -1    0    0  501    0  0.00000000000E+00 -0.00000000000E+00 -0.67104305065E+03  0.67104305065E+03  0.00000000000E+00 0.  1.
   -9000010    2    1    2    0  502  0.67679959527E+02 -0.21741347589E+03  0.21365380598E+03  0.93362996451E+03  0.87986803863E+03 0.  0.
        -13    1    1    2    0    0 -0.10800519732E+03  0.19476396732E+03  0.76449868147E+03  0.79627656674E+03  0.10566000000E+00 0.  1.
         13    1    3    3    0    0 -0.37460475742E+03  0.69498794534E+02  0.10724741244E+03  0.39580402394E+03  0.10566000000E+00 0. -1.
          2    1    1    2  502    0  0.40325237788E+02  0.22649508573E+02 -0.29335423061E+03  0.29697782688E+03  0.00000000000E+00 0.  1.
         -4    1    3    3    0  502  0.44228471695E+03 -0.28691227042E+03  0.10640639353E+03  0.53782594057E+03  0.00000000000E+00 0. -1.
</event>
<event>
 7    1  0.5696597E-006  0.1119633E+04  0.7818608E-02  0.8816468E-01
         -4   -1    0    0    0  501 -0.00000000000E+00  0.00000000000E+00  0.12193689780E+04  0.12193689780E+04  0.00000000000E+00 0. -1.
          2   -1    0    0  501    0  0.00000000000E+00 -0.00000000000E+00 -0.15808566252E+04  0.15808566252E+04  0.00000000000E+00 0. -1.
   -9000010    2    1    2    0  502 -0.18580057914E+03  0.61004910086E+02 -0.31656762252E+03  0.10611662933E+04  0.99378840215E+03 0.  0.
        -13    1    1    2    0    0  0.16776798751E+02  0.59639277891E+03  0.56854278083E+03  0.82413998356E+03  0.10566000000E+00 0.  1.
         13    1    3    3    0    0 -0.39430901414E+03 -0.22273234030E+03  0.14962181117E+03  0.47694443239E+03  0.10566000000E+00 0. -1.
          2    1    1    2  502    0  0.16902378038E+03 -0.65739768900E+03 -0.61346280549E+03  0.91491932626E+03  0.00000000000E+00 0. -1.
         -4    1    3    3    0  502  0.20850843501E+03  0.28373725039E+03 -0.46618943369E+03  0.58422186095E+03  0.00000000000E+00 0. -1.
</event>
<event>
 6    1  0.5696597E-006  0.5968767E+03  0.7818608E-02  0.9308420E-01
          1   -1    0    0  501    0  0.00000000000E+00  0.00000000000E+00  0.32175117674E+04  0.32175117674E+04  0.00000000000E+00 0.  1.
         -4   -1    0    0    0  501 -0.00000000000E+00 -0.00000000000E+00 -0.28567100902E+03  0.28567100902E+03  0.00000000000E+00 0. -1.
        -13    1    1    2    0    0 -0.48377058830E+03 -0.21196627612E+03  0.14381347270E+04  0.15320558699E+04  0.10566000000E+00 0.  1.
         13    1    1    2    0    0  0.36553796777E+03  0.37567139221E+03  0.14925518290E+03  0.54499919412E+03  0.10566000000E+00 0. -1.
          1    1    1    2  502    0  0.42787739433E+02 -0.13584892078E+03  0.13378762257E+04  0.13454361802E+04  0.00000000000E+00 0.  1.
         -4    1    1    2    0  502  0.75444881096E+02 -0.27856195307E+02  0.65746228508E+01  0.80691532184E+02  0.00000000000E+00 0. -1.
</event>
<event>
 7    1  0.5696597E-006  0.1065956E+04  0.7818608E-02  0.8990833E-01
          2   -1    0    0  502    0  0.00000000000E+00  0.00000000000E+00  0.14018759888E+04  0.14018759888E+04  0.00000000000E+00 0.  1.
          4   -1    0    0  501    0 -0.00000000000E+00 -0.00000000000E+00 -0.63232335437E+03  0.63232335437E+03  0.00000000000E+00 0.  1.
    9000010    2    1    2  502    0 -0.34294336093E+02  0.32579791860E+03  0.63889226623E+03  0.12404806934E+04  0.10115773018E+04 0.  0.
        -13    1    3    3    0    0  0.15552595128E+03  0.64673420296E+03  0.53438755501E+03  0.85324294366E+03  0.10566000000E+00 0.  1.
         13    1    1    2    0    0  0.40584699799E+02 -0.33444154002E+03 -0.24584673310E+03  0.41705981452E+03  0.10566000000E+00 0. -1.
          2    1    1    2  501    0 -0.62903637057E+01  0.86436214212E+01  0.37650710133E+03  0.37665883531E+03  0.00000000000E+00 0.  1.
          4    1    3    3  502    0 -0.18982028737E+03 -0.32093628436E+03  0.10450471122E+03  0.38723774969E+03  0.00000000000E+00 0.  1.
</event>
<event>
 7    1  0.5696597E-006  0.1014212E+04  0.7818608E-02  0.9196901E-01
         -4   -1    0    0    0  501 -0.00000000000E+00  0.00000000000E+00  0.38361172473E+03  0.38361172473E+03  0.00000000000E+00 0. -1.
          2   -1    0    0  501    0  0.00000000000E+00 -0.00000000000E+00 -0.11691881888E+04  0.11691881888E+04  0.00000000000E+00 0. -1.
   -9000010    2    1    2    0  502  0.98693664632E+02 -0.10162670881E+03 -0.72533740131E+03  0.12430146849E+04  0.99945121629E+03 0.  0.
        -13    1    1    2    0    0 -0.15628778260E+03  0.78612734722E+02  0.51170433031E+02  0.18227522441E+03  0.10566000000E+00 0.  1.
         13    1    3    3    0    0  0.11202948694E+03 -0.40327820621E+03  0.39815402598E+02  0.42043928812E+03  0.10566000000E+00 0. -1.
          2    1    1    2  502    0  0.57594117972E+02  0.23013974089E+02 -0.11140949583E+03  0.12751000427E+03  0.00000000000E+00 0. -1.
         -4    1    3    3    0  502 -0.13335822305E+02  0.30165149740E+03 -0.76515280391E+03  0.82257539677E+03  0.00000000000E+00 0. -1.
</event>
<event>
 7    1  0.5696597E-006  0.1053076E+04  0.7818608E-02  0.9020350E-01
         -4   -1    0    0    0  501 -0.00000000000E+00  0.00000000000E+00  0.63822172336E+03  0.63822172336E+03  0.00000000000E+00 0. -1.
          2   -1    0    0  501    0  0.00000000000E+00 -0.00000000000E+00 -0.85017580680E+03  0.85017580680E+03  0.00000000000E+00 0. -1.
   -9000010    2    1    2    0  502  0.12598022351E+03  0.25024268871E+03 -0.24495670469E+03  0.10731893927E+04  0.10065978668E+04 0.  0.
        -13    1    1    2    0    0 -0.13368863900E+03 -0.28455742138E+03  0.10795445654E+03  0.33241503292E+03  0.10566000000E+00 0.  1.
         13    1    3    3    0    0 -0.17821575642E+03 -0.22041898955E+03 -0.40136406370E+03  0.49136392784E+03  0.10566000000E+00 0. -1.
          2    1    1    2  502    0  0.77084154853E+01  0.34314732672E+02 -0.74951835289E+02  0.82793104549E+02  0.00000000000E+00 0. -1.
         -4    1    3    3    0  502  0.30419597994E+03  0.47066167826E+03  0.15640735901E+03  0.58182546484E+03  0.00000000000E+00 0. -1.
</event>
<event>
 7    1  0.5696597E-006  0.1061621E+04  0.7818608E-02  0.9482047E-01
         -4   -1    0    0    0  502 -0.00000000000E+00  0.00000000000E+00  0.15318817468E+04  0.15318817468E+04  0.00000000000E+00 0. -1.
         -2   -1    0    0    0  501  0.00000000000E+00 -0.00000000000E+00 -0.49847736509E+03  0.49847736509E+03  0.00000000000E+00 0. -1.
   -9000010    2    1    2    0  501  0.24755429914E+03  0.30334105481E+02  0.10248652207E+04  0.14680837488E+04  0.10211355855E+04 0.  0.
        -13    1    1    2    0    0  0.38231203659E+02  0.34453287244E+02  0.20376372860E+03  0.21016260893E+03  0.10566000000E+00 0.  1.
         13    1    3    3    0    0  0.84404150143E+02  0.23043554451E+03  0.11537203841E+04  0.11795318294E+04  0.10566000000E+00 0. -1.
         -2    1    1    2    0  502 -0.28578550279E+03 -0.64787392725E+02 -0.19522456757E+03  0.35211275417E+03  0.00000000000E+00 0. -1.
         -4    1    3    3    0  501  0.16315014899E+03 -0.20010143903E+03 -0.12885516345E+03  0.28855191936E+03  0.00000000000E+00 0. -1.
</event>
<event>
 7    1  0.5696597E-006  0.1057377E+04  0.7818608E-02  0.9022293E-01
          2   -1    0    0  502    0  0.00000000000E+00  0.00000000000E+00  0.11896281434E+04  0.11896281434E+04  0.00000000000E+00 0.  1.
          4   -1    0    0  501    0 -0.00000000000E+00 -0.00000000000E+00 -0.16203608606E+04  0.16203608606E+04  0.00000000000E+00 0.  1.
    9000010    2    1    2  502    0 -0.29277954115E+03 -0.11816621199E+02 -0.99640931364E+03  0.14507822891E+04  0.10129552003E+04 0.  0.
        -13    1    3    3    0    0 -0.80296964279E+02  0.21521010914E+02  0.20973598184E+03  0.22561017182E+03  0.10566000000E+00 0.  1.
         13    1    1    2    0    0  0.30542175319E+03  0.17607349166E+02 -0.33773137338E+03  0.45569173550E+03  0.10566000000E+00 0. -1.
          2    1    1    2  501    0 -0.12642212046E+02 -0.57907279674E+01  0.90340796981E+03  0.90351497939E+03  0.00000000000E+00 0.  1.
          4    1    3    3  502    0 -0.21248257687E+03 -0.33337632113E+02 -0.12061452955E+04  0.12251721173E+04  0.00000000000E+00 0.  1.
</event>
<event>
 7    1  0.5696597E-006  0.1002477E+04  0.7818608E-02  0.9173084E-01
          2   -1    0    0  502    0  0.00000000000E+00  0.00000000000E+00  0.79129557215E+03  0.79129557215E+03  0.00000000000E+00 0.  1.
          4   -1    0    0  501    0 -0.00000000000E+00 -0.00000000000E+00 -0.10581918266E+04  0.10581918266E+04  0.00000000000E+00 0.  1.
    9000010    2    1    2  502    0 -0.25781137810E+03  0.16483937873E+01 -0.60728511810E+03  0.11840059910E+04  0.98316099807E+03 0.  0.
        -13    1    3    3    0    0 -0.52744341428E+02  0.85226555741E+02  0.26538345244E+03  0.28367925435E+03  0.10566000000E+00 0.  1.
         13    1    1    2    0    0  0.16687200433E+03 -0.86487662328E+02 -0.96469462376E+02  0.21126464423E+03  0.10566000000E+00 0. -1.
          2    1    1    2  501    0  0.90939373771E+02  0.84839268541E+02  0.43685832607E+03  0.45421676350E+03  0.00000000000E+00 0.  1.
          4    1    3    3  502    0 -0.20506703668E+03 -0.83578161954E+02 -0.87266857053E+03  0.90032673663E+03  0.00000000000E+00 0.  1.
</event>
<event>
 7    1  0.5696597E-006  0.1043754E+04  0.7818608E-02  0.9054299E-01
         -4   -1    0    0    0  501 -0.00000000000E+00  0.00000000000E+00  0.82416905398E+03  0.82416905398E+03  0.00000000000E+00 0. -1.
          2   -1    0    0  501    0  0.00000000000E+00 -0.00000000000E+00 -0.83436258718E+03  0.83436258718E+03  0.00000000000E+00 0. -1.
   -9000010    2    1    2    0  502 -0.12847435102E+03 -0.24272500192E+03  0.18624870759E+03  0.10595440487E+04  0.10062424780E+04 0.  0.
        -13    1    1    2    0    0  0.12020176472E+03  0.25059425368E+03  0.10516624316E+03  0.29716307658E+03  0.10566000000E+00 0.  1.
         13    1    3    3    0    0 -0.47974695680E+03 -0.38714396786E+03  0.26607964886E+03  0.67144321064E+03  0.10566000000E+00 0. -1.
          2    1    1    2  502    0  0.82725863023E+01 -0.78692517649E+01 -0.30160848396E+03  0.30182451591E+03  0.00000000000E+00 0. -1.
         -4    1    3    3    0  502  0.35127260578E+03  0.14441896594E+03 -0.79830941271E+02  0.38810083803E+03  0.00000000000E+00 0. -1.
</event>
<event>
 7    1  0.5696597E-006  0.1152165E+04  0.7818608E-02  0.8805626E-01
          4   -1    0    0  501    0  0.00000000000E+00  0.00000000000E+00  0.57710500233E+03  0.57710500233E+03  0.00000000000E+00 0.  1.
         -4   -1    0    0    0  501 -0.00000000000E+00 -0.00000000000E+00 -0.28584624459E+04  0.28584624459E+04  0.00000000000E+00 0. -1.
   -9000010    2    1    2    0  502 -0.56465596614E+03 -0.86494168391E+02 -0.12952834324E+04  0.17329324099E+04  0.99948885229E+03 0.  0.
        -13    1    1    2    0    0  0.57521788864E+03 -0.21344381601E+01 -0.12757955020E+04  0.13994764554E+04  0.10566000000E+00 0.  1.
         13    1    3    3    0    0 -0.63774182772E+03 -0.14941998642E+02 -0.14288020507E+04  0.15647406218E+04  0.10566000000E+00 0. -1.
          4    1    1    2  502    0 -0.10561922497E+02  0.88628606551E+02  0.28972149084E+03  0.30315858286E+03  0.00000000000E+00 0.  1.
         -4    1    3    3    0  502  0.73085861585E+02 -0.71552169749E+02  0.13351861832E+03  0.16819178814E+03  0.00000000000E+00 0. -1.
</event>
<event>
 7    1  0.5696597E-006  0.1025338E+04  0.7818608E-02  0.9101908E-01
         -4   -1    0    0    0  501 -0.00000000000E+00  0.00000000000E+00  0.15250855445E+04  0.15250855445E+04  0.00000000000E+00 0. -1.
          1   -1    0    0  501    0  0.00000000000E+00 -0.00000000000E+00 -0.36669745309E+03  0.36669745309E+03  0.00000000000E+00 0.  1.
   -9000010    2    1    2    0  502  0.20931542651E+03 -0.13286705899E+03  0.11032464812E+04  0.15070983031E+04  0.99635630864E+03 0.  0.
        -13    1    1    2    0    0 -0.20743174466E+03  0.12109253070E+03  0.15386298071E+03  0.28524578468E+03  0.10566000000E+00 0.  1.
         13    1    3    3    0    0  0.36593491817E+03  0.11390587765E+03  0.18536981293E+02  0.38370111303E+03  0.10566000000E+00 0. -1.
          1    1    1    2  502    0 -0.18836818474E+01  0.11774528291E+02 -0.98721370554E+02  0.99438909778E+02  0.00000000000E+00 0.  1.
         -4    1    3    3    0  502 -0.15661949166E+03 -0.24677293664E+03  0.10847094999E+04  0.11233971901E+04  0.00000000000E+00 0. -1.
</event>
<event>
 7    1  0.5696597E-006  0.1081082E+04  0.7818608E-02  0.8911540E-01
         -2   -1    0    0    0  501  0.00000000000E+00  0.00000000000E+00  0.58257848428E+03  0.58257848428E+03  0.00000000000E+00 0.  1.
         -4   -1    0    0    0  502 -0.00000000000E+00 -0.00000000000E+00 -0.32229011223E+04  0.32229011223E+04  0.00000000000E+00 0. -1.
   -9000010    2    1    2    0  501  0.33381896361E+03 -0.34430169971E+03 -0.15847853343E+04  0.19265554530E+04  0.98493278799E+03 0.  0.
        -13    1    1    2    0    0 -0.44759358880E+03  0.79200357796E+02 -0.13751764246E+04  0.14483517968E+04  0.10566000000E+00 0.  1.
         13    1    3    3    0    0  0.33508584354E+02  0.30341901769E+03 -0.18972757355E+03  0.35941965563E+03  0.10566000000E+00 0. -1.
         -2    1    1    2    0  502  0.11377462520E+03  0.26510134191E+03  0.31963912086E+03  0.43057235676E+03  0.00000000000E+00 0.  1.
         -4    1    3    3    0  501  0.30031037925E+03 -0.64772071740E+03 -0.13950577607E+04  0.15671357974E+04  0.00000000000E+00 0. -1.
</event>
<event>
 7    1  0.5696597E-006  0.1013074E+04  0.7818608E-02  0.9113284E-01
          4   -1    0    0  501    0 -0.00000000000E+00  0.00000000000E+00  0.29551847443E+04  0.29551847443E+04  0.00000000000E+00 0.  1.
          2   -1    0    0  502    0  0.00000000000E+00 -0.00000000000E+00 -0.11025290824E+04  0.11025290824E+04  0.00000000000E+00 0. -1.
    9000010    2    1    2  502    0  0.33446532831E+02 -0.28403571211E+02  0.20318642710E+04  0.22581306551E+04  0.98425413707E+03 0.  0.
        -13    1    3    3    0    0 -0.34228234349E+02  0.42077656469E+03  0.47098385836E+03  0.63249529280E+03  0.10566000000E+00 0.  1.
         13    1    1    2    0    0 -0.10061137781E+03  0.26733264736E+03  0.76852525105E+03  0.81989052096E+03  0.10566000000E+00 0. -1.
          2    1    1    2  501    0  0.67164844984E+02 -0.23892907615E+03 -0.94773386022E+03  0.97969265060E+03  0.00000000000E+00 0. -1.
          4    1    3    3  502    0  0.67674767179E+02 -0.44918013590E+03  0.15608804126E+04  0.16256353623E+04  0.00000000000E+00 0.  1.
</event>
<event>
 7    1  0.5696597E-006  0.1202507E+04  0.7818608E-02  0.8800893E-01
         -4   -1    0    0    0  501 -0.00000000000E+00  0.00000000000E+00  0.16153058577E+04  0.16153058577E+04  0.00000000000E+00 0. -1.
          2   -1    0    0  501    0  0.00000000000E+00 -0.00000000000E+00 -0.25781250580E+04  0.25781250580E+04  0.00000000000E+00 0. -1.
   -9000010    2    1    2    0  502 -0.51052594708E+03 -0.96788451865E+03 -0.45031779500E+02  0.14759688094E+04  0.98945382967E+03 0.  0.
        -13    1    1    2    0    0  0.43612611968E+02  0.51248579033E+03  0.75981612220E+03  0.91753163212E+03  0.10566000000E+00 0.  1.
         13    1    3    3    0    0 -0.39420743076E+03 -0.98409994585E+03  0.30796721151E+03  0.11039456583E+04  0.10566000000E+00 0. -1.
          2    1    1    2  502    0  0.46691333512E+03  0.45539872832E+03 -0.16776035430E+04  0.17999304742E+04  0.00000000000E+00 0. -1.
         -4    1    3    3    0  502 -0.11631851633E+03  0.16215427201E+02 -0.35299899101E+03  0.37202315112E+03  0.00000000000E+00 0. -1.
</event>
<event>
 7    1  0.5696597E-006  0.1671845E+04  0.7818608E-02  0.8365484E-01
         -4   -1    0    0    0  501 -0.00000000000E+00  0.00000000000E+00  0.16588969487E+04  0.16588969487E+04  0.00000000000E+00 0. -1.
          2   -1    0    0  501    0  0.00000000000E+00 -0.00000000000E+00 -0.31560020859E+04  0.31560020859E+04  0.00000000000E+00 0.  1.
   -9000010    2    1    2    0  502  0.13345792542E+04 -0.28662278454E+03 -0.99431104249E+03  0.19693203608E+04  0.10130714822E+04 0.  0.
        -13    1    1    2    0    0 -0.13072072934E+04  0.19491471537E+03  0.79627033600E+03  0.15429935558E+04  0.10566000000E+00 0.  1.
         13    1    3    3    0    0  0.83760117491E+02 -0.33184792311E+03  0.41374274650E+02  0.34474721626E+03  0.10566000000E+00 0. -1.
          2    1    1    2  502    0 -0.27371960807E+02  0.91708069170E+02 -0.12990644307E+04  0.13025851179E+04  0.00000000000E+00 0.  1.
         -4    1    3    3    0  502  0.12508191367E+04  0.45225138569E+02 -0.10356853171E+04  0.16245731446E+04  0.00000000000E+00 0. -1.
</event>
<event>
 7    1  0.5696597E-006  0.1021069E+04  0.7818608E-02  0.9176650E-01
          2   -1    0    0  502    0  0.00000000000E+00  0.00000000000E+00  0.99451848609E+03  0.99451848609E+03  0.00000000000E+00 0.  1.
          4   -1    0    0  501    0 -0.00000000000E+00 -0.00000000000E+00 -0.16067166647E+04  0.16067166647E+04  0.00000000000E+00 0.  1.
    9000010    2    1    2  502    0  0.15070613589E+02  0.23028747374E+03 -0.10320075612E+04  0.14585850676E+04  0.10045752083E+04 0.  0.
        -13    1    3    3    0    0 -0.48668618909E+03  0.38988309082E+02 -0.41650876588E+03  0.64176560995E+03  0.10566000000E+00 0.  1.
         13    1    1    2    0    0  0.64663185974E+02 -0.16766816761E+03 -0.33548378763E+03  0.38058287530E+03  0.10566000000E+00 0. -1.
          2    1    1    2  501    0 -0.79733799563E+02 -0.62619306128E+02  0.75529317022E+03  0.76206720784E+03  0.00000000000E+00 0.  1.
          4    1    3    3  502    0  0.50175680268E+03  0.19129916466E+03 -0.61549879529E+03  0.81681945768E+03  0.00000000000E+00 0.  1.
</event>
<event>
 7    1  0.5696597E-006  0.1010521E+04  0.7818608E-02  0.9243713E-01
          2   -1    0    0  502    0  0.00000000000E+00  0.00000000000E+00  0.14120603429E+04  0.14120603429E+04  0.00000000000E+00 0.  1.
          4   -1    0    0  501    0 -0.00000000000E+00 -0.00000000000E+00 -0.15324265868E+04  0.15324265868E+04  0.00000000000E+00 0.  1.
    9000010    2    1    2  502    0 -0.69917002068E+02 -0.89298484583E+02 -0.83494175806E+03  0.13076582423E+04  0.99998986636E+03 0.  0.
        -13    1    3    3    0    0 -0.21600690952E+03 -0.35975084992E+03 -0.90040078907E+03  0.99337870477E+03  0.10566000000E+00 0.  1.
         13    1    1    2    0    0  0.19398663655E+02  0.14660555502E+03 -0.44798401846E+03  0.47176179252E+03  0.10566000000E+00 0. -1.
          2    1    1    2  501    0  0.50518338413E+02 -0.57307070439E+02  0.11625595326E+04  0.11650668949E+04  0.00000000000E+00 0.  1.
          4    1    3    3  502    0  0.14608990745E+03  0.27045236534E+03  0.65459031010E+02  0.31427953754E+03  0.00000000000E+00 0.  1.
</event>
<event>
 7    1  0.5696597E-006  0.1163881E+04  0.7818608E-02  0.8722706E-01
          4   -1    0    0  501    0  0.00000000000E+00  0.00000000000E+00  0.59004251145E+03  0.59004251145E+03  0.00000000000E+00 0.  1.
         -4   -1    0    0    0  501 -0.00000000000E+00 -0.00000000000E+00 -0.27716414255E+04  0.27716414255E+04  0.00000000000E+00 0.  1.
   -9000010    2    1    2    0  502 -0.69915562943E+03  0.40395600016E+03 -0.21900041665E+04  0.24850325906E+04  0.85280108050E+03 0.  0.
        -13    1    1    2    0    0  0.69535209929E+03 -0.29218347607E+03  0.53330341709E+02  0.75612820486E+03  0.10566000000E+00 0.  1.
         13    1    3    3    0    0 -0.83939908605E+02  0.10358189348E+03  0.50267093728E+02  0.14248476687E+03  0.10566000000E+00 0. -1.
          4    1    1    2  502    0  0.38035301360E+01 -0.11177252409E+03 -0.44925089235E+02  0.12052314146E+03  0.00000000000E+00 0.  1.
         -4    1    3    3    0  502 -0.61521572082E+03  0.30037410667E+03 -0.22402712603E+04  0.23425478238E+04  0.00000000000E+00 0.  1.
</event>
<event>
 7    1  0.5696597E-006  0.9715715E+03  0.7818608E-02  0.9248626E-01
         -4   -1    0    0    0  501 -0.00000000000E+00  0.00000000000E+00  0.52027019378E+03  0.52027019378E+03  0.00000000000E+00 0. -1.
          4   -1    0    0  501    0  0.00000000000E+00 -0.00000000000E+00 -0.12522141686E+04  0.12522141686E+04  0.00000000000E+00 0. -1.
   -9000010    2    1    2    0  502 -0.16405707785E+03 -0.44554044532E+02 -0.58126610564E+03  0.11335385179E+04  0.95819596025E+03 0.  0.
        -13    1    1    2    0    0  0.15028274172E+03  0.56048942275E+02  0.21754745725E+03  0.27028372816E+03  0.10566000000E+00 0.  1.
         13    1    3    3    0    0 -0.42479650913E+03 -0.33002837997E+03 -0.15884303161E+03  0.56089386305E+03  0.10566000000E+00 0. -1.
          4    1    1    2  502    0  0.13774336139E+02 -0.11494897743E+02 -0.36822532646E+03  0.36866211638E+03  0.00000000000E+00 0. -1.
         -4    1    3    3    0  502  0.26073943127E+03  0.28547433544E+03 -0.42242307402E+03  0.57264465481E+03  0.00000000000E+00 0. -1.
</event>
<event>
 7    1  0.5696597E-006  0.1121399E+04  0.7818608E-02  0.8901150E-01
          4   -1    0    0  502    0  0.00000000000E+00  0.00000000000E+00  0.15439238696E+04  0.15439238696E+04  0.00000000000E+00 0.  1.
          4   -1    0    0  501    0 -0.00000000000E+00 -0.00000000000E+00 -0.11812748403E+04  0.11812748403E+04  0.00000000000E+00 0.  1.
    9000010    2    1    2  502    0  0.43447639202E+03  0.43025702016E+03 -0.39874195264E+03  0.12547752836E+04  0.10205758320E+04 0.  0.
        -13    1    3    3    0    0 -0.37832137122E+02  0.49654807140E+03 -0.56179427666E+03  0.75073569135E+03  0.10566000000E+00 0.  1.
         13    1    1    2    0    0 -0.41543356283E+03  0.34420461077E+02 -0.15341280445E+03  0.44419062687E+03  0.10566000000E+00 0. -1.
          4    1    1    2  501    0 -0.19042829190E+02 -0.46467748123E+03  0.91480378642E+03  0.10262327994E+04  0.00000000000E+00 0.  1.
          4    1    3    3  502    0  0.47230852914E+03 -0.66291051247E+02  0.16305232402E+03  0.50403959224E+03  0.00000000000E+00 0.  1.
</event>
<event>
 7    1  0.5696597E-006  0.1127990E+04  0.7818608E-02  0.8845697E-01
         -4   -1    0    0    0  501 -0.00000000000E+00  0.00000000000E+00  0.38348843101E+04  0.38348843101E+04  0.00000000000E+00 0. -1.
          2   -1    0    0  501    0  0.00000000000E+00 -0.00000000000E+00 -0.35738727734E+03  0.35738727734E+03  0.00000000000E+00 0.  1.
   -9000010    2    1    2    0  502  0.52296340577E+03  0.25535868449E+03  0.27041278402E+04  0.29422981119E+04  0.10030513556E+04 0.  0.
        -13    1    1    2    0    0 -0.31928271371E+03 -0.37995217616E+03  0.86251622809E+03  0.99510771394E+03  0.10566000000E+00 0.  1.
         13    1    3    3    0    0  0.31836920819E+01  0.47739608036E+03  0.61781339577E+03  0.78077561219E+03  0.10566000000E+00 0. -1.
          2    1    1    2  502    0 -0.20368069206E+03  0.12459349167E+03 -0.89147035502E+02  0.25486576157E+03  0.00000000000E+00 0.  1.
         -4    1    3    3    0  502  0.51977971369E+03 -0.22203739588E+03  0.20863144444E+04  0.21615224998E+04  0.00000000000E+00 0. -1.
</event>
<event>
 7    1  0.5696597E-006  0.1033685E+04  0.7818608E-02  0.9050872E-01
          2   -1    0    0  501    0  0.00000000000E+00  0.00000000000E+00  0.29000922624E+04  0.29000922624E+04  0.00000000000E+00 0.  1.
         -4   -1    0    0    0  501 -0.00000000000E+00 -0.00000000000E+00 -0.41020245330E+03  0.41020245330E+03  0.00000000000E+00 0. -1.
   -9000010    2    1    2    0  502 -0.34369164340E+03 -0.50202427018E+02  0.12854583108E+04  0.16606579438E+04  0.99233941177E+03 0.  0.
        -13    1    1    2    0    0  0.27863460091E+03 -0.69963136339E+02 -0.12492880705E+03  0.31327192544E+03  0.10566000000E+00 0.  1.
         13    1    3    3    0    0  0.15693277034E+03 -0.15784886608E+03  0.10900974357E+04  0.11125900365E+04  0.10566000000E+00 0. -1.
          2    1    1    2  502    0  0.65057042488E+02  0.12016556336E+03  0.13293603053E+04  0.13363648464E+04  0.00000000000E+00 0.  1.
         -4    1    3    3    0  502 -0.50062441374E+03  0.10764643906E+03  0.19536087511E+03  0.54806790728E+03  0.00000000000E+00 0. -1.
</event>
<event>
 7    1  0.5696597E-006  0.1044530E+04  0.7818608E-02  0.9070275E-01
         -4   -1    0    0    0  501 -0.00000000000E+00  0.00000000000E+00  0.11897264821E+04  0.11897264821E+04  0.00000000000E+00 0. -1.
          4   -1    0    0  501    0  0.00000000000E+00 -0.00000000000E+00 -0.77061022179E+03  0.77061022179E+03  0.00000000000E+00 0. -1.
   -9000010    2    1    2    0  502 -0.45414654545E+01  0.96792515063E+01  0.29571942671E+03  0.10560317053E+04  0.10137251454E+04 0.  0.
        -13    1    1    2    0    0 -0.14012646906E+03  0.21853082029E+03  0.42584861034E+03  0.49873660067E+03  0.10566000000E+00 0.  1.
         13    1    3    3    0    0  0.14927604341E+03  0.99561643140E+02  0.64200390244E+03  0.66660699053E+03  0.10566000000E+00 0. -1.
          4    1    1    2  502    0  0.14466793452E+03 -0.22821007180E+03 -0.30245177673E+03  0.40556839792E+03  0.00000000000E+00 0. -1.
         -4    1    3    3    0  502 -0.15381750886E+03 -0.89882391634E+02 -0.34628447572E+03  0.38942471478E+03  0.00000000000E+00 0. -1.
</event>
<event>
 7    1  0.5696597E-006  0.1058697E+04  0.7818608E-02  0.8946669E-01
          4   -1    0    0  501    0  0.00000000000E+00  0.00000000000E+00  0.22788331364E+04  0.22788331364E+04  0.00000000000E+00 0. -1.
         -4   -1    0    0    0  501 -0.00000000000E+00 -0.00000000000E+00 -0.38736893969E+03  0.38736893969E+03  0.00000000000E+00 0. -1.
   -9000010    2    1    2    0  502  0.45996400572E+03  0.71633397475E+02  0.15693609442E+04  0.19057101718E+04  0.97577623231E+03 0.  0.
        -13    1    1    2    0    0 -0.40210484387E+03 -0.46612839528E+02 -0.27043750888E+02  0.40569993579E+03  0.10566000000E+00 0.  1.
         13    1    3    3    0    0 -0.21028408619E+02  0.30440657959E+03  0.68727328143E+02  0.31277630419E+03  0.10566000000E+00 0. -1.
          4    1    1    2  502    0 -0.57859161841E+02 -0.25020557948E+02  0.34914700345E+03  0.35479196855E+03  0.00000000000E+00 0. -1.
         -4    1    3    3    0  502  0.48099241433E+03 -0.23277318211E+03  0.15006336160E+04  0.15929338676E+04  0.00000000000E+00 0. -1.
</event>
<event>
 7    1  0.5696597E-006  0.1070810E+04  0.7818608E-02  0.8920137E-01
         -4   -1    0    0    0  501 -0.00000000000E+00  0.00000000000E+00  0.23858473177E+04  0.23858473177E+04  0.00000000000E+00 0. -1.
          2   -1    0    0  501    0  0.00000000000E+00 -0.00000000000E+00 -0.44164635211E+03  0.44164635211E+03  0.00000000000E+00 0. -1.
   -9000010    2    1    2    0  502  0.38207360359E+03  0.22375502381E+03  0.10155361245E+04  0.14758188723E+04  0.97502880703E+03 0.  0.
        -13    1    1    2    0    0 -0.37584391825E+03 -0.23387934741E+03  0.10969854044E+04  0.11829349892E+04  0.10566000000E+00 0.  1.
         13    1    3    3    0    0  0.67667896420E+03  0.25980799150E+03  0.49871653651E+03  0.87983680759E+03  0.10566000000E+00 0. -1.
          2    1    1    2  502    0 -0.62296853408E+01  0.10124323604E+02 -0.16832056324E+03  0.16873980834E+03  0.00000000000E+00 0. -1.
         -4    1    3    3    0  502 -0.29460536060E+03 -0.36052967693E+02  0.51681958798E+03  0.59598206474E+03  0.00000000000E+00 0. -1.
</event>
<event>
 7    1  0.5696597E-006  0.1013617E+04  0.7818608E-02  0.9307242E-01
          2   -1    0    0  501    0  0.00000000000E+00  0.00000000000E+00  0.24107082180E+04  0.24107082180E+04  0.00000000000E+00 0.  1.
         -4   -1    0    0    0  501 -0.00000000000E+00 -0.00000000000E+00 -0.11620390253E+04  0.11620390253E+04  0.00000000000E+00 0. -1.
   -9000010    2    1    2    0  502 -0.53996938349E+02 -0.61956952591E+02 -0.80383743578E+03  0.12913246820E+04  0.10072787488E+04 0.  0.
        -13    1    1    2    0    0  0.89003476341E+02  0.76083055023E+02 -0.84301516611E+02  0.14428099989E+03  0.10566000000E+00 0.  1.
         13    1    3    3    0    0  0.19836533354E+03 -0.47969604939E+03 -0.46775855971E+03  0.69875259333E+03  0.10566000000E+00 0. -1.
          2    1    1    2  502    0 -0.35006537992E+02 -0.14126102433E+02  0.21368081451E+04  0.21371415614E+04  0.00000000000E+00 0.  1.
         -4    1    3    3    0  502 -0.25236227189E+03  0.41773909680E+03 -0.33607887608E+03  0.59257208862E+03  0.00000000000E+00 0. -1.
</event>
<event>
 7    1  0.5696597E-006  0.1074125E+04  0.7818608E-02  0.8943967E-01
          2   -1    0    0  502    0  0.00000000000E+00  0.00000000000E+00  0.30745933580E+04  0.30745933580E+04  0.00000000000E+00 0. -1.
          4   -1    0    0  501    0 -0.00000000000E+00 -0.00000000000E+00 -0.58118276086E+03  0.58118276086E+03  0.00000000000E+00 0.  1.
    9000010    2    1    2  502    0 -0.33663769767E+03 -0.31107991309E+03  0.35485022127E+03  0.11539587066E+04  0.99780076427E+03 0.  0.
        -13    1    3    3    0    0  0.15442315599E+03 -0.14532090452E+03 -0.26924312089E+03  0.34271933955E+03  0.10566000000E+00 0.  1.
         13    1    1    2    0    0  0.20901336763E+03  0.32222046975E+03  0.25545290152E+02  0.38492231942E+03  0.10566000000E+00 0. -1.
          2    1    1    2  501    0  0.12762433004E+03 -0.11140556657E+02  0.21130150857E+04  0.21168950928E+04  0.00000000000E+00 0. -1.
          4    1    3    3  502    0 -0.49106085366E+03 -0.16575900857E+03  0.62409334216E+03  0.81123936705E+03  0.00000000000E+00 0.  1.
</event>
<event>
 7    1  0.5696597E-006  0.1015896E+04  0.7818608E-02  0.8970478E-01
          2   -1    0    0  501    0  0.00000000000E+00  0.00000000000E+00  0.63424453181E+03  0.63424453181E+03  0.00000000000E+00 0. -1.
         -4   -1    0    0    0  501 -0.00000000000E+00 -0.00000000000E+00 -0.13042198157E+04  0.13042198157E+04  0.00000000000E+00 0. -1.
   -9000010    2    1    2    0  502  0.18371106493E+02  0.44908765977E+03 -0.44986461428E+03  0.11218465979E+04  0.92419932607E+03 0.  0.
        -13    1    1    2    0    0 -0.96177803886E+01 -0.41482383274E+03 -0.43364037222E+03  0.60017938776E+03  0.10566000000E+00 0.  1.
         13    1    3    3    0    0 -0.28415748859E+03  0.61331447310E+03 -0.36112669051E+03  0.76636324220E+03  0.10566000000E+00 0. -1.
          2    1    1    2  502    0 -0.87533261043E+01 -0.34263827030E+02  0.21352970263E+03  0.21643836182E+03  0.00000000000E+00 0. -1.
         -4    1    3    3    0  502  0.30252859509E+03 -0.16422681332E+03 -0.88737923764E+02  0.35548335569E+03  0.00000000000E+00 0. -1.
</event>
<event>
 7    1  0.5696597E-006  0.1291891E+04  0.7818608E-02  0.8640048E-01
          4   -1    0    0  501    0  0.00000000000E+00  0.00000000000E+00  0.10711992263E+04  0.10711992263E+04  0.00000000000E+00 0. -1.
         -4   -1    0    0    0  501 -0.00000000000E+00 -0.00000000000E+00 -0.29427712758E+04  0.29427712758E+04  0.00000000000E+00 0. -1.
   -9000010    2    1    2    0  502  0.40552599066E+03 -0.72206405645E+03 -0.60310944398E+03  0.14248266143E+04  0.99023333038E+03 0.  0.
        -13    1    1    2    0    0 -0.39698085294E+03  0.72897975535E+03 -0.18394431239E+04  0.20180575558E+04  0.10566000000E+00 0.  1.
         13    1    3    3    0    0 -0.19094841355E+03  0.81283239006E+02  0.69883224296E+02  0.21897930903E+03  0.10566000000E+00 0. -1.
          4    1    1    2  502    0 -0.85451377174E+01 -0.69156988966E+01  0.57098051841E+03  0.57108633206E+03  0.00000000000E+00 0. -1.
         -4    1    3    3    0  502  0.59647440421E+03 -0.80334729546E+03 -0.67299266827E+03  0.12058473052E+04  0.00000000000E+00 0. -1.
</event>
<event>
 7    1  0.5696597E-006  0.9926435E+03  0.7818608E-02  0.9375721E-01
          2   -1    0    0  501    0  0.00000000000E+00  0.00000000000E+00  0.62358314004E+03  0.62358314004E+03  0.00000000000E+00 0.  1.
         -4   -1    0    0    0  501 -0.00000000000E+00 -0.00000000000E+00 -0.18003237476E+04  0.18003237476E+04  0.00000000000E+00 0. -1.
   -9000010    2    1    2    0  502  0.95877418919E+02 -0.74666753992E+01 -0.16387332393E+04  0.19160777223E+04  0.98826058199E+03 0.  0.
        -13    1    1    2    0    0 -0.91389785472E+02 -0.36647450365E+01  0.68793352010E+02  0.11444675482E+03  0.10566000000E+00 0.  1.
         13    1    3    3    0    0  0.99239453143E+02 -0.47881072777E+03 -0.10768216940E+04  0.11826466733E+04  0.10566000000E+00 0. -1.
          2    1    1    2  502    0 -0.44876334471E+01  0.11131420436E+02  0.39319927965E+03  0.39338241050E+03  0.00000000000E+00 0.  1.
         -4    1    3    3    0  502 -0.33620342247E+01  0.47134405237E+03 -0.56191154528E+03  0.73343104905E+03  0.00000000000E+00 0. -1.
</event>
<event>
 7    1  0.5696597E-006  0.1020649E+04  0.7818608E-02  0.9270966E-01
          2   -1    0    0  501    0  0.00000000000E+00  0.00000000000E+00  0.68277456862E+03  0.68277456862E+03  0.00000000000E+00 0. -1.
         -4   -1    0    0    0  501 -0.00000000000E+00 -0.00000000000E+00 -0.53065538642E+03  0.53065538642E+03  0.00000000000E+00 0. -1.
   -9000010    2    1    2    0  502 -0.70318496238E+02  0.15630618849E+03  0.12791968119E+03  0.10350247136E+04  0.10126877097E+04 0.  0.
        -13    1    1    2    0    0  0.53355143229E+02 -0.10867459667E+03  0.36347167806E+02  0.12640437904E+03  0.10566000000E+00 0.  1.
         13    1    3    3    0    0  0.44946401123E+02  0.39347242942E+03 -0.32407923678E+03  0.51173049016E+03  0.10566000000E+00 0. -1.
          2    1    1    2  502    0  0.16963353010E+02 -0.47631591822E+02 -0.12147666796E+02  0.52000862430E+02  0.00000000000E+00 0. -1.
         -4    1    3    3    0  502 -0.11526489736E+03 -0.23716624093E+03  0.45199891797E+03  0.52329422340E+03  0.00000000000E+00 0. -1.
</event>
<event>
 7    1  0.5696597E-006  0.1199815E+04  0.7818608E-02  0.8748628E-01
          4   -1    0    0  501    0 -0.00000000000E+00  0.00000000000E+00  0.23250573220E+04  0.23250573220E+04  0.00000000000E+00 0.  1.
          2   -1    0    0  502    0  0.00000000000E+00 -0.00000000000E+00 -0.10226725507E+04  0.10226725507E+04  0.00000000000E+00 0. -1.
    9000010    2    1    2  502    0 -0.55699306591E+03  0.35308424774E+03  0.13778918454E+04  0.18315695278E+04  0.10105202799E+04 0.  0.
        -13    1    3    3    0    0 -0.15069514843E+03  0.41542168021E+03  0.13489615844E+04  0.14195004641E+04  0.10566000000E+00 0.  1.
         13    1    1    2    0    0  0.48117625005E+03 -0.42502359548E+03  0.57224946251E+03  0.86002621985E+03  0.10566000000E+00 0. -1.
          2    1    1    2  501    0  0.75816815857E+02  0.71939347741E+02 -0.64775653660E+03  0.65613412502E+03  0.00000000000E+00 0. -1.
          4    1    3    3  502    0 -0.40629791748E+03 -0.62337432473E+02  0.28930260914E+02  0.41206906367E+03  0.00000000000E+00 0.  1.
</event>
<event>
 7    1  0.5696597E-006  0.1186829E+04  0.7818608E-02  0.8757530E-01
          2   -1    0    0  502    0  0.00000000000E+00  0.00000000000E+00  0.13191547711E+04  0.13191547711E+04  0.00000000000E+00 0. -1.
          4   -1    0    0  501    0 -0.00000000000E+00 -0.00000000000E+00 -0.18373839782E+04  0.18373839782E+04  0.00000000000E+00 0.  1.
    9000010    2    1    2  502    0 -0.43312527008E+03  0.45308230903E+03 -0.10357204556E+04  0.15685277316E+04  0.99733710668E+03 0.  0.
        -13    1    3    3    0    0 -0.42269670138E+03  0.88556940996E+02 -0.11146660513E+04  0.11954058935E+04  0.10566000000E+00 0.  1.
         13    1    1    2    0    0  0.46443866981E+03 -0.46313536001E+03 -0.33389382157E+03  0.73599098837E+03  0.10566000000E+00 0. -1.
          2    1    1    2  501    0 -0.31313399733E+02  0.10053050987E+02  0.85138507011E+03  0.85202002936E+03  0.00000000000E+00 0. -1.
          4    1    3    3  502    0 -0.10428568701E+02  0.36452536803E+03  0.78945595711E+02  0.37312183810E+03  0.00000000000E+00 0.  1.
</event>
<event>
 7    1  0.5696597E-006  0.1239026E+04  0.7818608E-02  0.8710301E-01
         -4   -1    0    0    0  501 -0.00000000000E+00  0.00000000000E+00  0.21626913923E+04  0.21626913923E+04  0.00000000000E+00 0. -1.
          2   -1    0    0  501    0  0.00000000000E+00 -0.00000000000E+00 -0.23429002907E+04  0.23429002907E+04  0.00000000000E+00 0.  1.
   -9000010    2    1    2    0  502  0.41211666240E+03 -0.67528308091E+03  0.85254637963E+03  0.15518344675E+04  0.10273789478E+04 0.  0.
        -13    1    1    2    0    0 -0.51549595025E+03  0.42756821892E+03  0.83296756531E+03  0.10688244162E+04  0.10566000000E+00 0.  1.
         13    1    3    3    0    0  0.61085076127E+03 -0.44269231848E+03  0.96588759759E+03  0.12255831280E+04  0.10566000000E+00 0. -1.
          2    1    1    2  502    0  0.10337928785E+03  0.24771486199E+03 -0.18657228434E+04  0.18849327994E+04  0.00000000000E+00 0.  1.
         -4    1    3    3    0  502 -0.19873409887E+03 -0.23259076243E+03 -0.11334121796E+03  0.32625133948E+03  0.00000000000E+00 0. -1.
</event>
<event>
 7    1  0.5696597E-006  0.1113388E+04  0.7818608E-02  0.8784062E-01
         -4   -1    0    0    0  501 -0.00000000000E+00  0.00000000000E+00  0.98410978666E+03  0.98410978666E+03  0.00000000000E+00 0. -1.
          2   -1    0    0  501    0  0.00000000000E+00 -0.00000000000E+00 -0.21851751342E+04  0.21851751342E+04  0.00000000000E+00 0.  1.
   -9000010    2    1    2    0  502  0.96823541221E+02 -0.72752656571E+03  0.20916918774E+03  0.11566026829E+04  0.86908475706E+03 0.  0.
        -13    1    1    2    0    0 -0.34421600174E+03  0.59581458436E+03 -0.12765767654E+03  0.69984010198E+03  0.10566000000E+00 0.  1.
         13    1    3    3    0    0 -0.25719420158E+03 -0.73493055440E+03  0.94207098992E+02  0.78431292593E+03  0.10566000000E+00 0. -1.
          2    1    1    2  502    0  0.24739246052E+03  0.13171198135E+03 -0.12825768587E+04  0.13128421360E+04  0.00000000000E+00 0.  1.
         -4    1    3    3    0  502  0.35401774280E+03  0.74039886958E+01  0.11496208875E+03  0.37228975693E+03  0.00000000000E+00 0. -1.
</event>
<event>
 7    1  0.5696597E-006  0.1042871E+04  0.7818608E-02  0.8970798E-01
         -4   -1    0    0    0  501 -0.00000000000E+00  0.00000000000E+00  0.23731581289E+03  0.23731581289E+03  0.00000000000E+00 0. -1.
          2   -1    0    0  501    0  0.00000000000E+00 -0.00000000000E+00 -0.26299803372E+04  0.26299803372E+04  0.00000000000E+00 0. -1.
   -9000010    2    1    2    0  502  0.74393008710E+02 -0.36818109395E+03 -0.16667322550E+04  0.19634273950E+04  0.96744978580E+03 0.  0.
        -13    1    1    2    0    0 -0.86401892981E+02  0.38307407991E+03 -0.34577883759E+03  0.52323422432E+03  0.10566000000E+00 0.  1.
         13    1    3    3    0    0 -0.35216154350E+03 -0.36554107792E+03 -0.13183166352E+04  0.14126559363E+04  0.10566000000E+00 0. -1.
          2    1    1    2  502    0  0.12008884271E+02 -0.14892985967E+02 -0.38015343173E+03  0.38063453073E+03  0.00000000000E+00 0. -1.
         -4    1    3    3    0  502  0.42655455221E+03 -0.26400160235E+01 -0.34841561975E+03  0.55077145876E+03  0.00000000000E+00 0. -1.
</event>
<event>
 7    1  0.5696597E-006  0.1054598E+04  0.7818608E-02  0.8993420E-01
          2   -1    0    0  501    0  0.00000000000E+00  0.00000000000E+00  0.12372691728E+04  0.12372691728E+04  0.00000000000E+00 0.  1.
         -4   -1    0    0    0  501 -0.00000000000E+00 -0.00000000000E+00 -0.82254919871E+03  0.82254919871E+03  0.00000000000E+00 0. -1.
   -9000010    2    1    2    0  502  0.29343429966E+03 -0.15319538212E+03  0.35375841892E+02  0.10512031001E+04  0.99709778567E+03 0.  0.
        -13    1    1    2    0    0 -0.29461074357E+03  0.18100751546E+03 -0.21921614839E+03  0.40940803822E+03  0.10566000000E+00 0.  1.
         13    1    3    3    0    0 -0.25338831018E+03  0.23146401689E+03  0.14706210482E+03  0.37337447782E+03  0.10566000000E+00 0. -1.
          2    1    1    2  502    0  0.11764439102E+01 -0.27812133347E+02  0.59856028059E+03  0.59920723317E+03  0.00000000000E+00 0.  1.
         -4    1    3    3    0  502  0.54682260984E+03 -0.38465939901E+03 -0.11168626293E+03  0.67782862230E+03  0.00000000000E+00 0. -1.
</event>
<event>
 7    1  0.5696597E-006  0.1031770E+04  0.7818608E-02  0.9630478E-01
          2   -1    0    0  501    0  0.00000000000E+00  0.00000000000E+00  0.12076784666E+04  0.12076784666E+04  0.00000000000E+00 0.  1.
         -4   -1    0    0    0  501 -0.00000000000E+00 -0.00000000000E+00 -0.16787281692E+04  0.16787281692E+04  0.00000000000E+00 0. -1.
   -9000010    2    1    2    0  502  0.62090081192E+02 -0.13100810080E+02 -0.15176166524E+04  0.18356349218E+04  0.10307125948E+04 0.  0.
        -13    1    1    2    0    0 -0.17743552114E+02  0.27707014697E+02  0.18235229542E+03  0.18529674340E+03  0.10566000000E+00 0.  1.
         13    1    3    3    0    0  0.37973153135E+03 -0.35247592931E+03 -0.51507611308E+03  0.73057424679E+03  0.10566000000E+00 0. -1.
          2    1    1    2  502    0 -0.44346529077E+02 -0.14606204617E+02  0.86421465442E+03  0.86547497062E+03  0.00000000000E+00 0.  1.
         -4    1    3    3    0  502 -0.31764145016E+03  0.33937511923E+03 -0.10025405393E+04  0.11050606750E+04  0.00000000000E+00 0. -1.
</event>
<event>
 7    1  0.5696597E-006  0.1052355E+04  0.7818608E-02  0.9004637E-01
          2   -1    0    0  502    0  0.00000000000E+00  0.00000000000E+00  0.46567867279E+03  0.46567867279E+03  0.00000000000E+00 0.  1.
          4   -1    0    0  501    0 -0.00000000000E+00 -0.00000000000E+00 -0.24705664396E+04  0.24705664396E+04  0.00000000000E+00 0.  1.
    9000010    2    1    2  502    0  0.20020152643E+03  0.23591217947E+03 -0.15758329992E+04  0.18913792536E+04  0.99916496737E+03 0.  0.
        -13    1    3    3    0    0  0.33449437624E+03  0.42089263852E+03 -0.15734668382E+04  0.16627793008E+04  0.10566000000E+00 0.  1.
         13    1    1    2    0    0 -0.19744300769E+03 -0.27134505332E+03 -0.69752695201E+03  0.77405150939E+03  0.10566000000E+00 0. -1.
          2    1    1    2  501    0 -0.27585187405E+01  0.35432873847E+02  0.26847218447E+03  0.27081434934E+03  0.00000000000E+00 0.  1.
          4    1    3    3  502    0 -0.13429284981E+03 -0.18498045905E+03 -0.23661610162E+01  0.22859995288E+03  0.00000000000E+00 0.  1.
</event>
<event>
 7    1  0.5696597E-006  0.1179251E+04  0.7818608E-02  0.8784309E-01
          2   -1    0    0  502    0  0.00000000000E+00  0.00000000000E+00  0.91080536059E+03  0.91080536059E+03  0.00000000000E+00 0. -1.
          4   -1    0    0  501    0 -0.00000000000E+00 -0.00000000000E+00 -0.23898673495E+04  0.23898673495E+04  0.00000000000E+00 0.  1.
    9000010    2    1    2  502    0  0.53424966179E+03  0.92362543634E+02 -0.12506917485E+04  0.17048376071E+04  0.10238593049E+04 0.  0.
        -13    1    3    3    0    0  0.17648092328E+03  0.29563978523E+03 -0.12466598686E+04  0.12933326092E+04  0.10566000000E+00 0.  1.
         13    1    1    2    0    0 -0.59057520131E+03  0.23953433960E+03 -0.74425209953E+03  0.97983007051E+03  0.10566000000E+00 0. -1.
          2    1    1    2  501    0  0.56325539521E+02 -0.33189688323E+03  0.51588185910E+03  0.61600503249E+03  0.00000000000E+00 0. -1.
          4    1    3    3  502    0  0.35776873851E+03 -0.20327724160E+03 -0.40318798503E+01  0.41150499786E+03  0.00000000000E+00 0.  1.
</event>
<event>
 7    1  0.5696597E-006  0.1180142E+04  0.7818608E-02  0.9128005E-01
          4   -1    0    0  501    0 -0.00000000000E+00  0.00000000000E+00  0.17952600599E+04  0.17952600599E+04  0.00000000000E+00 0.  1.
          2   -1    0    0  502    0  0.00000000000E+00 -0.00000000000E+00 -0.51849911317E+03  0.51849911317E+03  0.00000000000E+00 0.  1.
    9000010    2    1    2  502    0  0.41545521270E+03  0.24017268257E+03  0.80314271815E+03  0.13918765467E+04  0.10305319715E+04 0.  0.
        -13    1    3    3    0    0  0.66547558696E+02 -0.40106914328E+03  0.30028191705E+03  0.50542484716E+03  0.10566000000E+00 0.  1.
         13    1    1    2    0    0  0.92261068432E+02  0.10953971744E+03  0.20339759101E+03  0.24876021715E+03  0.10566000000E+00 0. -1.
          2    1    1    2  501    0 -0.50771628113E+03 -0.34971240001E+03  0.27022063753E+03  0.67312240922E+03  0.00000000000E+00 0.  1.
          4    1    3    3  502    0  0.34890765401E+03  0.64124182585E+03  0.50286080111E+03  0.88645169949E+03  0.00000000000E+00 0.  1.
</event>
<event>
 7    1  0.5696597E-006  0.1119431E+04  0.7818608E-02  0.9173269E-01
          2   -1    0    0  501    0  0.00000000000E+00  0.00000000000E+00  0.87668694146E+03  0.87668694146E+03  0.00000000000E+00 0.  1.
         -4   -1    0    0    0  501 -0.00000000000E+00 -0.00000000000E+00 -0.17155611146E+04  0.17155611146E+04  0.00000000000E+00 0. -1.
   -9000010    2    1    2    0  502 -0.37003387342E+03  0.21079685478E+02 -0.44329007937E+03  0.11712638614E+04  0.10188147614E+04 0.  0.
        -13    1    1    2    0    0 -0.10186036414E+03 -0.96842631245E+02 -0.78932825307E+03  0.80174380650E+03  0.10566000000E+00 0.  1.
         13    1    3    3    0    0 -0.72294991315E+03 -0.16521276248E+02 -0.23822722762E+03  0.76136834229E+03  0.10566000000E+00 0. -1.
          2    1    1    2  502    0  0.47189423756E+03  0.75762945767E+02  0.39374415927E+03  0.61924038818E+03  0.00000000000E+00 0.  1.
         -4    1    3    3    0  502  0.35291603974E+03  0.37600961726E+02 -0.20506285175E+03  0.40989551912E+03  0.00000000000E+00 0. -1.
</event>
<event>
 7    1  0.5696597E-006  0.1083279E+04  0.7818608E-02  0.8960417E-01
          2   -1    0    0  501    0  0.00000000000E+00  0.00000000000E+00  0.18064081014E+04  0.18064081014E+04  0.00000000000E+00 0. -1.
         -4   -1    0    0    0  501 -0.00000000000E+00 -0.00000000000E+00 -0.42163742286E+03  0.42163742286E+03  0.00000000000E+00 0. -1.
   -9000010    2    1    2    0  502  0.35824063619E+03  0.21866992650E+03  0.13778370005E+04  0.17654234801E+04  0.10208488497E+04 0.  0.
        -13    1    1    2    0    0 -0.28103840396E+03 -0.22039551609E+03 -0.57873713140E+02  0.36180954361E+03  0.10566000000E+00 0.  1.
         13    1    3    3    0    0 -0.97975132820E+02  0.51711477501E+03  0.88939275105E+03  0.10334535761E+04  0.10566000000E+00 0. -1.
          2    1    1    2  502    0 -0.77202232230E+02  0.17255895955E+01  0.64807391242E+02  0.10081250062E+03  0.00000000000E+00 0. -1.
         -4    1    3    3    0  502  0.45621576901E+03 -0.29844484851E+03  0.48844424943E+03  0.73196990395E+03  0.00000000000E+00 0. -1.
</event>
<event>
 7    1  0.5696597E-006  0.1047381E+04  0.7818608E-02  0.9362369E-01
         -4   -1    0    0    0  501 -0.00000000000E+00  0.00000000000E+00  0.17154821517E+04  0.17154821517E+04  0.00000000000E+00 0. -1.
          1   -1    0    0  501    0  0.00000000000E+00 -0.00000000000E+00 -0.56365628221E+03  0.56365628221E+03  0.00000000000E+00 0. -1.
   -9000010    2    1    2    0  502 -0.21691258294E+03  0.15324161348E+03  0.13082463804E+04  0.16855775956E+04  0.10291400188E+04 0.  0.
        -13    1    1    2    0    0  0.82112772772E+02 -0.14442103941E+02  0.18399388710E+03  0.20200208779E+03  0.10566000000E+00 0.  1.
         13    1    3    3    0    0  0.11249697303E+03  0.34750547792E+03  0.47778298169E+02  0.36837264158E+03  0.10566000000E+00 0. -1.
          1    1    1    2  502    0  0.13479981017E+03 -0.13879950954E+03 -0.34041439804E+03  0.39155875047E+03  0.00000000000E+00 0. -1.
         -4    1    3    3    0  502 -0.32940955598E+03 -0.19426386444E+03  0.12604680823E+04  0.13172049541E+04  0.00000000000E+00 0. -1.
</event>
<event>
 7    1  0.5696597E-006  0.1057502E+04  0.7818608E-02  0.8993121E-01
          1   -1    0    0  501    0  0.00000000000E+00  0.00000000000E+00  0.15904134728E+04  0.15904134728E+04  0.00000000000E+00 0. -1.
         -4   -1    0    0    0  501 -0.00000000000E+00 -0.00000000000E+00 -0.57156837277E+03  0.57156837277E+03  0.00000000000E+00 0. -1.
   -9000010    2    1    2    0  502  0.22574314151E+03 -0.25252098109E+03  0.69170927479E+02  0.10590085653E+04  0.10009933628E+04 0.  0.
        -13    1    1    2    0    0 -0.22044574156E+03  0.26241871041E+03  0.30675150236E+03  0.45995260616E+03  0.10566000000E+00 0.  1.
         13    1    3    3    0    0 -0.30997904575E+03 -0.64614620909E+02 -0.25384068791E+03  0.40582898373E+03  0.10566000000E+00 0. -1.
          1    1    1    2  502    0 -0.52973999486E+01 -0.98977293213E+01  0.64292267019E+03  0.64302067411E+03  0.00000000000E+00 0. -1.
         -4    1    3    3    0  502  0.53572218725E+03 -0.18790636018E+03  0.32301161539E+03  0.65317958157E+03  0.00000000000E+00 0. -1.
</event>
<event>
 7    1  0.5696597E-006  0.1095484E+04  0.7818608E-02  0.8920704E-01
         -4   -1    0    0    0  501 -0.00000000000E+00  0.00000000000E+00  0.38070799836E+03  0.38070799836E+03  0.00000000000E+00 0. -1.
          1   -1    0    0  501    0  0.00000000000E+00 -0.00000000000E+00 -0.17421745619E+04  0.17421745619E+04  0.00000000000E+00 0. -1.
   -9000010    2    1    2    0  502  0.28563162182E+02 -0.41342441490E+03 -0.69967813318E+03  0.13004797258E+04  0.10148706449E+04 0.  0.
        -13    1    1    2    0    0 -0.60377204125E+01  0.41158942625E+03 -0.45179357804E+03  0.61119535190E+03  0.10566000000E+00 0.  1.
         13    1    3    3    0    0 -0.49133977741E+03 -0.24968501952E+03 -0.35226909973E+03  0.65410313837E+03  0.10566000000E+00 0. -1.
          1    1    1    2  502    0 -0.22525441769E+02  0.18349886522E+01 -0.20999485236E+03  0.21120748266E+03  0.00000000000E+00 0. -1.
         -4    1    3    3    0  502  0.51990293959E+03 -0.16373939538E+03 -0.34740903345E+03  0.64637658738E+03  0.00000000000E+00 0. -1.
</event>
<event>
 7    1  0.5696597E-006  0.1151889E+04  0.7818608E-02  0.8809516E-01
         -4   -1    0    0    0  502 -0.00000000000E+00  0.00000000000E+00  0.28175113701E+04  0.28175113701E+04  0.00000000000E+00 0. -1.
         -2   -1    0    0    0  501  0.00000000000E+00 -0.00000000000E+00 -0.42027404103E+03  0.42027404103E+03  0.00000000000E+00 0. -1.
   -9000010    2    1    2    0  501  0.43344549909E+03 -0.34622418997E+03  0.10628451373E+04  0.15639358801E+04  0.10042457174E+04 0.  0.
        -13    1    1    2    0    0 -0.41176499311E+03  0.38917599958E+03  0.14456082107E+04  0.15526723667E+04  0.10566000000E+00 0.  1.
         13    1    3    3    0    0 -0.24315700216E+03 -0.30278646093E+03  0.12754396788E+03  0.40874496147E+03  0.10566000000E+00 0. -1.
         -2    1    1    2    0  502 -0.21680505988E+02 -0.42951809611E+02 -0.11121601895E+03  0.12117716435E+03  0.00000000000E+00 0. -1.
         -4    1    3    3    0  501  0.67660250125E+03 -0.43437729038E+02  0.93530116943E+03  0.11551909187E+04  0.00000000000E+00 0. -1.
</event>
<event>
 7    1  0.5696597E-006  0.1039959E+04  0.7818608E-02  0.9032754E-01
          2   -1    0    0  501    0  0.00000000000E+00  0.00000000000E+00  0.60596124433E+03  0.60596124433E+03  0.00000000000E+00 0. -1.
         -4   -1    0    0    0  501 -0.00000000000E+00 -0.00000000000E+00 -0.23319257527E+04  0.23319257527E+04  0.00000000000E+00 0. -1.
   -9000010    2    1    2    0  502 -0.23748554758E+03  0.16767821152E+03 -0.19528140307E+04  0.22104536270E+04  0.99403582976E+03 0.  0.
        -13    1    1    2    0    0  0.18050347346E+03 -0.27464340410E+03 -0.12781796373E+03  0.35263004177E+03  0.10566000000E+00 0.  1.
         13    1    3    3    0    0 -0.61586153069E+03  0.16106136529E+03 -0.10021571814E+04  0.11872426946E+04  0.10566000000E+00 0. -1.
          2    1    1    2  502    0  0.56982074122E+02  0.10696519257E+03  0.35466748605E+03  0.37480332823E+03  0.00000000000E+00 0. -1.
         -4    1    3    3    0  502  0.37837598310E+03  0.66168462350E+01 -0.95065684923E+03  0.10232109324E+04  0.00000000000E+00 0. -1.
</event>
<event>
 7    1  0.5696597E-006  0.1116556E+04  0.7818608E-02  0.8865508E-01
          4   -1    0    0  501    0 -0.00000000000E+00  0.00000000000E+00  0.60167262480E+03  0.60167262480E+03  0.00000000000E+00 0.  1.
          2   -1    0    0  502    0  0.00000000000E+00 -0.00000000000E+00 -0.15134178251E+04  0.15134178251E+04  0.00000000000E+00 0.  1.
    9000010    2    1    2  502    0  0.48667350185E+03 -0.60586255133E+02 -0.85340131730E+03  0.14055922803E+04  0.10034311428E+04 0.  0.
        -13    1    3    3    0    0 -0.25741609773E+03 -0.23919623114E+03 -0.25486063520E+03  0.43408736321E+03  0.10566000000E+00 0.  1.
         13    1    1    2    0    0 -0.48124060265E+03  0.90821686690E+02  0.13955317876E+03  0.50923098618E+03  0.10566000000E+00 0. -1.
          2    1    1    2  501    0 -0.54328991992E+01 -0.30235431557E+02 -0.19789706178E+03  0.20026718347E+03  0.00000000000E+00 0.  1.
          4    1    3    3  502    0  0.74408959959E+03  0.17860997601E+03 -0.59854068210E+03  0.97150491706E+03  0.00000000000E+00 0.  1.
</event>
<event>
 7    1  0.5696597E-006  0.9507698E+03  0.7818608E-02  0.9306162E-01
          2   -1    0    0  502    0  0.00000000000E+00  0.00000000000E+00  0.13754660924E+04  0.13754660924E+04  0.00000000000E+00 0. -1.
          4   -1    0    0  501    0 -0.00000000000E+00 -0.00000000000E+00 -0.12044671666E+04  0.12044671666E+04  0.00000000000E+00 0.  1.
    9000010    2    1    2  502    0 -0.35477304942E+03 -0.19812491470E+03 -0.69793082885E+03  0.12089136345E+04  0.89958175585E+03 0.  0.
        -13    1    3    3    0    0 -0.33502931402E+03 -0.34936105745E+03 -0.85968787033E+03  0.98659061179E+03  0.10566000000E+00 0.  1.
         13    1    1    2    0    0  0.13672124214E+03 -0.16379646627E+02 -0.20913837174E+03  0.25039940211E+03  0.10566000000E+00 0. -1.
          2    1    1    2  501    0  0.21805180728E+03  0.21450456132E+03  0.10780681264E+04  0.11206202223E+04  0.00000000000E+00 0. -1.
          4    1    3    3  502    0 -0.19743735403E+02  0.15123614276E+03  0.16175704149E+03  0.22232302273E+03  0.00000000000E+00 0.  1.
</event>
<event>
 7    1  0.5696597E-006  0.9851300E+03  0.7818608E-02  0.9196916E-01
         -4   -1    0    0    0  501 -0.00000000000E+00  0.00000000000E+00  0.42426686233E+03  0.42426686233E+03  0.00000000000E+00 0. -1.
          2   -1    0    0  501    0  0.00000000000E+00 -0.00000000000E+00 -0.17693068519E+04  0.17693068519E+04  0.00000000000E+00 0. -1.
   -9000010    2    1    2    0  502 -0.12424993377E+03 -0.15442451544E+03 -0.98596176622E+03  0.13951699905E+04  0.96700244096E+03 0.  0.
        -13    1    1    2    0    0  0.12600689933E+03  0.13923323869E+03  0.17940050690E+03  0.25970788682E+03  0.10566000000E+00 0.  1.
         13    1    3    3    0    0 -0.10066089300E+03 -0.50712737078E+03 -0.88934954113E+03  0.10287144419E+04  0.10566000000E+00 0. -1.
          2    1    1    2  502    0 -0.17569655612E+01  0.15191276749E+02 -0.53847873030E+03  0.53869583700E+03  0.00000000000E+00 0. -1.
         -4    1    3    3    0  502 -0.23589040770E+02  0.35270285533E+03 -0.96612225083E+02  0.36645554852E+03  0.00000000000E+00 0. -1.
</event>
<event>
 7    1  0.5696597E-006  0.1402203E+04  0.7818608E-02  0.8547177E-01
          2   -1    0    0  502    0  0.00000000000E+00  0.00000000000E+00  0.12912681939E+04  0.12912681939E+04  0.00000000000E+00 0.  1.
          4   -1    0    0  501    0 -0.00000000000E+00 -0.00000000000E+00 -0.12679067122E+04  0.12679067122E+04  0.00000000000E+00 0.  1.
    9000010    2    1    2  502    0  0.79771146522E+03 -0.57544775132E+03 -0.51170203969E+02  0.14056146173E+04  0.10028212035E+04 0.  0.
        -13    1    3    3    0    0  0.93267464695E+03 -0.60792570824E+03  0.18800790847E+03  0.11290715870E+04  0.10566000000E+00 0.  1.
         13    1    1    2    0    0 -0.80763146744E+03  0.55132834813E+03 -0.94594090235E+02  0.98243553870E+03  0.10566000000E+00 0. -1.
          2    1    1    2  501    0  0.99200022197E+01  0.24119403197E+02  0.16912577587E+03  0.17112475017E+03  0.00000000000E+00 0.  1.
          4    1    3    3  502    0 -0.13496318173E+03  0.32477956913E+02 -0.23917811244E+03  0.27654303025E+03  0.00000000000E+00 0.  1.
</event>
<event>
 7    1  0.5696597E-006  0.1031347E+04  0.7818608E-02  0.9122730E-01
         -4   -1    0    0    0  501  0.00000000000E+00  0.00000000000E+00  0.54859143255E+03  0.54859143255E+03  0.00000000000E+00 0. -1.
         -4   -1    0    0    0  502 -0.00000000000E+00 -0.00000000000E+00 -0.19563024740E+04  0.19563024740E+04  0.00000000000E+00 0. -1.
   -9000010    2    1    2    0  501  0.18493099314E+03 -0.10434765970E+03 -0.10956274416E+04  0.15037183193E+04  0.10078101938E+04 0.  0.
        -13    1    1    2    0    0 -0.18653652024E+03  0.11607456286E+03 -0.63814157278E+03  0.67490284901E+03  0.10566000000E+00 0.  1.
         13    1    3    3    0    0 -0.24757727497E+03  0.21916523715E+03 -0.60479988749E+02  0.33613352773E+03  0.10566000000E+00 0. -1.
         -4    1    1    2    0  502  0.16055271029E+01 -0.11726903161E+02  0.32605797294E+03  0.32627273820E+03  0.00000000000E+00 0. -1.
         -4    1    3    3    0  501  0.43250826811E+03 -0.32351289685E+03 -0.10351474528E+04  0.11675847916E+04  0.00000000000E+00 0. -1.
</event>
<event>
 7    1  0.5696597E-006  0.1015056E+04  0.7818608E-02  0.9403440E-01
         -4   -1    0    0    0  501 -0.00000000000E+00  0.00000000000E+00  0.19478180664E+03  0.19478180664E+03  0.00000000000E+00 0. -1.
          2   -1    0    0  501    0  0.00000000000E+00 -0.00000000000E+00 -0.25717849034E+04  0.25717849034E+04  0.00000000000E+00 0. -1.
   -9000010    2    1    2    0  502  0.15182497619E+03  0.85367013967E+02 -0.16280409951E+04  0.19239958044E+04  0.10103979530E+04 0.  0.
        -13    1    1    2    0    0 -0.68723218166E+02 -0.38165160289E+02  0.85322716219E+01  0.79071303253E+02  0.10566000000E+00 0.  1.
         13    1    3    3    0    0  0.45897803176E+03 -0.22369189499E+03 -0.12381440988E+04  0.13392907519E+04  0.10566000000E+00 0. -1.
          2    1    1    2  502    0 -0.83101758021E+02 -0.47201853678E+02 -0.75749437332E+03  0.76349960235E+03  0.00000000000E+00 0. -1.
         -4    1    3    3    0  502 -0.30715305557E+03  0.30905890896E+03 -0.38989689626E+03  0.58470505254E+03  0.00000000000E+00 0. -1.
</event>
<event>
 7    1  0.5696597E-006  0.1017474E+04  0.7818608E-02  0.9188637E-01
         -4   -1    0    0    0  501 -0.00000000000E+00  0.00000000000E+00  0.11161463207E+04  0.11161463207E+04  0.00000000000E+00 0. -1.
          2   -1    0    0  501    0  0.00000000000E+00 -0.00000000000E+00 -0.91699146241E+03  0.91699146241E+03  0.00000000000E+00 0.  1.
   -9000010    2    1    2    0  502  0.18687713445E+03 -0.22205739208E+02  0.33691590534E+03  0.10738230139E+04  0.10020815234E+04 0.  0.
        -13    1    1    2    0    0 -0.17540880409E+03  0.10510009180E+02  0.39185156202E+03  0.42944891043E+03  0.10566000000E+00 0.  1.
         13    1    3    3    0    0  0.47895283911E+02  0.46707373263E+03  0.31366312694E+03  0.56465599997E+03  0.10566000000E+00 0. -1.
          2    1    1    2  502    0 -0.11468330364E+02  0.11695730028E+02 -0.52961260904E+03  0.52986585883E+03  0.00000000000E+00 0.  1.
         -4    1    3    3    0  502  0.13898185054E+03 -0.48927947184E+03  0.23252778392E+02  0.50916701390E+03  0.00000000000E+00 0. -1.
</event>
<event>
 7    1  0.5696597E-006  0.1018077E+04  0.7818608E-02  0.9193338E-01
          4   -1    0    0  501    0 -0.00000000000E+00  0.00000000000E+00  0.26501143451E+03  0.26501143451E+03  0.00000000000E+00 0.  1.
          2   -1    0    0  502    0  0.00000000000E+00 -0.00000000000E+00 -0.15863144491E+04  0.15863144491E+04  0.00000000000E+00 0.  1.
    9000010    2    1    2  502    0 -0.12657975761E+03  0.33482188583E+02 -0.96408784989E+03  0.13975777226E+04  0.10033018571E+04 0.  0.
        -13    1    3    3    0    0  0.23440507344E+03  0.26001470899E+03 -0.90117330589E+03  0.96678163292E+03  0.10566000000E+00 0.  1.
         13    1    1    2    0    0  0.14702588095E+03 -0.10578292929E+03 -0.15629256869E+03  0.23923631829E+03  0.10566000000E+00 0. -1.
          2    1    1    2  501    0 -0.20446123344E+02  0.72300740703E+02 -0.20092259600E+03  0.21451184268E+03  0.00000000000E+00 0.  1.
          4    1    3    3  502    0 -0.36098483105E+03 -0.22653252041E+03 -0.62914544004E+02  0.43079608970E+03  0.00000000000E+00 0.  1.
</event>
<event>
 7    1  0.5696597E-006  0.1025143E+04  0.7818608E-02  0.9322216E-01
         -4   -1    0    0    0  501 -0.00000000000E+00  0.00000000000E+00  0.58001993408E+03  0.58001993408E+03  0.00000000000E+00 0. -1.
          1   -1    0    0  501    0  0.00000000000E+00 -0.00000000000E+00 -0.24863047912E+04  0.24863047912E+04  0.00000000000E+00 0. -1.
   -9000010    2    1    2    0  502  0.20705536857E+03 -0.56429146130E+02 -0.52479213888E+02  0.10425853038E+04  0.10189081772E+04 0.  0.
        -13    1    1    2    0    0 -0.95932337745E+02  0.38543739916E+02  0.51229368817E+02  0.11538237606E+03  0.10566000000E+00 0.  1.
         13    1    3    3    0    0 -0.27304318998E+03  0.98252818585E+02  0.30757635195E+03  0.42285863288E+03  0.10566000000E+00 0. -1.
          1    1    1    2  502    0 -0.11112303083E+03  0.17885406213E+02 -0.19050350120E+04  0.19083570454E+04  0.00000000000E+00 0. -1.
         -4    1    3    3    0  502  0.48009855855E+03 -0.15468196471E+03 -0.36005556584E+03  0.61972667090E+03  0.00000000000E+00 0. -1.
</event>
<event>
 7    1  0.5696597E-006  0.1030626E+04  0.7818608E-02  0.9170267E-01
          2   -1    0    0  501    0  0.00000000000E+00  0.00000000000E+00  0.17625122822E+04  0.17625122822E+04  0.00000000000E+00 0. -1.
         -4   -1    0    0    0  501 -0.00000000000E+00 -0.00000000000E+00 -0.30068904275E+03  0.30068904275E+03  0.00000000000E+00 0. -1.
   -9000010    2    1    2    0  502 -0.95119279997E+02  0.32531691879E+02  0.13366078016E+04  0.16809555495E+04  0.10143890554E+04 0.  0.
        -13    1    1    2    0    0  0.18658546250E+03  0.15628700931E+01 -0.39548217958E+02  0.19073712299E+03  0.10566000000E+00 0.  1.
         13    1    3    3    0    0  0.32598631209E+03 -0.13895255423E+03  0.11249094285E+04  0.11794049862E+04  0.10566000000E+00 0. -1.
          2    1    1    2  502    0 -0.91466182504E+02 -0.34094561972E+02  0.16476365584E+03  0.19150865250E+03  0.00000000000E+00 0. -1.
         -4    1    3    3    0  502 -0.42110559208E+03  0.17148424611E+03  0.21169837308E+03  0.50155056327E+03  0.00000000000E+00 0. -1.
</event>
<event>
 7    1  0.5696597E-006  0.1022813E+04  0.7818608E-02  0.9125930E-01
         -4   -1    0    0    0  501 -0.00000000000E+00  0.00000000000E+00  0.14947939701E+04  0.14947939701E+04  0.00000000000E+00 0. -1.
          1   -1    0    0  501    0  0.00000000000E+00 -0.00000000000E+00 -0.40120569578E+03  0.40120569578E+03  0.00000000000E+00 0. -1.
   -9000010    2    1    2    0  502  0.22401863220E+03  0.42776066112E+02  0.90587095206E+03  0.13673219761E+04  0.99847537038E+03 0.  0.
        -13    1    1    2    0    0 -0.21045518090E+03 -0.67733681405E+02  0.32246042131E+03  0.39097310552E+03  0.10566000000E+00 0.  1.
         13    1    3    3    0    0 -0.20898081753E+03 -0.22820381708E+03  0.78303458407E+03  0.84195791774E+03  0.10566000000E+00 0. -1.
          1    1    1    2  502    0 -0.13563451300E+02  0.24957615293E+02 -0.13474309905E+03  0.13770458422E+03  0.00000000000E+00 0. -1.
         -4    1    3    3    0  502  0.43299944973E+03  0.27097988320E+03  0.12283636798E+03  0.52536405840E+03  0.00000000000E+00 0. -1.
</event>
<event>
 7    1  0.5696597E-006  0.1022660E+04  0.7818608E-02  0.9428273E-01
         -4   -1    0    0    0  501 -0.00000000000E+00  0.00000000000E+00  0.75800026225E+03  0.75800026225E+03  0.00000000000E+00 0. -1.
          1   -1    0    0  501    0  0.00000000000E+00 -0.00000000000E+00 -0.61735286358E+03  0.61735286358E+03  0.00000000000E+00 0. -1.
   -9000010    2    1    2    0  502  0.92297784878E+02  0.39807051105E+02  0.53013305770E+02  0.10225881726E+04  0.10162542387E+04 0.  0.
        -13    1    1    2    0    0 -0.34822576177E+02  0.60868488991E+02  0.18722939579E+03  0.19993109457E+03  0.10566000000E+00 0.  1.
         13    1    3    3    0    0 -0.29330531253E+03 -0.36089522604E+03  0.18777147116E+02  0.46543094328E+03  0.10566000000E+00 0. -1.
          1    1    1    2  502    0 -0.57475208701E+02 -0.10067554010E+03 -0.99595302897E+02  0.15283385864E+03  0.00000000000E+00 0. -1.
         -4    1    3    3    0  502  0.38560309741E+03  0.40070227715E+03  0.34236158654E+02  0.55715722934E+03  0.00000000000E+00 0. -1.
</event>
<event>
 7    1  0.5696597E-006  0.1057235E+04  0.7818608E-02  0.8982053E-01
          2   -1    0    0  502    0  0.00000000000E+00  0.00000000000E+00  0.10051641341E+04  0.10051641341E+04  0.00000000000E+00 0. -1.
          4   -1    0    0  501    0 -0.00000000000E+00 -0.00000000000E+00 -0.11777481983E+04  0.11777481983E+04  0.00000000000E+00 0.  1.
    9000010    2    1    2  502    0  0.34896889875E+03  0.54467938603E+02 -0.55620640724E+03  0.11934860898E+04  0.99513689034E+03 0.  0.
        -13    1    3    3    0    0 -0.37434078883E+02  0.29928096478E+03  0.16170747891E+03  0.34222759392E+03  0.10566000000E+00 0.  1.
         13    1    1    2    0    0 -0.34789142195E+03 -0.87121014932E+02 -0.19612536188E+03  0.40875870810E+03  0.10566000000E+00 0. -1.
          2    1    1    2  501    0 -0.10774768055E+01  0.32653076329E+02  0.57974770490E+03  0.58066753456E+03  0.00000000000E+00 0. -1.
          4    1    3    3  502    0  0.38640297764E+03 -0.24481302618E+03 -0.71791388615E+03  0.85125849590E+03  0.00000000000E+00 0.  1.
</event>
<event>
 7    1  0.5696597E-006  0.9983943E+03  0.7818608E-02  0.9331834E-01
          2   -1    0    0  502    0  0.00000000000E+00  0.00000000000E+00  0.24677766315E+04  0.24677766315E+04  0.00000000000E+00 0.  1.
          4   -1    0    0  501    0 -0.00000000000E+00 -0.00000000000E+00 -0.62247206212E+03  0.62247206212E+03  0.00000000000E+00 0.  1.
    9000010    2    1    2  502    0 -0.18627402381E+03 -0.12100465248E+03  0.10999535415E+03  0.10180526487E+04  0.98741687230E+03 0.  0.
        -13    1    3    3    0    0 -0.33703767536E+03 -0.47747254844E+03 -0.74709864149E+02  0.58919946036E+03  0.10566000000E+00 0.  1.
         13    1    1    2    0    0  0.10787400891E+03 -0.37004794217E+01 -0.14797569603E+03  0.18315925618E+03  0.10566000000E+00 0. -1.
          2    1    1    2  501    0  0.78400014903E+02  0.12470513191E+03  0.18832849112E+04  0.18890367887E+04  0.00000000000E+00 0.  1.
          4    1    3    3  502    0  0.15076365155E+03  0.35646789595E+03  0.18470521830E+03  0.42885318833E+03  0.00000000000E+00 0.  1.
</event>
<event>
 7    1  0.5696597E-006  0.1062486E+04  0.7818608E-02  0.9022329E-01
         -4   -1    0    0    0  501 -0.00000000000E+00  0.00000000000E+00  0.34797450525E+03  0.34797450525E+03  0.00000000000E+00 0. -1.
          1   -1    0    0  501    0  0.00000000000E+00 -0.00000000000E+00 -0.16067587872E+04  0.16067587872E+04  0.00000000000E+00 0. -1.
   -9000010    2    1    2    0  502  0.33165916215E+03 -0.14056561206E+03 -0.11168402840E+04  0.15545561230E+04  0.10195862045E+04 0.  0.
        -13    1    1    2    0    0 -0.26541982886E+03  0.11798200691E+03 -0.67895150157E+02  0.29829046597E+03  0.10566000000E+00 0.  1.
         13    1    3    3    0    0  0.59507936015E+03  0.37015818028E+02 -0.10814302995E+04  0.12349012590E+04  0.10566000000E+00 0. -1.
          1    1    1    2  502    0 -0.66239333292E+02  0.22583605155E+02 -0.74048847828E+02  0.10188670356E+03  0.00000000000E+00 0. -1.
         -4    1    3    3    0  502 -0.26342019800E+03 -0.17758143009E+03 -0.35409984453E+02  0.31965486392E+03  0.00000000000E+00 0. -1.
</event>
<event>
 7    1  0.5696597E-006  0.9171663E+03  0.7818608E-02  0.9151152E-01
         -4   -1    0    0    0  501  0.00000000000E+00  0.00000000000E+00  0.42303949881E+03  0.42303949881E+03  0.00000000000E+00 0. -1.
         -4   -1    0    0    0  502 -0.00000000000E+00 -0.00000000000E+00 -0.46492943401E+04  0.46492943401E+04  0.00000000000E+00 0. -1.
   -9000010    2    1    2    0  501  0.10110916090E+03 -0.26010046268E+03 -0.36926309261E+04  0.38048613549E+04  0.87382576118E+03 0.  0.
        -13    1    1    2    0    0 -0.79632710690E+02  0.26706848651E+03 -0.87860930423E+03  0.92174902535E+03  0.10566000000E+00 0.  1.
         13    1    3    3    0    0 -0.14928671981E+02 -0.56203075997E+03 -0.27884181687E+04  0.28445346430E+04  0.10566000000E+00 0. -1.
         -4    1    1    2    0  502 -0.21476450213E+02 -0.69680238329E+01  0.34498538897E+03  0.34572345867E+03  0.00000000000E+00 0. -1.
         -4    1    3    3    0  501  0.11603783288E+03  0.30193029729E+03 -0.90421275739E+03  0.96032671196E+03  0.00000000000E+00 0. -1.
</event>
<event>
 7    1  0.5696597E-006  0.1041020E+04  0.7818608E-02  0.9041655E-01
          2   -1    0    0  501    0  0.00000000000E+00  0.00000000000E+00  0.83696810118E+03  0.83696810118E+03  0.00000000000E+00 0. -1.
         -4   -1    0    0    0  501 -0.00000000000E+00 -0.00000000000E+00 -0.15352886252E+04  0.15352886252E+04  0.00000000000E+00 0. -1.
   -9000010    2    1    2    0  502  0.46002010198E+02  0.33390819258E+03 -0.10863997620E+04  0.15136581030E+04  0.99864184965E+03 0.  0.
        -13    1    1    2    0    0  0.78098391120E+01 -0.27830701022E+03 -0.14913304845E+03  0.31584246521E+03  0.10566000000E+00 0.  1.
         13    1    3    3    0    0 -0.22668155638E+03  0.35527148352E+03 -0.30080272921E+02  0.42250111123E+03  0.10566000000E+00 0. -1.
          2    1    1    2  502    0 -0.53811849310E+02 -0.55601182361E+02  0.53721228640E+03  0.54275615820E+03  0.00000000000E+00 0. -1.
         -4    1    3    3    0  502  0.27268356658E+03 -0.21363290940E+02 -0.10563194891E+04  0.10911569918E+04  0.00000000000E+00 0. -1.
</event>
<event>
 7    1  0.5696597E-006  0.1021939E+04  0.7818608E-02  0.9316914E-01
          2   -1    0    0  501    0  0.00000000000E+00  0.00000000000E+00  0.13944664510E+04  0.13944664510E+04  0.00000000000E+00 0.  1.
         -4   -1    0    0    0  501 -0.00000000000E+00 -0.00000000000E+00 -0.26334472200E+04  0.26334472200E+04  0.00000000000E+00 0. -1.
   -9000010    2    1    2    0  502 -0.23747421962E+02  0.13377992729E+03 -0.21826859219E+04  0.24115561870E+04  0.10163780793E+04 0.  0.
        -13    1    1    2    0    0 -0.16965687720E+01 -0.10452971231E+03 -0.32789953402E+03  0.34416195995E+03  0.10566000000E+00 0.  1.
         13    1    3    3    0    0 -0.25389876568E+03 -0.15265850480E+03 -0.12538621085E+03  0.32170003937E+03  0.10566000000E+00 0. -1.
          2    1    1    2  502    0  0.25443990734E+02 -0.29250214974E+02  0.12716046870E+04  0.12721955242E+04  0.00000000000E+00 0.  1.
         -4    1    3    3    0  502  0.23015134371E+03  0.28643843208E+03 -0.20572997111E+04  0.20898561476E+04  0.00000000000E+00 0. -1.
</event>
<event>
 7    1  0.5696597E-006  0.1022757E+04  0.7818608E-02  0.9129838E-01
         -4   -1    0    0    0  501  0.00000000000E+00  0.00000000000E+00  0.25105834869E+03  0.25105834869E+03  0.00000000000E+00 0. -1.
         -4   -1    0    0    0  502 -0.00000000000E+00 -0.00000000000E+00 -0.30852532870E+04  0.30852532870E+04  0.00000000000E+00 0. -1.
   -9000010    2    1    2    0  501  0.19318609065E+03  0.31067800823E+03 -0.21451669092E+04  0.23945553161E+04  0.99915584521E+03 0.  0.
        -13    1    1    2    0    0 -0.98660745485E+02 -0.17679327506E+03 -0.74230806285E+03  0.76942256020E+03  0.10566000000E+00 0.  1.
         13    1    3    3    0    0 -0.29889782246E+03  0.36584203196E+03 -0.15496928905E+04  0.16201013446E+04  0.10566000000E+00 0. -1.
         -4    1    1    2    0  502 -0.94525345168E+02 -0.13388473318E+03  0.53280033699E+02  0.17233375945E+03  0.00000000000E+00 0. -1.
         -4    1    3    3    0  501  0.49208391311E+03 -0.55164023727E+02 -0.59547401869E+03  0.77445397151E+03  0.00000000000E+00 0. -1.
</event>
<event>
 7    1  0.5696597E-006  0.9888660E+03  0.7818608E-02  0.8913503E-01
         -4   -1    0    0    0  501 -0.00000000000E+00  0.00000000000E+00  0.22879988534E+04  0.22879988534E+04  0.00000000000E+00 0. -1.
          2   -1    0    0  501    0  0.00000000000E+00 -0.00000000000E+00 -0.68903339205E+03  0.68903339205E+03  0.00000000000E+00 0.  1.
   -9000010    2    1    2    0  502  0.17909922462E+03  0.48535857174E+03  0.10515298019E+04  0.14203922818E+04  0.80258945585E+03 0.  0.
        -13    1    1    2    0    0 -0.27268869716E+03 -0.54305637922E+03  0.95641682506E+03  0.11331383459E+04  0.10566000000E+00 0.  1.
         13    1    3    3    0    0  0.28388063971E+03  0.51947750221E+03  0.30530565714E+03  0.66607555754E+03  0.10566000000E+00 0. -1.
          2    1    1    2  502    0  0.93589472544E+02  0.57697807479E+02 -0.40898116560E+03  0.42350161768E+03  0.00000000000E+00 0.  1.
         -4    1    3    3    0  502 -0.10478141509E+03 -0.34118930473E+02  0.74622414475E+03  0.75431672431E+03  0.00000000000E+00 0. -1.
</event>
<event>
 7    1  0.5696597E-006  0.1109887E+04  0.7818608E-02  0.8853647E-01
          2   -1    0    0  501    0  0.00000000000E+00  0.00000000000E+00  0.11794664222E+04  0.11794664222E+04  0.00000000000E+00 0.  1.
         -4   -1    0    0    0  501 -0.00000000000E+00 -0.00000000000E+00 -0.17293840487E+04  0.17293840487E+04  0.00000000000E+00 0. -1.
   -9000010    2    1    2    0  502 -0.94785295728E+01 -0.56336618064E+03 -0.10671571418E+04  0.15535924570E+04  0.97844461315E+03 0.  0.
        -13    1    1    2    0    0 -0.17389855525E+03  0.48148565691E+03 -0.24462312351E+03  0.56737080384E+03  0.10566000000E+00 0.  1.
         13    1    3    3    0    0  0.24076399407E+03 -0.42148459920E+03 -0.11549670271E+04  0.12528229776E+04  0.10566000000E+00 0. -1.
          2    1    1    2  502    0  0.18337708483E+03  0.81880523724E+02  0.76186263879E+03  0.78788721007E+03  0.00000000000E+00 0.  1.
         -4    1    3    3    0  502 -0.25024252364E+03 -0.14188158144E+03  0.87809885294E+02  0.30076947941E+03  0.00000000000E+00 0. -1.
</event>
<event>
 7    1  0.5696597E-006  0.1161055E+04  0.7818608E-02  0.8790785E-01
          1   -1    0    0  501    0  0.00000000000E+00  0.00000000000E+00  0.91242113799E+03  0.91242113799E+03  0.00000000000E+00 0. -1.
         -4   -1    0    0    0  501 -0.00000000000E+00 -0.00000000000E+00 -0.10759597121E+04  0.10759597121E+04  0.00000000000E+00 0. -1.
   -9000010    2    1    2    0  502  0.53551926432E+03 -0.23319753521E+03 -0.15121535383E+03  0.11646265041E+04  0.99615603097E+03 0.  0.
        -13    1    1    2    0    0 -0.54957431487E+03  0.24498443471E+03 -0.20084625061E+03  0.63434101898E+03  0.10566000000E+00 0.  1.
         13    1    3    3    0    0  0.36824827530E+03 -0.51578473851E+03 -0.40281994435E+03  0.75093582114E+03  0.10566000000E+00 0. -1.
          1    1    1    2  502    0  0.14055050556E+02 -0.11786899498E+02  0.18852303036E+03  0.18941332694E+03  0.00000000000E+00 0. -1.
         -4    1    3    3    0  502  0.16727098902E+03  0.28258720330E+03  0.25160459052E+03  0.41369068301E+03  0.00000000000E+00 0. -1.
</event>
<event>
 7    1  0.5696597E-006  0.1206010E+04  0.7818608E-02  0.8824187E-01
          1   -1    0    0  501    0  0.00000000000E+00  0.00000000000E+00  0.17418238731E+04  0.17418238731E+04  0.00000000000E+00 0.  1.
         -4   -1    0    0    0  501 -0.00000000000E+00 -0.00000000000E+00 -0.49506572925E+04  0.49506572925E+04  0.00000000000E+00 0. -1.
   -9000010    2    1    2    0  502 -0.43370961151E+03  0.17369764460E+03 -0.28053121517E+04  0.30134502374E+04  0.99640913570E+03 0.  0.
        -13    1    1    2    0    0 -0.21195811193E+03 -0.41063867002E+03 -0.19407232010E+04  0.19949829354E+04  0.10566000000E+00 0.  1.
         13    1    3    3    0    0 -0.17877704063E+03  0.58715113463E+03 -0.16296880561E+04  0.17414335636E+04  0.10566000000E+00 0. -1.
          1    1    1    2  502    0  0.64566772344E+03  0.23694102542E+03  0.15372019333E+04  0.16840479929E+04  0.00000000000E+00 0.  1.
         -4    1    3    3    0  502 -0.25493257088E+03 -0.41345349002E+03 -0.11756240956E+04  0.12720166737E+04  0.00000000000E+00 0. -1.
</event>
<event>
 7    1  0.5696597E-006  0.1086526E+04  0.7818608E-02  0.8791351E-01
          1   -1    0    0  501    0  0.00000000000E+00  0.00000000000E+00  0.51555053451E+03  0.51555053451E+03  0.00000000000E+00 0.  1.
         -4   -1    0    0    0  501 -0.00000000000E+00 -0.00000000000E+00 -0.26387071393E+04  0.26387071393E+04  0.00000000000E+00 0. -1.
   -9000010    2    1    2    0  502  0.52490278459E+03  0.50815183262E+03 -0.94806294753E+03  0.14442972538E+04  0.80835016338E+03 0.  0.
        -13    1    1    2    0    0 -0.53280514547E+03 -0.49080751121E+03 -0.13510330108E+04  0.15329916971E+04  0.10566000000E+00 0.  1.
         13    1    3    3    0    0  0.59941841637E+03  0.52107489330E+03 -0.10505073329E+04  0.13169613320E+04  0.10566000000E+00 0. -1.
          1    1    1    2  502    0  0.79023608770E+01 -0.17344321408E+02  0.17593935346E+03  0.17696872291E+03  0.00000000000E+00 0.  1.
         -4    1    3    3    0  502 -0.74515631778E+02 -0.12923060678E+02  0.10244438541E+03  0.12733592180E+03  0.00000000000E+00 0. -1.
</event>
<event>
 7    1  0.5696597E-006  0.1029973E+04  0.7818608E-02  0.9081197E-01
          2   -1    0    0  502    0  0.00000000000E+00  0.00000000000E+00  0.11212960113E+04  0.11212960113E+04  0.00000000000E+00 0. -1.
          4   -1    0    0  501    0 -0.00000000000E+00 -0.00000000000E+00 -0.11985113912E+04  0.11985113912E+04  0.00000000000E+00 0.  1.
    9000010    2    1    2  502    0  0.25805989562E+03 -0.63830107872E+02 -0.89877386799E+03  0.13682463912E+04  0.99681218338E+03 0.  0.
        -13    1    3    3    0    0 -0.11780879194E+03 -0.21747643406E+03 -0.92871331752E+03  0.96108446462E+03  0.10566000000E+00 0.  1.
         13    1    1    2    0    0 -0.24774150993E+03  0.48798060230E+02  0.18083354682E+03  0.31057670428E+03  0.10566000000E+00 0. -1.
          2    1    1    2  501    0 -0.10318385686E+02  0.15032047641E+02  0.64072494121E+03  0.64098430701E+03  0.00000000000E+00 0. -1.
          4    1    3    3  502    0  0.37586868756E+03  0.15364632619E+03  0.29939449537E+02  0.40716192660E+03  0.00000000000E+00 0.  1.
</event>
<event>
 7    1  0.5696597E-006  0.1549183E+04  0.7818608E-02  0.8563712E-01
          1   -1    0    0  501    0  0.00000000000E+00  0.00000000000E+00  0.30659194046E+04  0.30659194046E+04  0.00000000000E+00 0.  1.
         -4   -1    0    0    0  501 -0.00000000000E+00 -0.00000000000E+00 -0.25174461765E+04  0.25174461765E+04  0.00000000000E+00 0. -1.
   -9000010    2    1    2    0  502 -0.29470149280E+03 -0.84741127721E+03 -0.54465703481E+03  0.14494591588E+04  0.99966280560E+03 0.  0.
        -13    1    1    2    0    0  0.56493441950E+03 -0.36915771843E+03 -0.12836430922E+04  0.14502302985E+04  0.10566000000E+00 0.  1.
         13    1    3    3    0    0 -0.18148219760E+03 -0.10649084513E+04 -0.34735406864E+03  0.11347337388E+04  0.10566000000E+00 0. -1.
          1    1    1    2  502    0 -0.27023292670E+03  0.12165689956E+04  0.23767733551E+04  0.26836761238E+04  0.00000000000E+00 0.  1.
         -4    1    3    3    0  502 -0.11321929520E+03  0.21749717412E+03 -0.19730296617E+03  0.31472542004E+03  0.00000000000E+00 0. -1.
</event>
<event>
 7    1  0.5696597E-006  0.1101428E+04  0.7818608E-02  0.8860473E-01
          2   -1    0    0  502    0  0.00000000000E+00  0.00000000000E+00  0.63012670412E+03  0.63012670412E+03  0.00000000000E+00 0.  1.
          4   -1    0    0  501    0 -0.00000000000E+00 -0.00000000000E+00 -0.19950636428E+04  0.19950636428E+04  0.00000000000E+00 0.  1.
    9000010    2    1    2  502    0 -0.28407300010E+03  0.46236207216E+03 -0.18512428237E+03  0.11271377857E+04  0.97040838458E+03 0.  0.
        -13    1    3    3    0    0  0.21935871232E+03 -0.12643996973E+03 -0.24216939979E+03  0.35035887312E+03  0.10566000000E+00 0.  1.
         13    1    1    2    0    0  0.28138942034E+03 -0.43575354017E+03 -0.12869897732E+04  0.13875892191E+04  0.10566000000E+00 0. -1.
          2    1    1    2  501    0  0.26835797592E+01 -0.26608531991E+02  0.10717711684E+03  0.11046334211E+03  0.00000000000E+00 0.  1.
          4    1    3    3  502    0 -0.50343171242E+03  0.58880204190E+03  0.57045117414E+02  0.77677891258E+03  0.00000000000E+00 0.  1.
</event>
<event>
 7    1  0.5696597E-006  0.1354871E+04  0.7818608E-02  0.8585406E-01
          1   -1    0    0  501    0  0.00000000000E+00  0.00000000000E+00  0.18113768878E+04  0.18113768878E+04  0.00000000000E+00 0. -1.
         -4   -1    0    0    0  501 -0.00000000000E+00 -0.00000000000E+00 -0.17424260456E+04  0.17424260456E+04  0.00000000000E+00 0. -1.
   -9000010    2    1    2    0  502  0.73289798483E+03  0.56662257725E+03 -0.72227636805E+03  0.15417053931E+04  0.99848473505E+03 0.  0.
        -13    1    1    2    0    0 -0.72838803709E+03 -0.54076142584E+03 -0.27314075107E+03  0.94740589680E+03  0.10566000000E+00 0.  1.
         13    1    3    3    0    0  0.72067943891E+03  0.12695014815E+03 -0.43740029598E+02  0.73308143827E+03  0.10566000000E+00 0. -1.
          1    1    1    2  502    0 -0.45099477486E+01 -0.25861151409E+02  0.10643679613E+04  0.10646916435E+04  0.00000000000E+00 0. -1.
         -4    1    3    3    0  502  0.12218545928E+02  0.43967242910E+03 -0.67853633846E+03  0.80862395486E+03  0.00000000000E+00 0. -1.
</event>
<event>
 7    1  0.5696597E-006  0.1095860E+04  0.7818608E-02  0.8878202E-01
         -4   -1    0    0    0  501 -0.00000000000E+00  0.00000000000E+00  0.12592520716E+04  0.12592520716E+04  0.00000000000E+00 0. -1.
          2   -1    0    0  501    0  0.00000000000E+00 -0.00000000000E+00 -0.16147016644E+04  0.16147016644E+04  0.00000000000E+00 0. -1.
   -9000010    2    1    2    0  502  0.37056849377E+03 -0.10061492318E+03 -0.42430148913E+03  0.11561212180E+04  0.10045596775E+04 0.  0.
        -13    1    1    2    0    0 -0.29879806039E+03 -0.39000475468E+03  0.73702970336E+03  0.88577468036E+03  0.10566000000E+00 0.  1.
         13    1    3    3    0    0  0.24010722222E+03  0.44184566238E+03 -0.29639321345E+03  0.58371912396E+03  0.10566000000E+00 0. -1.
          2    1    1    2  502    0 -0.71770433371E+02  0.49061967787E+03 -0.66817780702E+03  0.83205783766E+03  0.00000000000E+00 0. -1.
         -4    1    3    3    0  502  0.13046127154E+03 -0.54246058557E+03 -0.12790827568E+03  0.57240209403E+03  0.00000000000E+00 0. -1.
</event>
<event>
 7    1  0.5696597E-006  0.9808580E+03  0.7818608E-02  0.9590637E-01
          2   -1    0    0  501    0  0.00000000000E+00  0.00000000000E+00  0.18342064391E+04  0.18342064391E+04  0.00000000000E+00 0. -1.
         -4   -1    0    0    0  501 -0.00000000000E+00 -0.00000000000E+00 -0.18700235382E+03  0.18700235382E+03  0.00000000000E+00 0. -1.
   -9000010    2    1    2    0  502  0.55144320686E+02  0.10296540162E+02  0.15363032085E+04  0.18230499153E+04  0.97986556753E+03 0.  0.
        -13    1    1    2    0    0 -0.44004261942E+02 -0.16864819611E+01 -0.32082415181E+02  0.54484051045E+02  0.10566000000E+00 0.  1.
         13    1    3    3    0    0  0.60675247516E+02 -0.42443617414E+03  0.33076602381E+03  0.54151059570E+03  0.10566000000E+00 0. -1.
          2    1    1    2  502    0 -0.11140058744E+02 -0.86100582013E+01  0.14298329188E+03  0.14367482649E+03  0.00000000000E+00 0. -1.
         -4    1    3    3    0  502 -0.55309268299E+01  0.43473271431E+03  0.12055371847E+04  0.12815393196E+04  0.00000000000E+00 0. -1.
</event>
<event>
 7    1  0.5696597E-006  0.1016255E+04  0.7818608E-02  0.9435364E-01
         -4   -1    0    0    0  501 -0.00000000000E+00  0.00000000000E+00  0.13033638872E+04  0.13033638872E+04  0.00000000000E+00 0. -1.
          2   -1    0    0  501    0  0.00000000000E+00 -0.00000000000E+00 -0.38019313536E+03  0.38019313536E+03  0.00000000000E+00 0. -1.
   -9000010    2    1    2    0  502  0.33864563259E+02  0.78356032672E+02  0.69456753984E+03  0.12319248060E+04  0.10138679321E+04 0.  0.
        -13    1    1    2    0    0 -0.62917469077E+02 -0.29956788053E+02  0.32908365146E+03  0.33638085244E+03  0.10566000000E+00 0.  1.
         13    1    3    3    0    0 -0.21684166676E+02  0.37345874430E+03  0.82399365613E+03  0.90493491107E+03  0.10566000000E+00 0. -1.
          2    1    1    2  502    0  0.29052905818E+02 -0.48399244619E+02 -0.10048043946E+03  0.11525136411E+03  0.00000000000E+00 0. -1.
         -4    1    3    3    0  502  0.55548729935E+02 -0.29510271162E+03 -0.12942611629E+03  0.32698989493E+03  0.00000000000E+00 0. -1.
</event>
<event>
 7    1  0.5696597E-006  0.1170540E+04  0.7818608E-02  0.8773047E-01
          2   -1    0    0  502    0  0.00000000000E+00  0.00000000000E+00  0.18712814149E+04  0.18712814149E+04  0.00000000000E+00 0.  1.
          4   -1    0    0  501    0 -0.00000000000E+00 -0.00000000000E+00 -0.21750731260E+04  0.21750731260E+04  0.00000000000E+00 0.  1.
    9000010    2    1    2  502    0  0.65740264146E+02 -0.64210734577E+03 -0.16652001830E+04  0.20410220919E+04  0.98805663025E+03 0.  0.
        -13    1    3    3    0    0  0.23317277906E+03 -0.86723042404E+03 -0.13130634028E+04  0.15907839778E+04  0.10566000000E+00 0.  1.
         13    1    1    2    0    0 -0.78080328677E+02  0.59600135860E+03 -0.40645064540E+02  0.60246675395E+03  0.10566000000E+00 0. -1.
          2    1    1    2  501    0  0.12340064531E+02  0.46105987170E+02  0.14020535365E+04  0.14028656950E+04  0.00000000000E+00 0.  1.
          4    1    3    3  502    0 -0.16743251491E+03  0.22512307827E+03 -0.35213678020E+03  0.45023811410E+03  0.00000000000E+00 0.  1.
</event>
<event>
 7    1  0.5696597E-006  0.1141877E+04  0.7818608E-02  0.8819202E-01
          2   -1    0    0  501    0  0.00000000000E+00  0.00000000000E+00  0.50578502688E+03  0.50578502688E+03  0.00000000000E+00 0. -1.
         -4   -1    0    0    0  501 -0.00000000000E+00 -0.00000000000E+00 -0.23968048361E+04  0.23968048361E+04  0.00000000000E+00 0. -1.
   -9000010    2    1    2    0  502 -0.30793251668E+03 -0.41166968670E+03 -0.12262931967E+04  0.16621813395E+04  0.99737527309E+03 0.  0.
        -13    1    1    2    0    0  0.28739514691E+03  0.49665919704E+03 -0.85574886982E+03  0.10303263890E+04  0.10566000000E+00 0.  1.
         13    1    3    3    0    0 -0.45432088830E+03  0.18748615161E+02 -0.12627311686E+03  0.47191513148E+03  0.10566000000E+00 0. -1.
          2    1    1    2  502    0  0.20537369770E+02 -0.84989510334E+02  0.19102225733E+03  0.21008213446E+03  0.00000000000E+00 0. -1.
         -4    1    3    3    0  502  0.14638837161E+03 -0.43041830187E+03 -0.11000200799E+04  0.11902662081E+04  0.00000000000E+00 0. -1.
</event>
<event>
 7    1  0.5696597E-006  0.1054073E+04  0.7818608E-02  0.9046183E-01
          4   -1    0    0  501    0  0.00000000000E+00  0.00000000000E+00  0.63582551268E+03  0.63582551268E+03  0.00000000000E+00 0. -1.
         -4   -1    0    0    0  501 -0.00000000000E+00 -0.00000000000E+00 -0.11794537246E+04  0.11794537246E+04  0.00000000000E+00 0. -1.
   -9000010    2    1    2    0  502 -0.14948067396E+03 -0.57284596140E+02 -0.34743523097E+03  0.10709052067E+04  0.10002503313E+04 0.  0.
        -13    1    1    2    0    0 -0.21526577298E+03  0.17610900683E+03 -0.22773287119E+03  0.35946628088E+03  0.10566000000E+00 0.  1.
         13    1    3    3    0    0 -0.43311136586E+03 -0.10081104042E+03  0.17255459614E+03  0.47699415188E+03  0.10566000000E+00 0. -1.
          4    1    1    2  502    0  0.36474644694E+03 -0.11882441069E+03  0.31539890208E+02  0.38490774973E+03  0.00000000000E+00 0. -1.
         -4    1    3    3    0  502  0.28363069190E+03  0.43526444277E+02 -0.51998982711E+03  0.59391105482E+03  0.00000000000E+00 0. -1.
</event>
<event>
 7    1  0.5696597E-006  0.1072423E+04  0.7818608E-02  0.8973301E-01
          2   -1    0    0  502    0  0.00000000000E+00  0.00000000000E+00  0.95405372836E+03  0.95405372836E+03  0.00000000000E+00 0.  1.
          4   -1    0    0  501    0 -0.00000000000E+00 -0.00000000000E+00 -0.11204889714E+04  0.11204889714E+04  0.00000000000E+00 0.  1.
    9000010    2    1    2  502    0  0.28068829367E+03 -0.15774272524E+03 -0.66437828357E+03  0.12528085686E+04  0.10121571619E+04 0.  0.
        -13    1    3    3    0    0 -0.28825309219E+03  0.19206136028E+03 -0.41340708590E+03  0.53933555520E+03  0.10566000000E+00 0.  1.
         13    1    1    2    0    0 -0.28283016762E+03  0.26114972820E+03  0.82616445410E+02  0.39372271013E+03  0.10566000000E+00 0. -1.
          2    1    1    2  501    0  0.21418739438E+01 -0.10340700296E+03  0.41532659513E+03  0.42801142100E+03  0.00000000000E+00 0.  1.
          4    1    3    3  502    0  0.56894138586E+03 -0.34980408552E+03 -0.25097119767E+03  0.71347301341E+03  0.00000000000E+00 0.  1.
</event>
<event>
 6    1  0.5696597E-006  0.7519324E+03  0.7818608E-02  0.9155678E-01
          1   -1    0    0  501    0  0.00000000000E+00  0.00000000000E+00  0.62348170058E+03  0.62348170058E+03  0.00000000000E+00 0.  1.
         -4   -1    0    0    0  501 -0.00000000000E+00 -0.00000000000E+00 -0.69954864244E+03  0.69954864244E+03  0.00000000000E+00 0. -1.
        -13    1    1    2    0    0 -0.21956431484E+03  0.44590182068E+03 -0.96001008266E+02  0.50621450670E+03  0.10566000000E+00 0.  1.
         13    1    1    2    0    0  0.33020985545E+03 -0.18661217592E+03  0.16653891570E+03  0.41424373797E+03  0.10566000000E+00 0. -1.
          1    1    1    2  502    0 -0.16305884101E+02 -0.91196832694E+01  0.61172928916E+02  0.63962314775E+02  0.00000000000E+00 0.  1.
         -4    1    1    2    0  502 -0.94339656514E+02 -0.25016996149E+03 -0.20777777820E+03  0.33860978358E+03  0.00000000000E+00 0. -1.
</event>
<event>
 7    1  0.5696597E-006  0.1083331E+04  0.7818608E-02  0.9145127E-01
          4   -1    0    0  502    0  0.00000000000E+00  0.00000000000E+00  0.10301637280E+04  0.10301637280E+04  0.00000000000E+00 0.  1.
          4   -1    0    0  501    0 -0.00000000000E+00 -0.00000000000E+00 -0.49559174354E+03  0.49559174354E+03  0.00000000000E+00 0.  1.
    9000010    2    1    2  502    0 -0.78363729211E+02 -0.13898066109E+03  0.34460458682E+03  0.11348350976E+04  0.10694119315E+04 0.  0.
        -13    1    3    3    0    0 -0.20465338259E+03  0.23520673894E+03  0.59181591797E+03  0.66891801364E+03  0.10566000000E+00 0.  1.
         13    1    1    2    0    0 -0.72191942746E+02  0.17281472350E+03  0.10046557456E+03  0.21253222836E+03  0.10566000000E+00 0. -1.
          4    1    1    2  501    0  0.15055567196E+03 -0.33834062411E+02  0.89501823065E+02  0.17838814554E+03  0.00000000000E+00 0.  1.
          4    1    3    3  502    0  0.12628965338E+03 -0.37418740003E+03 -0.24721133115E+03  0.46591708397E+03  0.00000000000E+00 0.  1.
</event>
<event>
 6    1  0.5696597E-006  0.8918684E+03  0.7818608E-02  0.8992408E-01
         -4   -1    0    0    0  501 -0.00000000000E+00  0.00000000000E+00  0.17525244427E+04  0.17525244427E+04  0.00000000000E+00 0. -1.
          2   -1    0    0  501    0  0.00000000000E+00 -0.00000000000E+00 -0.57814107561E+03  0.57814107561E+03  0.00000000000E+00 0.  1.
        -13    1    1    2    0    0 -0.36778331841E+02 -0.58383450117E+03  0.58316150358E+03  0.82601012153E+03  0.10566000000E+00 0.  1.
         13    1    1    2    0    0 -0.16072951571E+03  0.49789932369E+03  0.28802757364E+03  0.59724166641E+03  0.10566000000E+00 0. -1.
          2    1    1    2  502    0 -0.72256378838E+02  0.43975362898E+02 -0.26438618684E+03  0.27758759450E+03  0.00000000000E+00 0.  1.
         -4    1    1    2    0  502  0.26976422639E+03  0.41959814585E+02  0.56758047671E+03  0.62982613587E+03  0.00000000000E+00 0. -1.
</event>
<event>
 7    1  0.5696597E-006  0.1042262E+04  0.7818608E-02  0.9166024E-01
         -4   -1    0    0    0  501 -0.00000000000E+00  0.00000000000E+00  0.22670878898E+04  0.22670878898E+04  0.00000000000E+00 0. -1.
          1   -1    0    0  501    0  0.00000000000E+00 -0.00000000000E+00 -0.32444742102E+03  0.32444742102E+03  0.00000000000E+00 0. -1.
   -9000010    2    1    2    0  502 -0.83534562923E+02 -0.17381569166E+03  0.12133391268E+04  0.16011263365E+04  0.10267540071E+04 0.  0.
        -13    1    1    2    0    0 -0.60979659645E+02  0.17068530171E+03  0.80644577737E+03  0.82656324265E+03  0.10566000000E+00 0.  1.
         13    1    3    3    0    0 -0.54476211082E+03 -0.36273587350E+02  0.78898642891E+03  0.95946919007E+03  0.10566000000E+00 0. -1.
          1    1    1    2  502    0  0.14451422257E+03  0.31303899536E+01 -0.77144435389E+02  0.16384573164E+03  0.00000000000E+00 0. -1.
         -4    1    3    3    0  502  0.46122754789E+03 -0.13754210431E+03  0.42435269789E+03  0.64165714646E+03  0.00000000000E+00 0. -1.
</event>
<event>
 7    1  0.5696597E-006  0.1150405E+04  0.7818608E-02  0.8907500E-01
         -4   -1    0    0    0  501 -0.00000000000E+00  0.00000000000E+00  0.23738822017E+04  0.23738822017E+04  0.00000000000E+00 0. -1.
          1   -1    0    0  501    0  0.00000000000E+00 -0.00000000000E+00 -0.28389255777E+04  0.28389255777E+04  0.00000000000E+00 0.  1.
   -9000010    2    1    2    0  502  0.60205390501E+03  0.22332982052E+03  0.11976638830E+04  0.17011739494E+04  0.10233518046E+04 0.  0.
        -13    1    1    2    0    0 -0.30968640459E+03  0.21342406580E+03  0.85794896316E+03  0.93676674557E+03  0.10566000000E+00 0.  1.
         13    1    3    3    0    0  0.67901707957E+03  0.45215497412E+03  0.48578296723E+03  0.94947007187E+03  0.10566000000E+00 0. -1.
          1    1    1    2  502    0 -0.29236750042E+03 -0.43675388631E+03 -0.25206562222E+04  0.25748670845E+04  0.00000000000E+00 0.  1.
         -4    1    3    3    0  502 -0.76963174562E+02 -0.22882515360E+03  0.71188091581E+03  0.75170387750E+03  0.00000000000E+00 0. -1.
</event>
<event>
 7    1  0.5696597E-006  0.1045908E+04  0.7818608E-02  0.9108406E-01
          2   -1    0    0  501    0  0.00000000000E+00  0.00000000000E+00  0.69757783011E+03  0.69757783011E+03  0.00000000000E+00 0. -1.
         -4   -1    0    0    0  501 -0.00000000000E+00 -0.00000000000E+00 -0.94584739560E+03  0.94584739560E+03  0.00000000000E+00 0. -1.
   -9000010    2    1    2    0  502  0.31362920489E+02 -0.22070309238E+03 -0.50446195449E+03  0.11613332977E+04  0.10220174544E+04 0.  0.
        -13    1    1    2    0    0  0.24244814171E+02  0.22251411907E+03  0.40329180433E+01  0.22386741565E+03  0.10566000000E+00 0.  1.
         13    1    3    3    0    0 -0.32061827500E+03  0.23822088222E+03 -0.41517370982E+03  0.57612020229E+03  0.10566000000E+00 0. -1.
          2    1    1    2  502    0 -0.55607734660E+02 -0.18110266880E+01  0.25215947095E+03  0.25822451232E+03  0.00000000000E+00 0. -1.
         -4    1    3    3    0  502  0.35198119549E+03 -0.45892397461E+03 -0.89288244668E+02  0.58521309545E+03  0.00000000000E+00 0. -1.
</event>
<event>
 7    1  0.5696597E-006  0.1024278E+04  0.7818608E-02  0.9203411E-01
         -4   -1    0    0    0  501 -0.00000000000E+00  0.00000000000E+00  0.40567179216E+03  0.40567179216E+03  0.00000000000E+00 0. -1.
          2   -1    0    0  501    0  0.00000000000E+00 -0.00000000000E+00 -0.30848044934E+04  0.30848044934E+04  0.00000000000E+00 0. -1.
   -9000010    2    1    2    0  502 -0.10198549474E+03 -0.12751212478E+03 -0.94203157220E+03  0.13916161487E+04  0.10111931760E+04 0.  0.
        -13    1    1    2    0    0  0.12393829278E+03  0.10630951762E+03  0.14387938534E+03  0.21763203496E+03  0.10566000000E+00 0.  1.
         13    1    3    3    0    0  0.28363051446E+03 -0.34618334229E+03 -0.81612819148E+03  0.93078161311E+03  0.10566000000E+00 0. -1.
          2    1    1    2  502    0 -0.21952798043E+02  0.21202607167E+02 -0.18809805143E+04  0.18812281019E+04  0.00000000000E+00 0. -1.
         -4    1    3    3    0  502 -0.38561600920E+03  0.21867121751E+03 -0.12590338072E+03  0.46083453559E+03  0.00000000000E+00 0. -1.
</event>
<event>
 7    1  0.5696597E-006  0.1035303E+04  0.7818608E-02  0.9083068E-01
         -4   -1    0    0    0  501 -0.00000000000E+00  0.00000000000E+00  0.23013264347E+03  0.23013264347E+03  0.00000000000E+00 0. -1.
          4   -1    0    0  501    0  0.00000000000E+00 -0.00000000000E+00 -0.25670770282E+04  0.25670770282E+04  0.00000000000E+00 0. -1.
   -9000010    2    1    2    0  502  0.55931660466E+02  0.20706928403E+03 -0.21989837038E+04  0.24267653272E+04  0.10038199963E+04 0.  0.
        -13    1    1    2    0    0 -0.63781402740E+02 -0.24774393535E+03 -0.33421175545E+02  0.25799633908E+03  0.10566000000E+00 0.  1.
         13    1    3    3    0    0  0.28895919872E+03 -0.33115140902E+03 -0.97884888136E+03  0.10729882655E+04  0.10566000000E+00 0. -1.
          4    1    1    2  502    0  0.78497422740E+01  0.40674651320E+02 -0.10453950542E+03  0.11244800535E+03  0.00000000000E+00 0. -1.
         -4    1    3    3    0  502 -0.23302753825E+03  0.53822069305E+03 -0.12201348224E+04  0.13537770617E+04  0.00000000000E+00 0. -1.
</event>
<event>
 7    1  0.2621523E-005  0.1056312E+04  0.7818608E-02  0.8999561E-01
         -4   -1    0    0    0  501 -0.00000000000E+00  0.00000000000E+00  0.22776181472E+04  0.22776181472E+04  0.00000000000E+00 0. -1.
          4   -1    0    0  501    0  0.00000000000E+00 -0.00000000000E+00 -0.14096001198E+04  0.14096001198E+04  0.00000000000E+00 0.  1.
   -9000010    2    1    2    0  502  0.23948205383E+03 -0.21544894079E+03  0.19288480147E+04  0.21974663190E+04  0.10023141518E+04 0.  0.
        -13    1    1    2    0    0 -0.22993664711E+03  0.25885187867E+03  0.74002054120E+02  0.35405009808E+03  0.10566000000E+00 0.  1.
         13    1    3    3    0    0  0.10536370992E+03 -0.61583849692E+03  0.12616208786E+04  0.14078514901E+04  0.10566000000E+00 0. -1.
          4    1    1    2  502    0 -0.95454067209E+01 -0.43402937884E+02 -0.11348320414E+04  0.11357018500E+04  0.00000000000E+00 0.  1.
         -4    1    3    3    0  502  0.13411834391E+03  0.40038955613E+03  0.66722713612E+03  0.78961482889E+03  0.00000000000E+00 0. -1.
</event>
<event>
 7    1  0.5696597E-006  0.1159259E+04  0.7818608E-02  0.8786299E-01
          4   -1    0    0  501    0 -0.00000000000E+00  0.00000000000E+00  0.17105678734E+04  0.17105678734E+04  0.00000000000E+00 0.  1.
          2   -1    0    0  502    0  0.00000000000E+00 -0.00000000000E+00 -0.98612834090E+03  0.98612834090E+03  0.00000000000E+00 0.  1.
    9000010    2    1    2  502    0 -0.43931149334E+03 -0.21086106473E+03  0.32334336621E+03  0.11733868125E+04  0.10172653058E+04 0.  0.
        -13    1    3    3    0    0 -0.35528913493E+03 -0.13381377164E+03  0.69101874569E+03  0.78844366504E+03  0.10566000000E+00 0.  1.
         13    1    1    2    0    0  0.42254359947E+03 -0.44094506014E+03  0.58515916401E+03  0.84580547285E+03  0.10566000000E+00 0. -1.
          2    1    1    2  501    0  0.16767893869E+02  0.65180612488E+03 -0.18406299768E+03  0.67750392900E+03  0.00000000000E+00 0.  1.
          4    1    3    3  502    0 -0.84022358402E+02 -0.77047293096E+02 -0.36767537949E+03  0.38494314745E+03  0.00000000000E+00 0.  1.
</event>
<event>
 7    1  0.5696597E-006  0.1022146E+04  0.7818608E-02  0.9306337E-01
          2   -1    0    0  501    0  0.00000000000E+00  0.00000000000E+00  0.27525886942E+04  0.27525886942E+04  0.00000000000E+00 0. -1.
         -4   -1    0    0    0  501 -0.00000000000E+00 -0.00000000000E+00 -0.14885418705E+03  0.14885418705E+03  0.00000000000E+00 0. -1.
   -9000010    2    1    2    0  502  0.19309122284E+02  0.16325336993E+03  0.19231363528E+04  0.21812829459E+04  0.10161286109E+04 0.  0.
        -13    1    1    2    0    0  0.43863423429E+02 -0.98452602533E+02  0.16777291488E+03  0.19941082466E+03  0.10566000000E+00 0.  1.
         13    1    3    3    0    0 -0.29758404488E+03 -0.26261947137E+02  0.90975851621E+02  0.31228603936E+03  0.10566000000E+00 0. -1.
          2    1    1    2  502    0 -0.63172545713E+02 -0.64800767394E+02  0.51282523947E+03  0.52074911064E+03  0.00000000000E+00 0. -1.
         -4    1    3    3    0  502  0.31689316717E+03  0.18951531706E+03  0.18321605012E+04  0.18689969066E+04  0.00000000000E+00 0. -1.
</event>
<event>
 7    1  0.5696597E-006  0.1026653E+04  0.7818608E-02  0.9078658E-01
          1   -1    0    0  501    0  0.00000000000E+00  0.00000000000E+00  0.26560684129E+04  0.26560684129E+04  0.00000000000E+00 0.  1.
         -4   -1    0    0    0  501 -0.00000000000E+00 -0.00000000000E+00 -0.12477956588E+04  0.12477956588E+04  0.00000000000E+00 0. -1.
   -9000010    2    1    2    0  502 -0.27094607180E+03 -0.19020364519E+03 -0.28841211594E+03  0.10848343744E+04  0.99201555973E+03 0.  0.
        -13    1    1    2    0    0  0.25138575576E+03  0.69051852573E+02 -0.52911343391E+03  0.58985082322E+03  0.10566000000E+00 0.  1.
         13    1    3    3    0    0 -0.45814669562E+03  0.21876163408E+03 -0.36935356309E+03  0.62783525943E+03  0.10566000000E+00 0. -1.
          1    1    1    2  502    0  0.19560316042E+02  0.12115179262E+03  0.22257983039E+04  0.22291788741E+04  0.00000000000E+00 0.  1.
         -4    1    3    3    0  502  0.18720062382E+03 -0.40896527927E+03  0.80941447145E+02  0.45699911496E+03  0.00000000000E+00 0. -1.
</event>
<event>
 7    1  0.5696597E-006  0.1111767E+04  0.7818608E-02  0.8856242E-01
          2   -1    0    0  502    0  0.00000000000E+00  0.00000000000E+00  0.10363460848E+04  0.10363460848E+04  0.00000000000E+00 0.  1.
          4   -1    0    0  501    0 -0.00000000000E+00 -0.00000000000E+00 -0.25912606133E+04  0.25912606133E+04  0.00000000000E+00 0.  1.
    9000010    2    1    2  502    0 -0.47561328368E+03 -0.17317226421E+03 -0.14933517372E+04  0.18591476334E+04  0.98495374664E+03 0.  0.
        -13    1    3    3    0    0 -0.57317218067E+03 -0.70285345801E+02 -0.15872874425E+04  0.16890671434E+04  0.10566000000E+00 0.  1.
         13    1    1    2    0    0  0.47669894418E+03  0.20711143792E+03 -0.84080428702E+03  0.98847806821E+03  0.10566000000E+00 0. -1.
          2    1    1    2  501    0 -0.10856604953E+01 -0.33939173707E+02  0.77924149572E+03  0.77998099645E+03  0.00000000000E+00 0.  1.
          4    1    3    3  502    0  0.97558896986E+02 -0.10288691841E+03  0.93935705279E+02  0.17008049003E+03  0.00000000000E+00 0.  1.
</event>
<event>
 7    1  0.5696597E-006  0.1016856E+04  0.7818608E-02  0.9184757E-01
          1   -1    0    0  501    0  0.00000000000E+00  0.00000000000E+00  0.31704482769E+03  0.31704482769E+03  0.00000000000E+00 0. -1.
         -4   -1    0    0    0  501 -0.00000000000E+00 -0.00000000000E+00 -0.17562734497E+04  0.17562734497E+04  0.00000000000E+00 0. -1.
   -9000010    2    1    2    0  502 -0.15401557021E+03 -0.97281167492E+02 -0.13295967935E+04  0.16741721421E+04  0.10009197304E+04 0.  0.
        -13    1    1    2    0    0  0.15600564363E+03  0.87435110402E+02 -0.22270792260E+03  0.28562473515E+03  0.10566000000E+00 0.  1.
         13    1    3    3    0    0  0.32579340773E+03 -0.95895312935E+02 -0.99621978912E+02  0.35392344570E+03  0.10566000000E+00 0. -1.
          1    1    1    2  502    0 -0.19900734208E+01  0.98460570899E+01  0.11307609409E+03  0.11352140012E+03  0.00000000000E+00 0. -1.
         -4    1    3    3    0  502 -0.47980897794E+03 -0.13858545567E+01 -0.12299748146E+04  0.13202486964E+04  0.00000000000E+00 0. -1.
</event>
<event>
 7    1  0.5696597E-006  0.1021172E+04  0.7818608E-02  0.9088963E-01
          2   -1    0    0  502    0  0.00000000000E+00  0.00000000000E+00  0.11835584682E+04  0.11835584682E+04  0.00000000000E+00 0.  1.
          4   -1    0    0  501    0 -0.00000000000E+00 -0.00000000000E+00 -0.19428417141E+04  0.19428417141E+04  0.00000000000E+00 0.  1.
    9000010    2    1    2  502    0 -0.12370177399E+03  0.20759928362E+03 -0.11149871005E+04  0.15092583534E+04  0.98806120837E+03 0.  0.
        -13    1    3    3    0    0 -0.45925168179E+03 -0.15562069965E+03 -0.34865859197E+03  0.59723758614E+03  0.10566000000E+00 0.  1.
         13    1    1    2    0    0  0.18939750091E+03 -0.17996610304E+03 -0.60228222378E+03  0.65650826334E+03  0.10566000000E+00 0. -1.
          2    1    1    2  501    0 -0.65695726917E+02 -0.27633180585E+02  0.95798607828E+03  0.96063356562E+03  0.00000000000E+00 0.  1.
          4    1    3    3  502    0  0.33554990780E+03  0.36321998327E+03 -0.76632850851E+03  0.91202076721E+03  0.00000000000E+00 0.  1.
</event>
<event>
 7    1  0.5696597E-006  0.9978377E+03  0.7818608E-02  0.9175114E-01
         -4   -1    0    0    0  501 -0.00000000000E+00  0.00000000000E+00  0.17351199872E+04  0.17351199872E+04  0.00000000000E+00 0. -1.
          2   -1    0    0  501    0  0.00000000000E+00 -0.00000000000E+00 -0.17994702581E+04  0.17994702581E+04  0.00000000000E+00 0. -1.
   -9000010    2    1    2    0  502 -0.12007406161E+03 -0.11914646734E+03  0.32403248532E+03  0.10442568838E+04  0.97819309284E+03 0.  0.
        -13    1    1    2    0    0  0.57102330903E+02  0.18986907878E+03  0.10400425810E+04  0.10587726501E+04  0.10566000000E+00 0.  1.
         13    1    3    3    0    0  0.38039797259E+03 -0.22141183204E+03  0.30042392710E+03  0.53289808036E+03  0.10566000000E+00 0. -1.
          2    1    1    2  502    0  0.62971730705E+02 -0.70722611441E+02 -0.14284253371E+04  0.14315607114E+04  0.00000000000E+00 0. -1.
         -4    1    3    3    0  502 -0.50047203419E+03  0.10226536471E+03  0.23608558215E+02  0.51135880343E+03  0.00000000000E+00 0. -1.
</event>
<event>
 7    1  0.5696597E-006  0.1666533E+04  0.7818608E-02  0.8603252E-01
          2   -1    0    0  502    0  0.00000000000E+00  0.00000000000E+00  0.16349627651E+04  0.16349627651E+04  0.00000000000E+00 0. -1.
          4   -1    0    0  501    0 -0.00000000000E+00 -0.00000000000E+00 -0.21079670792E+04  0.21079670792E+04  0.00000000000E+00 0.  1.
    9000010    2    1    2  502    0 -0.53362109380E+03 -0.11909217746E+04 -0.61884652850E+03  0.17547005946E+04  0.99647228049E+03 0.  0.
        -13    1    3    3    0    0  0.15366151905E+03 -0.75652840310E+03 -0.73014154744E+02  0.77542128233E+03  0.10566000000E+00 0.  1.
         13    1    1    2    0    0  0.41948475408E+03 -0.17525122575E+03 -0.30224815341E+03  0.54592527733E+03  0.10566000000E+00 0. -1.
          2    1    1    2  501    0  0.11413633972E+03  0.13661730003E+04  0.44809036781E+03  0.14423039723E+04  0.00000000000E+00 0. -1.
          4    1    3    3  502    0 -0.68728261286E+03 -0.43439337149E+03 -0.54583237376E+03  0.97927931223E+03  0.00000000000E+00 0.  1.
</event>
<event>
 7    1  0.7921752E-006  0.1210682E+04  0.7818608E-02  0.8726596E-01
          4   -1    0    0  501    0  0.00000000000E+00  0.00000000000E+00  0.72198264200E+03  0.72198264200E+03  0.00000000000E+00 0.  1.
         -4   -1    0    0    0  501 -0.00000000000E+00 -0.00000000000E+00 -0.27602935021E+04  0.27602935021E+04  0.00000000000E+00 0. -1.
   -9000010    2    1    2    0  502  0.21637337907E+03  0.97534181726E+03 -0.11823736484E+04  0.18392867226E+04  0.99340782346E+03 0.  0.
        -13    1    1    2    0    0 -0.22766253412E+03 -0.57153273845E+03 -0.10326856928E+04  0.12020481071E+04  0.10566000000E+00 0.  1.
         13    1    3    3    0    0  0.14198565291E+03  0.25295655224E+03 -0.10648242277E+04  0.11036292811E+04  0.10566000000E+00 0. -1.
          4    1    1    2  502    0  0.11289155050E+02 -0.40380907881E+03  0.17674848114E+03  0.44094131439E+03  0.00000000000E+00 0.  1.
         -4    1    3    3    0  502  0.74387726157E+02  0.72238526502E+03 -0.11754942069E+03  0.73565744150E+03  0.00000000000E+00 0. -1.
</event>
<event>
 7    1  0.5696597E-006  0.1075843E+04  0.7818608E-02  0.9013063E-01
         -4   -1    0    0    0  501 -0.00000000000E+00  0.00000000000E+00  0.11354984045E+04  0.11354984045E+04  0.00000000000E+00 0. -1.
          2   -1    0    0  501    0  0.00000000000E+00 -0.00000000000E+00 -0.65360768536E+03  0.65360768536E+03  0.00000000000E+00 0. -1.
   -9000010    2    1    2    0  502  0.30524648388E+03 -0.21804659273E+02  0.56955090667E+02  0.10793693658E+04  0.10335102739E+04 0.  0.
        -13    1    1    2    0    0 -0.29675421752E+03  0.30130293690E+02  0.52776420845E+03  0.60622270751E+03  0.10566000000E+00 0.  1.
         13    1    3    3    0    0 -0.93767507772E+01 -0.24672009524E+03  0.45919503223E+03  0.52136246282E+03  0.10566000000E+00 0. -1.
          2    1    1    2  502    0 -0.84922663657E+01 -0.83256344166E+01 -0.10282857997E+03  0.10351401661E+03  0.00000000000E+00 0. -1.
         -4    1    3    3    0  502  0.31462323466E+03  0.22491543597E+03 -0.40223994157E+03  0.55800690293E+03  0.00000000000E+00 0. -1.
</event>
<event>
 7    1  0.5696597E-006  0.1043807E+04  0.7818608E-02  0.9060872E-01
          1   -1    0    0  501    0  0.00000000000E+00  0.00000000000E+00  0.71481812776E+03  0.71481812776E+03  0.00000000000E+00 0. -1.
         -4   -1    0    0    0  501 -0.00000000000E+00 -0.00000000000E+00 -0.12522991550E+04  0.12522991550E+04  0.00000000000E+00 0. -1.
   -9000010    2    1    2    0  502  0.90607795133E+00 -0.22630202361E+03  0.17531121211E+03  0.10481114339E+04  0.10082609433E+04 0.  0.
        -13    1    1    2    0    0  0.63776572203E+02  0.26439175335E+03 -0.77511209105E+03  0.82144337313E+03  0.10566000000E+00 0.  1.
         13    1    3    3    0    0 -0.92807429322E+02 -0.61055396151E+03  0.20698391178E+03  0.65133072225E+03  0.10566000000E+00 0. -1.
          1    1    1    2  502    0 -0.64682650155E+02 -0.38089729735E+02  0.62319851749E+02  0.97562475698E+02  0.00000000000E+00 0. -1.
         -4    1    3    3    0  502  0.93713507274E+02  0.38425193789E+03 -0.31672699673E+02  0.39678071163E+03  0.00000000000E+00 0. -1.
</event>
<event>
 7    1  0.5696597E-006  0.1154738E+04  0.7818608E-02  0.8849517E-01
         -4   -1    0    0    0  501 -0.00000000000E+00  0.00000000000E+00  0.23447981505E+04  0.23447981505E+04  0.00000000000E+00 0. -1.
          2   -1    0    0  501    0  0.00000000000E+00 -0.00000000000E+00 -0.13385255524E+04  0.13385255524E+04  0.00000000000E+00 0.  1.
   -9000010    2    1    2    0  502 -0.24131021085E+03  0.44540031308E+03  0.18183573854E+04  0.21615772442E+04  0.10532713539E+04 0.  0.
        -13    1    1    2    0    0  0.21561241793E+02 -0.46569514426E+03  0.18423563436E+03  0.50127800138E+03  0.10566000000E+00 0.  1.
         13    1    3    3    0    0 -0.53544292915E+03  0.59670919685E+02  0.42504045455E+03  0.68623549034E+03  0.10566000000E+00 0. -1.
          2    1    1    2  502    0  0.21974896905E+03  0.20294831190E+02 -0.99632042170E+03  0.10204684573E+04  0.00000000000E+00 0.  1.
         -4    1    3    3    0  502  0.29413271830E+03  0.38572939339E+03  0.13933169309E+04  0.14753417539E+04  0.00000000000E+00 0. -1.
</event>
<event>
 7    1  0.5696597E-006  0.1196363E+04  0.7818608E-02  0.8801009E-01
          2   -1    0    0  502    0  0.00000000000E+00  0.00000000000E+00  0.68706166324E+03  0.68706166324E+03  0.00000000000E+00 0.  1.
          4   -1    0    0  501    0 -0.00000000000E+00 -0.00000000000E+00 -0.13378824795E+04  0.13378824795E+04  0.00000000000E+00 0.  1.
    9000010    2    1    2  502    0 -0.23761660940E+03 -0.45765530259E+03 -0.47902204760E+03  0.12861267635E+04  0.10764524609E+04 0.  0.
        -13    1    3    3    0    0 -0.66522216516E+03 -0.25414044643E+03 -0.35948197675E+03  0.79770621052E+03  0.10566000000E+00 0.  1.
         13    1    1    2    0    0  0.22971479672E+03  0.47150420312E+03 -0.30362476458E+03  0.60603061822E+03  0.10566000000E+00 0. -1.
          2    1    1    2  501    0  0.79018126756E+01 -0.13848900523E+02  0.13182599596E+03  0.13278676101E+03  0.00000000000E+00 0.  1.
          4    1    3    3  502    0  0.42760555576E+03 -0.20351485617E+03 -0.11954007084E+03  0.48842055294E+03  0.00000000000E+00 0.  1.
</event>
<event>
 7    1  0.5696597E-006  0.1153402E+04  0.7818608E-02  0.8823230E-01
          4   -1    0    0  501    0  0.00000000000E+00  0.00000000000E+00  0.23592218718E+04  0.23592218718E+04  0.00000000000E+00 0. -1.
          4   -1    0    0  502    0 -0.00000000000E+00 -0.00000000000E+00 -0.85412249863E+03  0.85412249863E+03  0.00000000000E+00 0.  1.
    9000010    2    1    2  501    0  0.31698867906E+03 -0.61515481521E+03  0.50767501129E+03  0.13362751885E+04  0.10242071045E+04 0.  0.
        -13    1    3    3    0    0 -0.28497476078E+03 -0.31670904769E+03 -0.91807821468E+02  0.43582556421E+03  0.10566000000E+00 0.  1.
         13    1    1    2    0    0  0.19146435883E+03  0.50042729518E+03 -0.19936990383E+03  0.57169436606E+03  0.10566000000E+00 0. -1.
          4    1    3    3  501    0  0.60196343984E+03 -0.29844576752E+03  0.59948283276E+03  0.90044962426E+03  0.00000000000E+00 0.  1.
          4    1    1    2  502    0 -0.50845303788E+03  0.11472752003E+03  0.11967942657E+04  0.13053748159E+04  0.00000000000E+00 0. -1.
</event>
<event>
 7    1  0.5696597E-006  0.1102181E+04  0.7818608E-02  0.9335677E-01
          2   -1    0    0  502    0  0.00000000000E+00  0.00000000000E+00  0.13292488202E+04  0.13292488202E+04  0.00000000000E+00 0. -1.
          4   -1    0    0  501    0 -0.00000000000E+00 -0.00000000000E+00 -0.62935149480E+03  0.62935149480E+03  0.00000000000E+00 0.  1.
    9000010    2    1    2  502    0  0.48320375404E+01  0.57386828299E+02 -0.10681778373E+01  0.11008489141E+04  0.10993409817E+04 0.  0.
        -13    1    3    3    0    0 -0.38285963804E+03 -0.14269924083E+03  0.35223377670E+03  0.53945641194E+03  0.10566000000E+00 0.  1.
         13    1    1    2    0    0 -0.14189336774E+02 -0.78611076594E+02 -0.57820049646E+02  0.98611398664E+02  0.10566000000E+00 0. -1.
          2    1    1    2  501    0  0.93572992338E+01  0.21224248295E+02  0.75878555291E+03  0.75914000229E+03  0.00000000000E+00 0. -1.
          4    1    3    3  502    0  0.38769167558E+03  0.20008606913E+03 -0.35330195454E+03  0.56139250213E+03  0.00000000000E+00 0.  1.
</event>
<event>
 7    1  0.5696597E-006  0.1043404E+04  0.7818608E-02  0.8995600E-01
         -4   -1    0    0    0  501 -0.00000000000E+00  0.00000000000E+00  0.24540275873E+04  0.24540275873E+04  0.00000000000E+00 0. -1.
          2   -1    0    0  501    0  0.00000000000E+00 -0.00000000000E+00 -0.68659334121E+03  0.68659334121E+03  0.00000000000E+00 0. -1.
   -9000010    2    1    2    0  502 -0.29129985372E+03  0.22044062563E+03  0.10460851901E+04  0.14808324536E+04  0.98240564765E+03 0.  0.
        -13    1    1    2    0    0  0.28164454007E+03 -0.20762159785E+03  0.11647120691E+04  0.12161351035E+04  0.10566000000E+00 0.  1.
         13    1    3    3    0    0 -0.41855693431E+03  0.52866399322E+03  0.87902917907E+03  0.11078663429E+04  0.10566000000E+00 0. -1.
          2    1    1    2  502    0  0.96553136459E+01 -0.12819027776E+02 -0.44336301312E+03  0.44365337140E+03  0.00000000000E+00 0. -1.
         -4    1    3    3    0  502  0.12725708059E+03 -0.30822336760E+03  0.16705601102E+03  0.37296611067E+03  0.00000000000E+00 0. -1.
</event>
<event>
 7    1  0.5696597E-006  0.1273524E+04  0.7818608E-02  0.8911020E-01
         -4   -1    0    0    0  501 -0.00000000000E+00  0.00000000000E+00  0.16462988937E+04  0.16462988937E+04  0.00000000000E+00 0. -1.
          2   -1    0    0  501    0  0.00000000000E+00 -0.00000000000E+00 -0.61822277650E+03  0.61822277650E+03  0.00000000000E+00 0.  1.
   -9000010    2    1    2    0  502 -0.50236367947E+03 -0.22559799088E+02  0.82519253369E+03  0.15578272305E+04  0.12218857359E+04 0.  0.
        -13    1    1    2    0    0  0.19704492008E+03  0.18927910054E+03  0.23085849494E+03  0.35769950277E+03  0.10566000000E+00 0.  1.
         13    1    3    3    0    0 -0.32513539222E+03  0.10350106469E+03  0.11316874849E+04  0.11820076431E+04  0.10566000000E+00 0. -1.
          2    1    1    2  502    0  0.30531875939E+03 -0.16671930145E+03 -0.27974911441E+02  0.34899493690E+03  0.00000000000E+00 0.  1.
         -4    1    3    3    0  502 -0.17722828726E+03 -0.12606086378E+03 -0.30649495121E+03  0.37581958743E+03  0.00000000000E+00 0. -1.
</event>
<event>
 7    1  0.5696597E-006  0.1500955E+04  0.7818608E-02  0.8462024E-01
          4   -1    0    0  501    0 -0.00000000000E+00  0.00000000000E+00  0.22689212772E+04  0.22689212772E+04  0.00000000000E+00 0.  1.
          2   -1    0    0  502    0  0.00000000000E+00 -0.00000000000E+00 -0.10105005980E+04  0.10105005980E+04  0.00000000000E+00 0.  1.
    9000010    2    1    2  502    0  0.42440271459E+03  0.11059055406E+04  0.17872420777E+02  0.15081642310E+04  0.93332480704E+03 0.  0.
        -13    1    3    3    0    0 -0.69520860388E+02  0.90757224510E+03 -0.20184310166E+03  0.93234177154E+03  0.10566000000E+00 0.  1.
         13    1    1    2    0    0 -0.44397516153E+03 -0.10854829113E+04  0.12711999542E+04  0.17295480420E+04  0.10566000000E+00 0. -1.
          2    1    1    2  501    0  0.19572446940E+02 -0.20422629226E+02 -0.30651695756E+02  0.41709602209E+02  0.00000000000E+00 0.  1.
          4    1    3    3  502    0  0.49392357498E+03  0.19833329546E+03  0.21971552244E+03  0.57582245945E+03  0.00000000000E+00 0.  1.
</event>
<event>
 7    1  0.5696597E-006  0.1011516E+04  0.7818608E-02  0.9200270E-01
          4   -1    0    0  501    0 -0.00000000000E+00  0.00000000000E+00  0.27490231436E+04  0.27490231436E+04  0.00000000000E+00 0.  1.
          2   -1    0    0  502    0  0.00000000000E+00 -0.00000000000E+00 -0.30456590209E+03  0.30456590209E+03  0.00000000000E+00 0.  1.
    9000010    2    1    2  502    0  0.10572447018E+03  0.14351239204E+03  0.25087412416E+04  0.27054200718E+04  0.99686592739E+03 0.  0.
        -13    1    3    3    0    0 -0.37622572222E+03 -0.19264584719E+03  0.95885945565E+03  0.10478882017E+04  0.10566000000E+00 0.  1.
         13    1    1    2    0    0 -0.10465594503E+03 -0.13162521809E+03  0.91829133515E+02  0.19160027607E+03  0.10566000000E+00 0. -1.
          2    1    1    2  501    0 -0.10685251568E+01 -0.11887173954E+02 -0.15611313362E+03  0.15656869783E+03  0.00000000000E+00 0.  1.
          4    1    3    3  502    0  0.48195019240E+03  0.33615823923E+03  0.15498817860E+04  0.16575318701E+04  0.00000000000E+00 0.  1.
</event>
<event>
 7    1  0.5696597E-006  0.1081828E+04  0.7818608E-02  0.8903635E-01
         -4   -1    0    0    0  501 -0.00000000000E+00  0.00000000000E+00  0.19632945451E+04  0.19632945451E+04  0.00000000000E+00 0. -1.
          2   -1    0    0  501    0  0.00000000000E+00 -0.00000000000E+00 -0.91117672751E+03  0.91117672751E+03  0.00000000000E+00 0. -1.
   -9000010    2    1    2    0  502 -0.15863395570E+03 -0.42861005889E+03  0.12500021614E+04  0.16524367421E+04  0.97937248714E+03 0.  0.
        -13    1    1    2    0    0  0.14482809533E+03  0.43759379080E+03  0.40821379979E+03  0.61571261190E+03  0.10566000000E+00 0.  1.
         13    1    3    3    0    0 -0.21901752024E+03  0.26992863055E+03  0.23799379507E+03  0.42127330490E+03  0.10566000000E+00 0. -1.
          2    1    1    2  502    0  0.13805860370E+02 -0.89837319094E+01 -0.60609814366E+03  0.60632191859E+03  0.00000000000E+00 0. -1.
         -4    1    3    3    0  502  0.60383564542E+02 -0.69853868944E+03  0.10120083664E+04  0.12311634372E+04  0.00000000000E+00 0. -1.
</event>
<event>
 7    1  0.5696597E-006  0.1854011E+04  0.7818608E-02  0.8274929E-01
          2   -1    0    0  502    0  0.00000000000E+00  0.00000000000E+00  0.17837922541E+04  0.17837922541E+04  0.00000000000E+00 0. -1.
          4   -1    0    0  501    0 -0.00000000000E+00 -0.00000000000E+00 -0.26856102984E+04  0.26856102984E+04  0.00000000000E+00 0.  1.
    9000010    2    1    2  502    0 -0.14663888113E+04 -0.45295180696E+03 -0.37624335625E+03  0.19214557975E+04  0.10931476722E+04 0.  0.
        -13    1    3    3    0    0 -0.14768520652E+04 -0.69788377871E+03 -0.37662759515E+03  0.16763001365E+04  0.10566000000E+00 0.  1.
         13    1    1    2    0    0  0.14273979300E+04  0.39280366347E+03 -0.11777858643E+04  0.18918084263E+04  0.10566000000E+00 0. -1.
          2    1    1    2  501    0  0.38990881288E+02  0.60148143499E+02  0.65221117629E+03  0.65613832876E+03  0.00000000000E+00 0. -1.
          4    1    3    3  502    0  0.10463253937E+02  0.24493197175E+03  0.38423890040E+00  0.24515566097E+03  0.00000000000E+00 0.  1.
</event>
<event>
 7    1  0.5696597E-006  0.1195253E+04  0.7818608E-02  0.8751837E-01
         -4   -1    0    0    0  501 -0.00000000000E+00  0.00000000000E+00  0.18764582941E+04  0.18764582941E+04  0.00000000000E+00 0. -1.
          4   -1    0    0  501    0  0.00000000000E+00 -0.00000000000E+00 -0.35932298497E+04  0.35932298497E+04  0.00000000000E+00 0.  1.
   -9000010    2    1    2    0  502 -0.63668170652E+03  0.36268657782E+02  0.11454802458E+04  0.16525606542E+04  0.10060580060E+04 0.  0.
        -13    1    1    2    0    0  0.65301111324E+03  0.32124872921E+02  0.25302712499E+03  0.70105510384E+03  0.10566000000E+00 0.  1.
         13    1    3    3    0    0 -0.44934189072E+03  0.22225576838E+03  0.12665405563E+04  0.13621419725E+04  0.10566000000E+00 0. -1.
          4    1    1    2  502    0 -0.16329406717E+02 -0.68393530703E+02 -0.31152789264E+04  0.31160723858E+04  0.00000000000E+00 0.  1.
         -4    1    3    3    0  502 -0.18733981580E+03 -0.18598711060E+03 -0.12106031054E+03  0.29041868171E+03  0.00000000000E+00 0. -1.
</event>
<event>
 7    1  0.5696597E-006  0.1033251E+04  0.7818608E-02  0.9088039E-01
          1   -1    0    0  501    0  0.00000000000E+00  0.00000000000E+00  0.13628551494E+04  0.13628551494E+04  0.00000000000E+00 0. -1.
         -4   -1    0    0    0  501 -0.00000000000E+00 -0.00000000000E+00 -0.54184769534E+03  0.54184769534E+03  0.00000000000E+00 0. -1.
   -9000010    2    1    2    0  502  0.12611797185E+03  0.19362988757E+03  0.10585080866E+04  0.14761412659E+04  0.10025743820E+04 0.  0.
        -13    1    1    2    0    0 -0.17134897352E+03 -0.18308684423E+03 -0.27256439141E+03  0.37036822472E+03  0.10566000000E+00 0.  1.
         13    1    3    3    0    0  0.37610464022E+03  0.18874375636E+03  0.11383737625E+04  0.12136612956E+04  0.10566000000E+00 0. -1.
          1    1    1    2  502    0  0.45231001662E+02 -0.10543043348E+02  0.35063758905E+02  0.58193354113E+02  0.00000000000E+00 0. -1.
         -4    1    3    3    0  502 -0.24998666837E+03  0.48861312121E+01 -0.79865675958E+02  0.26247997035E+03  0.00000000000E+00 0. -1.
</event>
<event>
 7    1  0.5696597E-006  0.1045004E+04  0.7818608E-02  0.9281047E-01
         -4   -1    0    0    0  501 -0.00000000000E+00  0.00000000000E+00  0.21061043462E+03  0.21061043462E+03  0.00000000000E+00 0. -1.
          2   -1    0    0  501    0  0.00000000000E+00 -0.00000000000E+00 -0.19722992041E+04  0.19722992041E+04  0.00000000000E+00 0. -1.
   -9000010    2    1    2    0  502 -0.12117264620E+03 -0.62332522074E+02 -0.13580501528E+04  0.17151935609E+04  0.10387591540E+04 0.  0.
        -13    1    1    2    0    0  0.11266168398E+03  0.10638177407E+02 -0.76935565650E+02  0.13683902324E+03  0.10566000000E+00 0.  1.
         13    1    3    3    0    0 -0.34868089951E+03 -0.46724298463E+03 -0.77272601625E+03  0.96798754316E+03  0.10566000000E+00 0. -1.
          2    1    1    2  502    0  0.85109622181E+01  0.51694344667E+02 -0.32670305104E+03  0.33087705467E+03  0.00000000000E+00 0. -1.
         -4    1    3    3    0  502  0.22750825331E+03  0.40491046256E+03 -0.58532413658E+03  0.74720601769E+03  0.00000000000E+00 0. -1.
</event>
<event>
 7    1  0.5696597E-006  0.1010361E+04  0.7818608E-02  0.9198417E-01
          2   -1    0    0  501    0  0.00000000000E+00  0.00000000000E+00  0.18745757846E+04  0.18745757846E+04  0.00000000000E+00 0. -1.
         -4   -1    0    0    0  501 -0.00000000000E+00 -0.00000000000E+00 -0.26137187434E+03  0.26137187434E+03  0.00000000000E+00 0. -1.
   -9000010    2    1    2    0  502  0.48822453645E+02  0.15273036817E+03  0.13850651688E+04  0.17131523836E+04  0.99537699906E+03 0.  0.
        -13    1    1    2    0    0 -0.40623289121E+02 -0.16922967046E+03 -0.18909058849E+02  0.17506140824E+03  0.10566000000E+00 0.  1.
         13    1    3    3    0    0  0.12770634746E+03 -0.31219501630E+03  0.11177410756E+03  0.35534223175E+03  0.10566000000E+00 0. -1.
          2    1    1    2  502    0 -0.81991645246E+01  0.16499302288E+02  0.24704780032E+03  0.24773386712E+03  0.00000000000E+00 0. -1.
         -4    1    3    3    0  502 -0.78883893811E+02  0.46492538447E+03  0.12732910612E+04  0.13578101518E+04  0.00000000000E+00 0. -1.
</event>
<event>
 7    1  0.5696597E-006  0.1169098E+04  0.7818608E-02  0.8782287E-01
         -4   -1    0    0    0  501 -0.00000000000E+00  0.00000000000E+00  0.12898780395E+04  0.12898780395E+04  0.00000000000E+00 0. -1.
          1   -1    0    0  501    0  0.00000000000E+00 -0.00000000000E+00 -0.10326834904E+04  0.10326834904E+04  0.00000000000E+00 0.  1.
   -9000010    2    1    2    0  502  0.21918988358E+03  0.57082055771E+03  0.61223887492E+03  0.13223759446E+04  0.99998069215E+03 0.  0.
        -13    1    1    2    0    0 -0.16716862432E+03 -0.57835735548E+03  0.38390532295E+02  0.60325485802E+03  0.10566000000E+00 0.  1.
         13    1    3    3    0    0  0.26956634962E+03  0.74303544019E+03  0.12130156773E+03  0.79967603673E+03  0.10566000000E+00 0. -1.
          1    1    1    2  502    0 -0.52021259262E+02  0.75367977707E+01 -0.39343485810E+03  0.39693072734E+03  0.00000000000E+00 0.  1.
         -4    1    3    3    0  502 -0.50376466038E+02 -0.17221488248E+03  0.49093730719E+03  0.52269990785E+03  0.00000000000E+00 0. -1.
</event>
<event>
 7    1  0.5696597E-006  0.1117473E+04  0.7818608E-02  0.9078408E-01
          4   -1    0    0  501    0 -0.00000000000E+00  0.00000000000E+00  0.53781308325E+03  0.53781308325E+03  0.00000000000E+00 0.  1.
          2   -1    0    0  502    0  0.00000000000E+00 -0.00000000000E+00 -0.11087147940E+04  0.11087147940E+04  0.00000000000E+00 0.  1.
    9000010    2    1    2  502    0  0.10724988091E+03  0.18223354623E+03 -0.25882613805E+03  0.11481805938E+04  0.10984607886E+04 0.  0.
        -13    1    3    3    0    0  0.61858003219E+02  0.15001457090E+03  0.42871154896E+03  0.45839326720E+03  0.10566000000E+00 0.  1.
         13    1    1    2    0    0 -0.11949347984E+03 -0.16581843561E+03 -0.19788506097E+02  0.20534371539E+03  0.10566000000E+00 0. -1.
          2    1    1    2  501    0  0.12243598930E+02 -0.16415110614E+02 -0.29228706656E+03  0.29300356798E+03  0.00000000000E+00 0.  1.
          4    1    3    3  502    0  0.45391877694E+02  0.32218975331E+02 -0.68753768701E+03  0.68978732664E+03  0.00000000000E+00 0.  1.
</event>
<event>
 6    1  0.5696597E-006  0.1477909E+04  0.7818608E-02  0.8707364E-01
         -4   -1    0    0    0  501 -0.00000000000E+00  0.00000000000E+00  0.54985511501E+03  0.54985511501E+03  0.00000000000E+00 0. -1.
          2   -1    0    0  501    0  0.00000000000E+00 -0.00000000000E+00 -0.22834599463E+04  0.22834599463E+04  0.00000000000E+00 0. -1.
        -13    1    1    2    0    0 -0.35862122705E+03 -0.20557923813E+03  0.26670483806E+02  0.41422618641E+03  0.10566000000E+00 0.  1.
         13    1    1    2    0    0 -0.19593036317E+03 -0.50369269808E+03 -0.33898313935E+03  0.63796913816E+03  0.10566000000E+00 0. -1.
          2    1    1    2  502    0  0.22318678868E+02 -0.37526238673E+02 -0.42417447765E+03  0.42641567690E+03  0.00000000000E+00 0. -1.
         -4    1    1    2    0  502  0.53223291135E+03  0.74679817488E+03 -0.99711769813E+03  0.13547040599E+04  0.00000000000E+00 0. -1.
</event>
<event>
 7    1  0.5696597E-006  0.1082671E+04  0.7818608E-02  0.9013017E-01
         -4   -1    0    0    0  501 -0.00000000000E+00  0.00000000000E+00  0.41578312104E+04  0.41578312104E+04  0.00000000000E+00 0. -1.
          5   -1    0    0  501    0  0.00000000000E+00 -0.00000000000E+00 -0.93884534008E+03  0.93884534008E+03  0.00000000000E+00 0. -1.
   -9000010    2    1    2    0  502 -0.52497320405E+03 -0.22764193058E+03  0.38254069155E+04  0.39927019316E+04  0.99020852928E+03 0.  0.
        -13    1    1    2    0    0  0.91143872276E+02  0.27873599242E+03  0.67439680928E+02  0.30091374288E+03  0.10566000000E+00 0.  1.
         13    1    3    3    0    0 -0.54874420909E+03  0.28951855136E+03  0.22785409396E+04  0.23615016459E+04  0.10566000000E+00 0. -1.
          5    1    1    2  502    0  0.43382933178E+03 -0.51094061841E+02 -0.67386072617E+03  0.80306087599E+03  0.00000000000E+00 0. -1.
         -4    1    3    3    0  502  0.23771005039E+02 -0.51716048194E+03  0.15468659759E+04  0.16312002857E+04  0.00000000000E+00 0. -1.
</event>
<event>
 7    1  0.5696597E-006  0.1073565E+04  0.7818608E-02  0.8954022E-01
         -4   -1    0    0    0  501  0.00000000000E+00  0.00000000000E+00  0.69495396728E+03  0.69495396728E+03  0.00000000000E+00 0. -1.
         -4   -1    0    0    0  502 -0.00000000000E+00 -0.00000000000E+00 -0.15602910912E+04  0.15602910912E+04  0.00000000000E+00 0. -1.
   -9000010    2    1    2    0  501 -0.33344835354E+03 -0.17046432663E+03 -0.93221124612E+03  0.14197563406E+04  0.10032170096E+04 0.  0.
        -13    1    1    2    0    0  0.35105014274E+03  0.15908142139E+03 -0.28728899678E+03  0.48070581460E+03  0.10566000000E+00 0.  1.
         13    1    3    3    0    0  0.31916708196E+03 -0.20140065266E+03 -0.53640922590E+03  0.65586943662E+03  0.10566000000E+00 0. -1.
         -4    1    1    2    0  502 -0.17601789199E+02  0.11382905247E+02  0.35416311903E+03  0.35478290319E+03  0.00000000000E+00 0. -1.
         -4    1    3    3    0  501 -0.65261543550E+03  0.30936326026E+02 -0.39580202022E+03  0.76388690402E+03  0.00000000000E+00 0. -1.
</event>
<event>
 7    1  0.5696597E-006  0.1152452E+04  0.7818608E-02  0.8831438E-01
          4   -1    0    0  501    0 -0.00000000000E+00  0.00000000000E+00  0.20253596417E+04  0.20253596417E+04  0.00000000000E+00 0.  1.
          2   -1    0    0  502    0  0.00000000000E+00 -0.00000000000E+00 -0.25518294975E+04  0.25518294975E+04  0.00000000000E+00 0. -1.
    9000010    2    1    2  502    0  0.31206419621E+02  0.55469827807E+03  0.40576427170E+03  0.12399986099E+04  0.10316432950E+04 0.  0.
        -13    1    3    3    0    0  0.13873263042E+03  0.44539815962E+03 -0.27544141708E+03  0.54175109483E+03  0.10566000000E+00 0.  1.
         13    1    1    2    0    0 -0.27353721440E+03 -0.43770358505E+03  0.11379792206E+04  0.12495614246E+04  0.10566000000E+00 0. -1.
          2    1    1    2  501    0  0.24233079478E+03 -0.11699469302E+03 -0.20702133481E+04  0.20876291047E+04  0.00000000000E+00 0. -1.
          4    1    3    3  502    0 -0.10752621080E+03  0.10930011844E+03  0.68120568879E+03  0.69824751509E+03  0.00000000000E+00 0.  1.
</event>
<event>
 7    1  0.5696597E-006  0.1013551E+04  0.7818608E-02  0.9206807E-01
          2   -1    0    0  502    0  0.00000000000E+00  0.00000000000E+00  0.84093446472E+03  0.84093446472E+03  0.00000000000E+00 0.  1.
          4   -1    0    0  501    0 -0.00000000000E+00 -0.00000000000E+00 -0.77735724552E+03  0.77735724552E+03  0.00000000000E+00 0.  1.
    9000010    2    1    2  502    0 -0.13471662594E+03  0.10162534867E+03  0.30674766927E+03  0.10593488133E+04  0.99982473204E+03 0.  0.
        -13    1    3    3    0    0  0.17299385826E+03 -0.30315802592E+03  0.41213278942E+03  0.54007880069E+03  0.10566000000E+00 0.  1.
         13    1    1    2    0    0  0.12138443033E+03 -0.11352522525E+03 -0.38324623131E+03  0.41773178198E+03  0.10566000000E+00 0. -1.
          2    1    1    2  501    0  0.13332195604E+02  0.11899876580E+02  0.14007578125E+03  0.14121111498E+03  0.00000000000E+00 0.  1.
          4    1    3    3  502    0 -0.30771048420E+03  0.40478337459E+03 -0.10538512015E+03  0.51927001259E+03  0.00000000000E+00 0.  1.
</event>
<event>
 7    1  0.5696597E-006  0.1101192E+04  0.7818608E-02  0.8906026E-01
          1   -1    0    0  501    0  0.00000000000E+00  0.00000000000E+00  0.10381927479E+04  0.10381927479E+04  0.00000000000E+00 0.  1.
         -4   -1    0    0    0  501 -0.00000000000E+00 -0.00000000000E+00 -0.35111349378E+04  0.35111349378E+04  0.00000000000E+00 0. -1.
   -9000010    2    1    2    0  502 -0.10694230343E+03  0.41348672542E+03 -0.30147664679E+04  0.32090044372E+04  0.10131558094E+04 0.  0.
        -13    1    1    2    0    0  0.10291994052E+03 -0.42451592470E+03 -0.27971688552E+03  0.51869820868E+03  0.10566000000E+00 0.  1.
         13    1    3    3    0    0  0.42597926105E+03  0.15391581340E+03 -0.18167225803E+04  0.18723325969E+04  0.10566000000E+00 0. -1.
          1    1    1    2  502    0  0.40223629192E+01  0.11029199281E+02  0.82154116345E+03  0.82162503972E+03  0.00000000000E+00 0.  1.
         -4    1    3    3    0  502 -0.53292156449E+03  0.25957091201E+03 -0.11980438876E+04  0.13366718404E+04  0.00000000000E+00 0. -1.
</event>
<event>
 7    1  0.5696597E-006  0.1170353E+04  0.7818608E-02  0.8779938E-01
         -4   -1    0    0    0  501 -0.00000000000E+00  0.00000000000E+00  0.98860952708E+03  0.98860952708E+03  0.00000000000E+00 0. -1.
          1   -1    0    0  501    0  0.00000000000E+00 -0.00000000000E+00 -0.22383555992E+04  0.22383555992E+04  0.00000000000E+00 0.  1.
   -9000010    2    1    2    0  502 -0.56277182925E+03  0.29165005541E+03  0.22540226527E+03  0.12043583992E+04  0.99894999168E+03 0.  0.
        -13    1    1    2    0    0  0.53538804917E+03 -0.25731214751E+03 -0.49269357372E+02  0.59605149542E+03  0.10566000000E+00 0.  1.
         13    1    3    3    0    0 -0.43389841751E+03  0.61272788805E+03 -0.63691735910E+02  0.75349847372E+03  0.10566000000E+00 0. -1.
          1    1    1    2  502    0  0.27383780082E+02 -0.34337907900E+02 -0.14258789800E+04  0.14265552317E+04  0.00000000000E+00 0.  1.
         -4    1    3    3    0  502 -0.12887341174E+03 -0.32107783264E+03  0.28909400118E+03  0.45085992546E+03  0.00000000000E+00 0. -1.
</event>
<event>
 7    1  0.5696597E-006  0.1059839E+04  0.7818608E-02  0.8987284E-01
         -4   -1    0    0    0  502 -0.00000000000E+00  0.00000000000E+00  0.30425681721E+04  0.30425681721E+04  0.00000000000E+00 0. -1.
         -2   -1    0    0    0  501  0.00000000000E+00 -0.00000000000E+00 -0.39562156868E+03  0.39562156868E+03  0.00000000000E+00 0.  1.
   -9000010    2    1    2    0  501 -0.35626481776E+03 -0.56372750257E+02  0.13503318680E+04  0.17194176704E+04  0.10014481835E+04 0.  0.
        -13    1    1    2    0    0  0.30795584201E+03  0.16048685147E+03  0.14702093633E+04  0.15106648911E+04  0.10566000000E+00 0.  1.
         13    1    3    3    0    0  0.10297764035E+02 -0.42455716522E+03  0.22650889894E+03  0.48131187701E+03  0.10566000000E+00 0. -1.
         -2    1    1    2    0  502  0.48308975751E+02 -0.10411410121E+03 -0.17359462793E+03  0.20810717925E+03  0.00000000000E+00 0.  1.
         -4    1    3    3    0  501 -0.36656258179E+03  0.36818441496E+03  0.11238229691E+04  0.12381057934E+04  0.00000000000E+00 0. -1.
</event>
<event>
 7    1  0.5696597E-006  0.1203964E+04  0.7818608E-02  0.8935069E-01
         -4   -1    0    0    0  501 -0.00000000000E+00  0.00000000000E+00  0.18994429174E+04  0.18994429174E+04  0.00000000000E+00 0. -1.
          3   -1    0    0  501    0  0.00000000000E+00 -0.00000000000E+00 -0.73738296010E+03  0.73738296010E+03  0.00000000000E+00 0. -1.
   -9000010    2    1    2    0  502  0.72492794134E+03 -0.24656724983E+03  0.80902549327E+03  0.14978918833E+04  0.10014199501E+04 0.  0.
        -13    1    1    2    0    0 -0.72331056768E+02  0.28381245894E+03  0.38588919709E+03  0.48444997391E+03  0.10566000000E+00 0.  1.
         13    1    3    3    0    0  0.95482755818E+03 -0.48548293067E+02  0.64092242252E+03  0.11510144071E+04  0.10566000000E+00 0. -1.
          3    1    1    2  502    0 -0.65259688457E+03 -0.37245209114E+02 -0.32854733042E+02  0.65448402031E+03  0.00000000000E+00 0. -1.
         -4    1    3    3    0  502 -0.22989961684E+03 -0.19801895676E+03  0.16810307075E+03  0.34687747614E+03  0.00000000000E+00 0. -1.
</event>
<event>
 7    1  0.5696597E-006  0.1159691E+04  0.7818608E-02  0.8782761E-01
         -2   -1    0    0    0  501  0.00000000000E+00  0.00000000000E+00  0.89472566665E+03  0.89472566665E+03  0.00000000000E+00 0.  1.
         -4   -1    0    0    0  502 -0.00000000000E+00 -0.00000000000E+00 -0.22465226596E+04  0.22465226596E+04  0.00000000000E+00 0. -1.
   -9000010    2    1    2    0  501  0.62544183657E+03  0.36857200546E+02 -0.13328970300E+04  0.17693311593E+04  0.98050105270E+03 0.  0.
        -13    1    1    2    0    0 -0.61443667797E+03 -0.21755018103E+02 -0.55932211840E+03  0.83117203715E+03  0.10566000000E+00 0.  1.
         13    1    3    3    0    0  0.49620187112E+03  0.23108563245E+03 -0.14187954426E+04  0.15207226524E+04  0.10566000000E+00 0. -1.
         -2    1    1    2    0  502 -0.11005158600E+02 -0.15102182443E+02  0.54042215541E+03  0.54074512988E+03  0.00000000000E+00 0.  1.
         -4    1    3    3    0  501  0.12923996545E+03 -0.19422843190E+03  0.85898412538E+02  0.24860850690E+03  0.00000000000E+00 0. -1.
</event>
<event>
 7    1  0.5696597E-006  0.1160653E+04  0.7818608E-02  0.8781421E-01
          2   -1    0    0  501    0  0.00000000000E+00  0.00000000000E+00  0.11684352199E+04  0.11684352199E+04  0.00000000000E+00 0.  1.
         -4   -1    0    0    0  501 -0.00000000000E+00 -0.00000000000E+00 -0.80299551613E+03  0.80299551613E+03  0.00000000000E+00 0. -1.
   -9000010    2    1    2    0  502 -0.62352285901E+03  0.18465846532E+02  0.48022644088E+03  0.12573341709E+04  0.98038259853E+03 0.  0.
        -13    1    1    2    0    0  0.61919643568E+03 -0.42936864162E+02 -0.17839063740E+03  0.64581036763E+03  0.10566000000E+00 0.  1.
         13    1    3    3    0    0 -0.87308246497E+03  0.93602008900E+01  0.22803149395E+03  0.90241840485E+03  0.10566000000E+00 0. -1.
          2    1    1    2  502    0  0.43264233319E+01  0.24471017630E+02  0.63603900319E+02  0.68286197569E+02  0.00000000000E+00 0.  1.
         -4    1    3    3    0  502  0.24955960596E+03  0.91056456422E+01  0.25219494693E+03  0.35491576601E+03  0.00000000000E+00 0. -1.
</event>
<event>
 7    1  0.5696597E-006  0.1365195E+04  0.7818608E-02  0.8571649E-01
          2   -1    0    0  502    0  0.00000000000E+00  0.00000000000E+00  0.12443004887E+04  0.12443004887E+04  0.00000000000E+00 0.  1.
          4   -1    0    0  501    0 -0.00000000000E+00 -0.00000000000E+00 -0.31438700689E+04  0.31438700689E+04  0.00000000000E+00 0.  1.
    9000010    2    1    2  502    0 -0.84982625326E+03  0.51104564598E+03 -0.94729652637E+03  0.16848192755E+04  0.97870984934E+03 0.  0.
        -13    1    3    3    0    0 -0.10135489120E+04  0.23041664125E+03 -0.56476234486E+03  0.11829326874E+04  0.10566000000E+00 0.  1.
         13    1    1    2    0    0  0.49709924643E+03 -0.83133110460E+03 -0.16173567891E+04  0.18852220189E+04  0.10566000000E+00 0. -1.
          2    1    1    2  501    0  0.35272700683E+03  0.32028545862E+03  0.66508373524E+03  0.81812926316E+03  0.00000000000E+00 0.  1.
          4    1    3    3  502    0  0.16372265875E+03  0.28062900472E+03 -0.38253418150E+03  0.50188658808E+03  0.00000000000E+00 0.  1.
</event>
<event>
 7    1  0.5696597E-006  0.1278264E+04  0.7818608E-02  0.8650761E-01
          2   -1    0    0  501    0  0.00000000000E+00  0.00000000000E+00  0.47563237553E+03  0.47563237553E+03  0.00000000000E+00 0. -1.
         -4   -1    0    0    0  501 -0.00000000000E+00 -0.00000000000E+00 -0.36828776323E+04  0.36828776323E+04  0.00000000000E+00 0. -1.
   -9000010    2    1    2    0  502 -0.68920399520E+03 -0.12979686139E+03 -0.16274792843E+04  0.20264906499E+04  0.98291716896E+03 0.  0.
        -13    1    1    2    0    0  0.80631891198E+03  0.38469645518E+03 -0.16186412755E+04  0.18488215545E+04  0.10566000000E+00 0.  1.
         13    1    3    3    0    0 -0.73328768920E+03 -0.38408174526E+03 -0.15497301866E+04  0.17569556866E+04  0.10566000000E+00 0. -1.
          2    1    1    2  502    0 -0.11711491678E+03 -0.25489959379E+03  0.38875303108E+02  0.28319780338E+03  0.00000000000E+00 0. -1.
         -4    1    3    3    0  502  0.44083694005E+02  0.25428488387E+03 -0.77749097677E+02  0.26953496329E+03  0.00000000000E+00 0. -1.
</event>
<event>
 7    1  0.5696597E-006  0.1145837E+04  0.7818608E-02  0.9073773E-01
          2   -1    0    0  501    0  0.00000000000E+00  0.00000000000E+00  0.21981499227E+04  0.21981499227E+04  0.00000000000E+00 0. -1.
         -4   -1    0    0    0  501 -0.00000000000E+00 -0.00000000000E+00 -0.94754142618E+03  0.94754142618E+03  0.00000000000E+00 0. -1.
   -9000010    2    1    2    0  502  0.58914134080E+03  0.19479239829E+03 -0.15320259245E+03  0.11935101247E+04  0.10079502892E+04 0.  0.
        -13    1    1    2    0    0 -0.15019392249E+03  0.12268246229E+03 -0.18837537365E+03  0.27035993318E+03  0.10566000000E+00 0.  1.
         13    1    3    3    0    0  0.42081828379E+03 -0.14986339728E+03 -0.50417680489E+03  0.67360324195E+03  0.10566000000E+00 0. -1.
          2    1    1    2  502    0 -0.43894741831E+03 -0.31747486058E+03  0.15921864626E+04  0.16818212910E+04  0.00000000000E+00 0. -1.
         -4    1    3    3    0  502  0.16832305701E+03  0.34465579557E+03  0.35097421244E+03  0.51990688275E+03  0.00000000000E+00 0. -1.
</event>
<event>
 7    1  0.5696597E-006  0.1021209E+04  0.7818608E-02  0.9255079E-01
          3   -1    0    0  501    0  0.00000000000E+00  0.00000000000E+00  0.47289475162E+03  0.47289475162E+03  0.00000000000E+00 0. -1.
         -4   -1    0    0    0  501 -0.00000000000E+00 -0.00000000000E+00 -0.16448857697E+04  0.16448857697E+04  0.00000000000E+00 0. -1.
   -9000010    2    1    2    0  502  0.28050220670E+03  0.54367798697E+02 -0.10804052389E+04  0.15054272080E+04  0.10086616146E+04 0.  0.
        -13    1    1    2    0    0 -0.13488332451E+03  0.49801396823E+01 -0.31295315975E+03  0.34081960681E+03  0.10566000000E+00 0.  1.
         13    1    3    3    0    0  0.34991493888E+03  0.15408697314E+03 -0.12441250642E+04  0.13015492485E+04  0.10566000000E+00 0. -1.
          3    1    1    2  502    0 -0.14561888219E+03 -0.59347938379E+02  0.22136738055E+03  0.27153370659E+03  0.00000000000E+00 0. -1.
         -4    1    3    3    0  502 -0.69412732181E+02 -0.99719174446E+02  0.16371982531E+03  0.20387795943E+03  0.00000000000E+00 0. -1.
</event>
<event>
 7    1  0.5696597E-006  0.1079909E+04  0.7818608E-02  0.9020592E-01
          2   -1    0    0  502    0  0.00000000000E+00  0.00000000000E+00  0.10686593599E+04  0.10686593599E+04  0.00000000000E+00 0. -1.
          4   -1    0    0  501    0 -0.00000000000E+00 -0.00000000000E+00 -0.18707222337E+04  0.18707222337E+04  0.00000000000E+00 0.  1.
    9000010    2    1    2  502    0 -0.15929323962E+01 -0.13321927783E+03 -0.51920783315E+03  0.11383256358E+04  0.10042203771E+04 0.  0.
        -13    1    3    3    0    0 -0.35219828091E+03  0.10517470084E+03  0.10633672425E+03  0.38263933000E+03  0.10566000000E+00 0.  1.
         13    1    1    2    0    0 -0.85477711998E+02 -0.27358627323E+03 -0.96245684527E+03  0.10042305902E+04  0.10566000000E+00 0. -1.
          2    1    1    2  501    0  0.87070644395E+02  0.40680555107E+03  0.67960180464E+03  0.79682536754E+03  0.00000000000E+00 0. -1.
          4    1    3    3  502    0  0.35060534852E+03 -0.23839397868E+03 -0.62554455741E+03  0.75568630580E+03  0.00000000000E+00 0.  1.
</event>
<event>
 7    1  0.5696597E-006  0.9761875E+03  0.7818608E-02  0.9359640E-01
          1   -1    0    0  501    0  0.00000000000E+00  0.00000000000E+00  0.37254546542E+03  0.37254546542E+03  0.00000000000E+00 0. -1.
         -4   -1    0    0    0  501 -0.00000000000E+00 -0.00000000000E+00 -0.12368142059E+04  0.12368142059E+04  0.00000000000E+00 0. -1.
   -9000010    2    1    2    0  502 -0.94784187818E+02  0.19922153940E+01 -0.67961789201E+03  0.11886915773E+04  0.97062823764E+03 0.  0.
        -13    1    1    2    0    0  0.10397712754E+03 -0.90096309078E+01 -0.29334630982E+03  0.31135909357E+03  0.10566000000E+00 0.  1.
         13    1    3    3    0    0  0.13018793723E+03 -0.23824125264E+03  0.13999762799E+03  0.30546217518E+03  0.10566000000E+00 0. -1.
          1    1    1    2  502    0 -0.91929397263E+01  0.70174155139E+01  0.10869546133E+03  0.10930900043E+03  0.00000000000E+00 0. -1.
         -4    1    3    3    0  502 -0.22497212505E+03  0.24023346803E+03 -0.81961552000E+03  0.88322940215E+03  0.00000000000E+00 0. -1.
</event>
<event>
 7    1  0.5696597E-006  0.1252309E+04  0.7818608E-02  0.8736871E-01
          2   -1    0    0  502    0  0.00000000000E+00  0.00000000000E+00  0.14926060599E+04  0.14926060599E+04  0.00000000000E+00 0.  1.
          4   -1    0    0  501    0 -0.00000000000E+00 -0.00000000000E+00 -0.23771055305E+04  0.23771055305E+04  0.00000000000E+00 0.  1.
    9000010    2    1    2  502    0  0.78093869674E+03 -0.55374184087E+03 -0.39478843130E+03  0.14276115282E+04  0.98271129821E+03 0.  0.
        -13    1    3    3    0    0  0.81989824953E+03 -0.13063606279E+03  0.24593370626E+02  0.83060445793E+03  0.10566000000E+00 0.  1.
         13    1    1    2    0    0 -0.56693554895E+03 -0.19107922030E+03 -0.12316336268E+04  0.13692511044E+04  0.10566000000E+00 0. -1.
          2    1    1    2  501    0 -0.21400314780E+03  0.74482106118E+03  0.74192258749E+03  0.10728489578E+04  0.00000000000E+00 0.  1.
          4    1    3    3  502    0 -0.38959552790E+02 -0.42310577808E+03 -0.41938180193E+03  0.59700707030E+03  0.00000000000E+00 0.  1.
</event>
<event>
 7    1  0.5696597E-006  0.1167109E+04  0.7818608E-02  0.8899236E-01
          2   -1    0    0  501    0  0.00000000000E+00  0.00000000000E+00  0.35409247457E+04  0.35409247457E+04  0.00000000000E+00 0. -1.
         -4   -1    0    0    0  501 -0.00000000000E+00 -0.00000000000E+00 -0.66825018649E+03  0.66825018649E+03  0.00000000000E+00 0. -1.
   -9000010    2    1    2    0  502  0.20514595500E+03 -0.56206843124E+03  0.96997412060E+02  0.11846261913E+04  0.10178039747E+04 0.  0.
        -13    1    1    2    0    0 -0.37256375720E+03  0.10523858840E+02  0.28813579584E+03  0.47110163743E+03  0.10566000000E+00 0.  1.
         13    1    3    3    0    0  0.32193549738E+03 -0.80469530296E+03 -0.67089824168E+02  0.86929744665E+03  0.10566000000E+00 0. -1.
          2    1    1    2  502    0  0.16741780220E+03  0.55154457240E+03  0.24875413513E+04  0.25534471035E+04  0.00000000000E+00 0. -1.
         -4    1    3    3    0  502 -0.11678954239E+03  0.24262687172E+03  0.16408723623E+03  0.31532874462E+03  0.00000000000E+00 0. -1.
</event>
<event>
 7    1  0.5696597E-006  0.1207136E+04  0.7818608E-02  0.8737721E-01
         -4   -1    0    0    0  501 -0.00000000000E+00  0.00000000000E+00  0.35828374104E+04  0.35828374104E+04  0.00000000000E+00 0. -1.
          1   -1    0    0  501    0  0.00000000000E+00 -0.00000000000E+00 -0.61231887125E+03  0.61231887125E+03  0.00000000000E+00 0.  1.
   -9000010    2    1    2    0  502  0.36909800881E+03  0.54426751998E+03  0.10291366426E+04  0.15829747134E+04  0.10070880005E+04 0.  0.
        -13    1    1    2    0    0 -0.36743959207E+03 -0.55660969717E+03  0.22277997834E+04  0.23254930864E+04  0.10566000000E+00 0.  1.
         13    1    3    3    0    0  0.53122663501E+02  0.31724024259E+03  0.11350434351E+04  0.11797402255E+04  0.10566000000E+00 0. -1.
          1    1    1    2  502    0 -0.16584167413E+01  0.12342177190E+02 -0.28641788689E+03  0.28668848183E+03  0.00000000000E+00 0.  1.
         -4    1    3    3    0  502  0.31597534531E+03  0.22702727739E+03 -0.10590679251E+03  0.40323448789E+03  0.00000000000E+00 0. -1.
</event>
<event>
 7    1  0.5696597E-006  0.1004613E+04  0.7818608E-02  0.9244154E-01
          4   -1    0    0  501    0 -0.00000000000E+00  0.00000000000E+00  0.19874470463E+04  0.19874470463E+04  0.00000000000E+00 0.  1.
          2   -1    0    0  502    0  0.00000000000E+00 -0.00000000000E+00 -0.25167668356E+03  0.25167668356E+03  0.00000000000E+00 0. -1.
    9000010    2    1    2  502    0  0.11252319537E+03  0.78521742778E+02  0.15092207727E+04  0.18121713867E+04  0.99367532948E+03 0.  0.
        -13    1    3    3    0    0 -0.11029561615E+03 -0.20943232848E+03 -0.22504153991E+02  0.23776768339E+03  0.10566000000E+00 0.  1.
         13    1    1    2    0    0 -0.12424260971E+03 -0.82313268259E+02  0.30927686242E+03  0.34331310635E+03  0.10566000000E+00 0. -1.
          2    1    1    2  501    0  0.11719414343E+02  0.37915254815E+01 -0.82727272380E+02  0.83639236806E+02  0.00000000000E+00 0. -1.
          4    1    3    3  502    0  0.22281881152E+03  0.28795407126E+03  0.15317249267E+04  0.15744037033E+04  0.00000000000E+00 0.  1.
</event>
<event>
 7    1  0.5696597E-006  0.1019308E+04  0.7818608E-02  0.9212737E-01
         -4   -1    0    0    0  501 -0.00000000000E+00  0.00000000000E+00  0.67925655400E+03  0.67925655400E+03  0.00000000000E+00 0. -1.
          2   -1    0    0  501    0  0.00000000000E+00 -0.00000000000E+00 -0.23732694259E+04  0.23732694259E+04  0.00000000000E+00 0. -1.
   -9000010    2    1    2    0  502  0.13027388771E+03 -0.47862934518E+02  0.22133863948E+03  0.10400606384E+04  0.10067140567E+04 0.  0.
        -13    1    1    2    0    0 -0.16451350979E+03  0.32253293720E+02 -0.96921378841E+02  0.19364590029E+03  0.10566000000E+00 0.  1.
         13    1    3    3    0    0  0.31739963527E+03  0.41153323672E+03  0.12917435854E+03  0.53552605862E+03  0.10566000000E+00 0. -1.
          2    1    1    2  502    0  0.34239622082E+02  0.15609640798E+02 -0.18184301326E+04  0.18188194412E+04  0.00000000000E+00 0. -1.
         -4    1    3    3    0  502 -0.18712574756E+03 -0.45939617124E+03  0.92164280943E+02  0.50453457981E+03  0.00000000000E+00 0. -1.
</event>
<event>
 7    1  0.5696597E-006  0.1062200E+04  0.7818608E-02  0.9431553E-01
          4   -1    0    0  501    0 -0.00000000000E+00  0.00000000000E+00  0.10817015570E+04  0.10817015570E+04  0.00000000000E+00 0.  1.
          2   -1    0    0  502    0  0.00000000000E+00 -0.00000000000E+00 -0.10253925265E+04  0.10253925265E+04  0.00000000000E+00 0.  1.
    9000010    2    1    2  502    0 -0.25508564222E-01  0.45544604554E+03 -0.57821574581E+03  0.12126708397E+04  0.96374582522E+03 0.  0.
        -13    1    3    3    0    0  0.47252174091E+03  0.32790082320E+03 -0.34259481351E+03  0.66945273387E+03  0.10566000000E+00 0.  1.
         13    1    1    2    0    0 -0.53674033251E+02 -0.30692405073E+02 -0.55026878418E+02  0.82770127987E+02  0.10566000000E+00 0. -1.
          2    1    1    2  501    0  0.53699541815E+02 -0.42475364047E+03  0.68955165469E+03  0.81165311579E+03  0.00000000000E+00 0.  1.
          4    1    3    3  502    0 -0.47254724947E+03  0.12754522234E+03 -0.23562093230E+03  0.54321810579E+03  0.00000000000E+00 0.  1.
</event>
<event>
 7    1  0.5696597E-006  0.1052232E+04  0.7818608E-02  0.9053890E-01
         -4   -1    0    0    0  501 -0.00000000000E+00  0.00000000000E+00  0.23911650851E+04  0.23911650851E+04  0.00000000000E+00 0. -1.
          1   -1    0    0  501    0  0.00000000000E+00 -0.00000000000E+00 -0.64018162190E+03  0.64018162190E+03  0.00000000000E+00 0. -1.
   -9000010    2    1    2    0  502  0.23459559400E+03 -0.63328183888E+02  0.12604093656E+04  0.16374905044E+04  0.10167093152E+04 0.  0.
        -13    1    1    2    0    0 -0.26895980865E+03  0.52988311408E+02  0.92151459442E+03  0.96142409930E+03  0.10566000000E+00 0.  1.
         13    1    3    3    0    0 -0.35699925304E+03  0.15308314982E+03  0.66815732444E+03  0.77286294956E+03  0.10566000000E+00 0. -1.
          1    1    1    2  502    0  0.34364214641E+02  0.10339872480E+02 -0.43094049677E+03  0.43243210330E+03  0.00000000000E+00 0. -1.
         -4    1    3    3    0  502  0.59159484704E+03 -0.21641133371E+03  0.59225204111E+03  0.86462755485E+03  0.00000000000E+00 0. -1.
</event>
<event>
 7    1  0.5696597E-006  0.1011346E+04  0.7818608E-02  0.9308353E-01
          2   -1    0    0  501    0  0.00000000000E+00  0.00000000000E+00  0.14868615368E+04  0.14868615368E+04  0.00000000000E+00 0. -1.
         -4   -1    0    0    0  501 -0.00000000000E+00 -0.00000000000E+00 -0.36583198718E+03  0.36583198718E+03  0.00000000000E+00 0. -1.
   -9000010    2    1    2    0  502 -0.59293718250E+02  0.22144838421E+02  0.79774880914E+03  0.12799228066E+04  0.99889593524E+03 0.  0.
        -13    1    1    2    0    0 -0.10427245152E+03 -0.44734809258E+02 -0.78775702921E+02  0.13812881611E+03  0.10566000000E+00 0.  1.
         13    1    3    3    0    0 -0.19862335843E+03 -0.45209439776E+03  0.50076120067E+03  0.70327972690E+03  0.10566000000E+00 0. -1.
          2    1    1    2  502    0  0.16356616977E+03  0.22589970837E+02  0.40205644340E+03  0.43464190129E+03  0.00000000000E+00 0. -1.
         -4    1    3    3    0  502  0.13932964018E+03  0.47423923618E+03  0.29698760846E+03  0.57664307969E+03  0.00000000000E+00 0. -1.
</event>
<event>
 7    1  0.5696597E-006  0.1112303E+04  0.7818608E-02  0.8956159E-01
          4   -1    0    0  501    0 -0.00000000000E+00  0.00000000000E+00  0.47061702907E+03  0.47061702907E+03  0.00000000000E+00 0.  1.
          2   -1    0    0  502    0  0.00000000000E+00 -0.00000000000E+00 -0.15342629871E+04  0.15342629871E+04  0.00000000000E+00 0.  1.
    9000010    2    1    2  502    0  0.18465308409E+03 -0.31421772723E+03 -0.76679763357E+03  0.13571904490E+04  0.10588473745E+04 0.  0.
        -13    1    3    3    0    0  0.61183749111E+02 -0.28171462968E+03 -0.10273536935E+04  0.10670343042E+04  0.10566000000E+00 0.  1.
         13    1    1    2    0    0 -0.17703888946E+03  0.28680741209E+03  0.12264004543E+02  0.33727092520E+03  0.10566000000E+00 0. -1.
          2    1    1    2  501    0 -0.76141946287E+01  0.27410315137E+02 -0.30911232895E+03  0.31041864191E+03  0.00000000000E+00 0.  1.
          4    1    3    3  502    0  0.12346933498E+03 -0.32503097549E+02  0.26055605988E+03  0.29015614481E+03  0.00000000000E+00 0.  1.
</event>
<event>
 7    1  0.5696597E-006  0.9693040E+03  0.7818608E-02  0.9413588E-01
         -4   -1    0    0    0  501 -0.00000000000E+00  0.00000000000E+00  0.57385216971E+03  0.57385216971E+03  0.00000000000E+00 0. -1.
          1   -1    0    0  501    0  0.00000000000E+00 -0.00000000000E+00 -0.15211301018E+04  0.15211301018E+04  0.00000000000E+00 0. -1.
   -9000010    2    1    2    0  502  0.19922348272E+02  0.54877976026E+02  0.82045294594E+01  0.96719518843E+03  0.96539666770E+03 0.  0.
        -13    1    1    2    0    0 -0.90148565690E+02 -0.28011350429E+01  0.60142857672E+02  0.10840564905E+03  0.10566000000E+00 0.  1.
         13    1    3    3    0    0 -0.84600459960E+02 -0.37023938079E+03  0.26179613318E+03  0.46127178911E+03  0.10566000000E+00 0. -1.
          1    1    1    2  502    0  0.70226217418E+02 -0.52076840983E+02 -0.10156253192E+04  0.10193814340E+04  0.00000000000E+00 0. -1.
         -4    1    3    3    0  502  0.10452280823E+03  0.42511735682E+03 -0.25359160372E+03  0.50592339933E+03  0.00000000000E+00 0. -1.
</event>
<event>
 7    1  0.5696597E-006  0.1143059E+04  0.7818608E-02  0.8822210E-01
          2   -1    0    0  501    0  0.00000000000E+00  0.00000000000E+00  0.19907927991E+04  0.19907927991E+04  0.00000000000E+00 0. -1.
         -4   -1    0    0    0  501 -0.00000000000E+00 -0.00000000000E+00 -0.17545070894E+04  0.17545070894E+04  0.00000000000E+00 0. -1.
   -9000010    2    1    2    0  502  0.49429512019E+02 -0.41297513797E+03  0.16399463281E+03  0.10986126881E+04  0.10035257134E+04 0.  0.
        -13    1    1    2    0    0  0.21703867423E+03  0.52203317282E+03 -0.12083564527E+04  0.13340726171E+04  0.10566000000E+00 0.  1.
         13    1    3    3    0    0  0.23535051277E+03  0.92015849199E+02  0.42967281948E+03  0.49847319218E+03  0.10566000000E+00 0. -1.
          2    1    1    2  502    0 -0.26646818625E+03 -0.10905803485E+03  0.12806475296E+04  0.13126145833E+04  0.00000000000E+00 0. -1.
         -4    1    3    3    0  502 -0.18592100075E+03 -0.50499098717E+03 -0.26567818667E+03  0.60013949588E+03  0.00000000000E+00 0. -1.
</event>
<event>
 7    1  0.5696597E-006  0.9923138E+03  0.7818608E-02  0.9184047E-01
         -4   -1    0    0    0  501 -0.00000000000E+00  0.00000000000E+00  0.21903268667E+04  0.21903268667E+04  0.00000000000E+00 0. -1.
          1   -1    0    0  501    0  0.00000000000E+00 -0.00000000000E+00 -0.45671804152E+03  0.45671804152E+03  0.00000000000E+00 0.  1.
   -9000010    2    1    2    0  502  0.28975188345E+03 -0.11381845049E+03  0.95117064306E+03  0.13960248439E+04  0.97326716727E+03 0.  0.
        -13    1    1    2    0    0 -0.17527480984E+03  0.70092183463E+02  0.99116403392E+03  0.10089798444E+04  0.10566000000E+00 0.  1.
         13    1    3    3    0    0 -0.21241524382E+03 -0.39244405034E+03  0.38097414260E+03  0.58674856365E+03  0.10566000000E+00 0. -1.
          1    1    1    2  502    0 -0.11447707361E+03  0.43726267025E+02 -0.20872585184E+03  0.24204021987E+03  0.00000000000E+00 0.  1.
         -4    1    3    3    0  502  0.50216712727E+03  0.27862559985E+03  0.57019650046E+03  0.80927628023E+03  0.00000000000E+00 0. -1.
</event>
<event>
 7    1  0.5696597E-006  0.1061365E+04  0.7818608E-02  0.8933554E-01
          4   -1    0    0  501    0 -0.00000000000E+00  0.00000000000E+00  0.17255412833E+04  0.17255412833E+04  0.00000000000E+00 0.  1.
          2   -1    0    0  502    0  0.00000000000E+00 -0.00000000000E+00 -0.10214023155E+04  0.10214023155E+04  0.00000000000E+00 0. -1.
    9000010    2    1    2  502    0 -0.39155071531E+03  0.23456583162E+03  0.66033649216E+03  0.12592944290E+04  0.97028093052E+03 0.  0.
        -13    1    3    3    0    0 -0.51453141928E+03  0.17143495558E+03  0.85983199530E+03  0.10165842792E+04  0.10566000000E+00 0.  1.
         13    1    1    2    0    0  0.39909206059E+03 -0.14952230751E+03  0.70346055317E+03  0.82248899950E+03  0.10566000000E+00 0. -1.
          2    1    1    2  501    0 -0.75413452881E+01 -0.85043524110E+02 -0.65965807755E+03  0.66516017031E+03  0.00000000000E+00 0. -1.
          4    1    3    3  502    0  0.12298070398E+03  0.63130876039E+02 -0.19949550314E+03  0.24271014984E+03  0.00000000000E+00 0.  1.
</event>
<event>
 7    1  0.5696597E-006  0.1017055E+04  0.7818608E-02  0.9078443E-01
         -4   -1    0    0    0  501 -0.00000000000E+00  0.00000000000E+00  0.85145998201E+03  0.85145998201E+03  0.00000000000E+00 0. -1.
          2   -1    0    0  501    0  0.00000000000E+00 -0.00000000000E+00 -0.94162433649E+03  0.94162433649E+03  0.00000000000E+00 0. -1.
   -9000010    2    1    2    0  502 -0.81077865623E+01  0.26933849484E+03  0.48620861494E+02  0.10174837622E+04  0.97994910952E+03 0.  0.
        -13    1    1    2    0    0  0.98155058239E+02 -0.25605612542E+03  0.25316636036E+03  0.37321893308E+03  0.10566000000E+00 0.  1.
         13    1    3    3    0    0 -0.38286305953E+03  0.35564859354E+03 -0.20002600986E+03  0.55953593292E+03  0.10566000000E+00 0. -1.
          2    1    1    2  502    0 -0.90047271676E+02 -0.13282369420E+02 -0.39195157634E+03  0.40238162317E+03  0.00000000000E+00 0. -1.
         -4    1    3    3    0  502  0.37475527297E+03 -0.86310098695E+02  0.24864687136E+03  0.45794782933E+03  0.00000000000E+00 0. -1.
</event>
<event>
 7    1  0.5696597E-006  0.1082968E+04  0.7818608E-02  0.9131422E-01
         -4   -1    0    0    0  501 -0.00000000000E+00  0.00000000000E+00  0.53994135748E+03  0.53994135748E+03  0.00000000000E+00 0. -1.
          2   -1    0    0  501    0  0.00000000000E+00 -0.00000000000E+00 -0.90029740937E+03  0.90029740937E+03  0.00000000000E+00 0. -1.
   -9000010    2    1    2    0  502  0.71500868393E+02  0.12740348299E+03 -0.38627212310E+03  0.11445234675E+04  0.10674192208E+04 0.  0.
        -13    1    1    2    0    0 -0.63707826114E+02 -0.17441216092E+03  0.97497919720E+02  0.20972397216E+03  0.10566000000E+00 0.  1.
         13    1    3    3    0    0 -0.47214554943E+03  0.13632782418E+02 -0.77938026651E+01  0.47240663324E+03  0.10566000000E+00 0. -1.
          2    1    1    2  502    0 -0.77930422791E+01  0.47008677927E+02 -0.71581848508E+02  0.85991327145E+02  0.00000000000E+00 0. -1.
         -4    1    3    3    0  502  0.54364641782E+03  0.11377070057E+03 -0.37847832044E+03  0.67211683431E+03  0.00000000000E+00 0. -1.
</event>
<event>
 7    1  0.5696597E-006  0.1302184E+04  0.7818608E-02  0.8632482E-01
          2   -1    0    0  501    0  0.00000000000E+00  0.00000000000E+00  0.13631178129E+04  0.13631178129E+04  0.00000000000E+00 0.  1.
         -4   -1    0    0    0  501 -0.00000000000E+00 -0.00000000000E+00 -0.12093714708E+04  0.12093714708E+04  0.00000000000E+00 0. -1.
   -9000010    2    1    2    0  502  0.31146537134E+03  0.74989121867E+03 -0.45804478381E+03  0.13650216261E+04  0.99706143161E+03 0.  0.
        -13    1    1    2    0    0 -0.45942023469E+03 -0.76115533178E+03  0.55786529374E+03  0.10495894856E+04  0.10566000000E+00 0.  1.
         13    1    3    3    0    0 -0.14660203799E+03 -0.19353371627E+02  0.20369444040E+03  0.25171044228E+03  0.10566000000E+00 0. -1.
          2    1    1    2  502    0  0.14795486334E+03  0.11264113108E+02  0.53925832130E+02  0.15787817202E+03  0.00000000000E+00 0.  1.
         -4    1    3    3    0  502  0.45806740933E+03  0.76924459030E+03 -0.66173922421E+03  0.11133111838E+04  0.00000000000E+00 0. -1.
</event>
<event>
 7    1  0.5696597E-006  0.1247468E+04  0.7818608E-02  0.8690459E-01
          2   -1    0    0  501    0  0.00000000000E+00  0.00000000000E+00  0.61238414044E+03  0.61238414044E+03  0.00000000000E+00 0. -1.
         -4   -1    0    0    0  501 -0.00000000000E+00 -0.00000000000E+00 -0.25675914179E+04  0.25675914179E+04  0.00000000000E+00 0. -1.
   -9000010    2    1    2    0  502  0.36257161056E+03  0.63797862723E+03 -0.15256379132E+04  0.19685961247E+04  0.10046515607E+04 0.  0.
        -13    1    1    2    0    0 -0.37034365159E+03 -0.64507640816E+03 -0.65173941886E+03  0.98896019833E+03  0.10566000000E+00 0.  1.
         13    1    3    3    0    0  0.68012865439E+03  0.43240387948E+03 -0.72912988120E+03  0.10868203607E+04  0.10566000000E+00 0. -1.
          2    1    1    2  502    0  0.77720410282E+01  0.70977809221E+01  0.22217005456E+03  0.22241923536E+03  0.00000000000E+00 0. -1.
         -4    1    3    3    0  502 -0.31755704383E+03  0.20557474776E+03 -0.79650803196E+03  0.88177576400E+03  0.00000000000E+00 0. -1.
</event>
<event>
 7    1  0.5696597E-006  0.9826433E+03  0.7818608E-02  0.9520182E-01
          1   -1    0    0  501    0  0.00000000000E+00  0.00000000000E+00  0.51285846390E+03  0.51285846390E+03  0.00000000000E+00 0. -1.
         -4   -1    0    0    0  501 -0.00000000000E+00 -0.00000000000E+00 -0.12853470546E+04  0.12853470546E+04  0.00000000000E+00 0. -1.
   -9000010    2    1    2    0  502 -0.24510399876E+02 -0.75558905380E+02 -0.88573154050E+03  0.13240942441E+04  0.98101748069E+03 0.  0.
        -13    1    1    2    0    0  0.24170322645E+02  0.50581762430E+02 -0.17552751908E+03  0.18426242239E+03  0.10566000000E+00 0.  1.
         13    1    3    3    0    0  0.55810253598E+02 -0.47872062199E+03 -0.19422952474E+03  0.51962807639E+03  0.10566000000E+00 0. -1.
          1    1    1    2  502    0  0.34007723101E+00  0.24977142950E+02  0.28877046889E+03  0.28984885204E+03  0.00000000000E+00 0. -1.
         -4    1    3    3    0  502 -0.80320653474E+02  0.40316171661E+03 -0.69150201576E+03  0.80446616767E+03  0.00000000000E+00 0. -1.
</event>
<event>
 7    1  0.5696597E-006  0.9699839E+03  0.7818608E-02  0.9167947E-01
          2   -1    0    0  501    0  0.00000000000E+00  0.00000000000E+00  0.30506859635E+03  0.30506859635E+03  0.00000000000E+00 0. -1.
         -4   -1    0    0    0  501 -0.00000000000E+00 -0.00000000000E+00 -0.19864026128E+04  0.19864026128E+04  0.00000000000E+00 0. -1.
   -9000010    2    1    2    0  502  0.82928031753E+02  0.22052168183E+03 -0.15283707409E+04  0.18120826412E+04  0.94457371684E+03 0.  0.
        -13    1    1    2    0    0 -0.87252530326E+02 -0.19834759033E+03 -0.27791653830E+03  0.35240939838E+03  0.10566000000E+00 0.  1.
         13    1    3    3    0    0  0.30233330010E+03  0.95640940614E+02 -0.60700187013E+02  0.32285776704E+03  0.10566000000E+00 0. -1.
          2    1    1    2  502    0  0.43244985725E+01 -0.22174091507E+02  0.12495326274E+03  0.12697916952E+03  0.00000000000E+00 0. -1.
         -4    1    3    3    0  502 -0.21940526834E+03  0.12488074122E+03 -0.14676705538E+04  0.14892248742E+04  0.00000000000E+00 0. -1.
</event>
<event>
 7    1  0.5696597E-006  0.1163159E+04  0.7818608E-02  0.8790585E-01
          4   -1    0    0  501    0 -0.00000000000E+00  0.00000000000E+00  0.35024003924E+03  0.35024003924E+03  0.00000000000E+00 0.  1.
          2   -1    0    0  502    0  0.00000000000E+00 -0.00000000000E+00 -0.26408101304E+04  0.26408101304E+04  0.00000000000E+00 0.  1.
    9000010    2    1    2  502    0  0.37657176273E+03  0.44134687522E+03 -0.14760778782E+04  0.18750639060E+04  0.10002326692E+04 0.  0.
        -13    1    3    3    0    0 -0.32267360848E+03 -0.92966199448E+01 -0.36895224046E+03  0.49023509835E+03  0.10566000000E+00 0.  1.
         13    1    1    2    0    0 -0.40132233951E+03 -0.44410026098E+03 -0.44551365981E+03  0.74616827475E+03  0.10566000000E+00 0. -1.
          2    1    1    2  501    0  0.24750576782E+02  0.27533857633E+01 -0.36897855313E+03  0.36981798882E+03  0.00000000000E+00 0.  1.
          4    1    3    3  502    0  0.69924537120E+03  0.45064349517E+03 -0.11071256377E+04  0.13848288077E+04  0.00000000000E+00 0.  1.
</event>
<event>
 7    1  0.5696597E-006  0.1008354E+04  0.7818608E-02  0.9277151E-01
         -4   -1    0    0    0  501 -0.00000000000E+00  0.00000000000E+00  0.19326199862E+04  0.19326199862E+04  0.00000000000E+00 0. -1.
          1   -1    0    0  501    0  0.00000000000E+00 -0.00000000000E+00 -0.16150634896E+04  0.16150634896E+04  0.00000000000E+00 0. -1.
   -9000010    2    1    2    0  502  0.11177402349E+03  0.83437471184E+02  0.10493763251E+04  0.14563022321E+04  0.10000851342E+04 0.  0.
        -13    1    1    2    0    0 -0.54707504346E+02 -0.11686344609E+03  0.67287238723E+03  0.68513300659E+03  0.10566000000E+00 0.  1.
         13    1    3    3    0    0 -0.27571350524E+03  0.12222226891E+03  0.10223901451E+04  0.10659445764E+04  0.10566000000E+00 0. -1.
          1    1    1    2  502    0 -0.57066519144E+02  0.33425974907E+02 -0.14046922157E+04  0.14062482371E+04  0.00000000000E+00 0. -1.
         -4    1    3    3    0  502  0.38748752873E+03 -0.38784797725E+02  0.26986180017E+02  0.39035765571E+03  0.00000000000E+00 0. -1.
</event>
<event>
 7    1  0.5696597E-006  0.9992743E+03  0.7818608E-02  0.9061833E-01
         -4   -1    0    0    0  501 -0.00000000000E+00  0.00000000000E+00  0.10765481303E+04  0.10765481303E+04  0.00000000000E+00 0. -1.
          1   -1    0    0  501    0  0.00000000000E+00 -0.00000000000E+00 -0.19737563658E+04  0.19737563658E+04  0.00000000000E+00 0.  1.
   -9000010    2    1    2    0  502  0.15515222968E+03  0.19880416118E+03  0.43134309033E+03  0.10743243823E+04  0.95106293584E+03 0.  0.
        -13    1    1    2    0    0 -0.14881331653E+03 -0.28445132753E+03  0.24266214611E+03  0.40242128327E+03  0.10566000000E+00 0.  1.
         13    1    3    3    0    0 -0.24424523797E+03 -0.27164512148E+03  0.13187654552E+03  0.38837899366E+03  0.10566000000E+00 0. -1.
          1    1    1    2  502    0 -0.63389131477E+01  0.85647166351E+02 -0.15712134719E+04  0.15735588305E+04  0.00000000000E+00 0.  1.
         -4    1    3    3    0  502  0.39939746765E+03  0.47044928266E+03  0.29946654481E+03  0.68594538863E+03  0.00000000000E+00 0. -1.
</event>
<event>
 7    1  0.5696597E-006  0.1058122E+04  0.7818608E-02  0.8997560E-01
         -4   -1    0    0    0  501 -0.00000000000E+00  0.00000000000E+00  0.24597301905E+04  0.24597301905E+04  0.00000000000E+00 0. -1.
          2   -1    0    0  501    0  0.00000000000E+00 -0.00000000000E+00 -0.60734788785E+03  0.60734788785E+03  0.00000000000E+00 0. -1.
   -9000010    2    1    2    0  502  0.65108313202E+02 -0.31756774200E+03  0.16635809060E+04  0.19698705850E+04  0.10038925877E+04 0.  0.
        -13    1    1    2    0    0 -0.12213479997E+03  0.31559987702E+03  0.59635342523E+03  0.68568039981E+03  0.10566000000E+00 0.  1.
         13    1    3    3    0    0  0.34372054867E+03  0.24708433580E+03  0.61034934912E+03  0.74277912175E+03  0.10566000000E+00 0. -1.
          2    1    1    2  502    0  0.57026486767E+02  0.19678649863E+01 -0.40755202860E+03  0.41152709353E+03  0.00000000000E+00 0. -1.
         -4    1    3    3    0  502 -0.27861223547E+03 -0.56465207781E+03  0.10532315569E+04  0.12270914632E+04  0.00000000000E+00 0. -1.
</event>
<event>
 7    1  0.5696597E-006  0.2031872E+04  0.7818608E-02  0.8184368E-01
          2   -1    0    0  502    0  0.00000000000E+00  0.00000000000E+00  0.25691150448E+04  0.25691150448E+04  0.00000000000E+00 0.  1.
          4   -1    0    0  501    0 -0.00000000000E+00 -0.00000000000E+00 -0.22651367431E+04  0.22651367431E+04  0.00000000000E+00 0.  1.
    9000010    2    1    2  502    0 -0.16553562027E+04 -0.62103911798E+03  0.12458483147E+04  0.23866436680E+04  0.10089778148E+04 0.  0.
        -13    1    3    3    0    0 -0.13942938264E+04 -0.52797107505E+03  0.47071683505E+03  0.15634522955E+04  0.10566000000E+00 0.  1.
         13    1    1    2    0    0  0.16613233843E+04  0.58889352334E+03 -0.12352861206E+04  0.21523760777E+04  0.10566000000E+00 0. -1.
          2    1    1    2  501    0 -0.59671815308E+01  0.32145594640E+02  0.29341610761E+03  0.29523204216E+03  0.00000000000E+00 0.  1.
          4    1    3    3  502    0 -0.26106237636E+03 -0.93068042921E+02  0.77513147966E+03  0.82319137248E+03  0.00000000000E+00 0.  1.
</event>
<event>
 7    1  0.5696597E-006  0.1001645E+04  0.7818608E-02  0.9323098E-01
         -4   -1    0    0    0  501 -0.00000000000E+00  0.00000000000E+00  0.17695906529E+04  0.17695906529E+04  0.00000000000E+00 0. -1.
          2   -1    0    0  501    0  0.00000000000E+00 -0.00000000000E+00 -0.73180338465E+03  0.73180338465E+03  0.00000000000E+00 0.  1.
   -9000010    2    1    2    0  502  0.24151263630E+02  0.10771226740E+03  0.10066433123E+04  0.14200727197E+04  0.99553531067E+03 0.  0.
        -13    1    1    2    0    0  0.36023012533E+02 -0.10488244663E+03  0.54894164818E+03  0.56003118602E+03  0.10566000000E+00 0.  1.
         13    1    3    3    0    0 -0.16229912781E+03  0.52176347008E+03  0.58306972054E+03  0.79909225735E+03  0.10566000000E+00 0. -1.
          2    1    1    2  502    0 -0.60174276162E+02 -0.28298207644E+01 -0.51779769230E+03  0.52129013183E+03  0.00000000000E+00 0.  1.
         -4    1    3    3    0  502  0.18645039144E+03 -0.41405120268E+03  0.42357359180E+03  0.62098046232E+03  0.00000000000E+00 0. -1.
</event>
<event>
 7    1  0.5696597E-006  0.1038227E+04  0.7818608E-02  0.9072373E-01
          4   -1    0    0  501    0 -0.00000000000E+00  0.00000000000E+00  0.12195454849E+04  0.12195454849E+04  0.00000000000E+00 0.  1.
          2   -1    0    0  502    0  0.00000000000E+00 -0.00000000000E+00 -0.10206067882E+04  0.10206067882E+04  0.00000000000E+00 0.  1.
    9000010    2    1    2  502    0  0.10523736285E+03  0.20396758637E+03  0.30529234285E+03  0.10747420724E+04  0.10045842069E+04 0.  0.
        -13    1    3    3    0    0  0.40504344237E+03  0.47090148625E+03  0.24989156166E+03  0.66951788902E+03  0.10566000000E+00 0.  1.
         13    1    1    2    0    0 -0.45469242327E+02 -0.26194263900E+03  0.49309823299E+03  0.56020288884E+03  0.10566000000E+00 0. -1.
          2    1    1    2  501    0 -0.59768120526E+02  0.57975052633E+02 -0.59945187910E+03  0.60520731185E+03  0.00000000000E+00 0.  1.
          4    1    3    3  502    0 -0.29980607952E+03 -0.26693389988E+03  0.55400781192E+02  0.40522418336E+03  0.00000000000E+00 0.  1.
</event>
<event>
 7    1  0.5696597E-006  0.1091274E+04  0.7818608E-02  0.8908132E-01
          4   -1    0    0  501    0 -0.00000000000E+00  0.00000000000E+00  0.10924022283E+04  0.10924022283E+04  0.00000000000E+00 0.  1.
          2   -1    0    0  502    0  0.00000000000E+00 -0.00000000000E+00 -0.16848183092E+04  0.16848183092E+04  0.00000000000E+00 0.  1.
    9000010    2    1    2  502    0  0.18711533508E+03  0.38415729400E+03 -0.18062389462E+03  0.11013452530E+04  0.99887306494E+03 0.  0.
        -13    1    3    3    0    0  0.51925395248E+03  0.51130046313E+03 -0.89457982195E+02  0.73420404011E+03  0.10566000000E+00 0.  1.
         13    1    1    2    0    0 -0.38065486006E+03 -0.23715108882E+03  0.53515695625E+03  0.69823473159E+03  0.10566000000E+00 0. -1.
          2    1    1    2  501    0  0.19353952498E+03 -0.14700620518E+03 -0.94694914256E+03  0.97764055291E+03  0.00000000000E+00 0.  1.
          4    1    3    3  502    0 -0.33213861740E+03 -0.12714316913E+03 -0.91165912426E+02  0.36714121290E+03  0.00000000000E+00 0.  1.
</event>
<event>
 7    1  0.5696597E-006  0.1022979E+04  0.7818608E-02  0.9128424E-01
          4   -1    0    0  501    0 -0.00000000000E+00  0.00000000000E+00  0.17273953034E+04  0.17273953034E+04  0.00000000000E+00 0.  1.
          2   -1    0    0  502    0  0.00000000000E+00 -0.00000000000E+00 -0.89686420478E+03  0.89686420478E+03  0.00000000000E+00 0.  1.
    9000010    2    1    2  502    0  0.15154118109E+03  0.16274625172E+03  0.10961604802E+04  0.14997711682E+04  0.99914697936E+03 0.  0.
        -13    1    3    3    0    0  0.71606274790E+02 -0.17124098193E+03 -0.12988223292E+03  0.22653992600E+03  0.10566000000E+00 0.  1.
         13    1    1    2    0    0 -0.15944710059E+03 -0.15039525175E+03  0.40137506166E+03  0.45732270982E+03  0.10566000000E+00 0. -1.
          2    1    1    2  501    0  0.79059195019E+01 -0.12350999968E+02 -0.66700444328E+03  0.66716563020E+03  0.00000000000E+00 0.  1.
          4    1    3    3  502    0  0.79934906300E+02  0.33398723365E+03  0.12260427132E+04  0.12732312421E+04  0.00000000000E+00 0.  1.
</event>
<event>
 7    1  0.5696597E-006  0.1182296E+04  0.7818608E-02  0.8781184E-01
         -4   -1    0    0    0  501 -0.00000000000E+00  0.00000000000E+00  0.28155938264E+04  0.28155938264E+04  0.00000000000E+00 0. -1.
          1   -1    0    0  501    0  0.00000000000E+00 -0.00000000000E+00 -0.10335420120E+04  0.10335420120E+04  0.00000000000E+00 0. -1.
   -9000010    2    1    2    0  502  0.37863120632E+03 -0.39390079088E+03  0.17775950839E+04  0.21236823148E+04  0.10255061524E+04 0.  0.
        -13    1    1    2    0    0 -0.33483653240E+03  0.52150840263E+03  0.74707835979E+03  0.97067636433E+03  0.10566000000E+00 0.  1.
         13    1    3    3    0    0 -0.35004718664E+03 -0.15884829070E+03  0.45687081810E+03  0.59707350295E+03  0.10566000000E+00 0. -1.
          1    1    1    2  502    0 -0.43794673917E+02 -0.12760761175E+03 -0.74262162924E+03  0.75477715933E+03  0.00000000000E+00 0. -1.
         -4    1    3    3    0  502  0.72867839295E+03 -0.23505250019E+03  0.13207242658E+04  0.15266088118E+04  0.00000000000E+00 0. -1.
</event>
<event>
 6    1  0.5696597E-006  0.6170614E+03  0.7818608E-02  0.9688847E-01
          4   -1    0    0  501    0 -0.00000000000E+00  0.00000000000E+00  0.37432792784E+03  0.37432792784E+03  0.00000000000E+00 0.  1.
          2   -1    0    0  502    0  0.00000000000E+00 -0.00000000000E+00 -0.11035574398E+04  0.11035574398E+04  0.00000000000E+00 0. -1.
        -13    1    1    2    0    0  0.65718167146E+02 -0.20925039259E+03 -0.10532321376E+03  0.24330555853E+03  0.10566000000E+00 0.  1.
         13    1    1    2    0    0 -0.11552250698E+03 -0.76423968207E+02 -0.10833593564E+03  0.17584868112E+03  0.10566000000E+00 0. -1.
          2    1    1    2  501    0  0.99260594860E+02 -0.53784107838E+02 -0.67220585089E+03  0.68162020357E+03  0.00000000000E+00 0. -1.
          4    1    1    2  502    0 -0.49456255025E+02  0.33945846864E+03  0.15663548834E+03  0.37711092439E+03  0.00000000000E+00 0.  1.
</event>
<event>
 7    1  0.5696597E-006  0.1008415E+04  0.7818608E-02  0.9185211E-01
         -4   -1    0    0    0  501 -0.00000000000E+00  0.00000000000E+00  0.23201186218E+04  0.23201186218E+04  0.00000000000E+00 0. -1.
          2   -1    0    0  501    0  0.00000000000E+00 -0.00000000000E+00 -0.10366752786E+04  0.10366752786E+04  0.00000000000E+00 0. -1.
   -9000010    2    1    2    0  502 -0.13454704527E+03 -0.54333370777E+02  0.20933053122E+04  0.23208181566E+04  0.99157186501E+03 0.  0.
        -13    1    1    2    0    0  0.15433883416E+03  0.18616036890E+03 -0.28693497123E+02  0.24351485913E+03  0.10566000000E+00 0.  1.
         13    1    3    3    0    0  0.36234351139E+03 -0.24048576870E+03  0.12597743637E+04  0.13327256596E+04  0.10566000000E+00 0. -1.
          2    1    1    2  502    0 -0.19791788886E+02 -0.13182699812E+03 -0.78116847183E+03  0.79246088466E+03  0.00000000000E+00 0. -1.
         -4    1    3    3    0  502 -0.49689055666E+03  0.18615239792E+03  0.83353094849E+03  0.98809249701E+03  0.00000000000E+00 0. -1.
</event>
<event>
 7    1  0.5696597E-006  0.1119524E+04  0.7818608E-02  0.8873074E-01
          4   -1    0    0  501    0 -0.00000000000E+00  0.00000000000E+00  0.84141105671E+03  0.84141105671E+03  0.00000000000E+00 0.  1.
          2   -1    0    0  502    0  0.00000000000E+00 -0.00000000000E+00 -0.10298419742E+04  0.10298419742E+04  0.00000000000E+00 0.  1.
    9000010    2    1    2  502    0 -0.46957736826E+02 -0.53876975793E+03 -0.15688509208E+03  0.11613873189E+04  0.10157409568E+04 0.  0.
        -13    1    3    3    0    0 -0.15396866235E+03 -0.69259955912E+03  0.21802838611E+03  0.74225122876E+03  0.10566000000E+00 0.  1.
         13    1    1    2    0    0  0.55782860021E+02  0.45076533417E+03  0.17377006075E+03  0.48630973580E+03  0.10566000000E+00 0. -1.
          2    1    1    2  501    0 -0.88251231940E+01  0.88004423769E+02 -0.20531588620E+03  0.22355597628E+03  0.00000000000E+00 0.  1.
          4    1    3    3  502    0  0.10701092553E+03  0.15382980118E+03 -0.37491347819E+03  0.41913609012E+03  0.00000000000E+00 0.  1.
</event>
<event>
 7    1  0.5696597E-006  0.1074061E+04  0.7818608E-02  0.8964286E-01
          4   -1    0    0  501    0 -0.00000000000E+00  0.00000000000E+00  0.12943039489E+04  0.12943039489E+04  0.00000000000E+00 0.  1.
          2   -1    0    0  502    0  0.00000000000E+00 -0.00000000000E+00 -0.14123725067E+04  0.14123725067E+04  0.00000000000E+00 0.  1.
    9000010    2    1    2  502    0 -0.37750530800E+03 -0.28057230372E+03  0.13399785775E+03  0.11219704321E+04  0.10097678691E+04 0.  0.
        -13    1    3    3    0    0  0.49904253841E+02 -0.34068207815E+03 -0.33792298930E+03  0.48243825593E+03  0.10566000000E+00 0.  1.
         13    1    1    2    0    0  0.31390480672E+03  0.16861686615E+03  0.61357729280E+03  0.70953856881E+03  0.10566000000E+00 0. -1.
          2    1    1    2  501    0  0.63600501275E+02  0.11195543757E+03 -0.86564370842E+03  0.87516745466E+03  0.00000000000E+00 0.  1.
          4    1    3    3  502    0 -0.42740956184E+03  0.60109774429E+02  0.47192084705E+03  0.63953217621E+03  0.00000000000E+00 0.  1.
</event>
<event>
 7    1  0.5696597E-006  0.1016046E+04  0.7818608E-02  0.9160382E-01
          2   -1    0    0  502    0  0.00000000000E+00  0.00000000000E+00  0.80141839763E+03  0.80141839763E+03  0.00000000000E+00 0.  1.
          4   -1    0    0  501    0 -0.00000000000E+00 -0.00000000000E+00 -0.12637844150E+04  0.12637844150E+04  0.00000000000E+00 0.  1.
    9000010    2    1    2  502    0 -0.16444464186E+03  0.12379281841E+03 -0.55296987487E+03  0.11581980815E+04  0.99663454248E+03 0.  0.
        -13    1    3    3    0    0 -0.41762620117E+02 -0.43021756679E+03 -0.34786845451E+03  0.55483668230E+03  0.10566000000E+00 0.  1.
         13    1    1    2    0    0  0.16261236116E+03 -0.11126183077E+03 -0.38433481018E+03  0.43189724759E+03  0.10566000000E+00 0. -1.
          2    1    1    2  501    0  0.18322806976E+01 -0.12530987641E+02  0.47493866767E+03  0.47510748358E+03  0.00000000000E+00 0.  1.
          4    1    3    3  502    0 -0.12268202174E+03  0.55401038520E+03 -0.20510142035E+03  0.60336139917E+03  0.00000000000E+00 0.  1.
</event>
<event>
 7    1  0.5696597E-006  0.1035249E+04  0.7818608E-02  0.9072191E-01
          2   -1    0    0  501    0  0.00000000000E+00  0.00000000000E+00  0.16320185983E+04  0.16320185983E+04  0.00000000000E+00 0. -1.
         -4   -1    0    0    0  501 -0.00000000000E+00 -0.00000000000E+00 -0.62413264859E+03  0.62413264859E+03  0.00000000000E+00 0. -1.
   -9000010    2    1    2    0  502  0.12610168048E+03 -0.11883361588E+03  0.10183230868E+04  0.14383057492E+04  0.10008588596E+04 0.  0.
        -13    1    1    2    0    0 -0.15434764316E+03  0.21912031217E+03 -0.36242315667E+03  0.45076319926E+03  0.10566000000E+00 0.  1.
         13    1    3    3    0    0  0.19782517820E+03 -0.53948600245E+03  0.46281932768E+03  0.73782226125E+03  0.10566000000E+00 0. -1.
          2    1    1    2  502    0  0.28245962674E+02 -0.10028669629E+03  0.35198601960E+03  0.36708229848E+03  0.00000000000E+00 0. -1.
         -4    1    3    3    0  502 -0.71723497720E+02  0.42065238657E+03  0.55550375914E+03  0.70048348794E+03  0.00000000000E+00 0. -1.
</event>
<event>
 7    1  0.5696597E-006  0.1036225E+04  0.7818608E-02  0.9082375E-01
         -4   -1    0    0    0  501 -0.00000000000E+00  0.00000000000E+00  0.32168679769E+03  0.32168679769E+03  0.00000000000E+00 0. -1.
          2   -1    0    0  501    0  0.00000000000E+00 -0.00000000000E+00 -0.16446891391E+04  0.16446891391E+04  0.00000000000E+00 0. -1.
   -9000010    2    1    2    0  502  0.15038402740E+02 -0.24924657825E+03 -0.90813216389E+03  0.13771736329E+04  0.10047652351E+04 0.  0.
        -13    1    1    2    0    0 -0.35170301049E+01  0.25400575600E+03 -0.98298938135E+02  0.27238573014E+03  0.10566000000E+00 0.  1.
         13    1    3    3    0    0  0.44134171230E+03  0.10648396349E+03 -0.56367426124E+03  0.72377484444E+03  0.10566000000E+00 0. -1.
          2    1    1    2  502    0 -0.11521372635E+02 -0.47591777428E+01 -0.31657123943E+03  0.31681657380E+03  0.00000000000E+00 0. -1.
         -4    1    3    3    0  502 -0.42630330956E+03 -0.35573054174E+03 -0.34445790266E+03  0.65339878847E+03  0.00000000000E+00 0. -1.
</event>
<event>
 7    1  0.5696597E-006  0.9247919E+03  0.7818608E-02  0.9115540E-01
          1   -1    0    0  501    0  0.00000000000E+00  0.00000000000E+00  0.63856823439E+03  0.63856823439E+03  0.00000000000E+00 0. -1.
         -4   -1    0    0    0  501 -0.00000000000E+00 -0.00000000000E+00 -0.84333927126E+03  0.84333927126E+03  0.00000000000E+00 0. -1.
   -9000010    2    1    2    0  502  0.10223759204E+03 -0.28436996757E+03 -0.15783102348E+03  0.93474484860E+03  0.87035538507E+03 0.  0.
        -13    1    1    2    0    0 -0.10301647390E+03  0.29751658749E+03 -0.21329083403E+03  0.38029134196E+03  0.10566000000E+00 0.  1.
         13    1    3    3    0    0 -0.15911273270E+03  0.10537245107E+03  0.24897514796E+03  0.31370184988E+03  0.10566000000E+00 0. -1.
          1    1    1    2  502    0  0.77888185934E+00 -0.13146619913E+02  0.16635082064E+03  0.16687131508E+03  0.00000000000E+00 0. -1.
         -4    1    3    3    0  502  0.26135032475E+03 -0.38974241865E+03 -0.40680617144E+03  0.62104299872E+03  0.00000000000E+00 0. -1.
</event>
<event>
 6    1  0.5696597E-006  0.1779567E+03  0.7818608E-02  0.1101232E+00
          1   -1    0    0  501    0  0.00000000000E+00  0.00000000000E+00  0.10720513474E+04  0.10720513474E+04  0.00000000000E+00 0.  1.
         -4   -1    0    0    0  501 -0.00000000000E+00 -0.00000000000E+00 -0.10533153220E+03  0.10533153220E+03  0.00000000000E+00 0. -1.
        -13    1    1    2    0    0  0.77339633919E+02 -0.24890065105E+02  0.15420780586E+03  0.17430144253E+03  0.10566000000E+00 0.  1.
         13    1    1    2    0    0  0.21702974478E+02  0.20859567084E+02 -0.52713043336E+02  0.60702691390E+02  0.10566000000E+00 0. -1.
          1    1    1    2  502    0  0.12688107295E+02 -0.16129019481E+01  0.82253927210E+03  0.82263870786E+03  0.00000000000E+00 0.  1.
         -4    1    1    2    0  502 -0.11173071569E+03  0.56433999684E+01  0.42685780570E+02  0.11974003781E+03  0.00000000000E+00 0. -1.
</event>
<event>
 7    1  0.5696597E-006  0.1235974E+04  0.7818608E-02  0.9038604E-01
         -4   -1    0    0    0  501 -0.00000000000E+00  0.00000000000E+00  0.16508381228E+04  0.16508381228E+04  0.00000000000E+00 0. -1.
          1   -1    0    0  501    0  0.00000000000E+00 -0.00000000000E+00 -0.16765545832E+04  0.16765545832E+04  0.00000000000E+00 0.  1.
   -9000010    2    1    2    0  502  0.53229021059E+03  0.11493322268E+03  0.76775587952E+03  0.13866802880E+04  0.10182782609E+04 0.  0.
        -13    1    1    2    0    0  0.17623702851E+03 -0.23777929425E+02  0.46265749196E+03  0.49565799316E+03  0.10566000000E+00 0.  1.
         13    1    3    3    0    0  0.63187658544E+03 -0.23557517389E+03  0.18481933154E+03  0.69922948898E+03  0.10566000000E+00 0. -1.
          1    1    1    2  502    0 -0.70852723910E+03 -0.91155293258E+02 -0.12561298319E+04  0.14450544248E+04  0.00000000000E+00 0.  1.
         -4    1    3    3    0  502 -0.99586374848E+02  0.35050839657E+03  0.58293654798E+03  0.68745079903E+03  0.00000000000E+00 0. -1.
</event>
<event>
 7    1  0.5696597E-006  0.1040736E+04  0.7818608E-02  0.9097150E-01
          3   -1    0    0  501    0  0.00000000000E+00  0.00000000000E+00  0.41905410601E+03  0.41905410601E+03  0.00000000000E+00 0. -1.
         -4   -1    0    0    0  501 -0.00000000000E+00 -0.00000000000E+00 -0.16741524653E+04  0.16741524653E+04  0.00000000000E+00 0. -1.
   -9000010    2    1    2    0  502 -0.68517054713E+02  0.16725881919E+03 -0.65223613432E+03  0.12188427954E+04  0.10136546185E+04 0.  0.
        -13    1    1    2    0    0 -0.57744214374E+02 -0.23548295164E+03 -0.67248080301E+03  0.71485457009E+03  0.10566000000E+00 0.  1.
         13    1    3    3    0    0 -0.51708930848E+03 -0.17574683141E+02 -0.19723825869E+03  0.55370855537E+03  0.10566000000E+00 0. -1.
          3    1    1    2  502    0  0.12626126909E+03  0.68224132455E+02  0.69618578067E+02  0.15950920579E+03  0.00000000000E+00 0. -1.
         -4    1    3    3    0  502  0.44857225377E+03  0.18483350233E+03 -0.45499787563E+03  0.66513424003E+03  0.00000000000E+00 0. -1.
</event>
<event>
 7    1  0.5696597E-006  0.1077455E+04  0.7818608E-02  0.8980650E-01
         -4   -1    0    0    0  501 -0.00000000000E+00  0.00000000000E+00  0.22261858101E+03  0.22261858101E+03  0.00000000000E+00 0. -1.
          4   -1    0    0  501    0  0.00000000000E+00 -0.00000000000E+00 -0.25476562245E+04  0.25476562245E+04  0.00000000000E+00 0. -1.
   -9000010    2    1    2    0  502  0.29340660598E+03 -0.16686820718E+03 -0.16650467253E+04  0.19829681217E+04  0.10226678539E+04 0.  0.
        -13    1    1    2    0    0 -0.32875257232E+03  0.93771576116E+02 -0.47452283198E+03  0.58484467299E+03  0.10566000000E+00 0.  1.
         13    1    3    3    0    0 -0.17951505765E+03 -0.11901829331E+03  0.34561993325E+02  0.21814113003E+03  0.10566000000E+00 0. -1.
          4    1    1    2  502    0  0.35345966344E+02  0.73096631063E+02 -0.18546808622E+03  0.20246201080E+03  0.00000000000E+00 0. -1.
         -4    1    3    3    0  502  0.47292166363E+03 -0.47849913869E+02 -0.16996087186E+04  0.17648269917E+04  0.00000000000E+00 0. -1.
</event>
<event>
 7    1  0.5696597E-006  0.9942553E+03  0.7818608E-02  0.9208815E-01
          3   -1    0    0  501    0  0.00000000000E+00  0.00000000000E+00  0.91007875798E+03  0.91007875798E+03  0.00000000000E+00 0. -1.
         -4   -1    0    0    0  501 -0.00000000000E+00 -0.00000000000E+00 -0.12051500822E+04  0.12051500822E+04  0.00000000000E+00 0. -1.
   -9000010    2    1    2    0  502 -0.10859044928E+03  0.14520208051E+03 -0.37073588633E+03  0.10622281434E+04  0.97877883164E+03 0.  0.
        -13    1    1    2    0    0  0.94597379795E+02 -0.14659465717E+03 -0.47300284621E+03  0.50415311311E+03  0.10566000000E+00 0.  1.
         13    1    3    3    0    0  0.11309563290E+02  0.33947423023E+03 -0.63064213994E+03  0.71629615317E+03  0.10566000000E+00 0. -1.
          3    1    1    2  502    0  0.13993069480E+02  0.13925766595E+01  0.54866740828E+03  0.54884758374E+03  0.00000000000E+00 0. -1.
         -4    1    3    3    0  502 -0.11990001256E+03 -0.19427214972E+03  0.25990625361E+03  0.34593199019E+03  0.00000000000E+00 0. -1.
</event>
<event>
 7    1  0.5696597E-006  0.1132880E+04  0.7818608E-02  0.8836920E-01
         -4   -1    0    0    0  501 -0.00000000000E+00  0.00000000000E+00  0.26773422585E+04  0.26773422585E+04  0.00000000000E+00 0. -1.
          1   -1    0    0  501    0  0.00000000000E+00 -0.00000000000E+00 -0.49406131079E+03  0.49406131079E+03  0.00000000000E+00 0.  1.
   -9000010    2    1    2    0  502  0.68589523024E+02 -0.53090615615E+03  0.16054724056E+04  0.19667916294E+04  0.10020787390E+04 0.  0.
        -13    1    1    2    0    0 -0.64651784236E+02  0.52150781019E+03  0.81362568837E+03  0.96857473704E+03  0.10566000000E+00 0.  1.
         13    1    3    3    0    0 -0.27824285469E+03  0.19455789947E+02  0.11223366187E+04  0.11564761609E+04  0.10566000000E+00 0. -1.
          1    1    1    2  502    0 -0.39377387880E+01  0.93983459535E+01 -0.23581714620E+03  0.23603720286E+03  0.00000000000E+00 0.  1.
         -4    1    3    3    0  502  0.34683237772E+03 -0.55036194609E+03  0.48313578691E+03  0.81031546853E+03  0.00000000000E+00 0. -1.
</event>
<event>
 7    1  0.5696597E-006  0.1012107E+04  0.7818608E-02  0.9115086E-01
          4   -1    0    0  501    0 -0.00000000000E+00  0.00000000000E+00  0.31696573716E+03  0.31696573716E+03  0.00000000000E+00 0.  1.
          2   -1    0    0  502    0  0.00000000000E+00 -0.00000000000E+00 -0.14882704727E+04  0.14882704727E+04  0.00000000000E+00 0.  1.
    9000010    2    1    2  502    0 -0.10054774298E+03  0.16198798755E+03 -0.93457029037E+03  0.13700571457E+04  0.98350648100E+03 0.  0.
        -13    1    3    3    0    0  0.25680094173E+02  0.51083360055E+03 -0.84608299321E+03  0.98866924562E+03  0.10566000000E+00 0.  1.
         13    1    1    2    0    0  0.14746252810E+03 -0.19651748797E+03 -0.65449422563E+02  0.25425962784E+03  0.10566000000E+00 0. -1.
          2    1    1    2  501    0 -0.46914785123E+02  0.34529500427E+02 -0.17128502257E+03  0.18091943627E+03  0.00000000000E+00 0.  1.
          4    1    3    3  502    0 -0.12622783715E+03 -0.34884561300E+03 -0.88487297167E+02  0.38138790010E+03  0.00000000000E+00 0.  1.
</event>
<event>
 7    1  0.5696597E-006  0.1063676E+04  0.7818608E-02  0.8958102E-01
          2   -1    0    0  501    0  0.00000000000E+00  0.00000000000E+00  0.65049513223E+03  0.65049513223E+03  0.00000000000E+00 0. -1.
         -4   -1    0    0    0  501 -0.00000000000E+00 -0.00000000000E+00 -0.19212775982E+04  0.19212775982E+04  0.00000000000E+00 0. -1.
   -9000010    2    1    2    0  502  0.31614101877E+03 -0.26316575181E+03 -0.10234965070E+04  0.14828284428E+04  0.99097615227E+03 0.  0.
        -13    1    1    2    0    0 -0.30061559008E+03  0.23351693528E+03 -0.61306944718E+03  0.72163290550E+03  0.10566000000E+00 0.  1.
         13    1    3    3    0    0  0.64780633947E+03 -0.31827602114E+03 -0.80825939745E+03  0.10836216793E+04  0.10566000000E+00 0. -1.
          2    1    1    2  502    0 -0.15525428690E+02  0.29648816526E+02  0.36578348815E+03  0.36731138215E+03  0.00000000000E+00 0. -1.
         -4    1    3    3    0  502 -0.33166532069E+03  0.55110269334E+02 -0.21523710953E+03  0.39920676354E+03  0.00000000000E+00 0. -1.
</event>
<event>
 7    1  0.5696597E-006  0.1057192E+04  0.7818608E-02  0.9357396E-01
          2   -1    0    0  502    0  0.00000000000E+00  0.00000000000E+00  0.95450776245E+03  0.95450776245E+03  0.00000000000E+00 0.  1.
          4   -1    0    0  501    0 -0.00000000000E+00 -0.00000000000E+00 -0.47541839570E+03  0.47541839570E+03  0.00000000000E+00 0.  1.
    9000010    2    1    2  502    0  0.26375752876E+03 -0.38979352070E+01  0.38338050778E+03  0.11374364845E+04  0.10378814551E+04 0.  0.
        -13    1    3    3    0    0 -0.32638401460E+03 -0.73273652856E+02 -0.12332769913E+03  0.35651828246E+03  0.10566000000E+00 0.  1.
         13    1    1    2    0    0 -0.76682787709E+02  0.30688241783E+02  0.54823034059E+02  0.99134223868E+02  0.10566000000E+00 0. -1.
          2    1    1    2  501    0 -0.18707474105E+03 -0.26790306576E+02  0.40885824920E+02  0.19335544974E+03  0.00000000000E+00 0.  1.
          4    1    3    3  502    0  0.59014154336E+03  0.69375717649E+02  0.50670820690E+03  0.78091820208E+03  0.00000000000E+00 0.  1.
</event>
<event>
 7    1  0.5696597E-006  0.1018403E+04  0.7818608E-02  0.9208523E-01
         -4   -1    0    0    0  501 -0.00000000000E+00  0.00000000000E+00  0.15302107970E+04  0.15302107970E+04  0.00000000000E+00 0. -1.
          2   -1    0    0  501    0  0.00000000000E+00 -0.00000000000E+00 -0.71987442941E+03  0.71987442941E+03  0.00000000000E+00 0. -1.
   -9000010    2    1    2    0  502 -0.73919078249E+02 -0.77735872495E+02  0.34556024980E+03  0.10684391968E+04  0.10053076818E+04 0.  0.
        -13    1    1    2    0    0  0.15839222386E+03  0.44051719788E+02  0.80903891266E+03  0.82557411778E+03  0.10566000000E+00 0.  1.
         13    1    3    3    0    0  0.41204158105E+03  0.91938007703E+02 -0.41799864788E+02  0.42423826045E+03  0.10566000000E+00 0. -1.
          2    1    1    2  502    0 -0.84473145609E+02  0.33684152707E+02 -0.34426279486E+03  0.35607191184E+03  0.00000000000E+00 0. -1.
         -4    1    3    3    0  502 -0.48596065929E+03 -0.16967388020E+03  0.38736011459E+03  0.64420093634E+03  0.00000000000E+00 0. -1.
</event>
<event>
 7    1  0.5696597E-006  0.1071020E+04  0.7818608E-02  0.8925792E-01
          2   -1    0    0  502    0  0.00000000000E+00  0.00000000000E+00  0.16944474877E+04  0.16944474877E+04  0.00000000000E+00 0. -1.
          4   -1    0    0  501    0 -0.00000000000E+00 -0.00000000000E+00 -0.12724925387E+04  0.12724925387E+04  0.00000000000E+00 0.  1.
    9000010    2    1    2  502    0 -0.30875582484E+03  0.23582691723E+03 -0.28242971543E+03  0.10913199176E+04  0.97993271412E+03 0.  0.
        -13    1    3    3    0    0  0.53564658818E+02 -0.33567030764E+03  0.39070546909E+02  0.34215529648E+03  0.10566000000E+00 0.  1.
         13    1    1    2    0    0  0.31963171322E+03 -0.30476546727E+03 -0.50119952111E+03  0.66801750969E+03  0.10566000000E+00 0. -1.
          2    1    1    2  501    0 -0.10875888374E+02  0.68938550042E+02  0.12055841856E+04  0.12076025990E+04  0.00000000000E+00 0. -1.
          4    1    3    3  502    0 -0.36232048366E+03  0.57149722487E+03 -0.32150026234E+03  0.74916462116E+03  0.00000000000E+00 0.  1.
</event>
<event>
 7    1  0.5696597E-006  0.1056870E+04  0.7818608E-02  0.8911877E-01
          4   -1    0    0  501    0 -0.00000000000E+00  0.00000000000E+00  0.69914682626E+03  0.69914682626E+03  0.00000000000E+00 0.  1.
          2   -1    0    0  502    0  0.00000000000E+00 -0.00000000000E+00 -0.22750475706E+04  0.22750475706E+04  0.00000000000E+00 0. -1.
    9000010    2    1    2  502    0  0.42917688100E+02 -0.46401351197E+03 -0.50566052169E+03  0.11674285063E+04  0.94342264490E+03 0.  0.
        -13    1    3    3    0    0 -0.40487445914E+02 -0.68661248761E+02  0.27612566011E+03  0.28740040309E+03  0.10566000000E+00 0.  1.
         13    1    1    2    0    0 -0.10978988605E+03  0.46626603535E+03  0.21124954509E+03  0.52353053040E+03  0.10566000000E+00 0. -1.
          2    1    1    2  501    0  0.66872197947E+02 -0.22525233756E+01 -0.12814897677E+04  0.12832353601E+04  0.00000000000E+00 0. -1.
          4    1    3    3  502    0  0.83405134014E+02 -0.39535226321E+03 -0.78178618181E+03  0.88002810323E+03  0.00000000000E+00 0.  1.
</event>
<event>
 7    1  0.5696597E-006  0.1027346E+04  0.7818608E-02  0.9071199E-01
          2   -1    0    0  502    0  0.00000000000E+00  0.00000000000E+00  0.12490395984E+04  0.12490395984E+04  0.00000000000E+00 0. -1.
          4   -1    0    0  501    0 -0.00000000000E+00 -0.00000000000E+00 -0.11403822960E+04  0.11403822960E+04  0.00000000000E+00 0.  1.
    9000010    2    1    2  502    0  0.53537946031E+02  0.25489427602E+03 -0.36544517671E+03  0.10876258076E+04  0.99072817496E+03 0.  0.
        -13    1    3    3    0    0  0.47557858802E+03  0.35147435150E+03 -0.21768386952E+03  0.63015513277E+03  0.10566000000E+00 0.  1.
         13    1    1    2    0    0 -0.11235829542E+02 -0.27344082188E+03 -0.36790065298E+03  0.45852702054E+03  0.10566000000E+00 0. -1.
          2    1    1    2  501    0 -0.42302116489E+02  0.18546545855E+02  0.84200313212E+03  0.84326906615E+03  0.00000000000E+00 0. -1.
          4    1    3    3  502    0 -0.42204064199E+03 -0.96580075477E+02 -0.14776130719E+03  0.45747067488E+03  0.00000000000E+00 0.  1.
</event>
<event>
 7    1  0.5696597E-006  0.1053929E+04  0.7818608E-02  0.9034088E-01
          2   -1    0    0  501    0  0.00000000000E+00  0.00000000000E+00  0.11956016325E+04  0.11956016325E+04  0.00000000000E+00 0. -1.
         -4   -1    0    0    0  501 -0.00000000000E+00 -0.00000000000E+00 -0.10249623908E+04  0.10249623908E+04  0.00000000000E+00 0. -1.
   -9000010    2    1    2    0  502  0.19538392803E+03  0.22288599599E+03 -0.68698442656E+03  0.12590730886E+04  0.10126521582E+04 0.  0.
        -13    1    1    2    0    0 -0.18771504553E+03 -0.21589188133E+03  0.34251011368E+03  0.44627282225E+03  0.10566000000E+00 0.  1.
         13    1    3    3    0    0  0.25837394093E+03 -0.11834888098E+03  0.17231969954E+03  0.33235168270E+03  0.10566000000E+00 0. -1.
          2    1    1    2  502    0 -0.76688825024E+01 -0.69941146606E+01  0.51511355453E+03  0.51521811251E+03  0.00000000000E+00 0. -1.
         -4    1    3    3    0  502 -0.62990012892E+02  0.34123487697E+03 -0.85930412610E+03  0.92672140588E+03  0.00000000000E+00 0. -1.
</event>
<event>
 7    1  0.5696597E-006  0.1025360E+04  0.7818608E-02  0.9082239E-01
          4   -1    0    0  501    0 -0.00000000000E+00  0.00000000000E+00  0.45971869254E+03  0.45971869254E+03  0.00000000000E+00 0.  1.
          2   -1    0    0  502    0  0.00000000000E+00 -0.00000000000E+00 -0.23162049745E+04  0.23162049745E+04  0.00000000000E+00 0.  1.
    9000010    2    1    2  502    0  0.29658368043E+02  0.22915871421E+03 -0.11949551872E+04  0.15697774594E+04  0.99140810836E+03 0.  0.
        -13    1    3    3    0    0 -0.30026228345E+03  0.35807959737E+03 -0.19041350644E+03  0.50461445828E+03  0.10566000000E+00 0.  1.
         13    1    1    2    0    0 -0.10304012111E+03 -0.24249242371E+03  0.20659919804E+03  0.33481798325E+03  0.10566000000E+00 0. -1.
          2    1    1    2  501    0  0.73381753070E+02  0.13333709495E+02 -0.86813029277E+03  0.87132822445E+03  0.00000000000E+00 0.  1.
          4    1    3    3  502    0  0.32992065149E+03 -0.12892088316E+03 -0.10045416808E+04  0.10651630011E+04  0.00000000000E+00 0.  1.
</event>
<event>
 7    1  0.5696597E-006  0.1040043E+04  0.7818608E-02  0.9000036E-01
          2   -1    0    0  502    0  0.00000000000E+00  0.00000000000E+00  0.33783833042E+03  0.33783833042E+03  0.00000000000E+00 0. -1.
          4   -1    0    0  501    0 -0.00000000000E+00 -0.00000000000E+00 -0.16710947921E+04  0.16710947921E+04  0.00000000000E+00 0.  1.
    9000010    2    1    2  502    0 -0.34075776780E+03  0.67620779297E+02 -0.86010931015E+03  0.13493042434E+04  0.97987013926E+03 0.  0.
        -13    1    3    3    0    0 -0.28706729409E+03 -0.37373700533E+03 -0.75890209895E+03  0.89331930879E+03  0.10566000000E+00 0.  1.
         13    1    1    2    0    0  0.34439604749E+03 -0.56114911656E+02 -0.51163347179E+03  0.61929503587E+03  0.10566000000E+00 0. -1.
          2    1    1    2  501    0 -0.36382796905E+01 -0.11505867641E+02  0.38486320211E+02  0.40333843267E+02  0.00000000000E+00 0. -1.
          4    1    3    3  502    0 -0.53690473714E+02  0.44135778463E+03 -0.10120721119E+03  0.45598493464E+03  0.00000000000E+00 0.  1.
</event>
<event>
 7    1  0.5696597E-006  0.1051702E+04  0.7818608E-02  0.9008823E-01
          1   -1    0    0  501    0  0.00000000000E+00  0.00000000000E+00  0.65421292268E+03  0.65421292268E+03  0.00000000000E+00 0.  1.
         -4   -1    0    0    0  501 -0.00000000000E+00 -0.00000000000E+00 -0.20553512742E+04  0.20553512742E+04  0.00000000000E+00 0. -1.
   -9000010    2    1    2    0  502 -0.20215297249E+03  0.25810963377E+03 -0.16246126413E+04  0.19357286563E+04  0.10000963899E+04 0.  0.
        -13    1    1    2    0    0  0.18885415123E+03 -0.26327117723E+03 -0.17963916039E+03  0.37046975896E+03  0.10566000000E+00 0.  1.
         13    1    3    3    0    0 -0.55392854923E+03  0.26399364513E+02 -0.54797800383E+03  0.77962405552E+03  0.10566000000E+00 0. -1.
          1    1    1    2  502    0  0.13298821257E+02  0.51615434640E+01  0.40311345012E+03  0.40336578170E+03  0.00000000000E+00 0.  1.
         -4    1    3    3    0  502  0.35177557674E+03  0.23171026926E+03 -0.10766346375E+04  0.11561046007E+04  0.00000000000E+00 0. -1.
</event>
<event>
 7    1  0.5696597E-006  0.9895852E+03  0.7818608E-02  0.9403712E-01
          2   -1    0    0  501    0  0.00000000000E+00  0.00000000000E+00  0.20618718703E+04  0.20618718703E+04  0.00000000000E+00 0. -1.
         -4   -1    0    0    0  501 -0.00000000000E+00 -0.00000000000E+00 -0.28224463935E+03  0.28224463935E+03  0.00000000000E+00 0. -1.
   -9000010    2    1    2    0  502  0.94065289526E+02 -0.38070638827E+02  0.93270591315E+03  0.13610048216E+04  0.98594936571E+03 0.  0.
        -13    1    1    2    0    0 -0.71960613611E+02  0.44102507974E+02 -0.41738417542E+02  0.94156613065E+02  0.10566000000E+00 0.  1.
         13    1    3    3    0    0  0.48139838662E+03 -0.12242883394E+03  0.80243637656E+03  0.94373586115E+03  0.10566000000E+00 0. -1.
          2    1    1    2  502    0 -0.22104675914E+02 -0.60318691461E+01  0.88865973530E+03  0.88895507495E+03  0.00000000000E+00 0. -1.
         -4    1    3    3    0  502 -0.38733309710E+03  0.84358195116E+02  0.13026953659E+03  0.41726896045E+03  0.00000000000E+00 0. -1.
</event>
<event>
 7    1  0.5696597E-006  0.1042437E+04  0.7818608E-02  0.9076408E-01
          1   -1    0    0  501    0  0.00000000000E+00  0.00000000000E+00  0.88484716833E+03  0.88484716833E+03  0.00000000000E+00 0. -1.
         -4   -1    0    0    0  501 -0.00000000000E+00 -0.00000000000E+00 -0.92312947348E+03  0.92312947348E+03  0.00000000000E+00 0. -1.
   -9000010    2    1    2    0  502 -0.32875114544E+02  0.19338398913E+03 -0.48849966265E+02  0.10308169923E+04  0.10108012723E+04 0.  0.
        -13    1    1    2    0    0  0.76814271143E+01 -0.26025079254E+03 -0.33500027142E+03  0.42428135990E+03  0.10566000000E+00 0.  1.
         13    1    3    3    0    0  0.39938485138E+03  0.25079566671E+03 -0.26837978388E+03  0.54261813969E+03  0.10566000000E+00 0. -1.
          1    1    1    2  502    0  0.25193687430E+02  0.66866803411E+02  0.34556793254E+03  0.35287828962E+03  0.00000000000E+00 0. -1.
         -4    1    3    3    0  502 -0.43225996593E+03 -0.57411677584E+02  0.21952981762E+03  0.48819885261E+03  0.00000000000E+00 0. -1.
</event>
<event>
 7    1  0.5696597E-006  0.1041038E+04  0.7818608E-02  0.9038436E-01
         -4   -1    0    0    0  501 -0.00000000000E+00  0.00000000000E+00  0.27434128370E+04  0.27434128370E+04  0.00000000000E+00 0. -1.
          2   -1    0    0  501    0  0.00000000000E+00 -0.00000000000E+00 -0.86503329373E+03  0.86503329373E+03  0.00000000000E+00 0. -1.
   -9000010    2    1    2    0  502  0.20434665197E+03  0.20529354955E+03  0.65098395887E+03  0.12258688887E+04  0.99753266709E+03 0.  0.
        -13    1    1    2    0    0 -0.20028422450E+03 -0.22088703070E+03  0.17925570066E+04  0.18171861446E+04  0.10566000000E+00 0.  1.
         13    1    3    3    0    0 -0.16843288899E+03  0.52100490626E+03  0.30004641452E+03  0.62437457705E+03  0.10566000000E+00 0. -1.
          2    1    1    2  502    0 -0.40624274752E+01  0.15593481148E+02 -0.56516142219E+03  0.56539109747E+03  0.00000000000E+00 0. -1.
         -4    1    3    3    0  502  0.37277954096E+03 -0.31571135671E+03  0.35093754434E+03  0.60149431165E+03  0.00000000000E+00 0. -1.
</event>
<event>
 7    1  0.5696597E-006  0.1070217E+04  0.7818608E-02  0.8956354E-01
          2   -1    0    0  501    0  0.00000000000E+00  0.00000000000E+00  0.17911937336E+04  0.17911937336E+04  0.00000000000E+00 0. -1.
         -4   -1    0    0    0  501 -0.00000000000E+00 -0.00000000000E+00 -0.34643229183E+04  0.34643229183E+04  0.00000000000E+00 0. -1.
   -9000010    2    1    2    0  502 -0.20863858919E+03  0.24597004702E+03 -0.23977272294E+04  0.26177170632E+04  0.99965765699E+03 0.  0.
        -13    1    1    2    0    0  0.11319436803E+03 -0.40028817651E+03 -0.90610612276E+03  0.99703154718E+03  0.10566000000E+00 0.  1.
         13    1    3    3    0    0  0.29315344292E+03  0.21486385311E+03 -0.33395825948E+03  0.49359249053E+03  0.10566000000E+00 0. -1.
          2    1    1    2  502    0  0.95444221162E+02  0.15431812949E+03  0.16307041675E+04  0.16407680416E+04  0.00000000000E+00 0. -1.
         -4    1    3    3    0  502 -0.50179203211E+03  0.31106193908E+02 -0.20637689700E+04  0.21241245727E+04  0.00000000000E+00 0. -1.
</event>
<event>
 7    1  0.5696597E-006  0.1006858E+04  0.7818608E-02  0.9291202E-01
         -4   -1    0    0    0  501 -0.00000000000E+00  0.00000000000E+00  0.19096937225E+04  0.19096937225E+04  0.00000000000E+00 0. -1.
          2   -1    0    0  501    0  0.00000000000E+00 -0.00000000000E+00 -0.48555904274E+03  0.48555904274E+03  0.00000000000E+00 0. -1.
   -9000010    2    1    2    0  502  0.10974002738E+03  0.68666018236E+02  0.15254305428E+04  0.18282235327E+04  0.99935231476E+03 0.  0.
        -13    1    1    2    0    0 -0.97512437303E+02 -0.73389587241E+02  0.21673178735E+03  0.24873155360E+03  0.10566000000E+00 0.  1.
         13    1    3    3    0    0 -0.36734716263E+03 -0.15731735739E+03  0.31891521851E+03  0.51127254629E+03  0.10566000000E+00 0. -1.
          2    1    1    2  502    0 -0.12227590080E+02  0.47235690047E+01 -0.31802765034E+03  0.31829767898E+03  0.00000000000E+00 0. -1.
         -4    1    3    3    0  502  0.47708719001E+03  0.22598337563E+03  0.12065153243E+04  0.13169509864E+04  0.00000000000E+00 0. -1.
</event>
<event>
 7    1  0.5696597E-006  0.1060775E+04  0.7818608E-02  0.8974976E-01
          4   -1    0    0  501    0 -0.00000000000E+00  0.00000000000E+00  0.28545940844E+04  0.28545940844E+04  0.00000000000E+00 0.  1.
          2   -1    0    0  502    0  0.00000000000E+00 -0.00000000000E+00 -0.15856047858E+04  0.15856047858E+04  0.00000000000E+00 0.  1.
    9000010    2    1    2  502    0  0.16688979417E+03 -0.31499108982E+03  0.19976887669E+04  0.22606983247E+04  0.99645617868E+03 0.  0.
        -13    1    3    3    0    0 -0.16162894574E+03 -0.30500830169E+03  0.13728487084E+03  0.37148502948E+03  0.10566000000E+00 0.  1.
         13    1    1    2    0    0  0.13201822222E+02  0.37983740318E+03  0.66864111472E+03  0.76911097536E+03  0.10566000000E+00 0. -1.
          2    1    1    2  501    0 -0.18009161639E+03 -0.64846313361E+02 -0.13973405830E+04  0.14103895702E+04  0.00000000000E+00 0.  1.
          4    1    3    3  502    0  0.32851873991E+03 -0.99827881296E+01  0.18604038961E+04  0.18892132953E+04  0.00000000000E+00 0.  1.
</event>
<event>
 7    1  0.5696597E-006  0.1212439E+04  0.7818608E-02  0.8718343E-01
          2   -1    0    0  501    0  0.00000000000E+00  0.00000000000E+00  0.14279837122E+04  0.14279837122E+04  0.00000000000E+00 0.  1.
         -4   -1    0    0    0  501 -0.00000000000E+00 -0.00000000000E+00 -0.12965706944E+04  0.12965706944E+04  0.00000000000E+00 0. -1.
   -9000010    2    1    2    0  502  0.71286620591E+03  0.16446881097E+03 -0.30319856916E+02  0.12232890330E+04  0.97994313464E+03 0.  0.
        -13    1    1    2    0    0 -0.69541544667E+03 -0.13554772029E+03 -0.48182955783E+03  0.85681711112E+03  0.10566000000E+00 0.  1.
         13    1    3    3    0    0  0.44318033023E+03 -0.31189568884E+03 -0.29305975932E+03  0.61609395349E+03  0.10566000000E+00 0. -1.
          2    1    1    2  502    0 -0.17450759240E+02 -0.28921090671E+02  0.64356243259E+03  0.64444826256E+03  0.00000000000E+00 0.  1.
         -4    1    3    3    0  502  0.26968587567E+03  0.47636449981E+03  0.26273990240E+03  0.60719507947E+03  0.00000000000E+00 0. -1.
</event>
<event>
 7    1  0.5696597E-006  0.1019765E+04  0.7818608E-02  0.9115962E-01
          2   -1    0    0  501    0  0.00000000000E+00  0.00000000000E+00  0.84702486967E+03  0.84702486967E+03  0.00000000000E+00 0. -1.
         -4   -1    0    0    0  501 -0.00000000000E+00 -0.00000000000E+00 -0.81313328104E+03  0.81313328104E+03  0.00000000000E+00 0. -1.
   -9000010    2    1    2    0  502 -0.23209643986E+03  0.16019852958E+02 -0.34601459787E+03  0.10768455375E+04  0.99284682429E+03 0.  0.
        -13    1    1    2    0    0  0.23124624843E+03 -0.27477922342E+02  0.31820156900E+02  0.23503701236E+03  0.10566000000E+00 0.  1.
         13    1    3    3    0    0 -0.15365044245E+03 -0.47742694847E+03 -0.27556592608E+03  0.57226002864E+03  0.10566000000E+00 0. -1.
          2    1    1    2  502    0  0.85019142388E+00  0.11458069384E+02  0.34808602959E+03  0.34827560089E+03  0.00000000000E+00 0. -1.
         -4    1    3    3    0  502 -0.78445997405E+02  0.49344680143E+03 -0.70448671782E+02  0.50458550881E+03  0.00000000000E+00 0. -1.
</event>
<event>
 7    1  0.5696597E-006  0.9830728E+03  0.7818608E-02  0.9224391E-01
          2   -1    0    0  502    0  0.00000000000E+00  0.00000000000E+00  0.14369280577E+04  0.14369280577E+04  0.00000000000E+00 0.  1.
          4   -1    0    0  501    0 -0.00000000000E+00 -0.00000000000E+00 -0.89068248986E+03  0.89068248986E+03  0.00000000000E+00 0.  1.
    9000010    2    1    2  502    0 -0.15195592349E+03 -0.46433849071E+02 -0.48043237254E+03  0.10924819635E+04  0.96822253170E+03 0.  0.
        -13    1    3    3    0    0 -0.48812876849E+03  0.23041713737E+03 -0.20613872405E+03  0.57780181424E+03  0.10566000000E+00 0.  1.
         13    1    1    2    0    0  0.16226751718E+03  0.59796736077E+02 -0.32376773343E+02  0.17593937420E+03  0.10566000000E+00 0. -1.
          2    1    1    2  501    0 -0.10311593686E+02 -0.13362887006E+02  0.10590547138E+04  0.10591892099E+04  0.00000000000E+00 0.  1.
          4    1    3    3  502    0  0.33617284500E+03 -0.27685098644E+03 -0.27429364849E+03  0.51468014923E+03  0.00000000000E+00 0.  1.
</event>
<event>
 7    1  0.5696597E-006  0.1039577E+04  0.7818608E-02  0.8997066E-01
          1   -1    0    0  501    0  0.00000000000E+00  0.00000000000E+00  0.28323128001E+04  0.28323128001E+04  0.00000000000E+00 0. -1.
         -4   -1    0    0    0  501 -0.00000000000E+00 -0.00000000000E+00 -0.56626653424E+03  0.56626653424E+03  0.00000000000E+00 0. -1.
   -9000010    2    1    2    0  502  0.14381546888E+03 -0.27183205879E+03  0.19538307210E+04  0.22063350042E+04  0.97769325823E+03 0.  0.
        -13    1    1    2    0    0 -0.20653270524E+03  0.28873215439E+03 -0.36660988155E+03  0.51031836311E+03  0.10566000000E+00 0.  1.
         13    1    3    3    0    0 -0.41043841737E+03 -0.21139579981E+03  0.77037167354E+03  0.89812048478E+03  0.10566000000E+00 0. -1.
          1    1    1    2  502    0  0.62717236361E+02 -0.16900095603E+02  0.67882542636E+03  0.68192596698E+03  0.00000000000E+00 0. -1.
         -4    1    3    3    0  502  0.55425388624E+03 -0.60436258977E+02  0.11834590475E+04  0.13082145194E+04  0.00000000000E+00 0. -1.
</event>
<event>
 7    1  0.5696597E-006  0.1050525E+04  0.7818608E-02  0.8986093E-01
          4   -1    0    0  502    0  0.00000000000E+00  0.00000000000E+00  0.80981904329E+03  0.80981904329E+03  0.00000000000E+00 0.  1.
          4   -1    0    0  501    0 -0.00000000000E+00 -0.00000000000E+00 -0.11034689869E+04  0.11034689869E+04  0.00000000000E+00 0.  1.
    9000010    2    1    2  502    0  0.32763781403E+03 -0.85558083404E+02 -0.12615277531E+03  0.10516865365E+04  0.98765546905E+03 0.  0.
        -13    1    3    3    0    0 -0.65579403377E+02 -0.36660152929E+03 -0.35714814912E+03  0.51599627035E+03  0.10566000000E+00 0.  1.
         13    1    1    2    0    0 -0.36190569194E+03  0.33697209841E+01 -0.44301163363E+03  0.57205454598E+03  0.10566000000E+00 0. -1.
          4    1    1    2  501    0  0.34267877912E+02  0.82188362420E+02  0.27551446529E+03  0.28954694776E+03  0.00000000000E+00 0.  1.
          4    1    3    3  502    0  0.39321721740E+03  0.28104344589E+03  0.23099537381E+03  0.53569026616E+03  0.00000000000E+00 0.  1.
</event>
<event>
 7    1  0.5696597E-006  0.1068280E+04  0.7818608E-02  0.8991791E-01
          2   -1    0    0  502    0  0.00000000000E+00  0.00000000000E+00  0.79629320701E+03  0.79629320701E+03  0.00000000000E+00 0.  1.
          4   -1    0    0  501    0 -0.00000000000E+00 -0.00000000000E+00 -0.17751576479E+04  0.17751576479E+04  0.00000000000E+00 0.  1.
    9000010    2    1    2  502    0 -0.42021352966E+02  0.15344636048E+03  0.12573029391E+03  0.10352281390E+04  0.10151736863E+04 0.  0.
        -13    1    3    3    0    0  0.34940851060E+03 -0.18780440294E+03 -0.17672927849E+03  0.43426955924E+03  0.10566000000E+00 0.  1.
         13    1    1    2    0    0 -0.12908499816E+03 -0.31550621557E+03 -0.12250199185E+04  0.12715663257E+04  0.10566000000E+00 0. -1.
          2    1    1    2  501    0  0.17110635112E+03  0.16205985509E+03  0.12042518368E+03  0.26465639023E+03  0.00000000000E+00 0.  1.
          4    1    3    3  502    0 -0.39142986357E+03  0.34125076341E+03  0.30245957240E+03  0.60095857974E+03  0.00000000000E+00 0.  1.
</event>
<event>
 7    1  0.5696597E-006  0.9468840E+03  0.7818608E-02  0.9119659E-01
          4   -1    0    0  501    0 -0.00000000000E+00  0.00000000000E+00  0.19480808468E+04  0.19480808468E+04  0.00000000000E+00 0.  1.
          2   -1    0    0  502    0  0.00000000000E+00 -0.00000000000E+00 -0.17096852037E+04  0.17096852037E+04  0.00000000000E+00 0.  1.
    9000010    2    1    2  502    0 -0.18416663037E+03 -0.20198965369E+03  0.18660032924E+03  0.96126075464E+03  0.90248844181E+03 0.  0.
        -13    1    3    3    0    0  0.21652852830E+03  0.18667992597E+03 -0.13592256593E+03  0.31655797798E+03  0.10566000000E+00 0.  1.
         13    1    1    2    0    0  0.20578117116E+03  0.20015378660E+03  0.13590669049E+04  0.13890537398E+04  0.10566000000E+00 0. -1.
          2    1    1    2  501    0 -0.21614540791E+02  0.18358670896E+01 -0.13072715911E+04  0.13074515561E+04  0.00000000000E+00 0.  1.
          4    1    3    3  502    0 -0.40069515867E+03 -0.38866957966E+03  0.32252289517E+03  0.64470277667E+03  0.00000000000E+00 0.  1.
</event>
<event>
 7    1  0.5696597E-006  0.1014622E+04  0.7818608E-02  0.9296222E-01
          2   -1    0    0  502    0  0.00000000000E+00  0.00000000000E+00  0.14556494619E+04  0.14556494619E+04  0.00000000000E+00 0.  1.
          4   -1    0    0  501    0 -0.00000000000E+00 -0.00000000000E+00 -0.15675917175E+04  0.15675917175E+04  0.00000000000E+00 0.  1.
    9000010    2    1    2  502    0 -0.23204109987E+03  0.79548669652E+02 -0.11253225838E+04  0.15264246793E+04  0.10017236749E+04 0.  0.
        -13    1    3    3    0    0 -0.41688531938E+03  0.17688122137E+02 -0.34900052975E+02  0.41871740355E+03  0.10566000000E+00 0.  1.
         13    1    1    2    0    0  0.71614490153E+02 -0.93346091699E+02 -0.22186009045E+03  0.25112554416E+03  0.10566000000E+00 0. -1.
          2    1    1    2  501    0  0.16042660972E+03  0.13797422047E+02  0.12352404186E+04  0.12456909560E+04  0.00000000000E+00 0.  1.
          4    1    3    3  502    0  0.18484421951E+03  0.61860547514E+02 -0.10904225309E+04  0.11077072757E+04  0.00000000000E+00 0.  1.
</event>
<event>
 7    1  0.5696597E-006  0.1039883E+04  0.7818608E-02  0.9021474E-01
          4   -1    0    0  501    0 -0.00000000000E+00  0.00000000000E+00  0.65046224327E+03  0.65046224327E+03  0.00000000000E+00 0.  1.
          2   -1    0    0  502    0  0.00000000000E+00 -0.00000000000E+00 -0.23332775056E+04  0.23332775056E+04  0.00000000000E+00 0.  1.
    9000010    2    1    2  502    0 -0.31401403979E+03 -0.43560732271E+02 -0.97846791405E+03  0.14272128526E+04  0.98946183016E+03 0.  0.
        -13    1    3    3    0    0  0.19389425708E+03 -0.58246849974E+02 -0.88839391685E+03  0.91117036887E+03  0.10566000000E+00 0.  1.
         13    1    1    2    0    0  0.31903444386E+03  0.25431398097E+02  0.36589677010E+03  0.48611746514E+03  0.10566000000E+00 0. -1.
          2    1    1    2  501    0 -0.50204040688E+01  0.18129334174E+02 -0.10702441184E+04  0.10704094311E+04  0.00000000000E+00 0.  1.
          4    1    3    3  502    0 -0.50790829687E+03  0.14686117703E+02 -0.90073997205E+02  0.51604248377E+03  0.00000000000E+00 0.  1.
</event>
<event>
 7    1  0.5696597E-006  0.1015516E+04  0.7818608E-02  0.9461559E-01
         -4   -1    0    0    0  501 -0.00000000000E+00  0.00000000000E+00  0.24057262026E+04  0.24057262026E+04  0.00000000000E+00 0. -1.
          1   -1    0    0  501    0  0.00000000000E+00 -0.00000000000E+00 -0.14836970616E+03  0.14836970616E+03  0.00000000000E+00 0. -1.
   -9000010    2    1    2    0  502 -0.39809949444E+02 -0.56513970109E+02  0.19756140814E+04  0.22205083054E+04  0.10113493337E+04 0.  0.
        -13    1    1    2    0    0 -0.51918294256E+02  0.36334322030E+02  0.19751200255E+03  0.20742876983E+03  0.10566000000E+00 0.  1.
         13    1    3    3    0    0 -0.33600107444E+03 -0.41799594703E+03  0.12101511307E+04  0.13236627607E+04  0.10566000000E+00 0. -1.
          1    1    1    2  502    0  0.91728243700E+02  0.20179648079E+02  0.84230412515E+02  0.12615883354E+03  0.00000000000E+00 0. -1.
         -4    1    3    3    0  502  0.29619112499E+03  0.36148197692E+03  0.76546295069E+03  0.89684554470E+03  0.00000000000E+00 0. -1.
</event>
<event>
 7    1  0.5696597E-006  0.1013059E+04  0.7818608E-02  0.9353731E-01
          2   -1    0    0  501    0  0.00000000000E+00  0.00000000000E+00  0.10923004598E+04  0.10923004598E+04  0.00000000000E+00 0. -1.
         -4   -1    0    0    0  501 -0.00000000000E+00 -0.00000000000E+00 -0.11849638068E+04  0.11849638068E+04  0.00000000000E+00 0. -1.
   -9000010    2    1    2    0  502 -0.28634939522E+02 -0.77680165601E+02 -0.68660579608E+03  0.12229119750E+04  0.10085792044E+04 0.  0.
        -13    1    1    2    0    0  0.37342803412E+02  0.88032824215E+02 -0.22021572545E+03  0.24008173609E+03  0.10566000000E+00 0.  1.
         13    1    3    3    0    0 -0.36895942464E+03 -0.34056646977E+03 -0.12840323984E+03  0.51827018102E+03  0.10566000000E+00 0. -1.
          2    1    1    2  502    0 -0.87078638893E+01 -0.10352658614E+02  0.81415817449E+03  0.81427055548E+03  0.00000000000E+00 0. -1.
         -4    1    3    3    0  502  0.34032448512E+03  0.26288630417E+03 -0.55820255624E+03  0.70464179403E+03  0.00000000000E+00 0. -1.
</event>
<event>
 7    1  0.5696597E-006  0.1036203E+04  0.7818608E-02  0.9011678E-01
          2   -1    0    0  502    0  0.00000000000E+00  0.00000000000E+00  0.21703416162E+04  0.21703416162E+04  0.00000000000E+00 0.  1.
          4   -1    0    0  501    0 -0.00000000000E+00 -0.00000000000E+00 -0.53831966421E+03  0.53831966421E+03  0.00000000000E+00 0.  1.
    9000010    2    1    2  502    0 -0.28026665820E+03  0.23122679371E+03  0.31949520604E+03  0.10930223365E+04  0.98010479617E+03 0.  0.
        -13    1    3    3    0    0 -0.35855184422E+03  0.55576829466E+03  0.48747115912E+02  0.66318482704E+03  0.10566000000E+00 0.  1.
         13    1    1    2    0    0  0.10795892830E+03 -0.32332169506E+03  0.57730640825E+02  0.34572371447E+03  0.10566000000E+00 0. -1.
          2    1    1    2  501    0  0.17230772990E+03  0.92094901348E+02  0.12547961052E+04  0.12699152295E+04  0.00000000000E+00 0.  1.
          4    1    3    3  502    0  0.78285186019E+02 -0.32454150095E+03  0.27074809012E+03  0.42983750941E+03  0.00000000000E+00 0.  1.
</event>
<event>
 7    1  0.5696597E-006  0.1125006E+04  0.7818608E-02  0.8858251E-01
          4   -1    0    0  501    0  0.00000000000E+00  0.00000000000E+00  0.37835901585E+04  0.37835901585E+04  0.00000000000E+00 0.  1.
          4   -1    0    0  502    0 -0.00000000000E+00 -0.00000000000E+00 -0.38725743299E+03  0.38725743299E+03  0.00000000000E+00 0.  1.
    9000010    2    1    2  501    0 -0.49725408429E+03  0.77293215046E+02  0.81202826390E+03  0.13909450041E+04  0.10109907209E+04 0.  0.
        -13    1    3    3    0    0 -0.50336876900E+01 -0.30552433084E+03 -0.67369990533E+02  0.31290442875E+03  0.10566000000E+00 0.  1.
         13    1    1    2    0    0  0.46815597796E+03 -0.14438700889E+03  0.52048670821E+03  0.71478951631E+03  0.10566000000E+00 0. -1.
          4    1    3    3  501    0 -0.49222039660E+03  0.38281754588E+03  0.87939825443E+03  0.10780405754E+04  0.00000000000E+00 0.  1.
          4    1    1    2  502    0  0.29098106329E+02  0.67093793840E+02  0.20638177534E+04  0.20651130711E+04  0.00000000000E+00 0.  1.
</event>
<event>
 7    1  0.5696597E-006  0.9955804E+03  0.7818608E-02  0.9352682E-01
          4   -1    0    0  501    0 -0.00000000000E+00  0.00000000000E+00  0.90489555334E+03  0.90489555334E+03  0.00000000000E+00 0.  1.
          2   -1    0    0  502    0  0.00000000000E+00 -0.00000000000E+00 -0.18313900363E+04  0.18313900363E+04  0.00000000000E+00 0.  1.
    9000010    2    1    2  502    0  0.12332913119E+03 -0.11306334073E+03  0.49586807050E+03  0.11202349948E+04  0.99047862507E+03 0.  0.
        -13    1    3    3    0    0  0.22683812547E+03  0.22617772134E+03 -0.17232595163E+03  0.36374186117E+03  0.10566000000E+00 0.  1.
         13    1    1    2    0    0 -0.64661388022E+02  0.70436873026E+02  0.72147618600E+02  0.11978204463E+03  0.10566000000E+00 0. -1.
          2    1    1    2  501    0 -0.58667743167E+02  0.42626467704E+02 -0.14945101721E+04  0.14962685502E+04  0.00000000000E+00 0.  1.
          4    1    3    3  502    0 -0.10350899428E+03 -0.33924106207E+03  0.66819402213E+03  0.75649313368E+03  0.00000000000E+00 0.  1.
</event>
<event>
 7    1  0.5696597E-006  0.1108504E+04  0.7818608E-02  0.8963259E-01
          2   -1    0    0  501    0  0.00000000000E+00  0.00000000000E+00  0.58696019542E+03  0.58696019542E+03  0.00000000000E+00 0. -1.
         -4   -1    0    0    0  501 -0.00000000000E+00 -0.00000000000E+00 -0.14203354431E+04  0.14203354431E+04  0.00000000000E+00 0. -1.
   -9000010    2    1    2    0  502  0.12380494426E+03  0.15136581074E+03 -0.50353530329E+03  0.11869186474E+04  0.10568769091E+04 0.  0.
        -13    1    1    2    0    0  0.10886692280E+03 -0.38416142556E+03 -0.27954979073E+03  0.48742189572E+03  0.10566000000E+00 0.  1.
         13    1    3    3    0    0  0.46505957565E+03 -0.86414443374E+02 -0.59594222327E+03  0.76085150296E+03  0.10566000000E+00 0. -1.
          2    1    1    2  502    0 -0.23267186706E+03  0.23279561481E+03 -0.50290153614E+02  0.33295509539E+03  0.00000000000E+00 0. -1.
         -4    1    3    3    0  502 -0.34125463139E+03  0.23778025412E+03  0.92406919972E+02  0.42606714442E+03  0.00000000000E+00 0. -1.
</event>
<event>
 7    1  0.5696597E-006  0.1021041E+04  0.7818608E-02  0.9145801E-01
         -4   -1    0    0    0  501 -0.00000000000E+00  0.00000000000E+00  0.42360657879E+04  0.42360657879E+04  0.00000000000E+00 0. -1.
          1   -1    0    0  501    0  0.00000000000E+00 -0.00000000000E+00 -0.16502677637E+03  0.16502677637E+03  0.00000000000E+00 0. -1.
   -9000010    2    1    2    0  502 -0.87854018169E+02  0.17035677353E+03  0.34764383300E+04  0.36224803894E+04  0.10000004752E+04 0.  0.
        -13    1    1    2    0    0  0.90608405724E+02 -0.18879281122E+03  0.66946981962E+03  0.70145738239E+03  0.10566000000E+00 0.  1.
         13    1    3    3    0    0 -0.39939010270E+03 -0.40396336565E+02  0.60217837897E+03  0.72371481221E+03  0.10566000000E+00 0. -1.
          1    1    1    2  502    0 -0.27543875552E+01  0.18436037686E+02 -0.74869138187E+02  0.77154792393E+02  0.00000000000E+00 0. -1.
         -4    1    3    3    0  502  0.31153608454E+03  0.21075311010E+03  0.28742599511E+04  0.28987655772E+04  0.00000000000E+00 0. -1.
</event>
<event>
 7    1  0.5696597E-006  0.1112825E+04  0.7818608E-02  0.9180343E-01
          2   -1    0    0  501    0  0.00000000000E+00  0.00000000000E+00  0.81522094028E+03  0.81522094028E+03  0.00000000000E+00 0. -1.
         -4   -1    0    0    0  501 -0.00000000000E+00 -0.00000000000E+00 -0.99504898019E+03  0.99504898019E+03  0.00000000000E+00 0. -1.
   -9000010    2    1    2    0  502 -0.50646430629E+03 -0.22938223654E+03 -0.31896042109E+03  0.11989273164E+04  0.10131972443E+04 0.  0.
        -13    1    1    2    0    0  0.79911636529E+02  0.11395296985E+03 -0.22156775711E+02  0.14093290199E+03  0.10566000000E+00 0.  1.
         13    1    3    3    0    0 -0.65035802866E+03  0.20888921247E+03 -0.27203743783E+03  0.73525821809E+03  0.10566000000E+00 0. -1.
          2    1    1    2  502    0  0.42655266977E+03  0.11542926669E+03  0.16128915689E+03  0.47040970209E+03  0.00000000000E+00 0. -1.
         -4    1    3    3    0  502  0.14389372236E+03 -0.43827144901E+03 -0.46922983254E+02  0.46366909829E+03  0.00000000000E+00 0. -1.
</event>
<event>
 7    1  0.5696597E-006  0.1090762E+04  0.7818608E-02  0.8878669E-01
          1   -1    0    0  501    0  0.00000000000E+00  0.00000000000E+00  0.15356337654E+04  0.15356337654E+04  0.00000000000E+00 0. -1.
         -4   -1    0    0    0  501 -0.00000000000E+00 -0.00000000000E+00 -0.17452356615E+04  0.17452356615E+04  0.00000000000E+00 0. -1.
   -9000010    2    1    2    0  502  0.30541734732E+02  0.26250765173E+03 -0.44292648710E+03  0.10993264985E+04  0.97082017522E+03 0.  0.
        -13    1    1    2    0    0  0.33519654785E+03 -0.46996097839E+03 -0.84544862648E+03  0.10237203906E+04  0.10566000000E+00 0.  1.
         13    1    3    3    0    0  0.38230581870E+03  0.44559973363E+03 -0.37587649871E+03  0.69713701313E+03  0.10566000000E+00 0. -1.
          1    1    1    2  502    0 -0.36573828258E+03  0.20745332666E+03  0.10787732175E+04  0.11578225378E+04  0.00000000000E+00 0. -1.
         -4    1    3    3    0  502 -0.35176408397E+03 -0.18309208190E+03 -0.67049988385E+02  0.40218948540E+03  0.00000000000E+00 0. -1.
</event>
<event>
 7    1  0.5696597E-006  0.1120398E+04  0.7818608E-02  0.8839138E-01
         -4   -1    0    0    0  501 -0.00000000000E+00  0.00000000000E+00  0.67159026082E+03  0.67159026082E+03  0.00000000000E+00 0. -1.
          2   -1    0    0  501    0  0.00000000000E+00 -0.00000000000E+00 -0.34652062127E+04  0.34652062127E+04  0.00000000000E+00 0. -1.
   -9000010    2    1    2    0  502 -0.85607841487E+02 -0.19520464459E+03 -0.11748468134E+04  0.15627817926E+04  0.10082600561E+04 0.  0.
        -13    1    1    2    0    0  0.49805327161E+03 -0.21186024802E+03  0.26535356599E+03  0.60278881227E+03  0.10566000000E+00 0.  1.
         13    1    3    3    0    0  0.38430178735E+03 -0.26180881129E+03 -0.26152031428E+03  0.53350220559E+03  0.10566000000E+00 0. -1.
          2    1    1    2  502    0 -0.41244543013E+03  0.40706489261E+03 -0.18841227045E+04  0.19712258686E+04  0.00000000000E+00 0. -1.
         -4    1    3    3    0  502 -0.46990962884E+03  0.66604166698E+02 -0.91332649913E+03  0.10292795870E+04  0.00000000000E+00 0. -1.
</event>
<event>
 7    1  0.5696597E-006  0.1466255E+04  0.7818608E-02  0.8511822E-01
         -4   -1    0    0    0  501 -0.00000000000E+00  0.00000000000E+00  0.30310402630E+04  0.30310402630E+04  0.00000000000E+00 0. -1.
          4   -1    0    0  501    0  0.00000000000E+00 -0.00000000000E+00 -0.21745122560E+04  0.21745122560E+04  0.00000000000E+00 0.  1.
   -9000010    2    1    2    0  502 -0.13406719154E+03 -0.88601367124E+03  0.14589049784E+04  0.20176300979E+04  0.10674423818E+04 0.  0.
        -13    1    1    2    0    0  0.23081086561E+03  0.10729880330E+04  0.10519495682E+04  0.15202548733E+04  0.10566000000E+00 0.  1.
         13    1    3    3    0    0 -0.74940622209E+02 -0.51257313011E+03  0.78044250686E+01  0.51808129746E+03  0.10566000000E+00 0. -1.
          4    1    1    2  502    0 -0.96743674068E+02 -0.18697436172E+03 -0.16543265396E+04  0.16676675478E+04  0.00000000000E+00 0.  1.
         -4    1    3    3    0  502 -0.59126569335E+02 -0.37344054113E+03  0.14511005533E+04  0.14995488004E+04  0.00000000000E+00 0. -1.
</event>
<event>
 7    1  0.5696597E-006  0.1198784E+04  0.7818608E-02  0.8739440E-01
          4   -1    0    0  501    0  0.00000000000E+00  0.00000000000E+00  0.10733990654E+04  0.10733990654E+04  0.00000000000E+00 0.  1.
         -4   -1    0    0    0  501 -0.00000000000E+00 -0.00000000000E+00 -0.21851440452E+04  0.21851440452E+04  0.00000000000E+00 0. -1.
   -9000010    2    1    2    0  502 -0.92952753383E+02  0.67407114653E+03 -0.17336266016E+04  0.21096265725E+04  0.99098484191E+03 0.  0.
        -13    1    1    2    0    0  0.29329204162E+03 -0.61608496256E+03  0.25796117895E+03  0.72946890529E+03  0.10566000000E+00 0.  1.
         13    1    3    3    0    0 -0.24692483142E+03  0.45071889493E+03 -0.19884228526E+03  0.55105141338E+03  0.10566000000E+00 0. -1.
          4    1    1    2  502    0 -0.20033928824E+03 -0.57986183962E+02  0.36392044286E+03  0.41944763282E+03  0.00000000000E+00 0.  1.
         -4    1    3    3    0  502  0.15397207803E+03  0.22335225159E+03 -0.15347843163E+04  0.15585751592E+04  0.00000000000E+00 0. -1.
</event>
<event>
 7    1  0.5696597E-006  0.1300813E+04  0.7818608E-02  0.8634628E-01
          4   -1    0    0  501    0 -0.00000000000E+00  0.00000000000E+00  0.18527734874E+04  0.18527734874E+04  0.00000000000E+00 0.  1.
          2   -1    0    0  502    0  0.00000000000E+00 -0.00000000000E+00 -0.11190203511E+04  0.11190203511E+04  0.00000000000E+00 0.  1.
    9000010    2    1    2  502    0 -0.77997655513E+03 -0.29972564817E+03  0.59873925562E+03  0.14338774902E+04  0.99965847670E+03 0.  0.
        -13    1    3    3    0    0 -0.76343338940E+03 -0.37642901153E+03  0.83048012425E+03  0.11892125919E+04  0.10566000000E+00 0.  1.
         13    1    1    2    0    0  0.80644704915E+03  0.20698543705E+03  0.62339326842E+03  0.10401052795E+04  0.10566000000E+00 0. -1.
          2    1    1    2  501    0 -0.26470494013E+02  0.92740211121E+02 -0.48837938772E+03  0.49781106874E+03  0.00000000000E+00 0.  1.
          4    1    3    3  502    0 -0.16543165736E+02  0.76703363363E+02 -0.23174086863E+03  0.24466489834E+03  0.00000000000E+00 0.  1.
</event>
<event>
 7    1  0.5696597E-006  0.1086393E+04  0.7818608E-02  0.8900353E-01
          2   -1    0    0  502    0  0.00000000000E+00  0.00000000000E+00  0.30634450802E+04  0.30634450802E+04  0.00000000000E+00 0.  1.
          4   -1    0    0  501    0 -0.00000000000E+00 -0.00000000000E+00 -0.29295237182E+04  0.29295237182E+04  0.00000000000E+00 0.  1.
    9000010    2    1    2  502    0  0.47832290653E+03 -0.76102660616E+02 -0.25935937213E+04  0.28160218507E+04  0.98420844073E+03 0.  0.
        -13    1    3    3    0    0  0.49402498840E+03 -0.47655608417E+03 -0.14506381943E+04  0.16048419151E+04  0.10566000000E+00 0.  1.
         13    1    1    2    0    0 -0.39004319409E+03  0.16773422134E+03 -0.21370825169E+02  0.42511784907E+03  0.10566000000E+00 0. -1.
          2    1    1    2  501    0 -0.88279712438E+02 -0.91631560723E+02  0.27488859084E+04  0.27518290986E+04  0.00000000000E+00 0.  1.
          4    1    3    3  502    0 -0.15702081869E+02  0.40045342355E+03 -0.11429555269E+04  0.12111799356E+04  0.00000000000E+00 0.  1.
</event>
<event>
 7    1  0.5696597E-006  0.1064746E+04  0.7818608E-02  0.8977593E-01
         -4   -1    0    0    0  501 -0.00000000000E+00  0.00000000000E+00  0.16225503878E+04  0.16225503878E+04  0.00000000000E+00 0. -1.
          1   -1    0    0  501    0  0.00000000000E+00 -0.00000000000E+00 -0.14008718444E+04  0.14008718444E+04  0.00000000000E+00 0. -1.
   -9000010    2    1    2    0  502  0.30140344983E+03 -0.16874486939E+03  0.12920873512E+04  0.16720745679E+04  0.10035062366E+04 0.  0.
        -13    1    1    2    0    0 -0.32193384470E+03  0.18089991742E+03 -0.10262916798E+03  0.38327397221E+03  0.10566000000E+00 0.  1.
         13    1    3    3    0    0  0.54396756158E+03 -0.42654271491E+03  0.98563776315E+03  0.12038775714E+04  0.10566000000E+00 0. -1.
          1    1    1    2  502    0  0.20530394871E+02 -0.12155048023E+02 -0.96777963973E+03  0.96807369212E+03  0.00000000000E+00 0. -1.
         -4    1    3    3    0  502 -0.24256411175E+03  0.25779784552E+03  0.30644958802E+03  0.46819699643E+03  0.00000000000E+00 0. -1.
</event>
<event>
 7    1  0.5696597E-006  0.1285577E+04  0.7818608E-02  0.8644825E-01
          1   -1    0    0  501    0  0.00000000000E+00  0.00000000000E+00  0.77223571201E+03  0.77223571201E+03  0.00000000000E+00 0. -1.
         -4   -1    0    0    0  501 -0.00000000000E+00 -0.00000000000E+00 -0.23004508984E+04  0.23004508984E+04  0.00000000000E+00 0. -1.
   -9000010    2    1    2    0  502  0.28790357154E+03 -0.77446860132E+03 -0.41999644145E+03  0.13534990284E+04  0.98634300733E+03 0.  0.
        -13    1    1    2    0    0 -0.23788647065E+03  0.78934691793E+03 -0.12895180517E+04  0.15305278000E+04  0.10566000000E+00 0.  1.
         13    1    3    3    0    0 -0.23821142397E+03 -0.48952439468E+03 -0.51295449394E+03  0.74799808791E+03  0.10566000000E+00 0. -1.
          1    1    1    2  502    0 -0.50017100896E+02 -0.14878316609E+02  0.18129930680E+03  0.18865978197E+03  0.00000000000E+00 0. -1.
         -4    1    3    3    0  502  0.52611499552E+03 -0.28494420665E+03  0.92958052495E+02  0.60550094049E+03  0.00000000000E+00 0. -1.
</event>
<event>
 7    1  0.5696597E-006  0.1277821E+04  0.7818608E-02  0.8657640E-01
          2   -1    0    0  501    0  0.00000000000E+00  0.00000000000E+00  0.15829729579E+04  0.15829729579E+04  0.00000000000E+00 0.  1.
         -4   -1    0    0    0  501 -0.00000000000E+00 -0.00000000000E+00 -0.94778901276E+03  0.94778901276E+03  0.00000000000E+00 0. -1.
   -9000010    2    1    2    0  502 -0.49734138498E+03  0.74976726393E+03  0.52416015503E+03  0.14446300936E+04  0.10013554992E+04 0.  0.
        -13    1    1    2    0    0  0.42083706509E+03 -0.59956934708E+03  0.33526823765E+03  0.80560042183E+03  0.10566000000E+00 0.  1.
         13    1    3    3    0    0 -0.60927882642E+03  0.20392245916E+03  0.60388713008E+03  0.88175094824E+03  0.10566000000E+00 0. -1.
          2    1    1    2  502    0  0.76504319890E+02 -0.15019791684E+03 -0.22424444750E+03  0.28053145531E+03  0.00000000000E+00 0.  1.
         -4    1    3    3    0  502  0.11193744145E+03  0.54584480476E+03 -0.79726975054E+02  0.56287914532E+03  0.00000000000E+00 0. -1.
</event>
<event>
 7    1  0.5696597E-006  0.1003510E+04  0.7818608E-02  0.9269127E-01
         -4   -1    0    0    0  501 -0.00000000000E+00  0.00000000000E+00  0.15270469397E+04  0.15270469397E+04  0.00000000000E+00 0. -1.
          1   -1    0    0  501    0  0.00000000000E+00 -0.00000000000E+00 -0.10959308192E+04  0.10959308192E+04  0.00000000000E+00 0.  1.
   -9000010    2    1    2    0  502  0.47690922151E+02 -0.11927371557E+03  0.90845246923E+03  0.13530134402E+04  0.99441381582E+03 0.  0.
        -13    1    1    2    0    0 -0.66184982359E+02  0.11788395376E+03  0.38468191425E+03  0.40774656928E+03  0.10566000000E+00 0.  1.
         13    1    3    3    0    0 -0.46442202205E+03 -0.55122329403E+02  0.56320553177E+03  0.73207019332E+03  0.10566000000E+00 0. -1.
          1    1    1    2  502    0  0.18494060209E+02  0.13897618081E+01 -0.86201826301E+03  0.86221774945E+03  0.00000000000E+00 0.  1.
         -4    1    3    3    0  502  0.51211294420E+03 -0.64151386165E+02  0.34524693747E+03  0.62094324684E+03  0.00000000000E+00 0. -1.
</event>
<event>
 7    1  0.5696597E-006  0.1060215E+04  0.7818608E-02  0.8964006E-01
          2   -1    0    0  501    0  0.00000000000E+00  0.00000000000E+00  0.34842131589E+03  0.34842131589E+03  0.00000000000E+00 0. -1.
         -4   -1    0    0    0  501 -0.00000000000E+00 -0.00000000000E+00 -0.23245950983E+04  0.23245950983E+04  0.00000000000E+00 0. -1.
   -9000010    2    1    2    0  502  0.17356913439E+03 -0.20847344565E+03 -0.10219640293E+04  0.14480678366E+04  0.98939504765E+03 0.  0.
        -13    1    1    2    0    0 -0.17273119471E+03  0.36380969769E+03 -0.98716229604E+03  0.10661533528E+04  0.10566000000E+00 0.  1.
         13    1    3    3    0    0 -0.11923548342E+03 -0.53626049467E+03 -0.75538111654E+03  0.93401983975E+03  0.10566000000E+00 0. -1.
          2    1    1    2  502    0 -0.83793967937E+00 -0.15533625204E+03  0.32952542911E+02  0.15879522482E+03  0.00000000000E+00 0. -1.
         -4    1    3    3    0  502  0.29280461780E+03  0.32778704903E+03 -0.26658291279E+03  0.51404799689E+03  0.00000000000E+00 0. -1.
</event>
<event>
 7    1  0.5696597E-006  0.1295215E+04  0.7818608E-02  0.8643337E-01
         -4   -1    0    0    0  501 -0.00000000000E+00  0.00000000000E+00  0.13667502923E+04  0.13667502923E+04  0.00000000000E+00 0. -1.
          2   -1    0    0  501    0  0.00000000000E+00 -0.00000000000E+00 -0.96516299687E+03  0.96516299687E+03  0.00000000000E+00 0.  1.
   -9000010    2    1    2    0  502 -0.80624292536E+03 -0.29258345049E+03 -0.10367902276E+03  0.13286751522E+04  0.10094531144E+04 0.  0.
        -13    1    1    2    0    0  0.75849757671E+03  0.24542353594E+03  0.48491919336E+03  0.93311195530E+03  0.10566000000E+00 0.  1.
         13    1    3    3    0    0 -0.29189946226E+02 -0.11982900362E+03  0.37844226772E+03  0.39803216482E+03  0.10566000000E+00 0. -1.
          2    1    1    2  502    0  0.47745348651E+02  0.47159914550E+02  0.20347124793E+02  0.70126181598E+02  0.00000000000E+00 0.  1.
         -4    1    3    3    0  502 -0.77705297914E+03 -0.17275444688E+03 -0.48212129048E+03  0.93064298742E+03  0.00000000000E+00 0. -1.
</event>
<event>
 7    1  0.5696597E-006  0.1150197E+04  0.7818608E-02  0.8778473E-01
          2   -1    0    0  501    0  0.00000000000E+00  0.00000000000E+00  0.25325351758E+04  0.25325351758E+04  0.00000000000E+00 0.  1.
         -4   -1    0    0    0  501 -0.00000000000E+00 -0.00000000000E+00 -0.70071193486E+03  0.70071193486E+03  0.00000000000E+00 0. -1.
   -9000010    2    1    2    0  502 -0.41774661572E+03 -0.24838203618E+02  0.37677189033E+03  0.11365277121E+04  0.98722287845E+03 0.  0.
        -13    1    1    2    0    0  0.18754113225E+03 -0.61860794171E+03  0.21571359478E+03  0.68145420093E+03  0.10566000000E+00 0.  1.
         13    1    3    3    0    0 -0.33066583573E+03  0.45663083312E+03  0.94458342611E+02  0.57164149808E+03  0.10566000000E+00 0. -1.
          2    1    1    2  502    0  0.23020548348E+03  0.64344614533E+03  0.12393377558E+04  0.14152651976E+04  0.00000000000E+00 0.  1.
         -4    1    3    3    0  502 -0.87080779999E+02 -0.48146903673E+03  0.28231354772E+03  0.56488621403E+03  0.00000000000E+00 0. -1.
</event>
<event>
 7    1  0.5696597E-006  0.1051461E+04  0.7818608E-02  0.9116062E-01
          1   -1    0    0  501    0  0.00000000000E+00  0.00000000000E+00  0.38212270875E+03  0.38212270875E+03  0.00000000000E+00 0. -1.
         -4   -1    0    0    0  501 -0.00000000000E+00 -0.00000000000E+00 -0.14460187390E+04  0.14460187390E+04  0.00000000000E+00 0. -1.
   -9000010    2    1    2    0  502 -0.19436105340E+03  0.38772624934E+02 -0.71875551918E+03  0.12713800178E+04  0.10298146036E+04 0.  0.
        -13    1    1    2    0    0  0.21070490921E+03 -0.34752137737E+02 -0.42473925139E+03  0.47540268476E+03  0.10566000000E+00 0.  1.
         13    1    3    3    0    0 -0.38042471061E+03  0.42371563734E+03 -0.60096488056E+03  0.82789896763E+03  0.10566000000E+00 0. -1.
          1    1    1    2  502    0 -0.16343855809E+02 -0.40204871976E+01  0.79598740364E+02  0.81358745121E+02  0.00000000000E+00 0. -1.
         -4    1    3    3    0  502  0.18606365721E+03 -0.38494301240E+03 -0.11779063862E+03  0.44348105019E+03  0.00000000000E+00 0. -1.
</event>
<event>
 7    1  0.5696597E-006  0.1029702E+04  0.7818608E-02  0.9202223E-01
         -4   -1    0    0    0  501 -0.00000000000E+00  0.00000000000E+00  0.26679817172E+04  0.26679817172E+04  0.00000000000E+00 0. -1.
          1   -1    0    0  501    0  0.00000000000E+00 -0.00000000000E+00 -0.72889855173E+03  0.72889855173E+03  0.00000000000E+00 0. -1.
   -9000010    2    1    2    0  502  0.46932598050E+02 -0.16166729151E+03  0.24260005414E+04  0.26359175382E+04  0.10169777084E+04 0.  0.
        -13    1    1    2    0    0 -0.37046478548E+02  0.15399780932E+03  0.91159313701E+02  0.18275064565E+03  0.10566000000E+00 0.  1.
         13    1    3    3    0    0 -0.27878157109E+03 -0.48659459400E+03  0.15121498297E+04  0.16127896893E+04  0.10566000000E+00 0. -1.
          1    1    1    2  502    0 -0.98861195025E+01  0.76694821930E+01 -0.57807668960E+03  0.57821208512E+03  0.00000000000E+00 0. -1.
         -4    1    3    3    0  502  0.32571416914E+03  0.32492730250E+03  0.91385071171E+03  0.10231278489E+04  0.00000000000E+00 0. -1.
</event>
<event>
 7    1  0.5696597E-006  0.1286143E+04  0.7818608E-02  0.8640577E-01
         -2   -1    0    0    0  501  0.00000000000E+00  0.00000000000E+00  0.12719401888E+04  0.12719401888E+04  0.00000000000E+00 0.  1.
         -4   -1    0    0    0  502 -0.00000000000E+00 -0.00000000000E+00 -0.22982131060E+04  0.22982131060E+04  0.00000000000E+00 0. -1.
   -9000010    2    1    2    0  501  0.25929689422E+03  0.68279546930E+03 -0.49791384696E+03  0.13159477630E+04  0.97486193052E+03 0.  0.
        -13    1    1    2    0    0 -0.53957271477E+03 -0.70218895197E+03 -0.12200947863E+04  0.15075938901E+04  0.10566000000E+00 0.  1.
         13    1    3    3    0    0 -0.24129769328E+03  0.28145854869E+03  0.15382750511E+03  0.40138062224E+03  0.10566000000E+00 0. -1.
         -2    1    1    2    0  502  0.28027582056E+03  0.19393482667E+02  0.69173571604E+03  0.74661164176E+03  0.00000000000E+00 0.  1.
         -4    1    3    3    0  501  0.50059458749E+03  0.40133692060E+03 -0.65174135208E+03  0.91456714071E+03  0.00000000000E+00 0. -1.
</event>
<event>
 7    1  0.5696597E-006  0.1125156E+04  0.7818608E-02  0.8866317E-01
          2   -1    0    0  502    0  0.00000000000E+00  0.00000000000E+00  0.19798273005E+04  0.19798273005E+04  0.00000000000E+00 0.  1.
          4   -1    0    0  501    0 -0.00000000000E+00 -0.00000000000E+00 -0.11811680954E+04  0.11811680954E+04  0.00000000000E+00 0.  1.
    9000010    2    1    2  502    0  0.12233220079E+03 -0.45772077495E+03 -0.12266728268E+03  0.11304883514E+04  0.10190599469E+04 0.  0.
        -13    1    3    3    0    0  0.35588186002E+03 -0.24089458588E+03 -0.48496451337E+03  0.64797584075E+03  0.10566000000E+00 0.  1.
         13    1    1    2    0    0 -0.14629856864E+03  0.45475705121E+03 -0.45159238885E+03  0.65737580092E+03  0.10566000000E+00 0. -1.
          2    1    1    2  501    0  0.23966367845E+02  0.29637237421E+01  0.13729188765E+04  0.13731312435E+04  0.00000000000E+00 0.  1.
          4    1    3    3  502    0 -0.23354965923E+03 -0.21682618907E+03  0.36229723069E+03  0.48251251068E+03  0.00000000000E+00 0.  1.
</event>
<event>
 7    1  0.5696597E-006  0.1031113E+04  0.7818608E-02  0.9043434E-01
          2   -1    0    0  502    0  0.00000000000E+00  0.00000000000E+00  0.12904555435E+04  0.12904555435E+04  0.00000000000E+00 0. -1.
          4   -1    0    0  501    0 -0.00000000000E+00 -0.00000000000E+00 -0.22004662905E+04  0.22004662905E+04  0.00000000000E+00 0.  1.
    9000010    2    1    2  502    0  0.50222701390E+02 -0.30149695332E+03 -0.20254411276E+04  0.22734957866E+04  0.98638156816E+03 0.  0.
        -13    1    3    3    0    0  0.36826598518E+03  0.60973495459E+02 -0.29111098686E+03  0.47337429252E+03  0.10566000000E+00 0.  1.
         13    1    1    2    0    0 -0.73382322752E+02  0.27489388088E+03  0.34942973074E+03  0.45061375803E+03  0.10566000000E+00 0. -1.
          2    1    1    2  501    0  0.23159621362E+02  0.26603072440E+02  0.76600064982E+03  0.76681228932E+03  0.00000000000E+00 0. -1.
          4    1    3    3  502    0 -0.31804328379E+03 -0.36247044878E+03 -0.17343301407E+04  0.18001214941E+04  0.00000000000E+00 0.  1.
</event>
<event>
 7    1  0.5696597E-006  0.1201332E+04  0.7818608E-02  0.8732349E-01
          4   -1    0    0  501    0 -0.00000000000E+00  0.00000000000E+00  0.14066183297E+04  0.14066183297E+04  0.00000000000E+00 0.  1.
          2   -1    0    0  502    0  0.00000000000E+00 -0.00000000000E+00 -0.11675147744E+04  0.11675147744E+04  0.00000000000E+00 0. -1.
    9000010    2    1    2  502    0 -0.68906887784E+03  0.65737287195E+02 -0.58177960500E+02  0.12034272195E+04  0.98270803811E+03 0.  0.
        -13    1    3    3    0    0 -0.59761967220E+03 -0.40157302517E+03  0.23043179709E+02  0.72037571200E+03  0.10566000000E+00 0.  1.
         13    1    1    2    0    0  0.68988836554E+03 -0.36341860305E+02  0.69028343251E+03  0.97660530210E+03  0.10566000000E+00 0. -1.
          2    1    1    2  501    0 -0.81948770501E+00 -0.29395426890E+02 -0.39300191663E+03  0.39410058253E+03  0.00000000000E+00 0. -1.
          4    1    3    3  502    0 -0.91449205634E+02  0.46731031237E+03 -0.81221140208E+02  0.48305150748E+03  0.00000000000E+00 0.  1.
</event>
<event>
 7    1  0.5696597E-006  0.1003107E+04  0.7818608E-02  0.9355299E-01
         -4   -1    0    0    0  501 -0.00000000000E+00  0.00000000000E+00  0.18926834576E+04  0.18926834576E+04  0.00000000000E+00 0. -1.
          2   -1    0    0  501    0  0.00000000000E+00 -0.00000000000E+00 -0.20151097252E+03  0.20151097252E+03  0.00000000000E+00 0.  1.
   -9000010    2    1    2    0  502  0.10366566942E+03  0.48842218505E+02  0.16154229708E+04  0.19024853648E+04  0.99836218657E+03 0.  0.
        -13    1    1    2    0    0 -0.55697473738E+02 -0.79211294861E+02  0.91043269631E+02  0.13291172230E+03  0.10566000000E+00 0.  1.
         13    1    3    3    0    0 -0.78359870824E+02  0.26322466480E+03  0.12337341931E+02  0.27491765073E+03  0.10566000000E+00 0. -1.
          2    1    1    2  502    0 -0.47968195678E+02  0.30369076356E+02 -0.15293755291E+02  0.58797343020E+02  0.00000000000E+00 0.  1.
         -4    1    3    3    0  502  0.18202554024E+03 -0.21438244629E+03  0.16030856288E+04  0.16275677141E+04  0.00000000000E+00 0. -1.
</event>
<event>
 7    1  0.5696597E-006  0.1051545E+04  0.7818608E-02  0.9013938E-01
         -2   -1    0    0    0  501  0.00000000000E+00  0.00000000000E+00  0.88853105520E+03  0.88853105520E+03  0.00000000000E+00 0. -1.
         -4   -1    0    0    0  502 -0.00000000000E+00 -0.00000000000E+00 -0.23963021976E+04  0.23963021976E+04  0.00000000000E+00 0. -1.
   -9000010    2    1    2    0  501  0.38005573953E+03 -0.24940488702E+03 -0.26888803554E+02  0.10839234935E+04  0.98362694619E+03 0.  0.
        -13    1    1    2    0    0 -0.29653744995E+03 -0.11729091453E+03 -0.17238950162E+04  0.17531416531E+04  0.10566000000E+00 0.  1.
         13    1    3    3    0    0  0.23636328412E+03 -0.62147464266E+03 -0.11674073671E+03  0.67507536196E+03  0.10566000000E+00 0. -1.
         -2    1    1    2    0  502 -0.83518289572E+02  0.36669580155E+03  0.24301267732E+03  0.44776810617E+03  0.00000000000E+00 0. -1.
         -4    1    3    3    0  501  0.14369245541E+03  0.37206975564E+03  0.89851933159E+02  0.40884813158E+03  0.00000000000E+00 0. -1.
</event>
<event>
 7    1  0.5696597E-006  0.1181095E+04  0.7818608E-02  0.8763828E-01
         -4   -1    0    0    0  501 -0.00000000000E+00  0.00000000000E+00  0.16721147421E+04  0.16721147421E+04  0.00000000000E+00 0. -1.
          1   -1    0    0  501    0  0.00000000000E+00 -0.00000000000E+00 -0.72901248694E+03  0.72901248694E+03  0.00000000000E+00 0.  1.
   -9000010    2    1    2    0  502 -0.54305677603E+03 -0.24247427477E+03  0.67463078666E+03  0.13416555096E+04  0.99559448179E+03 0.  0.
        -13    1    1    2    0    0  0.60337695854E+03  0.25571592957E+03  0.49717318766E+03  0.82257861657E+03  0.10566000000E+00 0.  1.
         13    1    3    3    0    0 -0.27846646038E+03 -0.60183785523E+03  0.20567960068E+03  0.69430287544E+03  0.10566000000E+00 0. -1.
          1    1    1    2  502    0 -0.60320182511E+02 -0.13241654803E+02 -0.22870171917E+03  0.23689310288E+03  0.00000000000E+00 0.  1.
         -4    1    3    3    0  502 -0.26459031565E+03  0.35936358046E+03  0.46895118598E+03  0.64735263414E+03  0.00000000000E+00 0. -1.
</event>
<event>
 7    1  0.5696597E-006  0.9973390E+03  0.7818608E-02  0.9176330E-01
          4   -1    0    0  501    0 -0.00000000000E+00  0.00000000000E+00  0.16556490679E+04  0.16556490679E+04  0.00000000000E+00 0.  1.
          2   -1    0    0  502    0  0.00000000000E+00 -0.00000000000E+00 -0.15075267473E+04  0.15075267473E+04  0.00000000000E+00 0.  1.
    9000010    2    1    2  502    0 -0.19133589024E+03  0.49280193424E+02  0.11463725427E+04  0.15196464419E+04  0.97781252882E+03 0.  0.
        -13    1    3    3    0    0 -0.18152371261E+03  0.47887017274E+03  0.36829616784E+03  0.63080074428E+03  0.10566000000E+00 0.  1.
         13    1    1    2    0    0  0.18276041597E+03 -0.71916894337E+02  0.29262664865E+03  0.35242556093E+03  0.10566000000E+00 0. -1.
          2    1    1    2  501    0  0.85754742706E+01  0.22636700914E+02 -0.12908768707E+04  0.12911038123E+04  0.00000000000E+00 0.  1.
          4    1    3    3  502    0 -0.98121776287E+01 -0.42958997931E+03  0.77807637483E+03  0.88884569765E+03  0.00000000000E+00 0.  1.
</event>
<event>
 7    1  0.5696597E-006  0.1014151E+04  0.7818608E-02  0.9235879E-01
         -4   -1    0    0    0  501 -0.00000000000E+00  0.00000000000E+00  0.40038104531E+03  0.40038104531E+03  0.00000000000E+00 0. -1.
          1   -1    0    0  501    0  0.00000000000E+00 -0.00000000000E+00 -0.11801478145E+04  0.11801478145E+04  0.00000000000E+00 0. -1.
   -9000010    2    1    2    0  502 -0.13882516298E+03 -0.49778154720E+02 -0.55810919694E+03  0.11574678748E+04  0.10032426003E+04 0.  0.
        -13    1    1    2    0    0  0.14413455958E+03  0.35525177211E+02  0.45659675148E+02  0.15531138587E+03  0.10566000000E+00 0.  1.
         13    1    3    3    0    0  0.26614421018E+03 -0.79962075051E+02  0.16856307036E+03  0.32502337441E+03  0.10566000000E+00 0. -1.
          1    1    1    2  502    0 -0.53093965968E+01  0.14252977508E+02 -0.26731724736E+03  0.26774959906E+03  0.00000000000E+00 0. -1.
         -4    1    3    3    0  502 -0.40496937316E+03  0.30183920332E+02 -0.72667226730E+03  0.83244450043E+03  0.00000000000E+00 0. -1.
</event>
<event>
 7    1  0.5696597E-006  0.1009334E+04  0.7818608E-02  0.9264253E-01
         -4   -1    0    0    0  501 -0.00000000000E+00  0.00000000000E+00  0.19290121833E+04  0.19290121833E+04  0.00000000000E+00 0. -1.
          2   -1    0    0  501    0  0.00000000000E+00 -0.00000000000E+00 -0.21831023374E+03  0.21831023374E+03  0.00000000000E+00 0. -1.
   -9000010    2    1    2    0  502  0.10040196813E+03 -0.92778754862E+02  0.14328583742E+04  0.17527999694E+04  0.10002680439E+04 0.  0.
        -13    1    1    2    0    0  0.97789328711E+01  0.14036427106E+03  0.22035637535E+03  0.26144731676E+03  0.10566000000E+00 0.  1.
         13    1    3    3    0    0 -0.16386946055E+03  0.19300597708E+03  0.13248789479E+04  0.13488546049E+04  0.10566000000E+00 0. -1.
          2    1    1    2  502    0 -0.11018090100E+03 -0.47585516201E+02  0.57487200030E+02  0.13307513090E+03  0.00000000000E+00 0. -1.
         -4    1    3    3    0  502  0.26427142868E+03 -0.28578473194E+03  0.10797942631E+03  0.40394536454E+03  0.00000000000E+00 0. -1.
</event>
<event>
 7    1  0.5696597E-006  0.1024389E+04  0.7818608E-02  0.9095271E-01
          2   -1    0    0  501    0  0.00000000000E+00  0.00000000000E+00  0.33373484568E+04  0.33373484568E+04  0.00000000000E+00 0.  1.
         -4   -1    0    0    0  501 -0.00000000000E+00 -0.00000000000E+00 -0.45418686348E+03  0.45418686348E+03  0.00000000000E+00 0. -1.
   -9000010    2    1    2    0  502 -0.21706014573E+03 -0.84597726710E+02  0.35624678447E+03  0.10809525946E+04  0.99361705805E+03 0.  0.
        -13    1    1    2    0    0  0.25019341712E+03  0.44247637856E+02  0.84717924755E+02  0.26782781291E+03  0.10566000000E+00 0.  1.
         13    1    3    3    0    0 -0.45988858641E+03 -0.12212569070E+03 -0.16586892981E+03  0.50390942567E+03  0.10566000000E+00 0. -1.
          2    1    1    2  502    0 -0.33133271391E+02  0.40350088854E+02  0.24421968841E+04  0.24427549128E+04  0.00000000000E+00 0.  1.
         -4    1    3    3    0  502  0.24282844068E+03  0.37527963986E+02  0.52211571428E+03  0.57704316890E+03  0.00000000000E+00 0. -1.
</event>
<event>
 7    1  0.5696597E-006  0.1023009E+04  0.7818608E-02  0.9363771E-01
          2   -1    0    0  502    0  0.00000000000E+00  0.00000000000E+00  0.44708572142E+03  0.44708572142E+03  0.00000000000E+00 0.  1.
          4   -1    0    0  501    0 -0.00000000000E+00 -0.00000000000E+00 -0.19545198998E+04  0.19545198998E+04  0.00000000000E+00 0.  1.
    9000010    2    1    2  502    0 -0.13244881342E+02 -0.78583542090E+02 -0.12268753965E+04  0.15969343234E+04  0.10191296262E+04 0.  0.
        -13    1    3    3    0    0  0.15917236138E+03 -0.40913837202E+03 -0.16077242052E+03  0.46752308013E+03  0.10566000000E+00 0.  1.
         13    1    1    2    0    0  0.20303623237E+02  0.86853421547E+02 -0.53883441496E+03  0.54616690842E+03  0.10566000000E+00 0. -1.
          2    1    1    2  501    0 -0.70587418950E+01 -0.82698794567E+01  0.25827563300E+03  0.25850438941E+03  0.00000000000E+00 0.  1.
          4    1    3    3  502    0 -0.17241724272E+03  0.33055482993E+03 -0.10661029759E+04  0.11294112433E+04  0.00000000000E+00 0.  1.
</event>
<event>
 7    1  0.5696597E-006  0.1101403E+04  0.7818608E-02  0.8912343E-01
          2   -1    0    0  501    0  0.00000000000E+00  0.00000000000E+00  0.15236376788E+04  0.15236376788E+04  0.00000000000E+00 0. -1.
         -4   -1    0    0    0  501 -0.00000000000E+00 -0.00000000000E+00 -0.20396607107E+04  0.20396607107E+04  0.00000000000E+00 0. -1.
   -9000010    2    1    2    0  502  0.69527579345E+02 -0.69349442699E+02 -0.66688226725E+03  0.12021451711E+04  0.99537813148E+03 0.  0.
        -13    1    1    2    0    0  0.41986828931E+03  0.13432520346E+02 -0.10133790392E+04  0.10969990434E+04  0.10566000000E+00 0.  1.
         13    1    3    3    0    0 -0.24084399554E+03 -0.41512636898E+03 -0.14060539112E+03  0.50010560843E+03  0.10566000000E+00 0. -1.
          2    1    1    2  502    0 -0.48939586866E+03  0.55916922353E+02  0.11642382744E+04  0.12641541750E+04  0.00000000000E+00 0. -1.
         -4    1    3    3    0  502  0.31037157488E+03  0.34577692629E+03 -0.52627687614E+03  0.70203956270E+03  0.00000000000E+00 0. -1.
</event>
<event>
 7    1  0.5696597E-006  0.1043960E+04  0.7818608E-02  0.9025035E-01
          1   -1    0    0  501    0  0.00000000000E+00  0.00000000000E+00  0.34279509040E+03  0.34279509040E+03  0.00000000000E+00 0.  1.
         -4   -1    0    0    0  501 -0.00000000000E+00 -0.00000000000E+00 -0.30198527127E+04  0.30198527127E+04  0.00000000000E+00 0. -1.
   -9000010    2    1    2    0  502  0.87431355306E+02  0.23623338343E+03 -0.11590349791E+04  0.15490449072E+04  0.99635715907E+03 0.  0.
        -13    1    1    2    0    0 -0.20827065759E+03 -0.23973736291E+03 -0.16228272311E+04  0.16536078444E+04  0.10566000000E+00 0.  1.
         13    1    3    3    0    0 -0.33710372986E+03  0.35825478356E+03 -0.28191355310E+03  0.56697502345E+03  0.10566000000E+00 0. -1.
          1    1    1    2  502    0  0.12083930228E+03  0.35039794837E+01  0.10480458791E+03  0.15999505147E+03  0.00000000000E+00 0.  1.
         -4    1    3    3    0  502  0.42453508517E+03 -0.12202140013E+03 -0.87712142602E+03  0.98206988377E+03  0.00000000000E+00 0. -1.
</event>
<event>
 7    1  0.5696597E-006  0.1124915E+04  0.7818608E-02  0.9038079E-01
          2   -1    0    0  501    0  0.00000000000E+00  0.00000000000E+00  0.15130412495E+04  0.15130412495E+04  0.00000000000E+00 0.  1.
         -4   -1    0    0    0  501 -0.00000000000E+00 -0.00000000000E+00 -0.26133763386E+04  0.26133763386E+04  0.00000000000E+00 0. -1.
   -9000010    2    1    2    0  502  0.31581519387E+03 -0.38700763094E+03 -0.13444588558E+04  0.17340030143E+04  0.97451664716E+03 0.  0.
        -13    1    1    2    0    0  0.19234653796E+03  0.13738597131E+03 -0.99892210516E+03  0.10265074180E+04  0.10566000000E+00 0.  1.
         13    1    3    3    0    0 -0.20306139864E+03 -0.38271722667E+03 -0.10534823393E+04  0.11390923832E+04  0.10566000000E+00 0. -1.
          2    1    1    2  502    0 -0.50816173183E+03  0.24962165963E+03  0.12430458719E+04  0.13659071558E+04  0.00000000000E+00 0.  1.
         -4    1    3    3    0  502  0.51887659250E+03 -0.42904042756E+01 -0.29097651658E+03  0.59491063112E+03  0.00000000000E+00 0. -1.
</event>
<event>
 7    1  0.5696597E-006  0.1133781E+04  0.7818608E-02  0.8843007E-01
          1   -1    0    0  501    0  0.00000000000E+00  0.00000000000E+00  0.10793010586E+04  0.10793010586E+04  0.00000000000E+00 0. -1.
         -4   -1    0    0    0  501 -0.00000000000E+00 -0.00000000000E+00 -0.13544849733E+04  0.13544849733E+04  0.00000000000E+00 0. -1.
   -9000010    2    1    2    0  502  0.35743867619E+03  0.13885713386E+03 -0.14122814352E+03  0.10901218989E+04  0.10106318098E+04 0.  0.
        -13    1    1    2    0    0 -0.66254832340E+03  0.25768718915E+03  0.20435230844E+03  0.73968428767E+03  0.10566000000E+00 0.  1.
         13    1    3    3    0    0  0.59766345262E+03  0.34129302312E+03 -0.28464619556E+03  0.74478587396E+03  0.10566000000E+00 0. -1.
          1    1    1    2  502    0  0.30510964721E+03 -0.39654432301E+03 -0.33830807961E+03  0.60397984541E+03  0.00000000000E+00 0. -1.
         -4    1    3    3    0  502 -0.24022477643E+03 -0.20243588926E+03  0.14341805204E+03  0.34533602494E+03  0.00000000000E+00 0. -1.
</event>
<event>
 7    1  0.5696597E-006  0.9967695E+03  0.7818608E-02  0.9552951E-01
         -4   -1    0    0    0  501 -0.00000000000E+00  0.00000000000E+00  0.80334160479E+03  0.80334160479E+03  0.00000000000E+00 0. -1.
          2   -1    0    0  501    0  0.00000000000E+00 -0.00000000000E+00 -0.15229393108E+04  0.15229393108E+04  0.00000000000E+00 0. -1.
   -9000010    2    1    2    0  502 -0.26964388985E+02  0.39642907054E+02  0.43928813332E+03  0.10892696389E+04  0.99560817787E+03 0.  0.
        -13    1    1    2    0    0  0.45753429600E+02 -0.16169121526E+02  0.23726739087E+02  0.54016535643E+02  0.10566000000E+00 0.  1.
         13    1    3    3    0    0  0.36805327940E+03 -0.18298584506E+03  0.48243108315E+03  0.63378765934E+03  0.10566000000E+00 0. -1.
          2    1    1    2  502    0 -0.18789040615E+02 -0.23473785528E+02 -0.11826125785E+04  0.11829947411E+04  0.00000000000E+00 0. -1.
         -4    1    3    3    0  502 -0.39501766839E+03  0.22262875211E+03 -0.43142949831E+02  0.45548197958E+03  0.00000000000E+00 0. -1.
</event>
<event>
 7    1  0.5696597E-006  0.1093268E+04  0.7818608E-02  0.8911142E-01
         -4   -1    0    0    0  501 -0.00000000000E+00  0.00000000000E+00  0.17792402703E+04  0.17792402703E+04  0.00000000000E+00 0. -1.
          2   -1    0    0  501    0  0.00000000000E+00 -0.00000000000E+00 -0.12002508807E+04  0.12002508807E+04  0.00000000000E+00 0. -1.
   -9000010    2    1    2    0  502 -0.30352387040E+03 -0.38130863187E+03  0.83724234652E+03  0.13954919873E+04  0.10044402058E+04 0.  0.
        -13    1    1    2    0    0  0.23789463649E+02  0.43497110319E+03  0.56467073306E+03  0.71317518685E+03  0.10566000000E+00 0.  1.
         13    1    3    3    0    0 -0.20428049820E+03 -0.65713919276E+03  0.86003754481E+03  0.11014658552E+04  0.10566000000E+00 0. -1.
          2    1    1    2  502    0  0.27973440675E+03 -0.53662471323E+02 -0.82292369001E+03  0.87082397689E+03  0.00000000000E+00 0. -1.
         -4    1    3    3    0  502 -0.99243372203E+02  0.27583056089E+03 -0.22795198289E+02  0.29402613202E+03  0.00000000000E+00 0. -1.
</event>
<event>
 7    1  0.5696597E-006  0.1054452E+04  0.7818608E-02  0.9012335E-01
          2   -1    0    0  502    0  0.00000000000E+00  0.00000000000E+00  0.26091984175E+03  0.26091984175E+03  0.00000000000E+00 0.  1.
          4   -1    0    0  501    0 -0.00000000000E+00 -0.00000000000E+00 -0.22407113030E+04  0.22407113030E+04  0.00000000000E+00 0.  1.
    9000010    2    1    2  502    0 -0.17392072441E+03 -0.25666452901E+03 -0.97737341111E+03  0.14359422654E+04  0.10052593227E+04 0.  0.
        -13    1    3    3    0    0 -0.26628305797E+03  0.13663265110E+03  0.75120904886E+02  0.30857464222E+03  0.10566000000E+00 0.  1.
         13    1    1    2    0    0  0.17477302821E+03  0.26711305725E+03 -0.10053447649E+04  0.10548047706E+04  0.10566000000E+00 0. -1.
          2    1    1    2  501    0 -0.85230380201E+00 -0.10448528233E+02  0.29267147263E+01  0.10884108741E+02  0.00000000000E+00 0.  1.
          4    1    3    3  502    0  0.92362333560E+02 -0.39329718012E+03 -0.10524943160E+04  0.11273676232E+04  0.00000000000E+00 0.  1.
</event>
<event>
 7    1  0.5696597E-006  0.1089460E+04  0.7818608E-02  0.9099855E-01
         -4   -1    0    0    0  501 -0.00000000000E+00  0.00000000000E+00  0.13526941552E+04  0.13526941552E+04  0.00000000000E+00 0. -1.
          2   -1    0    0  501    0  0.00000000000E+00 -0.00000000000E+00 -0.17282509914E+04  0.17282509914E+04  0.00000000000E+00 0.  1.
   -9000010    2    1    2    0  502 -0.19423376779E+03  0.21046504142E+03  0.43401744344E+03  0.11553394331E+04  0.10317052749E+04 0.  0.
        -13    1    1    2    0    0 -0.15120281184E+03 -0.13609352830E+03  0.51552076046E+03  0.55420700500E+03  0.10566000000E+00 0.  1.
         13    1    3    3    0    0 -0.22696542330E+03  0.33142296212E+03  0.73039211566E+03  0.83356291723E+03  0.10566000000E+00 0. -1.
          2    1    1    2  502    0  0.34543657964E+03 -0.74371513124E+02 -0.13250950400E+04  0.13713987085E+04  0.00000000000E+00 0.  1.
         -4    1    3    3    0  502  0.32731655505E+02 -0.12095792070E+03 -0.29637467222E+03  0.32177651590E+03  0.00000000000E+00 0. -1.
</event>
<event>
 7    1  0.5696597E-006  0.1043479E+04  0.7818608E-02  0.9067286E-01
         -4   -1    0    0    0  501 -0.00000000000E+00  0.00000000000E+00  0.75332752331E+03  0.75332752331E+03  0.00000000000E+00 0. -1.
          3   -1    0    0  501    0  0.00000000000E+00 -0.00000000000E+00 -0.96578317261E+03  0.96578317261E+03  0.00000000000E+00 0.  1.
   -9000010    2    1    2    0  502 -0.25989472461E+03  0.61247315044E+02  0.32729361610E+03  0.10944551189E+04  0.10096605344E+04 0.  0.
        -13    1    1    2    0    0  0.25535051833E+03 -0.48753400742E+02 -0.35805225257E+03  0.44247283310E+03  0.10566000000E+00 0.  1.
         13    1    3    3    0    0 -0.34648832492E+03  0.53384835614E+02 -0.29984684708E+03  0.46131577346E+03  0.10566000000E+00 0. -1.
          3    1    1    2  502    0  0.45442062807E+01 -0.12493914302E+02 -0.18169701283E+03  0.18218274391E+03  0.00000000000E+00 0.  1.
         -4    1    3    3    0  502  0.86593600307E+02  0.78624794303E+01  0.62714046318E+03  0.63313934545E+03  0.00000000000E+00 0. -1.
</event>
<event>
 7    1  0.5696597E-006  0.1336420E+04  0.7818608E-02  0.8814212E-01
          2   -1    0    0  502    0  0.00000000000E+00  0.00000000000E+00  0.10903080566E+04  0.10903080566E+04  0.00000000000E+00 0. -1.
          4   -1    0    0  501    0 -0.00000000000E+00 -0.00000000000E+00 -0.20499212525E+04  0.20499212525E+04  0.00000000000E+00 0.  1.
    9000010    2    1    2  502    0  0.45520034623E+03 -0.39737637652E+03 -0.99658979578E+03  0.15375437552E+04  0.10028630206E+04 0.  0.
        -13    1    3    3    0    0  0.75413879167E+03 -0.12196359720E+03 -0.67014869144E+03  0.10162183407E+04  0.10566000000E+00 0.  1.
         13    1    1    2    0    0  0.19243400851E+03 -0.29735407447E+03 -0.41939892234E+03  0.54894968846E+03  0.10566000000E+00 0. -1.
          2    1    1    2  501    0 -0.64763435474E+03  0.69473045099E+03  0.45637552227E+03  0.10537358655E+04  0.00000000000E+00 0. -1.
          4    1    3    3  502    0 -0.29893844544E+03 -0.27541277932E+03 -0.32644110434E+03  0.52132541448E+03  0.00000000000E+00 0.  1.
</event>
<event>
 7    1  0.5696597E-006  0.1009632E+04  0.7818608E-02  0.9262550E-01
          2   -1    0    0  502    0  0.00000000000E+00  0.00000000000E+00  0.11240476136E+04  0.11240476136E+04  0.00000000000E+00 0.  1.
          4   -1    0    0  501    0 -0.00000000000E+00 -0.00000000000E+00 -0.77029792511E+03  0.77029792511E+03  0.00000000000E+00 0.  1.
    9000010    2    1    2  502    0 -0.12711050095E+03 -0.98783099523E+02  0.32075574076E+03  0.10628886572E+04  0.10004663274E+04 0.  0.
        -13    1    3    3    0    0  0.17701717845E+03 -0.37204854651E+03 -0.15081801356E+03  0.43874968582E+03  0.10566000000E+00 0.  1.
         13    1    1    2    0    0  0.10783688660E+03  0.81746104459E+02 -0.38736042450E+03  0.41031613341E+03  0.10566000000E+00 0. -1.
          2    1    1    2  501    0  0.19273614353E+02  0.17036995064E+02  0.42035437224E+03  0.42114074806E+03  0.00000000000E+00 0.  1.
          4    1    3    3  502    0 -0.30412767941E+03  0.27326544698E+03  0.47157375432E+03  0.62413897143E+03  0.00000000000E+00 0.  1.
</event>
<event>
 7    1  0.4262863E-005  0.1105203E+04  0.7818608E-02  0.8888261E-01
          4   -1    0    0  501    0  0.00000000000E+00  0.00000000000E+00  0.68164074307E+03  0.68164074307E+03  0.00000000000E+00 0.  1.
         -4   -1    0    0    0  501 -0.00000000000E+00 -0.00000000000E+00 -0.30481043126E+04  0.30481043126E+04  0.00000000000E+00 0. -1.
   -9000010    2    1    2    0  502  0.11922078349E+03  0.44988304516E+03 -0.23838202056E+04  0.26286273878E+04  0.10052237670E+04 0.  0.
        -13    1    1    2    0    0 -0.21178457008E+03 -0.40773335757E+03 -0.43785734713E+03  0.63467965353E+03  0.10566000000E+00 0.  1.
         13    1    3    3    0    0  0.17098550054E+02 -0.30447387329E+03 -0.10442883514E+04  0.10879038891E+04  0.10566000000E+00 0. -1.
          4    1    1    2  502    0  0.92563786592E+02 -0.42149687591E+02  0.45521398319E+03  0.46643801436E+03  0.00000000000E+00 0.  1.
         -4    1    3    3    0  502  0.10212223344E+03  0.75435691845E+03 -0.13395318542E+04  0.15407234986E+04  0.00000000000E+00 0. -1.
</event>
<event>
 7    1  0.5696597E-006  0.1021749E+04  0.7818608E-02  0.9120411E-01
          2   -1    0    0  501    0  0.00000000000E+00  0.00000000000E+00  0.99151892126E+03  0.99151892126E+03  0.00000000000E+00 0. -1.
         -4   -1    0    0    0  501 -0.00000000000E+00 -0.00000000000E+00 -0.52762212336E+03  0.52762212336E+03  0.00000000000E+00 0. -1.
   -9000010    2    1    2    0  502  0.11388353870E+03  0.19442875424E+03  0.62731320519E+03  0.11985667763E+04  0.99612672836E+03 0.  0.
        -13    1    1    2    0    0 -0.13703420736E+03 -0.18171284802E+03 -0.17931597498E+03  0.28974499680E+03  0.10566000000E+00 0.  1.
         13    1    3    3    0    0 -0.34617859630E+03 -0.11720295677E+03  0.51524410746E+03  0.63170614613E+03  0.10566000000E+00 0. -1.
          2    1    1    2  502    0  0.23150668658E+02 -0.12715906217E+02  0.15899567693E+02  0.30829271530E+02  0.00000000000E+00 0. -1.
         -4    1    3    3    0  502  0.46006213500E+03  0.31163171100E+03  0.11206909773E+03  0.56686063017E+03  0.00000000000E+00 0. -1.
</event>
<event>
 7    1  0.5696597E-006  0.1009227E+04  0.7818608E-02  0.9063753E-01
          4   -1    0    0  501    0 -0.00000000000E+00  0.00000000000E+00  0.33102971209E+04  0.33102971209E+04  0.00000000000E+00 0.  1.
          2   -1    0    0  502    0  0.00000000000E+00 -0.00000000000E+00 -0.15752015925E+03  0.15752015925E+03  0.00000000000E+00 0.  1.
    9000010    2    1    2  502    0 -0.31487988052E+03 -0.74874995890E+02  0.26020152104E+04  0.27940157878E+04  0.96503132768E+03 0.  0.
        -13    1    3    3    0    0 -0.48882166401E+03 -0.18657112097E+03  0.66574307589E+03  0.84674037145E+03  0.10566000000E+00 0.  1.
         13    1    1    2    0    0  0.28523715504E+03 -0.20525104339E+02  0.37455631171E+03  0.47124723482E+03  0.10566000000E+00 0. -1.
          2    1    1    2  501    0  0.29642725483E+02  0.95400100228E+02  0.17620543949E+03  0.20255425743E+03  0.00000000000E+00 0.  1.
          4    1    3    3  502    0  0.17394178349E+03  0.11169612508E+03  0.19362721345E+04  0.19472754164E+04  0.00000000000E+00 0.  1.
</event>
<event>
 7    1  0.5696597E-006  0.1137704E+04  0.7818608E-02  0.8827549E-01
          4   -1    0    0  501    0 -0.00000000000E+00  0.00000000000E+00  0.28884542559E+04  0.28884542559E+04  0.00000000000E+00 0.  1.
          2   -1    0    0  502    0  0.00000000000E+00 -0.00000000000E+00 -0.43704085776E+03  0.43704085776E+03  0.00000000000E+00 0.  1.
    9000010    2    1    2  502    0 -0.46699026372E+03  0.13149245477E+03  0.15374671918E+04  0.18971054848E+04  0.99991683776E+03 0.  0.
        -13    1    3    3    0    0  0.14797998757E+02  0.50213777287E+03  0.65236712709E+03  0.82337367178E+03  0.10566000000E+00 0.  1.
         13    1    1    2    0    0  0.53395371947E+03 -0.18452730576E+03  0.10927963393E+04  0.12301872831E+04  0.10566000000E+00 0. -1.
          2    1    1    2  501    0 -0.66963455751E+02  0.53034850990E+02 -0.17885013295E+03  0.19820234581E+03  0.00000000000E+00 0.  1.
          4    1    3    3  502    0 -0.48178826247E+03 -0.37064531810E+03  0.88510006471E+03  0.10737318130E+04  0.00000000000E+00 0.  1.
</event>
<event>
 7    1  0.5696597E-006  0.1005658E+04  0.7818608E-02  0.9232021E-01
          2   -1    0    0  502    0  0.00000000000E+00  0.00000000000E+00  0.96951223061E+03  0.96951223061E+03  0.00000000000E+00 0.  1.
          4   -1    0    0  501    0 -0.00000000000E+00 -0.00000000000E+00 -0.16424501556E+04  0.16424501556E+04  0.00000000000E+00 0.  1.
    9000010    2    1    2  502    0  0.12822148996E+03  0.21445710881E+03 -0.13199369846E+04  0.16708401521E+04  0.99349915378E+03 0.  0.
        -13    1    3    3    0    0 -0.13160934449E+03  0.56552093914E+03 -0.65517186263E+03  0.87543425390E+03  0.10566000000E+00 0.  1.
         13    1    1    2    0    0  0.15079772207E+02 -0.15367178285E+03 -0.96114728663E+02  0.18188036893E+03  0.10566000000E+00 0. -1.
          2    1    1    2  501    0 -0.14330126217E+03 -0.60785325960E+02  0.74311378824E+03  0.75924186520E+03  0.00000000000E+00 0.  1.
          4    1    3    3  502    0  0.25983083445E+03 -0.35106383033E+03 -0.66476512198E+03  0.79540589820E+03  0.00000000000E+00 0.  1.
</event>
<event>
 7    1  0.5696597E-006  0.1027293E+04  0.7818608E-02  0.9043623E-01
         -4   -1    0    0    0  501 -0.00000000000E+00  0.00000000000E+00  0.12386336245E+04  0.12386336245E+04  0.00000000000E+00 0. -1.
          1   -1    0    0  501    0  0.00000000000E+00 -0.00000000000E+00 -0.13876633435E+04  0.13876633435E+04  0.00000000000E+00 0.  1.
   -9000010    2    1    2    0  502 -0.15804199020E+03  0.25491358176E+03  0.43463167120E+03  0.11144742990E+04  0.98142247207E+03 0.  0.
        -13    1    1    2    0    0  0.17378803749E+03 -0.24958516240E+03  0.41417694454E+03  0.51384587944E+03  0.10566000000E+00 0.  1.
         13    1    3    3    0    0 -0.51762414773E+02 -0.23861371324E+03 -0.19140450586E+03  0.31024433558E+03  0.10566000000E+00 0. -1.
          1    1    1    2  502    0 -0.15746047284E+02 -0.53284193548E+01 -0.99783833481E+03  0.99797678955E+03  0.00000000000E+00 0.  1.
         -4    1    3    3    0  502 -0.10627957543E+03  0.49352729500E+03  0.62603617706E+03  0.80422996341E+03  0.00000000000E+00 0. -1.
</event>
<event>
 7    1  0.5696597E-006  0.1083287E+04  0.7818608E-02  0.8856245E-01
         -4   -1    0    0    0  501 -0.00000000000E+00  0.00000000000E+00  0.41338928887E+03  0.41338928887E+03  0.00000000000E+00 0. -1.
          1   -1    0    0  501    0  0.00000000000E+00 -0.00000000000E+00 -0.44209146779E+04  0.44209146779E+04  0.00000000000E+00 0.  1.
   -9000010    2    1    2    0  502  0.14021036020E+03 -0.55927609814E+03 -0.73053225721E+03  0.13148977523E+04  0.92888644147E+03 0.  0.
        -13    1    1    2    0    0 -0.15707066392E+03  0.52297614908E+03 -0.49468337536E+03  0.73680859047E+03  0.10566000000E+00 0.  1.
         13    1    3    3    0    0 -0.86376851968E+02 -0.75226990653E+03 -0.67019960635E+03  0.10112064558E+04  0.10566000000E+00 0. -1.
          1    1    1    2  502    0  0.16860303721E+02  0.36299949066E+02 -0.27823097565E+04  0.27825976240E+04  0.00000000000E+00 0.  1.
         -4    1    3    3    0  502  0.22658721217E+03  0.19299380838E+03 -0.60332650858E+02  0.30369129647E+03  0.00000000000E+00 0. -1.
</event>
<event>
 7    1  0.5696597E-006  0.1020170E+04  0.7818608E-02  0.9293491E-01
         -2   -1    0    0    0  501  0.00000000000E+00  0.00000000000E+00  0.44619032922E+03  0.44619032922E+03  0.00000000000E+00 0. -1.
         -4   -1    0    0    0  502 -0.00000000000E+00 -0.00000000000E+00 -0.23928411590E+04  0.23928411590E+04  0.00000000000E+00 0. -1.
   -9000010    2    1    2    0  501 -0.12411044949E+02 -0.14777317555E+03 -0.21020766055E+04  0.23383297916E+04  0.10134442331E+04 0.  0.
        -13    1    1    2    0    0 -0.27112682370E+01  0.11215692563E+03 -0.15307412423E+03  0.18978468225E+03  0.10566000000E+00 0.  1.
         13    1    3    3    0    0 -0.44071593694E+03 -0.26597051464E+03 -0.70931026789E+03  0.87640853432E+03  0.10566000000E+00 0. -1.
         -2    1    1    2    0  502  0.15122313186E+02  0.35616249921E+02  0.30849989988E+03  0.31091701439E+03  0.00000000000E+00 0. -1.
         -4    1    3    3    0  501  0.42830489199E+03  0.11819733909E+03 -0.13927663376E+04  0.14619212573E+04  0.00000000000E+00 0. -1.
</event>
<event>
 7    1  0.5696597E-006  0.1071252E+04  0.7818608E-02  0.8975082E-01
          4   -1    0    0  501    0 -0.00000000000E+00  0.00000000000E+00  0.28395468951E+04  0.28395468951E+04  0.00000000000E+00 0.  1.
          2   -1    0    0  502    0  0.00000000000E+00 -0.00000000000E+00 -0.12127262354E+04  0.12127262354E+04  0.00000000000E+00 0.  1.
    9000010    2    1    2  502    0  0.52489466962E+02 -0.24542778545E+03  0.11995804385E+04  0.15890030111E+04  0.10114086212E+04 0.  0.
        -13    1    3    3    0    0  0.33293185977E+03  0.28577188664E+03  0.56266575022E+03  0.71351380651E+03  0.10566000000E+00 0.  1.
         13    1    1    2    0    0  0.28814901700E+03  0.25178085891E+03  0.13901557647E+04  0.14418587026E+04  0.10566000000E+00 0. -1.
          2    1    1    2  501    0 -0.34063848396E+03 -0.63530734621E+01 -0.96291554348E+03  0.10214114167E+04  0.00000000000E+00 0.  1.
          4    1    3    3  502    0 -0.28044239281E+03 -0.53119967209E+03  0.63691468827E+03  0.87548920464E+03  0.00000000000E+00 0.  1.
</event>
<event>
 7    1  0.5696597E-006  0.9844000E+03  0.7818608E-02  0.9096624E-01
          4   -1    0    0  501    0 -0.00000000000E+00  0.00000000000E+00  0.33697304842E+04  0.33697304842E+04  0.00000000000E+00 0.  1.
          2   -1    0    0  502    0  0.00000000000E+00 -0.00000000000E+00 -0.18965316830E+04  0.18965316830E+04  0.00000000000E+00 0. -1.
    9000010    2    1    2  502    0  0.14259928412E+03  0.21467605780E+03  0.22652949983E+04  0.24675918453E+04  0.94394264656E+03 0.  0.
        -13    1    3    3    0    0  0.53207702993E+03  0.96589402529E+02  0.97873167134E+03  0.11181910276E+04  0.10566000000E+00 0.  1.
         13    1    1    2    0    0 -0.18205809332E+03 -0.21778951879E+03  0.98298366285E+03  0.10231492151E+04  0.10566000000E+00 0. -1.
          2    1    1    2  501    0  0.39458809198E+02  0.31134609884E+01 -0.17750798600E+04  0.17755211068E+04  0.00000000000E+00 0. -1.
          4    1    3    3  502    0 -0.38947774580E+03  0.11808665527E+03  0.12865633270E+04  0.13494008177E+04  0.00000000000E+00 0.  1.
</event>
<event>
 7    1  0.5696597E-006  0.1021537E+04  0.7818608E-02  0.9144396E-01
          2   -1    0    0  501    0  0.00000000000E+00  0.00000000000E+00  0.14980615737E+04  0.14980615737E+04  0.00000000000E+00 0. -1.
         -4   -1    0    0    0  501 -0.00000000000E+00 -0.00000000000E+00 -0.77199511787E+03  0.77199511787E+03  0.00000000000E+00 0. -1.
   -9000010    2    1    2    0  502  0.17345901077E+03 -0.18543084376E+03  0.69064666478E+03  0.12418273646E+04  0.10003348247E+04 0.  0.
        -13    1    1    2    0    0 -0.14462409025E+03  0.14671240022E+03 -0.47383994173E+03  0.51668651753E+03  0.10566000000E+00 0.  1.
         13    1    3    3    0    0 -0.16951742676E+03  0.17923216011E+03  0.69888485748E+03  0.74114801515E+03  0.10566000000E+00 0. -1.
          2    1    1    2  502    0 -0.28834920522E+02  0.38718443541E+02  0.50925973279E+03  0.51154280950E+03  0.00000000000E+00 0. -1.
         -4    1    3    3    0  502  0.34297643754E+03 -0.36466300387E+03 -0.82381926991E+01  0.50067934940E+03  0.00000000000E+00 0. -1.
</event>
<event>
 7    1  0.5696597E-006  0.1323980E+04  0.7818608E-02  0.8593638E-01
          2   -1    0    0  502    0  0.00000000000E+00  0.00000000000E+00  0.18781513914E+04  0.18781513914E+04  0.00000000000E+00 0. -1.
          4   -1    0    0  501    0 -0.00000000000E+00 -0.00000000000E+00 -0.28434254231E+04  0.28434254231E+04  0.00000000000E+00 0.  1.
    9000010    2    1    2  502    0 -0.85851043397E+03  0.41542412624E+03 -0.19444972799E+04  0.23555016985E+04  0.92612159599E+03 0.  0.
        -13    1    3    3    0    0 -0.82431563957E+03  0.36413391400E+03 -0.78721056357E+03  0.11965743870E+04  0.10566000000E+00 0.  1.
         13    1    1    2    0    0  0.85269101119E+03 -0.38303770937E+03 -0.37810593429E+03  0.10083471407E+04  0.10566000000E+00 0. -1.
          2    1    1    2  501    0  0.58194227864E+01 -0.32386416871E+02  0.13573291824E+04  0.13577279753E+04  0.00000000000E+00 0. -1.
          4    1    3    3  502    0 -0.34194794402E+02  0.51290212240E+02 -0.11572867163E+04  0.11589273116E+04  0.00000000000E+00 0.  1.
</event>
<event>
 7    1  0.5696597E-006  0.1793480E+04  0.7818608E-02  0.8285030E-01
          2   -1    0    0  501    0  0.00000000000E+00  0.00000000000E+00  0.14234496368E+04  0.14234496368E+04  0.00000000000E+00 0.  1.
         -4   -1    0    0    0  501 -0.00000000000E+00 -0.00000000000E+00 -0.26778109938E+04  0.26778109938E+04  0.00000000000E+00 0. -1.
   -9000010    2    1    2    0  502  0.43734517402E+03  0.15071156878E+04  0.25626661215E+03  0.18056530425E+04  0.85559443420E+03 0.  0.
        -13    1    1    2    0    0 -0.45643616394E+03 -0.15110358501E+04 -0.15741036028E+04  0.22292073649E+04  0.10566000000E+00 0.  1.
         13    1    3    3    0    0  0.43976954808E+03  0.35009401062E+03  0.32011800492E+03  0.64686831730E+03  0.10566000000E+00 0. -1.
          2    1    1    2  502    0  0.19090989920E+02  0.39201623750E+01  0.63475633621E+02  0.66400223138E+02  0.00000000000E+00 0.  1.
         -4    1    3    3    0  502 -0.24243740676E+01  0.11570216772E+04 -0.63851392774E+02  0.11587847252E+04  0.00000000000E+00 0. -1.
</event>
<event>
 7    1  0.5696597E-006  0.1141746E+04  0.7818608E-02  0.9089377E-01
         -2   -1    0    0    0  501  0.00000000000E+00  0.00000000000E+00  0.70155941117E+03  0.70155941117E+03  0.00000000000E+00 0. -1.
         -4   -1    0    0    0  502 -0.00000000000E+00 -0.00000000000E+00 -0.15275923973E+04  0.15275923973E+04  0.00000000000E+00 0. -1.
   -9000010    2    1    2    0  501 -0.12529304663E+03  0.41127676139E+03 -0.50655431013E+03  0.11987445458E+04  0.99776966029E+03 0.  0.
        -13    1    1    2    0    0  0.45352665560E+02  0.17856660344E+03 -0.38968825983E+03  0.43104506395E+03  0.10566000000E+00 0.  1.
         13    1    3    3    0    0 -0.32031528978E+03  0.63889409496E+03 -0.54192967638E+03  0.89692549007E+03  0.10566000000E+00 0. -1.
         -2    1    1    2    0  502  0.79940381066E+02 -0.58984336483E+03  0.70209583862E+02  0.59936219870E+03  0.00000000000E+00 0. -1.
         -4    1    3    3    0  501  0.19502224315E+03 -0.22761733357E+03  0.35375366246E+02  0.30181905573E+03  0.00000000000E+00 0. -1.
</event>
<event>
 7    1  0.5696597E-006  0.9065896E+03  0.7818608E-02  0.9181411E-01
          1   -1    0    0  501    0  0.00000000000E+00  0.00000000000E+00  0.84019196502E+03  0.84019196502E+03  0.00000000000E+00 0. -1.
         -4   -1    0    0    0  501 -0.00000000000E+00 -0.00000000000E+00 -0.60371114203E+03  0.60371114203E+03  0.00000000000E+00 0. -1.
   -9000010    2    1    2    0  502  0.18354812865E+03 -0.18627685346E+03  0.11806618760E+03  0.91570843136E+03  0.86959377007E+03 0.  0.
        -13    1    1    2    0    0 -0.16018947506E+03  0.19932893433E+03 -0.12407647222E+03  0.28423172607E+03  0.10566000000E+00 0.  1.
         13    1    3    3    0    0 -0.13528080579E+03 -0.44606666577E+03  0.18024604782E+03  0.49976496040E+03  0.10566000000E+00 0. -1.
          1    1    1    2  502    0 -0.23358653592E+02 -0.13052080877E+02  0.24249110762E+03  0.24396294962E+03  0.00000000000E+00 0. -1.
         -4    1    3    3    0  502  0.31882893444E+03  0.25978981232E+03 -0.62179860213E+02  0.41594347096E+03  0.00000000000E+00 0. -1.
</event>
<event>
 7    1  0.5696597E-006  0.1055541E+04  0.7818608E-02  0.9003342E-01
          4   -1    0    0  501    0 -0.00000000000E+00  0.00000000000E+00  0.67048591425E+03  0.67048591425E+03  0.00000000000E+00 0.  1.
          2   -1    0    0  502    0  0.00000000000E+00 -0.00000000000E+00 -0.13406652005E+04  0.13406652005E+04  0.00000000000E+00 0.  1.
    9000010    2    1    2  502    0  0.11863747770E+03  0.28662000287E+02 -0.29411887899E+03  0.10522749628E+04  0.10029358508E+04 0.  0.
        -13    1    3    3    0    0  0.33787221861E+03  0.12506860267E+03 -0.57785936793E+03  0.68097081564E+03  0.10566000000E+00 0.  1.
         13    1    1    2    0    0 -0.36808159530E+03  0.50738205229E+02  0.12626769710E+03  0.39243084583E+03  0.10566000000E+00 0. -1.
          2    1    1    2  501    0  0.24944411760E+03 -0.79400205516E+02 -0.50232810434E+03  0.56644530614E+03  0.00000000000E+00 0.  1.
          4    1    3    3  502    0 -0.21923474091E+03 -0.96406602387E+02  0.28374048894E+03  0.37130414712E+03  0.00000000000E+00 0.  1.
</event>
<event>
 7    1  0.5696597E-006  0.1015660E+04  0.7818608E-02  0.9110374E-01
          1   -1    0    0  501    0  0.00000000000E+00  0.00000000000E+00  0.94380281738E+03  0.94380281738E+03  0.00000000000E+00 0.  1.
         -4   -1    0    0    0  501 -0.00000000000E+00 -0.00000000000E+00 -0.32041015978E+04  0.32041015978E+04  0.00000000000E+00 0. -1.
   -9000010    2    1    2    0  502  0.18965489435E+03 -0.89296999636E+02 -0.21412785488E+04  0.23669760174E+04  0.98669078770E+03 0.  0.
        -13    1    1    2    0    0 -0.20592738383E+03  0.13361472071E+03 -0.93342120965E+03  0.96516016639E+03  0.10566000000E+00 0.  1.
         13    1    3    3    0    0  0.22971670633E+03  0.38306067895E+03 -0.56083082020E+03  0.71696336654E+03  0.10566000000E+00 0. -1.
          1    1    1    2  502    0  0.16272489481E+02 -0.44317721076E+02  0.81440097801E+03  0.81576823137E+03  0.00000000000E+00 0.  1.
         -4    1    3    3    0  502 -0.40061811978E+02 -0.47235767858E+03 -0.15804477286E+04  0.16500126509E+04  0.00000000000E+00 0. -1.
</event>
<event>
 7    1  0.5696597E-006  0.7418368E+03  0.7818608E-02  0.9408516E-01
         -4   -1    0    0    0  501 -0.00000000000E+00  0.00000000000E+00  0.18479997352E+03  0.18479997352E+03  0.00000000000E+00 0. -1.
          1   -1    0    0  501    0  0.00000000000E+00 -0.00000000000E+00 -0.34414914860E+04  0.34414914860E+04  0.00000000000E+00 0. -1.
   -9000010    2    1    2    0  502  0.10633776098E+03 -0.21600204413E+02 -0.11835400193E+04  0.13833664176E+04  0.70792752437E+03 0.  0.
        -13    1    1    2    0    0 -0.24530483093E+02 -0.19610129027E+03 -0.46569337018E+02  0.20304229845E+03  0.10566000000E+00 0.  1.
         13    1    3    3    0    0  0.11405679188E+03  0.23441737732E+03 -0.11565815376E+03  0.28519691138E+03  0.10566000000E+00 0. -1.
          1    1    1    2  502    0 -0.81807277886E+02  0.21770149468E+03 -0.20265821562E+04  0.20398827435E+04  0.00000000000E+00 0. -1.
         -4    1    3    3    0  502 -0.77190308981E+01 -0.25601758173E+03 -0.10678818655E+04  0.10981695062E+04  0.00000000000E+00 0. -1.
</event>
<event>
 7    1  0.5696597E-006  0.1154040E+04  0.7818608E-02  0.8997655E-01
          4   -1    0    0  501    0  0.00000000000E+00  0.00000000000E+00  0.18752904774E+04  0.18752904774E+04  0.00000000000E+00 0.  1.
          4   -1    0    0  502    0 -0.00000000000E+00 -0.00000000000E+00 -0.53894406011E+03  0.53894406011E+03  0.00000000000E+00 0.  1.
    9000010    2    1    2  501    0  0.11634129578E+02  0.40311999678E+03  0.69662927393E+03  0.12884250677E+04  0.10060346539E+04 0.  0.
        -13    1    3    3    0    0  0.34317205979E+03  0.39785942900E+03  0.78560892302E+03  0.94511405606E+03  0.10566000000E+00 0.  1.
         13    1    1    2    0    0 -0.25758482671E+02  0.25636544361E+03  0.25334987870E+03  0.36134874057E+03  0.10566000000E+00 0. -1.
          4    1    3    3  501    0 -0.33153793021E+03  0.52605677828E+01 -0.88979649087E+02  0.34331101161E+03  0.00000000000E+00 0.  1.
          4    1    1    2  502    0  0.14124353094E+02 -0.65948544039E+03  0.38636726469E+03  0.76446072932E+03  0.00000000000E+00 0.  1.
</event>
<event>
 7    1  0.5696597E-006  0.1048259E+04  0.7818608E-02  0.9103048E-01
          1   -1    0    0  501    0  0.00000000000E+00  0.00000000000E+00  0.12059275530E+04  0.12059275530E+04  0.00000000000E+00 0. -1.
         -4   -1    0    0    0  501 -0.00000000000E+00 -0.00000000000E+00 -0.95371026347E+03  0.95371026347E+03  0.00000000000E+00 0. -1.
   -9000010    2    1    2    0  502  0.11998917392E+03  0.24310465621E+03 -0.11437679208E+03  0.10651635283E+04  0.10237157885E+04 0.  0.
        -13    1    1    2    0    0 -0.14211365698E+03 -0.17146987623E+03 -0.32766153612E+03  0.39618215933E+03  0.10566000000E+00 0.  1.
         13    1    3    3    0    0 -0.40447613696E+03  0.48205709433E+02 -0.26473052661E+03  0.48580551528E+03  0.10566000000E+00 0. -1.
          1    1    1    2  502    0  0.22124483060E+02 -0.71634779985E+02  0.69425561773E+03  0.69829212885E+03  0.00000000000E+00 0. -1.
         -4    1    3    3    0  502  0.52446531088E+03  0.19489894678E+03  0.15035373453E+03  0.57935801302E+03  0.00000000000E+00 0. -1.
</event>
<event>
 7    1  0.5696597E-006  0.1021095E+04  0.7818608E-02  0.9201794E-01
         -4   -1    0    0    0  501 -0.00000000000E+00  0.00000000000E+00  0.37772250427E+03  0.37772250427E+03  0.00000000000E+00 0. -1.
          1   -1    0    0  501    0  0.00000000000E+00 -0.00000000000E+00 -0.27219060172E+04  0.27219060172E+04  0.00000000000E+00 0. -1.
   -9000010    2    1    2    0  502 -0.18762528169E+02  0.26416024532E+03 -0.73676652331E+03  0.12759754908E+04  0.10075494407E+04 0.  0.
        -13    1    1    2    0    0 -0.57909307317E+02 -0.15033246524E+03  0.43636248357E+02  0.16690557604E+03  0.10566000000E+00 0.  1.
         13    1    3    3    0    0 -0.47359808868E+03  0.25545111421E+03 -0.58869207920E+03  0.79756428996E+03  0.10566000000E+00 0. -1.
          1    1    1    2  502    0  0.76671835486E+02 -0.11382778009E+03 -0.16510532380E+04  0.16567474546E+04  0.00000000000E+00 0. -1.
         -4    1    3    3    0  502  0.45483556051E+03  0.87091311171E+01 -0.14807444411E+03  0.47841120082E+03  0.00000000000E+00 0. -1.
</event>
<event>
 7    1  0.5696597E-006  0.1054602E+04  0.7818608E-02  0.9008516E-01
          2   -1    0    0  501    0  0.00000000000E+00  0.00000000000E+00  0.85391972018E+03  0.85391972018E+03  0.00000000000E+00 0.  1.
         -4   -1    0    0    0  501 -0.00000000000E+00 -0.00000000000E+00 -0.23497962594E+04  0.23497962594E+04  0.00000000000E+00 0. -1.
   -9000010    2    1    2    0  502  0.34189299743E+03 -0.30407652434E+02 -0.14326900248E+04  0.17827495237E+04  0.10038823188E+04 0.  0.
        -13    1    1    2    0    0 -0.31479209141E+03  0.53745700647E+02 -0.70720013966E+03  0.77596050792E+03  0.10566000000E+00 0.  1.
         13    1    3    3    0    0  0.65966799509E+03  0.46858532799E+02 -0.61910617839E+03  0.90589737670E+03  0.10566000000E+00 0. -1.
          2    1    1    2  502    0 -0.27100906026E+02 -0.23338048213E+02  0.64401362517E+03  0.64500594804E+03  0.00000000000E+00 0.  1.
         -4    1    3    3    0  502 -0.31777499765E+03 -0.77266185233E+02 -0.81358384638E+03  0.87685214695E+03  0.00000000000E+00 0. -1.
</event>
<event>
 7    1  0.5696597E-006  0.1159426E+04  0.7818608E-02  0.9068123E-01
          2   -1    0    0  502    0  0.00000000000E+00  0.00000000000E+00  0.11972348709E+04  0.11972348709E+04  0.00000000000E+00 0.  1.
          4   -1    0    0  501    0 -0.00000000000E+00 -0.00000000000E+00 -0.15900349014E+04  0.15900349014E+04  0.00000000000E+00 0.  1.
    9000010    2    1    2  502    0  0.41254235894E+03 -0.13937425905E+03 -0.26303376502E+03  0.11202533210E+04  0.99808033726E+03 0.  0.
        -13    1    3    3    0    0 -0.55481579921E+02 -0.46982325948E+03 -0.27499042940E+03  0.54720366253E+03  0.10566000000E+00 0.  1.
         13    1    1    2    0    0  0.19138239714E+03  0.51408002004E+01 -0.76007837677E+03  0.78381936679E+03  0.10566000000E+00 0. -1.
          2    1    1    2  501    0 -0.60392475608E+03  0.13423345885E+03  0.63031211124E+03  0.88319708449E+03  0.00000000000E+00 0.  1.
          4    1    3    3  502    0  0.46802393886E+03  0.33044900043E+03  0.11956664380E+02  0.57304965846E+03  0.00000000000E+00 0.  1.
</event>
<event>
 7    1  0.5696597E-006  0.1041835E+04  0.7818608E-02  0.9051694E-01
          4   -1    0    0  501    0 -0.00000000000E+00  0.00000000000E+00  0.64004887363E+03  0.64004887363E+03  0.00000000000E+00 0.  1.
          2   -1    0    0  502    0  0.00000000000E+00 -0.00000000000E+00 -0.13414706232E+04  0.13414706232E+04  0.00000000000E+00 0.  1.
    9000010    2    1    2  502    0 -0.26925176308E+03  0.12566351474E+03  0.76184214118E+02  0.10488681596E+04  0.10030117401E+04 0.  0.
        -13    1    3    3    0    0 -0.28727719747E+03 -0.14691087054E+03  0.46968855335E+03  0.56984062717E+03  0.10566000000E+00 0.  1.
         13    1    1    2    0    0  0.22808272858E+03 -0.15388129142E+03 -0.17089832345E+03  0.32389416642E+03  0.10566000000E+00 0. -1.
          2    1    1    2  501    0  0.41169034503E+02  0.28217776677E+02 -0.60670764024E+03  0.60875717084E+03  0.00000000000E+00 0.  1.
          4    1    3    3  502    0  0.18025434391E+02  0.27257438528E+03 -0.39350433923E+03  0.47902753239E+03  0.00000000000E+00 0.  1.
</event>
<event>
 7    1  0.5696597E-006  0.1060156E+04  0.7818608E-02  0.9671748E-01
          2   -1    0    0  502    0  0.00000000000E+00  0.00000000000E+00  0.20301868425E+04  0.20301868425E+04  0.00000000000E+00 0.  1.
          4   -1    0    0  501    0 -0.00000000000E+00 -0.00000000000E+00 -0.33147248118E+03  0.33147248118E+03  0.00000000000E+00 0.  1.
    9000010    2    1    2  502    0  0.30810204952E+03  0.58747854623E+02  0.62624737031E+03  0.12250549783E+04  0.10050849456E+04 0.  0.
        -13    1    3    3    0    0 -0.38350453586E+01  0.48281850353E+03  0.47500948074E+03  0.67732003727E+03  0.10566000000E+00 0.  1.
         13    1    1    2    0    0  0.26224884712E+02 -0.47927756696E+00  0.27906767166E+02  0.38298473897E+02  0.10566000000E+00 0. -1.
          2    1    1    2  501    0 -0.33432693423E+03 -0.58268577056E+02  0.10445602238E+04  0.10983058714E+04  0.00000000000E+00 0.  1.
          4    1    3    3  502    0  0.31193709488E+03 -0.42407064891E+03  0.15123788956E+03  0.54773494107E+03  0.00000000000E+00 0.  1.
</event>
<event>
 7    1  0.7831927E-006  0.8198855E+03  0.7818608E-02  0.9134338E-01
          4   -1    0    0  501    0 -0.00000000000E+00  0.00000000000E+00  0.38060564390E+03  0.38060564390E+03  0.00000000000E+00 0.  1.
          2   -1    0    0  502    0  0.00000000000E+00 -0.00000000000E+00 -0.22205362692E+04  0.22205362692E+04  0.00000000000E+00 0.  1.
    9000010    2    1    2  502    0 -0.39603710101E+03  0.12811097236E+03 -0.12615650859E+03  0.82935425965E+03  0.70615523557E+03 0.  0.
        -13    1    3    3    0    0 -0.32152324177E+03  0.10649728415E+03  0.26532961551E+03  0.43025420690E+03  0.10566000000E+00 0.  1.
         13    1    1    2    0    0  0.40060520015E+03 -0.11874853950E+03 -0.14818996549E+04  0.15396792979E+04  0.10566000000E+00 0. -1.
          2    1    1    2  501    0 -0.45680991482E+01 -0.93624328577E+01 -0.23187446178E+03  0.23210835553E+03  0.00000000000E+00 0.  1.
          4    1    3    3  502    0 -0.74513859238E+02  0.21613688203E+02 -0.39148612410E+03  0.39910005274E+03  0.00000000000E+00 0.  1.
</event>
<event>
 7    1  0.5696597E-006  0.1019032E+04  0.7818608E-02  0.9163508E-01
         -4   -1    0    0    0  501 -0.00000000000E+00  0.00000000000E+00  0.20369637193E+04  0.20369637193E+04  0.00000000000E+00 0. -1.
          1   -1    0    0  501    0  0.00000000000E+00 -0.00000000000E+00 -0.82378138726E+03  0.82378138726E+03  0.00000000000E+00 0. -1.
   -9000010    2    1    2    0  502  0.15463184365E+03 -0.86505562873E+02  0.10975406785E+04  0.14956451852E+04  0.10004822635E+04 0.  0.
        -13    1    1    2    0    0 -0.16639180185E+03  0.10092634893E+03  0.72743857291E+03  0.75302008483E+03  0.10566000000E+00 0.  1.
         13    1    3    3    0    0 -0.14585780559E+03  0.22549715089E+03  0.10210397494E+04  0.10557677991E+04  0.10566000000E+00 0. -1.
          1    1    1    2  502    0  0.11759958199E+02 -0.14420786056E+02 -0.61179691938E+03  0.61207983650E+03  0.00000000000E+00 0. -1.
         -4    1    3    3    0  502  0.30048964925E+03 -0.31200271376E+03  0.76500929102E+02  0.43987738616E+03  0.00000000000E+00 0. -1.
</event>
<event>
 7    1  0.5696597E-006  0.1110514E+04  0.7818608E-02  0.9295776E-01
          2   -1    0    0  502    0  0.00000000000E+00  0.00000000000E+00  0.81139222017E+03  0.81139222017E+03  0.00000000000E+00 0.  1.
          4   -1    0    0  501    0 -0.00000000000E+00 -0.00000000000E+00 -0.11022356254E+04  0.11022356254E+04  0.00000000000E+00 0.  1.
    9000010    2    1    2  502    0 -0.31216354074E+02 -0.38022946513E+03 -0.49506625953E+02  0.10874983256E+04  0.10171788414E+04 0.  0.
        -13    1    3    3    0    0 -0.13686858453E+03 -0.36607775884E+03 -0.49428218173E+03  0.63012762301E+03  0.10566000000E+00 0.  1.
         13    1    1    2    0    0  0.22515141383E+02 -0.87017218129E+02 -0.33728309865E+03  0.34905419012E+03  0.10566000000E+00 0. -1.
          2    1    1    2  501    0  0.87012126912E+01  0.46724668326E+03  0.95946319381E+02  0.47707532982E+03  0.00000000000E+00 0.  1.
          4    1    3    3  502    0  0.10565223045E+03 -0.14151706293E+02  0.44477555577E+03  0.45737070261E+03  0.00000000000E+00 0.  1.
</event>
<event>
 7    1  0.5696597E-006  0.1303818E+04  0.7818608E-02  0.8628150E-01
         -2   -1    0    0    0  501  0.00000000000E+00  0.00000000000E+00  0.17958570914E+04  0.17958570914E+04  0.00000000000E+00 0. -1.
         -4   -1    0    0    0  502 -0.00000000000E+00 -0.00000000000E+00 -0.15748392898E+04  0.15748392898E+04  0.00000000000E+00 0. -1.
   -9000010    2    1    2    0  501  0.74976456339E+03 -0.32787829486E+03  0.59748633694E+03  0.14153509906E+04  0.98821932125E+03 0.  0.
        -13    1    1    2    0    0 -0.76586819116E+03  0.38160388160E+03 -0.10074984555E+04  0.13218278094E+04  0.10566000000E+00 0.  1.
         13    1    3    3    0    0  0.78309816571E+03 -0.53919853571E+03  0.69750606608E+03  0.11791914694E+04  0.10566000000E+00 0. -1.
         -2    1    1    2    0  502  0.16103627762E+02 -0.53725586741E+02  0.63102992017E+03  0.63351758117E+03  0.00000000000E+00 0. -1.
         -4    1    3    3    0  501 -0.33333602314E+02  0.21132024085E+03 -0.10001972914E+03  0.23615952120E+03  0.00000000000E+00 0. -1.
</event>
<event>
 7    1  0.5696597E-006  0.1067199E+04  0.7818608E-02  0.9010037E-01
          4   -1    0    0  501    0 -0.00000000000E+00  0.00000000000E+00  0.31497574848E+03  0.31497574848E+03  0.00000000000E+00 0.  1.
          2   -1    0    0  502    0  0.00000000000E+00 -0.00000000000E+00 -0.37208721279E+04  0.37208721279E+04  0.00000000000E+00 0.  1.
    9000010    2    1    2  502    0 -0.14020959201E+03 -0.33207054614E+03 -0.12238847353E+04  0.16342264321E+04  0.10212113438E+04 0.  0.
        -13    1    3    3    0    0 -0.31340792317E+03  0.26322540904E+03 -0.74803984177E+03  0.85268737431E+03  0.10566000000E+00 0.  1.
         13    1    1    2    0    0  0.15258625154E+03  0.26159918351E+03 -0.10080300713E+03  0.31918326143E+03  0.10566000000E+00 0. -1.
          2    1    1    2  501    0 -0.12376659527E+02  0.70471362632E+02 -0.20812086370E+04  0.20824381828E+04  0.00000000000E+00 0.  1.
          4    1    3    3  502    0  0.17319833116E+03 -0.59529595518E+03 -0.47584489354E+03  0.78153905781E+03  0.00000000000E+00 0.  1.
</event>
<event>
 7    1  0.5696597E-006  0.1020143E+04  0.7818608E-02  0.9126623E-01
         -2   -1    0    0    0  501  0.00000000000E+00  0.00000000000E+00  0.14769694676E+04  0.14769694676E+04  0.00000000000E+00 0. -1.
         -4   -1    0    0    0  502 -0.00000000000E+00 -0.00000000000E+00 -0.36868701880E+03  0.36868701880E+03  0.00000000000E+00 0. -1.
   -9000010    2    1    2    0  501  0.57270560267E+02  0.96869352272E+00  0.74934687332E+03  0.12473142685E+04  0.99548545570E+03 0.  0.
        -13    1    1    2    0    0 -0.25591018589E+03  0.73481527296E+02  0.18851002399E+03  0.32622936472E+03  0.10566000000E+00 0.  1.
         13    1    3    3    0    0  0.22034627741E+03  0.25829923561E+03  0.85889541982E+03  0.92356501148E+03  0.10566000000E+00 0. -1.
         -2    1    1    2    0  502  0.19863962562E+03 -0.74450220818E+02  0.17042555152E+03  0.27211285316E+03  0.00000000000E+00 0. -1.
         -4    1    3    3    0  501 -0.16307571714E+03 -0.25733054209E+03 -0.10954854649E+03  0.32374925707E+03  0.00000000000E+00 0. -1.
</event>
<event>
 7    1  0.5696597E-006  0.1011085E+04  0.7818608E-02  0.9396334E-01
          2   -1    0    0  502    0  0.00000000000E+00  0.00000000000E+00  0.19894451391E+04  0.19894451391E+04  0.00000000000E+00 0.  1.
          4   -1    0    0  501    0 -0.00000000000E+00 -0.00000000000E+00 -0.97622746458E+03  0.97622746458E+03  0.00000000000E+00 0.  1.
    9000010    2    1    2  502    0  0.28762388599E+02 -0.88145111283E+02 -0.66618263969E+03  0.12109081565E+04  0.10069272160E+04 0.  0.
        -13    1    3    3    0    0 -0.31392187554E+03  0.33112223357E+03 -0.40333416738E+03  0.60898878418E+03  0.10566000000E+00 0.  1.
         13    1    1    2    0    0 -0.80682199940E+02  0.12624233407E+02  0.93455376395E+01  0.82196951853E+02  0.10566000000E+00 0. -1.
          2    1    1    2  501    0  0.51919811341E+02  0.75520877876E+02  0.16700547766E+04  0.16725674954E+04  0.00000000000E+00 0.  1.
          4    1    3    3  502    0  0.34268426414E+03 -0.41926734485E+03 -0.26284847230E+03  0.60191937229E+03  0.00000000000E+00 0.  1.
</event>
<event>
 7    1  0.5696597E-006  0.1038816E+04  0.7818608E-02  0.9037389E-01
          4   -1    0    0  501    0 -0.00000000000E+00  0.00000000000E+00  0.20376753415E+04  0.20376753415E+04  0.00000000000E+00 0.  1.
          2   -1    0    0  502    0  0.00000000000E+00 -0.00000000000E+00 -0.12410022897E+04  0.12410022897E+04  0.00000000000E+00 0.  1.
    9000010    2    1    2  502    0  0.74638709532E+02  0.29106633374E+03  0.13247912756E+04  0.16834217374E+04  0.99425664414E+03 0.  0.
        -13    1    3    3    0    0  0.16688283729E+02  0.60717050795E+03  0.46325572614E+03  0.76389816305E+03  0.10566000000E+00 0.  1.
         13    1    1    2    0    0 -0.90729208087E+02 -0.28719944955E+03  0.49099226727E+03  0.57601105086E+03  0.10566000000E+00 0. -1.
          2    1    1    2  501    0  0.16090498555E+02 -0.38668841954E+01 -0.10191104911E+04  0.10192448430E+04  0.00000000000E+00 0.  1.
          4    1    3    3  502    0  0.57950425803E+02 -0.31610417421E+03  0.86153554943E+03  0.91952357432E+03  0.00000000000E+00 0.  1.
</event>
<event>
 7    1  0.5696597E-006  0.1022301E+04  0.7818608E-02  0.9222590E-01
         -4   -1    0    0    0  501 -0.00000000000E+00  0.00000000000E+00  0.61808634301E+03  0.61808634301E+03  0.00000000000E+00 0. -1.
          2   -1    0    0  501    0  0.00000000000E+00 -0.00000000000E+00 -0.14055623446E+04  0.14055623446E+04  0.00000000000E+00 0. -1.
   -9000010    2    1    2    0  502 -0.40135110612E+02  0.11403579272E+03 -0.29937104467E+03  0.10611801592E+04  0.10108735424E+04 0.  0.
        -13    1    1    2    0    0 -0.43985770363E+02 -0.14805027021E+03  0.20878211361E+03  0.25969908093E+03  0.10566000000E+00 0.  1.
         13    1    3    3    0    0 -0.18875390888E+03 -0.36073649701E+03  0.10456930073E+03  0.42034938826E+03  0.10566000000E+00 0. -1.
          2    1    1    2  502    0  0.84120880975E+02  0.34014477492E+02 -0.69688707050E+03  0.70276944749E+03  0.00000000000E+00 0. -1.
         -4    1    3    3    0  502  0.14861879827E+03  0.47477228973E+03 -0.40394034540E+03  0.64083077090E+03  0.00000000000E+00 0. -1.
</event>
<event>
 7    1  0.5696597E-006  0.1145999E+04  0.7818608E-02  0.8907050E-01
          1   -1    0    0  501    0  0.00000000000E+00  0.00000000000E+00  0.19621275314E+04  0.19621275314E+04  0.00000000000E+00 0. -1.
         -4   -1    0    0    0  501 -0.00000000000E+00 -0.00000000000E+00 -0.78372189883E+03  0.78372189883E+03  0.00000000000E+00 0. -1.
   -9000010    2    1    2    0  502 -0.47732922955E+03  0.42404972654E+02  0.14869021067E+03  0.11915429593E+04  0.10807518077E+04 0.  0.
        -13    1    1    2    0    0  0.34851764953E+03 -0.10467697491E+03 -0.12953100408E+03  0.38626430496E+03  0.10566000000E+00 0.  1.
         13    1    3    3    0    0 -0.60763952021E+01 -0.45653958830E+03 -0.89120926342E+02  0.46519659171E+03  0.10566000000E+00 0. -1.
          1    1    1    2  502    0  0.12881158002E+03  0.62272002255E+02  0.11592464260E+04  0.11680421660E+04  0.00000000000E+00 0. -1.
         -4    1    3    3    0  502 -0.47125283435E+03  0.49894456095E+03  0.23781113702E+03  0.72634636756E+03  0.00000000000E+00 0. -1.
</event>
<event>
 7    1  0.5696597E-006  0.1096318E+04  0.7818608E-02  0.8916341E-01
          1   -1    0    0  501    0  0.00000000000E+00  0.00000000000E+00  0.96394512464E+03  0.96394512464E+03  0.00000000000E+00 0.  1.
         -4   -1    0    0    0  501 -0.00000000000E+00 -0.00000000000E+00 -0.24262308094E+04  0.24262308094E+04  0.00000000000E+00 0. -1.
   -9000010    2    1    2    0  502  0.40699928657E+03 -0.83473576284E+02 -0.17429261171E+04  0.20583419089E+04  0.10130960995E+04 0.  0.
        -13    1    1    2    0    0 -0.38659088199E+03  0.17564993953E+03 -0.43623163949E+03  0.60877209673E+03  0.10566000000E+00 0.  1.
         13    1    3    3    0    0 -0.27990953041E+03 -0.23901001655E+03 -0.80741606652E+03  0.88735328300E+03  0.10566000000E+00 0. -1.
          1    1    1    2  502    0 -0.20408404584E+02 -0.92176363249E+02  0.71687207187E+03  0.72306192843E+03  0.00000000000E+00 0.  1.
         -4    1    3    3    0  502  0.68690881698E+03  0.15553644027E+03 -0.93551005060E+03  0.11709886258E+04  0.00000000000E+00 0. -1.
</event>
<event>
 7    1  0.5696597E-006  0.1141408E+04  0.7818608E-02  0.8824375E-01
          2   -1    0    0  502    0  0.00000000000E+00  0.00000000000E+00  0.13238204111E+04  0.13238204111E+04  0.00000000000E+00 0.  1.
          4   -1    0    0  501    0 -0.00000000000E+00 -0.00000000000E+00 -0.11509724671E+04  0.11509724671E+04  0.00000000000E+00 0.  1.
    9000010    2    1    2  502    0 -0.24286634703E+03 -0.50827542905E+03 -0.26874233407E+03  0.11813939570E+04  0.10030659326E+04 0.  0.
        -13    1    3    3    0    0  0.23630765189E+03  0.13925092944E+03  0.10458488911E+03  0.29354750533E+03  0.10566000000E+00 0.  1.
         13    1    1    2    0    0  0.22256348646E+03  0.48954396000E+03 -0.25577253627E+03  0.59548920709E+03  0.10566000000E+00 0. -1.
          2    1    1    2  501    0  0.20302860564E+02  0.18731469049E+02  0.69736281442E+03  0.69790971409E+03  0.00000000000E+00 0.  1.
          4    1    3    3  502    0 -0.47917399892E+03 -0.64752635849E+03 -0.37332722318E+03  0.88784645167E+03  0.00000000000E+00 0.  1.
</event>
<event>
 7    1  0.5696597E-006  0.8673998E+03  0.7818608E-02  0.9190275E-01
          2   -1    0    0  502    0  0.00000000000E+00  0.00000000000E+00  0.11679885380E+04  0.11679885380E+04  0.00000000000E+00 0.  1.
          4   -1    0    0  501    0 -0.00000000000E+00 -0.00000000000E+00 -0.98833492820E+03  0.98833492820E+03  0.00000000000E+00 0.  1.
    9000010    2    1    2  502    0  0.15170276121E+03 -0.24525220760E+03 -0.59068260876E+03  0.10509477738E+04  0.82001396688E+03 0.  0.
        -13    1    3    3    0    0  0.43228863784E+03 -0.18219145830E+03 -0.96135907481E+02  0.47886252490E+03  0.10566000000E+00 0.  1.
         13    1    1    2    0    0 -0.16318963406E+03  0.22769719349E+03 -0.50175974185E+02  0.28459534103E+03  0.10566000000E+00 0. -1.
          2    1    1    2  501    0  0.11486872854E+02  0.17555014112E+02  0.82051219273E+03  0.82078035136E+03  0.00000000000E+00 0.  1.
          4    1    3    3  502    0 -0.28058587663E+03 -0.63060749294E+02 -0.49454670128E+03  0.57208524890E+03  0.00000000000E+00 0.  1.
</event>
<event>
 7    1  0.5696597E-006  0.1049172E+04  0.7818608E-02  0.9036824E-01
          2   -1    0    0  502    0  0.00000000000E+00  0.00000000000E+00  0.70702426668E+03  0.70702426668E+03  0.00000000000E+00 0.  1.
          4   -1    0    0  501    0 -0.00000000000E+00 -0.00000000000E+00 -0.16921768943E+04  0.16921768943E+04  0.00000000000E+00 0.  1.
    9000010    2    1    2  502    0 -0.16867708347E+03 -0.26713070082E+03 -0.51492263804E+03  0.11747232244E+04  0.10074812955E+04 0.  0.
        -13    1    3    3    0    0 -0.38115555660E+02  0.34248877413E+03  0.31062182062E+02  0.34600032703E+03  0.10566000000E+00 0.  1.
         13    1    1    2    0    0  0.16479912342E+03  0.23994175392E+03 -0.82180396562E+03  0.87183287701E+03  0.10566000000E+00 0. -1.
          2    1    1    2  501    0  0.38779600488E+01  0.27188946902E+02  0.35157397606E+03  0.35264505959E+03  0.00000000000E+00 0.  1.
          4    1    3    3  502    0 -0.13056152781E+03 -0.60961947495E+03 -0.54598482010E+03  0.82872289733E+03  0.00000000000E+00 0.  1.
</event>
<event>
 7    1  0.5696597E-006  0.1111350E+04  0.7818608E-02  0.8865746E-01
          4   -1    0    0  501    0  0.00000000000E+00  0.00000000000E+00  0.58277171130E+03  0.58277171130E+03  0.00000000000E+00 0.  1.
         -4   -1    0    0    0  501 -0.00000000000E+00 -0.00000000000E+00 -0.25131355420E+04  0.25131355420E+04  0.00000000000E+00 0. -1.
   -9000010    2    1    2    0  502 -0.57133352323E+03 -0.29180769108E+02 -0.18276691813E+04  0.21579138705E+04  0.99445669793E+03 0.  0.
        -13    1    1    2    0    0  0.43428270327E+03  0.13406416028E+03 -0.39261162266E+03  0.60059850386E+03  0.10566000000E+00 0.  1.
         13    1    3    3    0    0 -0.55820999498E+03 -0.17412073966E+03 -0.19052729650E+04  0.19929830689E+04  0.10566000000E+00 0. -1.
          4    1    1    2  502    0  0.13705081996E+03 -0.10488339117E+03  0.28991697323E+03  0.33739487898E+03  0.00000000000E+00 0.  1.
         -4    1    3    3    0  502 -0.13123528254E+02  0.14493997055E+03  0.77603783738E+02  0.16493080157E+03  0.00000000000E+00 0. -1.
</event>
<event>
 6    1  0.5696597E-006  0.6407710E+03  0.7818608E-02  0.9320498E-01
         -4   -1    0    0    0  501 -0.00000000000E+00  0.00000000000E+00  0.16467785758E+04  0.16467785758E+04  0.00000000000E+00 0. -1.
          1   -1    0    0  501    0  0.00000000000E+00 -0.00000000000E+00 -0.77145894202E+03  0.77145894202E+03  0.00000000000E+00 0.  1.
        -13    1    1    2    0    0 -0.38169692275E+03 -0.18705629220E+03  0.79164649776E+03  0.89854704155E+03  0.10566000000E+00 0.  1.
         13    1    1    2    0    0  0.24801252250E+03  0.23543415081E+03  0.12897776093E+03  0.36547876089E+03  0.10566000000E+00 0. -1.
          1    1    1    2  502    0 -0.79548394390E+01  0.82554962313E+01 -0.58920948676E+03  0.58932100927E+03  0.00000000000E+00 0.  1.
         -4    1    1    2    0  502  0.14163923969E+03 -0.56633354843E+02  0.54390486180E+03  0.56489070606E+03  0.00000000000E+00 0. -1.
</event>
<event>
 7    1  0.5696597E-006  0.1038709E+04  0.7818608E-02  0.9002403E-01
         -4   -1    0    0    0  501 -0.00000000000E+00  0.00000000000E+00  0.28940905463E+03  0.28940905463E+03  0.00000000000E+00 0. -1.
          2   -1    0    0  501    0  0.00000000000E+00 -0.00000000000E+00 -0.31053000895E+04  0.31053000895E+04  0.00000000000E+00 0. -1.
   -9000010    2    1    2    0  502  0.98226366517E+02 -0.28164047138E+03 -0.14713784014E+04  0.17923958026E+04  0.97916216167E+03 0.  0.
        -13    1    1    2    0    0  0.33450592858E+03  0.28407522418E+03 -0.67297031715E+03  0.80341894935E+03  0.10566000000E+00 0.  1.
         13    1    3    3    0    0  0.21489233324E+02  0.33680121339E+03 -0.24590794541E+03  0.41757343459E+03  0.10566000000E+00 0. -1.
          2    1    1    2  502    0 -0.43273229510E+03 -0.24347527938E+01 -0.67154231628E+03  0.79889439214E+03  0.00000000000E+00 0. -1.
         -4    1    3    3    0  502  0.76737133193E+02 -0.61844168477E+03 -0.12254704560E+04  0.13748223680E+04  0.00000000000E+00 0. -1.
</event>
<event>
 7    1  0.5696597E-006  0.9832355E+03  0.7818608E-02  0.9677569E-01
         -4   -1    0    0    0  501 -0.00000000000E+00  0.00000000000E+00  0.31423233044E+03  0.31423233044E+03  0.00000000000E+00 0. -1.
          2   -1    0    0  501    0  0.00000000000E+00 -0.00000000000E+00 -0.17321180004E+04  0.17321180004E+04  0.00000000000E+00 0. -1.
   -9000010    2    1    2    0  502 -0.19332376277E+02  0.27074822991E+02 -0.61468552991E+03  0.11595944333E+04  0.98270756705E+03 0.  0.
        -13    1    1    2    0    0 -0.36675222159E+01 -0.32059672373E+02  0.35356997669E+02  0.47868588449E+02  0.10566000000E+00 0.  1.
         13    1    3    3    0    0 -0.26593274746E+03 -0.19989041757E+01  0.18387619843E+03  0.32331824771E+03  0.10566000000E+00 0. -1.
          2    1    1    2  502    0  0.22999898493E+02  0.49848493827E+01 -0.83855713769E+03  0.83888730902E+03  0.00000000000E+00 0. -1.
         -4    1    3    3    0  502  0.24660037119E+03  0.29073727166E+02 -0.79856172834E+03  0.83627618563E+03  0.00000000000E+00 0. -1.
</event>
<event>
 7    1  0.5696597E-006  0.1037825E+04  0.7818608E-02  0.9015218E-01
          4   -1    0    0  502    0  0.00000000000E+00  0.00000000000E+00  0.41609383335E+03  0.41609383335E+03  0.00000000000E+00 0.  1.
          4   -1    0    0  501    0 -0.00000000000E+00 -0.00000000000E+00 -0.23207310106E+04  0.23207310106E+04  0.00000000000E+00 0.  1.
    9000010    2    1    2  502    0 -0.31881882915E+02  0.36865296479E+03 -0.17364132401E+04  0.20298357575E+04  0.98396178732E+03 0.  0.
        -13    1    3    3    0    0 -0.46681037663E+03  0.34904633557E+02 -0.54565243158E+03  0.71893452305E+03  0.10566000000E+00 0.  1.
         13    1    1    2    0    0  0.53186204393E+02 -0.31021407684E+03 -0.37585968339E+03  0.49023673727E+03  0.10566000000E+00 0. -1.
          4    1    1    2  501    0 -0.21304321478E+02 -0.58438887943E+02  0.20763574629E+03  0.21675234918E+03  0.00000000000E+00 0.  1.
          4    1    3    3  502    0  0.43492849371E+03  0.33374833123E+03 -0.11907608086E+04  0.13109012344E+04  0.00000000000E+00 0.  1.
</event>
<event>
 7    1  0.5696597E-006  0.1331823E+04  0.7818608E-02  0.8809210E-01
          4   -1    0    0  501    0 -0.00000000000E+00  0.00000000000E+00  0.25303887127E+04  0.25303887127E+04  0.00000000000E+00 0.  1.
          2   -1    0    0  502    0  0.00000000000E+00 -0.00000000000E+00 -0.98281638939E+03  0.98281638939E+03  0.00000000000E+00 0.  1.
    9000010    2    1    2  502    0 -0.58439666974E+03  0.25748665520E+03  0.39808281062E+03  0.12608632808E+04  0.10116755624E+04 0.  0.
        -13    1    3    3    0    0  0.25148921761E+03  0.79148141682E+02 -0.87582817142E+02  0.27781651486E+03  0.10566000000E+00 0.  1.
         13    1    1    2    0    0 -0.28959507659E+03  0.22300488110E+03  0.11992744336E+04  0.12537366804E+04  0.10566000000E+00 0. -1.
          2    1    1    2  501    0  0.87399174633E+03 -0.48049153630E+03 -0.49784920920E+02  0.99860514091E+03  0.00000000000E+00 0.  1.
          4    1    3    3  502    0 -0.83588588735E+03  0.17833851352E+03  0.48566562776E+03  0.98304676596E+03  0.00000000000E+00 0.  1.
</event>
<event>
 7    1  0.5696597E-006  0.9993497E+03  0.7818608E-02  0.9395404E-01
          4   -1    0    0  501    0 -0.00000000000E+00  0.00000000000E+00  0.10255774630E+04  0.10255774630E+04  0.00000000000E+00 0.  1.
          2   -1    0    0  502    0  0.00000000000E+00 -0.00000000000E+00 -0.35988820964E+03  0.35988820964E+03  0.00000000000E+00 0. -1.
    9000010    2    1    2  502    0  0.25585648909E+02  0.81697319694E+02  0.75149557485E+03  0.12504287375E+04  0.99573960004E+03 0.  0.
        -13    1    3    3    0    0  0.40013747569E+03 -0.45746492881E+02  0.75395490248E+03  0.85478111070E+03  0.10566000000E+00 0.  1.
         13    1    1    2    0    0 -0.35189368914E+02 -0.77149488934E+02 -0.51700483872E+02  0.99314080190E+02  0.10566000000E+00 0. -1.
          2    1    1    2  501    0  0.96037200052E+01 -0.45478307594E+01 -0.34105837644E+02  0.35722854924E+02  0.00000000000E+00 0. -1.
          4    1    3    3  502    0 -0.37455182678E+03  0.12744381257E+03 -0.24593276332E+01  0.39564762681E+03  0.00000000000E+00 0.  1.
</event>
<event>
 7    1  0.5696597E-006  0.1139105E+04  0.7818608E-02  0.8840867E-01
          4   -1    0    0  501    0 -0.00000000000E+00  0.00000000000E+00  0.72608379968E+03  0.72608379968E+03  0.00000000000E+00 0.  1.
          2   -1    0    0  502    0  0.00000000000E+00 -0.00000000000E+00 -0.21049126918E+04  0.21049126918E+04  0.00000000000E+00 0. -1.
    9000010    2    1    2  502    0  0.46924305092E+03 -0.17366588873E+03  0.19004219738E+03  0.11500473863E+04  0.10179116229E+04 0.  0.
        -13    1    3    3    0    0 -0.31493808109E+03 -0.10450132899E+03  0.14327635839E+03  0.36143415544E+03  0.10566000000E+00 0.  1.
         13    1    1    2    0    0 -0.50076188901E+03  0.20953556667E+03 -0.13151603968E+04  0.14227840678E+04  0.10566000000E+00 0. -1.
          2    1    1    2  501    0  0.31518838083E+02 -0.35869677942E+02 -0.25371069270E+03  0.25816503741E+03  0.00000000000E+00 0. -1.
          4    1    3    3  502    0  0.78418113201E+03 -0.69164559740E+02  0.46765838992E+02  0.78861323082E+03  0.00000000000E+00 0.  1.
</event>
<event>
 7    1  0.5696597E-006  0.1011759E+04  0.7818608E-02  0.9436845E-01
         -4   -1    0    0    0  501 -0.00000000000E+00  0.00000000000E+00  0.71294641042E+03  0.71294641042E+03  0.00000000000E+00 0. -1.
          1   -1    0    0  501    0  0.00000000000E+00 -0.00000000000E+00 -0.70398747570E+03  0.70398747570E+03  0.00000000000E+00 0. -1.
   -9000010    2    1    2    0  502 -0.85654798421E+01 -0.71707877051E+02  0.77821029924E+02  0.10148909936E+04  0.10093226586E+04 0.  0.
        -13    1    1    2    0    0 -0.65599551248E+01  0.69850754163E+02  0.15893788057E+03  0.17373376734E+03  0.10566000000E+00 0.  1.
         13    1    3    3    0    0  0.34814727584E+03  0.21184213755E+03  0.30182283728E+03  0.50712981886E+03  0.10566000000E+00 0. -1.
          1    1    1    2  502    0  0.15125434967E+02  0.18571228873E+01 -0.22779997578E+03  0.22830912521E+03  0.00000000000E+00 0. -1.
         -4    1    3    3    0  502 -0.35671275568E+03 -0.28355001460E+03 -0.22400180735E+03  0.50776117471E+03  0.00000000000E+00 0. -1.
</event>
<event>
 7    1  0.5696597E-006  0.1083999E+04  0.7818608E-02  0.9375217E-01
          4   -1    0    0  501    0 -0.00000000000E+00  0.00000000000E+00  0.24200524052E+03  0.24200524052E+03  0.00000000000E+00 0.  1.
          2   -1    0    0  502    0  0.00000000000E+00 -0.00000000000E+00 -0.29136533047E+04  0.29136533047E+04  0.00000000000E+00 0.  1.
    9000010    2    1    2  502    0 -0.21341084924E+03 -0.20911318452E+03 -0.13108061989E+04  0.16973649647E+04  0.10361285720E+04 0.  0.
        -13    1    3    3    0    0 -0.25748214453E+03 -0.52733998587E+03 -0.34775618221E+03  0.68214286544E+03  0.10566000000E+00 0.  1.
         13    1    1    2    0    0 -0.59552003553E+02  0.39902505165E+02 -0.13170621231E+02  0.72884343128E+02  0.10566000000E+00 0. -1.
          2    1    1    2  501    0  0.27296285280E+03  0.16921067936E+03 -0.13476712441E+04  0.13854092374E+04  0.00000000000E+00 0.  1.
          4    1    3    3  502    0  0.44071295283E+02  0.31822680135E+03 -0.96305001665E+03  0.10152220992E+04  0.00000000000E+00 0.  1.
</event>
<event>
 7    1  0.5696597E-006  0.1010695E+04  0.7818608E-02  0.9218686E-01
         -4   -1    0    0    0  501 -0.00000000000E+00  0.00000000000E+00  0.26127524533E+03  0.26127524533E+03  0.00000000000E+00 0. -1.
          4   -1    0    0  501    0  0.00000000000E+00 -0.00000000000E+00 -0.28863956639E+04  0.28863956639E+04  0.00000000000E+00 0.  1.
   -9000010    2    1    2    0  502 -0.44395920184E+02 -0.18313004968E+03 -0.78192017289E+03  0.12817057807E+04  0.99792932551E+03 0.  0.
        -13    1    1    2    0    0  0.16108872857E+02  0.14619944503E+03 -0.48134961810E+03  0.50332021569E+03  0.10566000000E+00 0.  1.
         13    1    3    3    0    0  0.29586539093E+02 -0.31820209636E+03  0.13864027143E+03  0.34835193906E+03  0.10566000000E+00 0. -1.
          4    1    1    2  502    0  0.28287047327E+02  0.36930604652E+02 -0.13618506276E+04  0.13626449128E+04  0.00000000000E+00 0.  1.
         -4    1    3    3    0  502 -0.73982459278E+02  0.13507204668E+03 -0.92056044432E+03  0.93335384165E+03  0.00000000000E+00 0. -1.
</event>
<event>
 7    1  0.5696597E-006  0.1034765E+04  0.7818608E-02  0.8999494E-01
          2   -1    0    0  502    0  0.00000000000E+00  0.00000000000E+00  0.18249369045E+04  0.18249369045E+04  0.00000000000E+00 0.  1.
          4   -1    0    0  501    0 -0.00000000000E+00 -0.00000000000E+00 -0.20235970983E+04  0.20235970983E+04  0.00000000000E+00 0.  1.
    9000010    2    1    2  502    0  0.63695045137E+02 -0.31293156635E+03 -0.41816504030E+03  0.11053157584E+04  0.97204819882E+03 0.  0.
        -13    1    3    3    0    0  0.25354211007E+03 -0.46932709106E+03 -0.59745324913E+03  0.80093814745E+03  0.10566000000E+00 0.  1.
         13    1    1    2    0    0 -0.75861583441E+02  0.34923515196E+03 -0.12362959281E+04  0.12869140625E+04  0.10566000000E+00 0. -1.
          2    1    1    2  501    0  0.12166538304E+02 -0.36303585609E+02  0.14558007746E+04  0.14563041819E+04  0.00000000000E+00 0.  1.
          4    1    3    3  502    0 -0.18984706493E+03  0.15639552471E+03  0.17928820883E+03  0.30437761094E+03  0.00000000000E+00 0.  1.
</event>
<event>
 7    1  0.5696597E-006  0.1007723E+04  0.7818608E-02  0.9441574E-01
          2   -1    0    0  502    0  0.00000000000E+00  0.00000000000E+00  0.11961074132E+04  0.11961074132E+04  0.00000000000E+00 0. -1.
          4   -1    0    0  501    0 -0.00000000000E+00 -0.00000000000E+00 -0.20119572911E+04  0.20119572911E+04  0.00000000000E+00 0.  1.
    9000010    2    1    2  502    0 -0.73521436175E+02  0.81535592299E+01 -0.17664988440E+04  0.20338695737E+04  0.10053036331E+04 0.  0.
        -13    1    3    3    0    0 -0.93998870987E+02  0.36744417803E+03 -0.15870415423E+04  0.16317327845E+04  0.10566000000E+00 0.  1.
         13    1    1    2    0    0  0.69033654593E+02  0.88890794340E+01 -0.10085612475E+03  0.12254236109E+03  0.10566000000E+00 0. -1.
          2    1    1    2  501    0  0.44877815817E+01 -0.17042638664E+02  0.10515050908E+04  0.10516527695E+04  0.00000000000E+00 0. -1.
          4    1    3    3  502    0  0.20477434812E+02 -0.35929061880E+03 -0.17945730166E+03  0.40213678918E+03  0.00000000000E+00 0.  1.
</event>
<event>
 7    1  0.5696597E-006  0.1409762E+04  0.7818608E-02  0.8671285E-01
          2   -1    0    0  502    0  0.00000000000E+00  0.00000000000E+00  0.22674434932E+04  0.22674434932E+04  0.00000000000E+00 0.  1.
          4   -1    0    0  501    0 -0.00000000000E+00 -0.00000000000E+00 -0.10765365580E+04  0.10765365580E+04  0.00000000000E+00 0.  1.
    9000010    2    1    2  502    0 -0.67785732343E+03  0.51771503180E+03  0.49685191269E+03  0.13962437640E+04  0.98747932652E+03 0.  0.
        -13    1    3    3    0    0 -0.14074459348E+03 -0.17455044234E+03  0.46872405276E+03  0.51959517542E+03  0.10566000000E+00 0.  1.
         13    1    1    2    0    0  0.18228172258E+03  0.52626286843E+03 -0.71536458152E+02  0.56151287526E+03  0.10566000000E+00 0. -1.
          2    1    1    2  501    0  0.49557560084E+03 -0.10439779002E+04  0.76559148066E+03  0.13862234119E+04  0.00000000000E+00 0.  1.
          4    1    3    3  502    0 -0.53711272995E+03  0.69226547414E+03  0.28127859927E+02  0.87664858859E+03  0.00000000000E+00 0.  1.
</event>
<event>
 7    1  0.5696597E-006  0.1028749E+04  0.7818608E-02  0.9116991E-01
         -4   -1    0    0    0  501 -0.00000000000E+00  0.00000000000E+00  0.29432154897E+03  0.29432154897E+03  0.00000000000E+00 0. -1.
          2   -1    0    0  501    0  0.00000000000E+00 -0.00000000000E+00 -0.33295194301E+04  0.33295194301E+04  0.00000000000E+00 0. -1.
   -9000010    2    1    2    0  502  0.13915945437E+03 -0.30464147970E+02 -0.10925024855E+04  0.14903682790E+04  0.10036645397E+04 0.  0.
        -13    1    1    2    0    0 -0.17038183139E+03 -0.17585266896E+03 -0.77769019560E+02  0.25690885780E+03  0.10566000000E+00 0.  1.
         13    1    3    3    0    0  0.30960374056E+03  0.32905700073E+02  0.65510398301E+02  0.31816487034E+03  0.10566000000E+00 0. -1.
          2    1    1    2  502    0  0.31222377018E+02  0.20631681693E+03 -0.18649263761E+04  0.18765638423E+04  0.00000000000E+00 0. -1.
         -4    1    3    3    0  502 -0.17044428619E+03 -0.63369848043E+02 -0.11580128838E+04  0.11722034087E+04  0.00000000000E+00 0. -1.
</event>
<event>
 7    1  0.5696597E-006  0.1013568E+04  0.7818608E-02  0.9094013E-01
          2   -1    0    0  501    0  0.00000000000E+00  0.00000000000E+00  0.34052406519E+04  0.34052406519E+04  0.00000000000E+00 0. -1.
         -4   -1    0    0    0  501 -0.00000000000E+00 -0.00000000000E+00 -0.43377948727E+03  0.43377948727E+03  0.00000000000E+00 0. -1.
   -9000010    2    1    2    0  502 -0.22784973802E+03 -0.54392591578E+02  0.19768628794E+04  0.22188587838E+04  0.98003744891E+03 0.  0.
        -13    1    1    2    0    0  0.15203250697E+03  0.21173975804E+03 -0.25130209269E+03  0.36207783868E+03  0.10566000000E+00 0.  1.
         13    1    3    3    0    0 -0.53124140938E+03 -0.84379180004E+02  0.58796401203E+03  0.79689332515E+03  0.10566000000E+00 0. -1.
          2    1    1    2  502    0  0.75817231049E+02 -0.15734716646E+03  0.12459003779E+04  0.12580835167E+04  0.00000000000E+00 0. -1.
         -4    1    3    3    0  502  0.30339167137E+03  0.29986588426E+02  0.13888988674E+04  0.14219654586E+04  0.00000000000E+00 0. -1.
</event>
<event>
 7    1  0.5696597E-006  0.9760616E+03  0.7818608E-02  0.9612190E-01
          2   -1    0    0  502    0  0.00000000000E+00  0.00000000000E+00  0.23164273898E+04  0.23164273898E+04  0.00000000000E+00 0.  1.
          4   -1    0    0  501    0 -0.00000000000E+00 -0.00000000000E+00 -0.12273837816E+03  0.12273837816E+03  0.00000000000E+00 0.  1.
    9000010    2    1    2  502    0  0.27009703572E+02 -0.34701706237E+02  0.20868414289E+04  0.23038702118E+04  0.97518053257E+03 0.  0.
        -13    1    3    3    0    0  0.62473704349E+02  0.38368272250E+03  0.16608232128E+04  0.17057107464E+04  0.10566000000E+00 0.  1.
         13    1    1    2    0    0 -0.12744118179E+02  0.39457378605E+02  0.18031569526E+02  0.45215549738E+02  0.10566000000E+00 0. -1.
          2    1    1    2  501    0 -0.14265585394E+02 -0.47556723682E+01  0.88816013292E+02  0.90080006457E+02  0.00000000000E+00 0.  1.
          4    1    3    3  502    0 -0.35464000777E+02 -0.41838442873E+03  0.42601821608E+03  0.59815946535E+03  0.00000000000E+00 0.  1.
</event>
<event>
 7    1  0.5696597E-006  0.9832731E+03  0.7818608E-02  0.9199772E-01
         -4   -1    0    0    0  501 -0.00000000000E+00  0.00000000000E+00  0.56633614490E+03  0.56633614490E+03  0.00000000000E+00 0. -1.
          2   -1    0    0  501    0  0.00000000000E+00 -0.00000000000E+00 -0.16415829745E+04  0.16415829745E+04  0.00000000000E+00 0. -1.
   -9000010    2    1    2    0  502 -0.11082291658E+02 -0.18327202095E+03 -0.18263424803E+02  0.98278411424E+03  0.96530803978E+03 0.  0.
        -13    1    1    2    0    0 -0.90651913344E+01  0.18780495495E+03 -0.21278060572E+02  0.18922379825E+03  0.10566000000E+00 0.  1.
         13    1    3    3    0    0 -0.35323162574E+03 -0.13434034164E+03  0.32294539978E+03  0.49710527177E+03  0.10566000000E+00 0. -1.
          2    1    1    2  502    0  0.20147482992E+02 -0.45329339978E+01 -0.10357053443E+04  0.10359112070E+04  0.00000000000E+00 0. -1.
         -4    1    3    3    0  502  0.34214933409E+03 -0.48931679311E+02 -0.34120882458E+03  0.48567884247E+03  0.00000000000E+00 0. -1.
</event>
<event>
 7    1  0.5696597E-006  0.1017173E+04  0.7818608E-02  0.9150093E-01
         -4   -1    0    0    0  501 -0.00000000000E+00  0.00000000000E+00  0.13216194158E+04  0.13216194158E+04  0.00000000000E+00 0. -1.
          1   -1    0    0  501    0  0.00000000000E+00 -0.00000000000E+00 -0.56392882421E+03  0.56392882421E+03  0.00000000000E+00 0. -1.
   -9000010    2    1    2    0  502 -0.27443278096E+02  0.23766129055E+03  0.28548950940E+03  0.10364640841E+04  0.96722154392E+03 0.  0.
        -13    1    1    2    0    0  0.19456427931E+03  0.64874982061E+02  0.45953463715E+03  0.50322571078E+03  0.10566000000E+00 0.  1.
         13    1    3    3    0    0  0.73392330000E+01 -0.34548633388E+03 -0.70050621682E+02  0.35259292676E+03  0.10566000000E+00 0. -1.
          1    1    1    2  502    0 -0.16712100122E+03 -0.30253627261E+03  0.12666445077E+02  0.34585844521E+03  0.00000000000E+00 0. -1.
         -4    1    3    3    0  502 -0.34782511096E+02  0.58314762444E+03  0.35554013108E+03  0.68387115729E+03  0.00000000000E+00 0. -1.
</event>
<event>
 7    1  0.5696597E-006  0.1043092E+04  0.7818608E-02  0.9774542E-01
          4   -1    0    0  501    0  0.00000000000E+00  0.00000000000E+00  0.36376522715E+03  0.36376522715E+03  0.00000000000E+00 0. -1.
         -4   -1    0    0    0  501 -0.00000000000E+00 -0.00000000000E+00 -0.11595227609E+04  0.11595227609E+04  0.00000000000E+00 0. -1.
   -9000010    2    1    2    0  502  0.18246868628E+03  0.82692099879E+02 -0.53222066133E+03  0.11687014232E+04  0.10210148771E+04 0.  0.
        -13    1    1    2    0    0  0.19276373511E+02 -0.47405902959E+00 -0.24282273923E+02  0.31007149153E+02  0.10566000000E+00 0.  1.
         13    1    3    3    0    0  0.45506201476E+03 -0.27266609857E+03 -0.48423358482E+03  0.71826904041E+03  0.10566000000E+00 0. -1.
          4    1    1    2  502    0 -0.20174505979E+03 -0.82218040850E+02 -0.23925459853E+03  0.32357941577E+03  0.00000000000E+00 0. -1.
         -4    1    3    3    0  502 -0.27259332848E+03  0.35535819845E+03 -0.47987076517E+02  0.45043238277E+03  0.00000000000E+00 0. -1.
</event>
<event>
 7    1  0.5696597E-006  0.9441592E+03  0.7818608E-02  0.9341978E-01
         -4   -1    0    0    0  502 -0.00000000000E+00  0.00000000000E+00  0.12883720702E+04  0.12883720702E+04  0.00000000000E+00 0. -1.
         -2   -1    0    0    0  501  0.00000000000E+00 -0.00000000000E+00 -0.30925332819E+03  0.30925332819E+03  0.00000000000E+00 0. -1.
   -9000010    2    1    2    0  501 -0.26812670878E+02 -0.14398791793E+03  0.94759657751E+03  0.13400502175E+04  0.93613240078E+03 0.  0.
        -13    1    1    2    0    0  0.92311174574E+02  0.81728799974E+02  0.87580295531E+02  0.15123249990E+03  0.10566000000E+00 0.  1.
         13    1    3    3    0    0 -0.84751561244E+01  0.22223061195E+03 -0.89738835470E+02  0.23981522661E+03  0.10566000000E+00 0. -1.
         -2    1    1    2    0  502 -0.65498503696E+02  0.62259117956E+02 -0.56058131028E+02  0.10634268103E+03  0.00000000000E+00 0. -1.
         -4    1    3    3    0  501 -0.18337514754E+02 -0.36621852988E+03  0.10373354130E+04  0.11002349909E+04  0.00000000000E+00 0. -1.
</event>
<event>
 7    1  0.5696597E-006  0.1104360E+04  0.7818608E-02  0.8877583E-01
         -4   -1    0    0    0  501 -0.00000000000E+00  0.00000000000E+00  0.70633450667E+03  0.70633450667E+03  0.00000000000E+00 0. -1.
          2   -1    0    0  501    0  0.00000000000E+00 -0.00000000000E+00 -0.27778459103E+04  0.27778459103E+04  0.00000000000E+00 0.  1.
   -9000010    2    1    2    0  502 -0.24409417710E+03  0.38902208782E+03 -0.41973861040E+03  0.11726358951E+04  0.99396895792E+03 0.  0.
        -13    1    1    2    0    0 -0.29103072727E+01 -0.50132413085E+03  0.12295852457E+03  0.51619101503E+03  0.10566000000E+00 0.  1.
         13    1    3    3    0    0 -0.50735986694E+03  0.67528626125E+02  0.85012932935E+02  0.51884618131E+03  0.10566000000E+00 0. -1.
          2    1    1    2  502    0  0.24700448437E+03  0.11230204303E+03 -0.17747313178E+04  0.17953535068E+04  0.00000000000E+00 0.  1.
         -4    1    3    3    0  502  0.26326568984E+03  0.32149346169E+03 -0.50475154334E+03  0.65378971379E+03  0.00000000000E+00 0. -1.
</event>
<event>
 7    1  0.5696597E-006  0.1003042E+04  0.7818608E-02  0.9236163E-01
         -4   -1    0    0    0  501 -0.00000000000E+00  0.00000000000E+00  0.14132627955E+04  0.14132627955E+04  0.00000000000E+00 0. -1.
          2   -1    0    0  501    0  0.00000000000E+00 -0.00000000000E+00 -0.71902024115E+03  0.71902024115E+03  0.00000000000E+00 0. -1.
   -9000010    2    1    2    0  502  0.12400329259E+03  0.76668062173E+02  0.60653288302E+03  0.11712267777E+04  0.99127958635E+03 0.  0.
        -13    1    1    2    0    0 -0.11953005680E+03 -0.96303503400E+02  0.51290642461E+03  0.53538286377E+03  0.10566000000E+00 0.  1.
         13    1    3    3    0    0 -0.28248920230E+03  0.15322702150E+03  0.67907010291E+03  0.75127550564E+03  0.10566000000E+00 0. -1.
          2    1    1    2  502    0 -0.44732357887E+01  0.19635441227E+02 -0.42519675326E+03  0.42567339519E+03  0.00000000000E+00 0. -1.
         -4    1    3    3    0  502  0.40649249489E+03 -0.76558959324E+02 -0.72537219891E+02  0.41995127208E+03  0.00000000000E+00 0. -1.
</event>
<event>
 7    1  0.5696597E-006  0.1094883E+04  0.7818608E-02  0.8913267E-01
          2   -1    0    0  501    0  0.00000000000E+00  0.00000000000E+00  0.11612153709E+04  0.11612153709E+04  0.00000000000E+00 0.  1.
         -4   -1    0    0    0  501 -0.00000000000E+00 -0.00000000000E+00 -0.17472603445E+04  0.17472603445E+04  0.00000000000E+00 0. -1.
   -9000010    2    1    2    0  502 -0.37933464960E+03 -0.22555214535E+03 -0.66505714321E+03  0.12862188974E+04  0.10086077045E+04 0.  0.
        -13    1    1    2    0    0  0.37280663764E+03  0.20029768262E+03 -0.71336319024E+03  0.82945223074E+03  0.10566000000E+00 0.  1.
         13    1    3    3    0    0  0.33722057822E+03 -0.12693989375E+03 -0.11738855319E+03  0.37896113070E+03  0.10566000000E+00 0. -1.
          2    1    1    2  502    0  0.65280119571E+01  0.25254462733E+02  0.79237535982E+03  0.79280458732E+03  0.00000000000E+00 0.  1.
         -4    1    3    3    0  502 -0.71655522781E+03 -0.98612251604E+02 -0.54766859002E+03  0.90725776666E+03  0.00000000000E+00 0. -1.
</event>
<event>
 7    1  0.5696597E-006  0.1148337E+04  0.7818608E-02  0.8824964E-01
          2   -1    0    0  502    0  0.00000000000E+00  0.00000000000E+00  0.68838797430E+03  0.68838797430E+03  0.00000000000E+00 0. -1.
          4   -1    0    0  501    0 -0.00000000000E+00 -0.00000000000E+00 -0.20819566418E+04  0.20819566418E+04  0.00000000000E+00 0.  1.
    9000010    2    1    2  502    0 -0.53742710790E+03  0.46854009962E+02  0.85218784755E+02  0.11542473229E+04  0.10168586168E+04 0.  0.
        -13    1    3    3    0    0 -0.12238286400E+03 -0.47141840445E+03  0.29631110601E+02  0.48794558235E+03  0.10566000000E+00 0.  1.
         13    1    1    2    0    0  0.50991283345E+03 -0.15878284878E+03 -0.11576738874E+04  0.12749242846E+04  0.10566000000E+00 0. -1.
          2    1    1    2  501    0  0.27514274445E+02  0.11192883882E+03 -0.32111356487E+03  0.34117300860E+03  0.00000000000E+00 0. -1.
          4    1    3    3  502    0 -0.41504424390E+03  0.51827241442E+03  0.55587674153E+02  0.66630174055E+03  0.00000000000E+00 0.  1.
</event>
<event>
 7    1  0.5696597E-006  0.1081454E+04  0.7818608E-02  0.8930630E-01
         -4   -1    0    0    0  501 -0.00000000000E+00  0.00000000000E+00  0.58501308134E+03  0.58501308134E+03  0.00000000000E+00 0. -1.
          2   -1    0    0  501    0  0.00000000000E+00 -0.00000000000E+00 -0.26324574363E+04  0.26324574363E+04  0.00000000000E+00 0. -1.
   -9000010    2    1    2    0  502 -0.25305522218E+03 -0.39299799528E+03 -0.14497428074E+04  0.18221961123E+04  0.10000800439E+04 0.  0.
        -13    1    1    2    0    0  0.15293733839E+03  0.37874639025E+03  0.29056802241E+03  0.50126683953E+03  0.10566000000E+00 0.  1.
         13    1    3    3    0    0 -0.25520091233E+03 -0.66037199086E+03 -0.58920769525E+03  0.92107784213E+03  0.10566000000E+00 0. -1.
          2    1    1    2  502    0  0.10011788379E+03  0.14251605030E+02 -0.88826956993E+03  0.89400756583E+03  0.00000000000E+00 0. -1.
         -4    1    3    3    0  502  0.21456901562E+01  0.26737399558E+03 -0.86053511220E+03  0.90111827016E+03  0.00000000000E+00 0. -1.
</event>
<event>
 7    1  0.5696597E-006  0.9862164E+03  0.7818608E-02  0.9308813E-01
         -4   -1    0    0    0  501 -0.00000000000E+00  0.00000000000E+00  0.11112804893E+04  0.11112804893E+04  0.00000000000E+00 0. -1.
          1   -1    0    0  501    0  0.00000000000E+00 -0.00000000000E+00 -0.64354646367E+03  0.64354646367E+03  0.00000000000E+00 0. -1.
   -9000010    2    1    2    0  502  0.16325011127E+02  0.36677241714E+02  0.73681799169E+03  0.12245542415E+04  0.97725155995E+03 0.  0.
        -13    1    1    2    0    0  0.11772032318E+03 -0.32586610515E+02  0.86873926340E+02  0.14989013282E+03  0.10566000000E+00 0.  1.
         13    1    3    3    0    0 -0.14339370085E+03  0.22702391198E+03  0.89203939080E+03  0.93157710146E+03  0.10566000000E+00 0. -1.
          1    1    1    2  502    0 -0.13404533431E+03 -0.40906311984E+01 -0.35595789245E+03  0.38038257861E+03  0.00000000000E+00 0. -1.
         -4    1    3    3    0  502  0.15971871198E+03 -0.19034667027E+03 -0.15522139911E+03  0.29297714003E+03  0.00000000000E+00 0. -1.
</event>
<event>
 7    1  0.5696597E-006  0.1027415E+04  0.7818608E-02  0.9064973E-01
         -4   -1    0    0    0  501 -0.00000000000E+00  0.00000000000E+00  0.29920491132E+04  0.29920491132E+04  0.00000000000E+00 0. -1.
          5   -1    0    0  501    0  0.00000000000E+00 -0.00000000000E+00 -0.23802653735E+03  0.23802653735E+03  0.00000000000E+00 0.  1.
   -9000010    2    1    2    0  502 -0.33183808494E+03 -0.73672045170E+01  0.21837818926E+04  0.24201299150E+04  0.98891590172E+03 0.  0.
        -13    1    1    2    0    0  0.18681139697E+03  0.22059995124E+03  0.42496366371E+03  0.51396202502E+03  0.10566000000E+00 0.  1.
         13    1    3    3    0    0 -0.56998750360E+03  0.25300749598E+03  0.17682250608E+04  0.18749715795E+04  0.10566000000E+00 0. -1.
          5    1    1    2  502    0  0.14502668797E+03 -0.21323274672E+03  0.14527701953E+03  0.29598371053E+03  0.00000000000E+00 0.  1.
         -4    1    3    3    0  502  0.23814941866E+03 -0.26037470049E+03  0.41555683186E+03  0.54515833550E+03  0.00000000000E+00 0. -1.
</event>
<event>
 7    1  0.5696597E-006  0.1076047E+04  0.7818608E-02  0.8950858E-01
          2   -1    0    0  501    0  0.00000000000E+00  0.00000000000E+00  0.13945781916E+04  0.13945781916E+04  0.00000000000E+00 0.  1.
         -4   -1    0    0    0  501 -0.00000000000E+00 -0.00000000000E+00 -0.65406517110E+03  0.65406517110E+03  0.00000000000E+00 0. -1.
   -9000010    2    1    2    0  502 -0.55389790919E+02 -0.37451483997E+03 -0.94970673629E+02  0.10781289204E+04  0.10049941024E+04 0.  0.
        -13    1    1    2    0    0  0.64693664718E+02  0.38606315668E+03  0.50142442652E+03  0.63612616506E+03  0.10566000000E+00 0.  1.
         13    1    3    3    0    0  0.24175769697E+03 -0.61537306598E+03  0.63282684317E+02  0.66418032467E+03  0.10566000000E+00 0. -1.
          2    1    1    2  502    0 -0.93038737993E+01 -0.11548316712E+02  0.33405926761E+03  0.33438827725E+03  0.00000000000E+00 0.  1.
         -4    1    3    3    0  502 -0.29714748789E+03  0.24085822602E+03 -0.15825335795E+03  0.41394859572E+03  0.00000000000E+00 0. -1.
</event>
<event>
 7    1  0.5696597E-006  0.1140294E+04  0.7818608E-02  0.8833006E-01
          2   -1    0    0  502    0  0.00000000000E+00  0.00000000000E+00  0.11786402172E+04  0.11786402172E+04  0.00000000000E+00 0. -1.
          4   -1    0    0  501    0 -0.00000000000E+00 -0.00000000000E+00 -0.18138366947E+04  0.18138366947E+04  0.00000000000E+00 0.  1.
    9000010    2    1    2  502    0 -0.23881793370E+03 -0.47121012748E+03 -0.14284077381E+04  0.18281627557E+04  0.10113146916E+04 0.  0.
        -13    1    3    3    0    0  0.35475623216E+03  0.31996134940E+02 -0.36029528588E+03  0.50664429445E+03  0.10566000000E+00 0.  1.
         13    1    1    2    0    0  0.22748977443E+03  0.47218048418E+03  0.18472871345E+03  0.55572539608E+03  0.10566000000E+00 0. -1.
          2    1    1    2  501    0  0.11328159264E+02 -0.97035670257E+00  0.60848254716E+03  0.60858876015E+03  0.00000000000E+00 0. -1.
          4    1    3    3  502    0 -0.59357416586E+03 -0.50320626242E+03 -0.10681124522E+04  0.13215184613E+04  0.00000000000E+00 0.  1.
</event>
<event>
 6    1  0.5696597E-006  0.7173906E+03  0.7818608E-02  0.9349039E-01
          2   -1    0    0  502    0  0.00000000000E+00  0.00000000000E+00  0.15153552479E+04  0.15153552479E+04  0.00000000000E+00 0.  1.
          4   -1    0    0  501    0 -0.00000000000E+00 -0.00000000000E+00 -0.21535407258E+04  0.21535407258E+04  0.00000000000E+00 0.  1.
        -13    1    1    2    0    0 -0.35222176619E+03 -0.12578210384E+03 -0.23698805476E+03  0.44276930730E+03  0.10566000000E+00 0.  1.
         13    1    1    2    0    0  0.21188783135E+03  0.17809316948E+03 -0.98697588535E+03  0.10250536764E+04  0.10566000000E+00 0. -1.
          2    1    1    2  501    0 -0.58850759554E+01 -0.35797180295E+02  0.13864840910E+04  0.13869586175E+04  0.00000000000E+00 0.  1.
          4    1    1    2  502    0  0.14621901079E+03 -0.16513885340E+02 -0.80070562876E+03  0.81411437246E+03  0.00000000000E+00 0.  1.
</event>
<event>
 7    1  0.5696597E-006  0.9737536E+03  0.7818608E-02  0.9120400E-01
          2   -1    0    0  502    0  0.00000000000E+00  0.00000000000E+00  0.21059248393E+04  0.21059248393E+04  0.00000000000E+00 0.  1.
          4   -1    0    0  501    0 -0.00000000000E+00 -0.00000000000E+00 -0.58570102658E+03  0.58570102658E+03  0.00000000000E+00 0.  1.
    9000010    2    1    2  502    0  0.25409068315E+03 -0.36343568333E+03  0.77277134581E+02  0.97813449440E+03  0.86840529848E+03 0.  0.
        -13    1    3    3    0    0  0.37934504091E+03 -0.54262563514E+03  0.24144998115E+03  0.70472927039E+03  0.10566000000E+00 0.  1.
         13    1    1    2    0    0 -0.24940332993E+03 -0.82511916361E+02  0.72810990801E+02  0.27260170371E+03  0.10566000000E+00 0. -1.
          2    1    1    2  501    0 -0.46873532248E+01  0.44594759969E+03  0.13701356874E+04  0.14408896678E+04  0.00000000000E+00 0.  1.
          4    1    3    3  502    0 -0.12525435776E+03  0.17918995181E+03 -0.16417284657E+03  0.27340522402E+03  0.00000000000E+00 0.  1.
</event>
<event>
 7    1  0.5696597E-006  0.9942342E+03  0.7818608E-02  0.9290358E-01
          4   -1    0    0  501    0 -0.00000000000E+00  0.00000000000E+00  0.10509315138E+04  0.10509315138E+04  0.00000000000E+00 0.  1.
          2   -1    0    0  502    0  0.00000000000E+00 -0.00000000000E+00 -0.89863022336E+03  0.89863022336E+03  0.00000000000E+00 0.  1.
    9000010    2    1    2  502    0  0.78897400718E+02  0.10144210062E+03  0.75353442468E+03  0.12475915058E+04  0.98597927796E+03 0.  0.
        -13    1    3    3    0    0  0.47116102977E+03  0.27659249070E+03  0.53875067656E+03  0.76729943604E+03  0.10566000000E+00 0.  1.
         13    1    1    2    0    0 -0.97739907114E+02 -0.83125102112E+02 -0.32141614444E+02  0.13227231981E+03  0.10566000000E+00 0. -1.
          2    1    1    2  501    0  0.18842506396E+02 -0.18316998506E+02 -0.56909151981E+03  0.56969791153E+03  0.00000000000E+00 0.  1.
          4    1    3    3  502    0 -0.39226362905E+03 -0.17515039008E+03  0.21478374813E+03  0.48029206977E+03  0.00000000000E+00 0.  1.
</event>
<event>
 7    1  0.5696597E-006  0.1460282E+04  0.7818608E-02  0.8763750E-01
          1   -1    0    0  501    0  0.00000000000E+00  0.00000000000E+00  0.80592904030E+03  0.80592904030E+03  0.00000000000E+00 0. -1.
         -4   -1    0    0    0  501 -0.00000000000E+00 -0.00000000000E+00 -0.31026076431E+04  0.31026076431E+04  0.00000000000E+00 0. -1.
   -9000010    2    1    2    0  502 -0.10846153815E+04  0.22263185952E+03 -0.19316162606E+04  0.24372116856E+04  0.99141512579E+03 0.  0.
        -13    1    1    2    0    0  0.16934731749E+02 -0.33589711569E+03 -0.18118002829E+03  0.38202077336E+03  0.10566000000E+00 0.  1.
         13    1    3    3    0    0 -0.42992373788E+03 -0.61790127840E+02 -0.15855037841E+04  0.16439205275E+04  0.10566000000E+00 0. -1.
          1    1    1    2  502    0  0.10676806497E+04  0.11326525616E+03 -0.18388231393E+03  0.10893042244E+04  0.00000000000E+00 0. -1.
         -4    1    3    3    0  502 -0.65469164357E+03  0.28442198736E+03 -0.34611247648E+03  0.79329115805E+03  0.00000000000E+00 0. -1.
</event>
<event>
 7    1  0.5696597E-006  0.1025579E+04  0.7818608E-02  0.9079525E-01
          2   -1    0    0  502    0  0.00000000000E+00  0.00000000000E+00  0.18345550519E+04  0.18345550519E+04  0.00000000000E+00 0. -1.
          4   -1    0    0  501    0 -0.00000000000E+00 -0.00000000000E+00 -0.13786236588E+04  0.13786236588E+04  0.00000000000E+00 0.  1.
    9000010    2    1    2  502    0 -0.19505495554E+03 -0.12436686926E+03 -0.59406909228E+03  0.11782890505E+04  0.99092555031E+03 0.  0.
        -13    1    3    3    0    0  0.28427947101E+03  0.53403094120E+02  0.10890390389E+03  0.30907406806E+03  0.10566000000E+00 0.  1.
         13    1    1    2    0    0  0.18559154947E+03  0.19511720535E+03 -0.45472141063E+03  0.52847565650E+03  0.10566000000E+00 0. -1.
          2    1    1    2  501    0  0.94634060617E+01 -0.70750336097E+02  0.15047218960E+04  0.15064140037E+04  0.00000000000E+00 0. -1.
          4    1    3    3  502    0 -0.47933442655E+03 -0.17776996338E+03 -0.70297299617E+03  0.86921498244E+03  0.00000000000E+00 0.  1.
</event>
<event>
 7    1  0.5696597E-006  0.1068446E+04  0.7818608E-02  0.8973401E-01
          2   -1    0    0  501    0  0.00000000000E+00  0.00000000000E+00  0.15927298049E+04  0.15927298049E+04  0.00000000000E+00 0. -1.
         -4   -1    0    0    0  501 -0.00000000000E+00 -0.00000000000E+00 -0.12295341026E+04  0.12295341026E+04  0.00000000000E+00 0. -1.
   -9000010    2    1    2    0  502 -0.15294312561E+03  0.35872375379E+03 -0.22191541438E+03  0.11020622171E+04  0.10065884700E+04 0.  0.
        -13    1    1    2    0    0  0.13884159539E+03 -0.32594463075E+03 -0.51193754096E+03  0.62257284548E+03  0.10566000000E+00 0.  1.
         13    1    3    3    0    0 -0.23974776921E+03  0.43330881998E+03  0.29244921838E+03  0.57511919009E+03  0.10566000000E+00 0. -1.
          2    1    1    2  502    0  0.14101530216E+02 -0.32779123036E+02  0.10970486577E+04  0.10976288450E+04  0.00000000000E+00 0. -1.
         -4    1    3    3    0  502  0.86804643610E+02 -0.74585066185E+02 -0.51436463275E+03  0.52694302697E+03  0.00000000000E+00 0. -1.
</event>
<event>
 7    1  0.5696597E-006  0.1056234E+04  0.7818608E-02  0.8995606E-01
          2   -1    0    0  501    0  0.00000000000E+00  0.00000000000E+00  0.12673951980E+04  0.12673951980E+04  0.00000000000E+00 0.  1.
         -4   -1    0    0    0  501 -0.00000000000E+00 -0.00000000000E+00 -0.23295647015E+04  0.23295647015E+04  0.00000000000E+00 0. -1.
   -9000010    2    1    2    0  502 -0.10594263083E+02 -0.27067376779E+03 -0.19348913161E+03  0.10543324382E+04  0.10004010792E+04 0.  0.
        -13    1    1    2    0    0  0.27097603630E+02  0.34049936187E+03 -0.16869673032E+04  0.17212009728E+04  0.10566000000E+00 0.  1.
         13    1    3    3    0    0  0.92947904182E+02 -0.44905168051E+03 -0.50410548292E+03  0.68147565894E+03  0.10566000000E+00 0. -1.
          2    1    1    2  502    0 -0.16503340547E+02 -0.69825594082E+02  0.81828693139E+03  0.82142648845E+03  0.00000000000E+00 0.  1.
         -4    1    3    3    0  502 -0.10354216726E+03  0.17837791272E+03  0.31061635131E+03  0.37285677927E+03  0.00000000000E+00 0. -1.
</event>
<event>
 7    1  0.5696597E-006  0.1313824E+04  0.7818608E-02  0.8623258E-01
          2   -1    0    0  501    0  0.00000000000E+00  0.00000000000E+00  0.22107560046E+04  0.22107560046E+04  0.00000000000E+00 0. -1.
         -4   -1    0    0    0  501 -0.00000000000E+00 -0.00000000000E+00 -0.12553008490E+04  0.12553008490E+04  0.00000000000E+00 0. -1.
   -9000010    2    1    2    0  502  0.90616991864E+03 -0.54466321612E+02 -0.27859931913E+03  0.13807560647E+04  0.10023767894E+04 0.  0.
        -13    1    1    2    0    0 -0.80584383631E+03 -0.12366381786E+03 -0.19177843742E+02  0.81550280761E+03  0.10566000000E+00 0.  1.
         13    1    3    3    0    0  0.26390289850E+03  0.34192866488E+03  0.21141894245E+03  0.48089284887E+03  0.10566000000E+00 0. -1.
          2    1    1    2  502    0 -0.10032608233E+03  0.17813013947E+03  0.12532323185E+04  0.12697979814E+04  0.00000000000E+00 0. -1.
         -4    1    3    3    0  502  0.64226702015E+03 -0.39639498649E+03 -0.49001826159E+03  0.89986321581E+03  0.00000000000E+00 0. -1.
</event>
<event>
 7    1  0.5696597E-006  0.1025871E+04  0.7818608E-02  0.9124774E-01
          4   -1    0    0  501    0 -0.00000000000E+00  0.00000000000E+00  0.93302363782E+03  0.93302363782E+03  0.00000000000E+00 0.  1.
          2   -1    0    0  502    0  0.00000000000E+00 -0.00000000000E+00 -0.18144473812E+04  0.18144473812E+04  0.00000000000E+00 0.  1.
    9000010    2    1    2  502    0  0.16829563597E+03 -0.45386979750E+02 -0.32260188997E+02  0.10173852491E+04  0.10018226521E+04 0.  0.
        -13    1    3    3    0    0 -0.33211454290E+03 -0.31013199709E+02 -0.30091714589E+03  0.44923604933E+03  0.10566000000E+00 0.  1.
         13    1    1    2    0    0 -0.22240736248E+03  0.21687790516E+02  0.41138211153E+03  0.46815664899E+03  0.10566000000E+00 0. -1.
          2    1    1    2  501    0  0.54111726513E+02  0.23699189234E+02 -0.12605456659E+04  0.12619291209E+04  0.00000000000E+00 0.  1.
          4    1    3    3  502    0  0.50041017887E+03 -0.14373780041E+02  0.26865695689E+03  0.56814919973E+03  0.00000000000E+00 0.  1.
</event>
<event>
 7    1  0.5696597E-006  0.1269999E+04  0.7818608E-02  0.8667815E-01
          2   -1    0    0  501    0  0.00000000000E+00  0.00000000000E+00  0.20712686488E+04  0.20712686488E+04  0.00000000000E+00 0.  1.
         -4   -1    0    0    0  501 -0.00000000000E+00 -0.00000000000E+00 -0.95189242729E+03  0.95189242729E+03  0.00000000000E+00 0. -1.
   -9000010    2    1    2    0  502  0.85747032358E+02 -0.79451910849E+03  0.30477594778E+03  0.13214573573E+04  0.10073470115E+04 0.  0.
        -13    1    1    2    0    0 -0.51978138200E+02  0.76140269331E+03 -0.11422451980E+03  0.77167547604E+03  0.10566000000E+00 0.  1.
         13    1    3    3    0    0  0.29389209305E+03 -0.79283107623E+03  0.54316777594E+03  0.10049800604E+04  0.10566000000E+00 0. -1.
          2    1    1    2  502    0 -0.33768894158E+02  0.33116415171E+02  0.92882479350E+03  0.93002824268E+03  0.00000000000E+00 0.  1.
         -4    1    3    3    0  502 -0.20814506070E+03 -0.16880322554E+01 -0.23839182817E+03  0.31647729694E+03  0.00000000000E+00 0. -1.
</event>
<event>
 7    1  0.5696597E-006  0.1036962E+04  0.7818608E-02  0.9137691E-01
         -4   -1    0    0    0  501 -0.00000000000E+00  0.00000000000E+00  0.16104469400E+04  0.16104469400E+04  0.00000000000E+00 0. -1.
          2   -1    0    0  501    0  0.00000000000E+00 -0.00000000000E+00 -0.38274564928E+03  0.38274564928E+03  0.00000000000E+00 0. -1.
   -9000010    2    1    2    0  502 -0.95800483763E+02  0.11999482397E+03  0.97132571749E+03  0.14145814579E+04  0.10168532643E+04 0.  0.
        -13    1    1    2    0    0  0.19742930835E+03 -0.77346375066E+02  0.36611151668E+03  0.42308208109E+03  0.10566000000E+00 0.  1.
         13    1    3    3    0    0 -0.39211572356E+03 -0.16457479286E+03  0.79420547961E+02  0.43260517532E+03  0.10566000000E+00 0. -1.
          2    1    1    2  502    0 -0.10162882459E+03 -0.42648448902E+02 -0.10973594347E+03  0.15552905024E+03  0.00000000000E+00 0. -1.
         -4    1    3    3    0  502  0.29631523980E+03  0.28456961683E+03  0.89190516953E+03  0.98197628260E+03  0.00000000000E+00 0. -1.
</event>
<event>
 7    1  0.5696597E-006  0.1056346E+04  0.7818608E-02  0.9036978E-01
          1   -1    0    0  501    0  0.00000000000E+00  0.00000000000E+00  0.11670638530E+04  0.11670638530E+04  0.00000000000E+00 0. -1.
         -4   -1    0    0    0  501 -0.00000000000E+00 -0.00000000000E+00 -0.12858119912E+04  0.12858119912E+04  0.00000000000E+00 0. -1.
   -9000010    2    1    2    0  502 -0.84774041290E+02 -0.25353235701E+03  0.96303166528E+01  0.10512935643E+04  0.10166907697E+04 0.  0.
        -13    1    1    2    0    0  0.15155817722E+03  0.24496780474E+03 -0.73593646934E+03  0.79030475420E+03  0.10566000000E+00 0.  1.
         13    1    3    3    0    0  0.15661725586E+03 -0.59769920869E+03 -0.75202990079E+02  0.62243779592E+03  0.10566000000E+00 0. -1.
          1    1    1    2  502    0 -0.66784135932E+02  0.85645522734E+01  0.60755801454E+03  0.61127752568E+03  0.00000000000E+00 0. -1.
         -4    1    3    3    0  502 -0.24139129716E+03  0.34416685168E+03  0.84833306732E+02  0.42885576838E+03  0.00000000000E+00 0. -1.
</event>
<event>
 7    1  0.5696597E-006  0.1055702E+04  0.7818608E-02  0.9003373E-01
          1   -1    0    0  501    0  0.00000000000E+00  0.00000000000E+00  0.15826903475E+04  0.15826903475E+04  0.00000000000E+00 0. -1.
         -4   -1    0    0    0  501 -0.00000000000E+00 -0.00000000000E+00 -0.37428794693E+03  0.37428794693E+03  0.00000000000E+00 0. -1.
   -9000010    2    1    2    0  502 -0.98752708635E+02  0.29103107101E+03  0.11488956309E+04  0.15558792035E+04  0.10031688509E+04 0.  0.
        -13    1    1    2    0    0  0.81752595897E+02 -0.32138013124E+03 -0.64176209383E+00  0.33161589033E+03  0.10566000000E+00 0.  1.
         13    1    3    3    0    0 -0.53658295994E+02  0.52366468373E+03  0.12027242385E+04  0.13128783335E+04  0.10566000000E+00 0. -1.
          1    1    1    2  502    0  0.17000112737E+02  0.30349060230E+02  0.60148531756E+02  0.69483200576E+02  0.00000000000E+00 0. -1.
         -4    1    3    3    0  502 -0.45094412641E+02 -0.23263361271E+03 -0.53828607580E+02  0.24300086997E+03  0.00000000000E+00 0. -1.
</event>
<event>
 7    1  0.5696597E-006  0.9799598E+03  0.7818608E-02  0.9308658E-01
          1   -1    0    0  501    0  0.00000000000E+00  0.00000000000E+00  0.10111750706E+04  0.10111750706E+04  0.00000000000E+00 0.  1.
         -4   -1    0    0    0  501 -0.00000000000E+00 -0.00000000000E+00 -0.10020356587E+04  0.10020356587E+04  0.00000000000E+00 0. -1.
   -9000010    2    1    2    0  502  0.77193221773E+02  0.43190921220E+02 -0.65136335297E+03  0.11734141731E+04  0.97200944182E+03 0.  0.
        -13    1    1    2    0    0 -0.10998682085E+03 -0.71734647647E+02 -0.40523717696E+02  0.13742322691E+03  0.10566000000E+00 0.  1.
         13    1    3    3    0    0  0.14816088708E+03  0.29223439447E+03 -0.80721357483E+03  0.87117527303E+03  0.10566000000E+00 0. -1.
          1    1    1    2  502    0  0.32793599076E+02  0.28543726427E+02  0.70102648249E+03  0.70237332923E+03  0.00000000000E+00 0.  1.
         -4    1    3    3    0  502 -0.70967665306E+02 -0.24904347326E+03  0.15585022186E+03  0.30223890012E+03  0.00000000000E+00 0. -1.
</event>
<event>
 7    1  0.5696597E-006  0.1132457E+04  0.7818608E-02  0.8848874E-01
          2   -1    0    0  501    0  0.00000000000E+00  0.00000000000E+00  0.69432144671E+03  0.69432144671E+03  0.00000000000E+00 0. -1.
         -4   -1    0    0    0  501 -0.00000000000E+00 -0.00000000000E+00 -0.30228287684E+04  0.30228287684E+04  0.00000000000E+00 0. -1.
   -9000010    2    1    2    0  502  0.54358732418E+03 -0.26287734069E+03 -0.14290950637E+04  0.18536933015E+04  0.10145316553E+04 0.  0.
        -13    1    1    2    0    0 -0.31133092765E+03  0.38012599384E+03 -0.12977661122E+04  0.13876669668E+04  0.10566000000E+00 0.  1.
         13    1    3    3    0    0  0.55947295262E+02 -0.33562255180E+03  0.17789918016E+01  0.34025839166E+03  0.10566000000E+00 0. -1.
          2    1    1    2  502    0 -0.23225639653E+03 -0.11724865315E+03  0.39835385416E+03  0.47578994685E+03  0.00000000000E+00 0. -1.
         -4    1    3    3    0  502  0.48764002892E+03  0.72745211110E+02 -0.14308740555E+04  0.15134349098E+04  0.00000000000E+00 0. -1.
</event>
<event>
 7    1  0.5696597E-006  0.1058988E+04  0.7818608E-02  0.8907440E-01
          2   -1    0    0  502    0  0.00000000000E+00  0.00000000000E+00  0.27210250882E+04  0.27210250882E+04  0.00000000000E+00 0.  1.
          4   -1    0    0  501    0 -0.00000000000E+00 -0.00000000000E+00 -0.18403100995E+04  0.18403100995E+04  0.00000000000E+00 0.  1.
    9000010    2    1    2  502    0 -0.13349745663E+03 -0.41259732103E+03 -0.10765958852E+04  0.14953197697E+04  0.94279605069E+03 0.  0.
        -13    1    3    3    0    0  0.33702233158E+02 -0.39552862955E+03  0.87299193416E+01  0.39705787987E+03  0.10566000000E+00 0.  1.
         13    1    1    2    0    0  0.21987172636E+03  0.46141395367E+03 -0.43528919217E+03  0.67135914731E+03  0.10566000000E+00 0. -1.
          2    1    1    2  501    0 -0.86374269725E+02 -0.48816632640E+02  0.23926000662E+04  0.23946562707E+04  0.00000000000E+00 0.  1.
          4    1    3    3  502    0 -0.16719968979E+03 -0.17068691482E+02 -0.10853258046E+04  0.10982618898E+04  0.00000000000E+00 0.  1.
</event>
<event>
 7    1  0.5696597E-006  0.1034807E+04  0.7818608E-02  0.9051887E-01
          2   -1    0    0  501    0  0.00000000000E+00  0.00000000000E+00  0.14852786658E+04  0.14852786658E+04  0.00000000000E+00 0.  1.
         -4   -1    0    0    0  501 -0.00000000000E+00 -0.00000000000E+00 -0.12368568194E+04  0.12368568194E+04  0.00000000000E+00 0. -1.
   -9000010    2    1    2    0  502  0.78030279009E+02 -0.29420532586E+03 -0.42386806155E+03  0.11227569153E+04  0.99411943902E+03 0.  0.
        -13    1    1    2    0    0  0.44417476124E+02  0.28460505267E+03 -0.41500120012E+03  0.50517220376E+03  0.10566000000E+00 0.  1.
         13    1    3    3    0    0 -0.12564367013E+03 -0.61521117668E+03 -0.39428603463E+03  0.74143955386E+03  0.10566000000E+00 0. -1.
          2    1    1    2  502    0 -0.12244775513E+03  0.96002731936E+01  0.10872911080E+04  0.10942063661E+04  0.00000000000E+00 0.  1.
         -4    1    3    3    0  502  0.20367394914E+03  0.32100585082E+03 -0.29582026926E+02  0.38131736144E+03  0.00000000000E+00 0. -1.
</event>
<event>
 7    1  0.5696597E-006  0.1217871E+04  0.7818608E-02  0.8856750E-01
          2   -1    0    0  502    0  0.00000000000E+00  0.00000000000E+00  0.72920572828E+03  0.72920572828E+03  0.00000000000E+00 0.  1.
          4   -1    0    0  501    0 -0.00000000000E+00 -0.00000000000E+00 -0.12483680626E+04  0.12483680626E+04  0.00000000000E+00 0.  1.
    9000010    2    1    2  502    0  0.28488338349E+03  0.12947973158E+03 -0.12924454982E+03  0.12019196690E+04  0.11532489731E+04 0.  0.
        -13    1    3    3    0    0  0.12733760682E+03  0.62780158259E+03  0.66068974870E+02  0.64398355089E+03  0.10566000000E+00 0.  1.
         13    1    1    2    0    0 -0.35275652368E+03 -0.19281245224E+03 -0.49352740654E+03  0.63653995861E+03  0.10566000000E+00 0. -1.
          2    1    1    2  501    0  0.67873140193E+02  0.63332720668E+02  0.10360962200E+03  0.13911416333E+03  0.00000000000E+00 0.  1.
          4    1    3    3  502    0  0.15754577667E+03 -0.49832185101E+03 -0.19531352469E+03  0.55793611809E+03  0.00000000000E+00 0.  1.
</event>
<event>
 7    1  0.5696597E-006  0.1316844E+04  0.7818608E-02  0.8649705E-01
          4   -1    0    0  501    0 -0.00000000000E+00  0.00000000000E+00  0.15124372379E+04  0.15124372379E+04  0.00000000000E+00 0.  1.
          2   -1    0    0  502    0  0.00000000000E+00 -0.00000000000E+00 -0.18795174206E+04  0.18795174206E+04  0.00000000000E+00 0. -1.
    9000010    2    1    2  502    0 -0.58031930748E+02 -0.69891505305E+03 -0.51766601571E+03  0.13203763612E+04  0.99174879635E+03 0.  0.
        -13    1    3    3    0    0 -0.38829616744E+03 -0.10502816166E+03  0.86099387773E+02  0.41136108728E+03  0.10566000000E+00 0.  1.
         13    1    1    2    0    0  0.70527226586E+03 -0.25786532238E+03  0.45367209084E+03  0.87733794552E+03  0.10566000000E+00 0. -1.
          2    1    1    2  501    0 -0.64724033511E+03  0.95678037542E+03 -0.30308625784E+03  0.11942403518E+04  0.00000000000E+00 0. -1.
          4    1    3    3  502    0  0.33026423669E+03 -0.59388689139E+03 -0.60376540348E+03  0.90901527393E+03  0.00000000000E+00 0.  1.
</event>
<event>
 7    1  0.5696597E-006  0.1019937E+04  0.7818608E-02  0.9188207E-01
          2   -1    0    0  502    0  0.00000000000E+00  0.00000000000E+00  0.15220055677E+04  0.15220055677E+04  0.00000000000E+00 0. -1.
          4   -1    0    0  501    0 -0.00000000000E+00 -0.00000000000E+00 -0.61195778334E+03  0.61195778334E+03  0.00000000000E+00 0.  1.
    9000010    2    1    2  502    0 -0.13058882021E+03 -0.43497084869E+02  0.32750747607E+03  0.10657097954E+04  0.10047540917E+04 0.  0.
        -13    1    3    3    0    0  0.57165023746E+01  0.34684717785E+03 -0.19614424944E+03  0.39850749169E+03  0.10566000000E+00 0.  1.
         13    1    1    2    0    0  0.17529594641E+03 -0.30052441821E+02 -0.20764105916E+03  0.27339831510E+03  0.10566000000E+00 0. -1.
          2    1    1    2  501    0 -0.44707126205E+02  0.73549526690E+02  0.79018136746E+03  0.79485524059E+03  0.00000000000E+00 0. -1.
          4    1    3    3  502    0 -0.13630532258E+03 -0.39034426272E+03  0.52365172551E+03  0.66720230367E+03  0.00000000000E+00 0.  1.
</event>
<event>
 7    1  0.5696597E-006  0.8425987E+03  0.7818608E-02  0.9313506E-01
         -4   -1    0    0    0  501 -0.00000000000E+00  0.00000000000E+00  0.18767581272E+03  0.18767581272E+03  0.00000000000E+00 0. -1.
          2   -1    0    0  501    0  0.00000000000E+00 -0.00000000000E+00 -0.29900342414E+04  0.29900342414E+04  0.00000000000E+00 0. -1.
   -9000010    2    1    2    0  502 -0.42384467417E+02  0.32208982698E+03 -0.13137348409E+04  0.15667884853E+04  0.78954963480E+03 0.  0.
        -13    1    1    2    0    0 -0.16104134148E+03 -0.10530029664E+03 -0.16239947398E+03  0.25178575506E+03  0.10566000000E+00 0.  1.
         13    1    3    3    0    0  0.11241181528E+03 -0.20041264383E+03 -0.13089680836E+03  0.26445345456E+03  0.10566000000E+00 0. -1.
          2    1    1    2  502    0  0.20342580889E+03 -0.21678953034E+03 -0.13262241138E+04  0.13591358137E+04  0.00000000000E+00 0. -1.
         -4    1    3    3    0  502 -0.15479628270E+03  0.52250247081E+03 -0.11828380325E+04  0.13023350308E+04  0.00000000000E+00 0. -1.
</event>
<event>
 7    1  0.5696597E-006  0.1023483E+04  0.7818608E-02  0.9106036E-01
         -4   -1    0    0    0  501 -0.00000000000E+00  0.00000000000E+00  0.28328948826E+03  0.28328948826E+03  0.00000000000E+00 0. -1.
          2   -1    0    0  501    0  0.00000000000E+00 -0.00000000000E+00 -0.35298297366E+04  0.35298297366E+04  0.00000000000E+00 0. -1.
   -9000010    2    1    2    0  502 -0.20701873256E+03 -0.14492717255E+03 -0.23063639972E+04  0.25245521364E+04  0.99508188645E+03 0.  0.
        -13    1    1    2    0    0  0.15944947976E+03  0.17830691114E+03  0.90872883308E+02  0.25588158050E+03  0.10566000000E+00 0.  1.
         13    1    3    3    0    0 -0.46653379831E+03 -0.25267986116E+03 -0.21247092844E+04  0.21899521574E+04  0.10566000000E+00 0. -1.
          2    1    1    2  502    0  0.47569252798E+02 -0.33379738598E+02 -0.10310491345E+04  0.10326855080E+04  0.00000000000E+00 0. -1.
         -4    1    3    3    0  502  0.25951506576E+03  0.10775268861E+03 -0.18165471276E+03  0.33459997897E+03  0.00000000000E+00 0. -1.
</event>
<event>
 7    1  0.5696597E-006  0.1146439E+04  0.7818608E-02  0.8810438E-01
          2   -1    0    0  501    0  0.00000000000E+00  0.00000000000E+00  0.41088498231E+03  0.41088498231E+03  0.00000000000E+00 0.  1.
         -4   -1    0    0    0  501 -0.00000000000E+00 -0.00000000000E+00 -0.29323374376E+04  0.29323374376E+04  0.00000000000E+00 0. -1.
   -9000010    2    1    2    0  502 -0.50252641714E+03 -0.28448460541E+03 -0.21568543893E+04  0.24443448549E+04  0.99465402158E+03 0.  0.
        -13    1    1    2    0    0  0.46560393620E+03  0.31923338805E+03 -0.50010871742E+03  0.75419209877E+03  0.10566000000E+00 0.  1.
         13    1    3    3    0    0 -0.45749281232E+03  0.25426503831E+03 -0.15274030224E+04  0.16145929477E+04  0.10566000000E+00 0. -1.
          2    1    1    2  502    0  0.36922480948E+02 -0.34748782644E+02  0.13551065139E+03  0.14468546622E+03  0.00000000000E+00 0.  1.
         -4    1    3    3    0  502 -0.45033604824E+02 -0.53874964372E+03 -0.62945136694E+03  0.82975190721E+03  0.00000000000E+00 0. -1.
</event>
<event>
 7    1  0.5696597E-006  0.1059220E+04  0.7818608E-02  0.8988481E-01
         -4   -1    0    0    0  501 -0.00000000000E+00  0.00000000000E+00  0.18870844232E+04  0.18870844232E+04  0.00000000000E+00 0. -1.
          1   -1    0    0  501    0  0.00000000000E+00 -0.00000000000E+00 -0.80987718139E+03  0.80987718139E+03  0.00000000000E+00 0. -1.
   -9000010    2    1    2    0  502  0.32404693545E+03 -0.27360206956E+02  0.87642123012E+03  0.13697449255E+04  0.10011653166E+04 0.  0.
        -13    1    1    2    0    0 -0.34878006796E+03  0.17580717168E+02  0.72373854040E+03  0.80358826736E+03  0.10566000000E+00 0.  1.
         13    1    3    3    0    0 -0.12807954178E+03 -0.27122915310E+03 -0.56044587489E+02  0.30514034388E+03  0.10566000000E+00 0. -1.
          1    1    1    2  502    0  0.24733132511E+02  0.97794897880E+01 -0.52295252869E+03  0.52362841169E+03  0.00000000000E+00 0. -1.
         -4    1    3    3    0  502  0.45212647722E+03  0.24386894614E+03  0.93246581761E+03  0.10646045817E+04  0.00000000000E+00 0. -1.
</event>
<event>
 7    1  0.5696597E-006  0.1156519E+04  0.7818608E-02  0.8802239E-01
          1   -1    0    0  501    0  0.00000000000E+00  0.00000000000E+00  0.10996613589E+04  0.10996613589E+04  0.00000000000E+00 0.  1.
         -4   -1    0    0    0  501 -0.00000000000E+00 -0.00000000000E+00 -0.36262417118E+04  0.36262417118E+04  0.00000000000E+00 0. -1.
   -9000010    2    1    2    0  502 -0.48062018394E+03 -0.44123926435E+03 -0.16369672440E+04  0.20279044859E+04  0.10035173125E+04 0.  0.
        -13    1    1    2    0    0  0.24235797582E+03  0.51123322194E+03 -0.17307987503E+04  0.18209231507E+04  0.10566000000E+00 0.  1.
         13    1    3    3    0    0 -0.47802418592E+03 -0.39122758128E+03 -0.29418084748E+03  0.68418456930E+03  0.10566000000E+00 0. -1.
          1    1    1    2  502    0  0.23826220812E+03 -0.69993957591E+02  0.84118564137E+03  0.87707543414E+03  0.00000000000E+00 0.  1.
         -4    1    3    3    0  502 -0.25959980201E+01 -0.50011683065E+02 -0.13427863965E+04  0.13437199166E+04  0.00000000000E+00 0. -1.
</event>
<event>
 7    1  0.5696597E-006  0.1381809E+04  0.7818608E-02  0.8561133E-01
         -4   -1    0    0    0  501 -0.00000000000E+00  0.00000000000E+00  0.27457276612E+04  0.27457276612E+04  0.00000000000E+00 0. -1.
          2   -1    0    0  501    0  0.00000000000E+00 -0.00000000000E+00 -0.89603415348E+03  0.89603415348E+03  0.00000000000E+00 0. -1.
   -9000010    2    1    2    0  502  0.75727278238E+02 -0.96104228921E+03  0.29314524589E+03  0.14139263442E+04  0.99192573776E+03 0.  0.
        -13    1    1    2    0    0 -0.91057234954E+02  0.95728327294E+03  0.17697103877E+04  0.20140897578E+04  0.10566000000E+00 0.  1.
         13    1    3    3    0    0 -0.32166218759E+03 -0.13725607279E+03  0.35356415657E+03  0.49730615964E+03  0.10566000000E+00 0. -1.
          2    1    1    2  502    0  0.15329956717E+02  0.37590162728E+01 -0.21316212593E+03  0.21374571272E+03  0.00000000000E+00 0. -1.
         -4    1    3    3    0  502  0.39738946582E+03 -0.82378621642E+03 -0.60418910688E+02  0.91662018453E+03  0.00000000000E+00 0. -1.
</event>
<event>
 7    1  0.5696597E-006  0.1089480E+04  0.7818608E-02  0.9061425E-01
         -4   -1    0    0    0  501 -0.00000000000E+00  0.00000000000E+00  0.26056009018E+03  0.26056009018E+03  0.00000000000E+00 0. -1.
          2   -1    0    0  501    0  0.00000000000E+00 -0.00000000000E+00 -0.25494125298E+04  0.25494125298E+04  0.00000000000E+00 0. -1.
   -9000010    2    1    2    0  502 -0.28147872406E+03  0.16604189349E+03 -0.16068487425E+04  0.19543705964E+04  0.10633914445E+04 0.  0.
        -13    1    1    2    0    0  0.19319076092E+03 -0.12300011909E+03 -0.75426774645E+02  0.24112426028E+03  0.10566000000E+00 0.  1.
         13    1    3    3    0    0 -0.24314244786E+03  0.33772407438E+02  0.82841066315E+02  0.25907813278E+03  0.10566000000E+00 0. -1.
          2    1    1    2  502    0  0.88287963137E+02 -0.43041774407E+02 -0.60657692240E+03  0.61447776328E+03  0.00000000000E+00 0. -1.
         -4    1    3    3    0  502 -0.38336276199E+02  0.13226948606E+03 -0.16896898089E+04  0.16952924636E+04  0.00000000000E+00 0. -1.
</event>
<event>
 7    1  0.5696597E-006  0.1248001E+04  0.7818608E-02  0.8678246E-01
          2   -1    0    0  501    0  0.00000000000E+00  0.00000000000E+00  0.28992915997E+04  0.28992915997E+04  0.00000000000E+00 0. -1.
         -4   -1    0    0    0  501 -0.00000000000E+00 -0.00000000000E+00 -0.20195962856E+04  0.20195962856E+04  0.00000000000E+00 0. -1.
   -9000010    2    1    2    0  502  0.76245102163E+03 -0.44620959753E+02 -0.67344262492E+03  0.14098975856E+04  0.97517364726E+03 0.  0.
        -13    1    1    2    0    0 -0.76557193005E+03  0.19275286668E+03 -0.81590329099E+03  0.11353203244E+04  0.10566000000E+00 0.  1.
         13    1    3    3    0    0 -0.19646301194E+02  0.33269186708E+03 -0.34991952605E+03  0.48323238866E+03  0.10566000000E+00 0. -1.
          2    1    1    2  502    0  0.31209084185E+01 -0.14813190693E+03  0.23690412300E+04  0.23736699752E+04  0.00000000000E+00 0. -1.
         -4    1    3    3    0  502  0.78209732283E+03 -0.37731282684E+03 -0.32352309887E+03  0.92666519691E+03  0.00000000000E+00 0. -1.
</event>
<event>
 7    1  0.5696597E-006  0.1021131E+04  0.7818608E-02  0.9165738E-01
         -2   -1    0    0    0  501  0.00000000000E+00  0.00000000000E+00  0.30190621106E+03  0.30190621106E+03  0.00000000000E+00 0. -1.
         -4   -1    0    0    0  502 -0.00000000000E+00 -0.00000000000E+00 -0.15806189772E+04  0.15806189772E+04  0.00000000000E+00 0. -1.
   -9000010    2    1    2    0  501  0.20323237962E+03  0.90113850282E+02 -0.84464165789E+03  0.13301083134E+04  0.10031673285E+04 0.  0.
        -13    1    1    2    0    0 -0.16436546216E+03 -0.92017931282E+02 -0.46564627680E+03  0.50230446055E+03  0.10566000000E+00 0.  1.
         13    1    3    3    0    0  0.10895518913E+03  0.26686061886E+03 -0.10224221312E+04  0.10622771996E+04  0.10566000000E+00 0. -1.
         -2    1    1    2    0  502 -0.38866917457E+02  0.19040810001E+01  0.31575168559E+02  0.50112414297E+02  0.00000000000E+00 0. -1.
         -4    1    3    3    0  501  0.94277190489E+02 -0.17674676858E+03  0.17778047332E+03  0.26783111385E+03  0.00000000000E+00 0. -1.
</event>
<event>
 7    1  0.5696597E-006  0.1278349E+04  0.7818608E-02  0.8655227E-01
         -4   -1    0    0    0  501 -0.00000000000E+00  0.00000000000E+00  0.85181150082E+03  0.85181150082E+03  0.00000000000E+00 0. -1.
          1   -1    0    0  501    0  0.00000000000E+00 -0.00000000000E+00 -0.21386560874E+04  0.21386560874E+04  0.00000000000E+00 0.  1.
   -9000010    2    1    2    0  502 -0.64081931506E+03 -0.46651503458E+03 -0.39645340936E+03  0.13332951239E+04  0.99609984926E+03 0.  0.
        -13    1    1    2    0    0  0.64092469918E+03  0.48787230551E+03 -0.39961132246E+02  0.80647427718E+03  0.10566000000E+00 0.  1.
         13    1    3    3    0    0 -0.89651993784E+03 -0.42991768980E+03 -0.40800560417E+03  0.10747305724E+04  0.10566000000E+00 0. -1.
          1    1    1    2  502    0 -0.10538412145E+00 -0.21357270928E+02 -0.85043004499E+03  0.85069818711E+03  0.00000000000E+00 0.  1.
         -4    1    3    3    0  502  0.25570062278E+03 -0.36597344777E+02  0.11552194802E+02  0.25856455159E+03  0.00000000000E+00 0. -1.
</event>
<event>
 7    1  0.5696597E-006  0.1035197E+04  0.7818608E-02  0.9064070E-01
         -4   -1    0    0    0  501 -0.00000000000E+00  0.00000000000E+00  0.36734745721E+04  0.36734745721E+04  0.00000000000E+00 0. -1.
          2   -1    0    0  501    0  0.00000000000E+00 -0.00000000000E+00 -0.32766146950E+03  0.32766146950E+03  0.00000000000E+00 0. -1.
   -9000010    2    1    2    0  502  0.43327820211E+02  0.31990591092E+03  0.22632332945E+04  0.24946642307E+04  0.99845259625E+03 0.  0.
        -13    1    1    2    0    0  0.14243115124E+03 -0.23537807164E+03  0.12263492083E+04  0.12568300845E+04  0.10566000000E+00 0.  1.
         13    1    3    3    0    0 -0.19769404628E+03 -0.21589049973E+03  0.21329396405E+03  0.36219603817E+03  0.10566000000E+00 0. -1.
          2    1    1    2  502    0 -0.18575897145E+03 -0.84527839282E+02 -0.14376940021E+03  0.24964172633E+03  0.00000000000E+00 0. -1.
         -4    1    3    3    0  502  0.24102186649E+03  0.53579641065E+03  0.20499393304E+04  0.21324681925E+04  0.00000000000E+00 0. -1.
</event>
<event>
 7    1  0.5696597E-006  0.1296669E+04  0.7818608E-02  0.8578705E-01
          2   -1    0    0  501    0  0.00000000000E+00  0.00000000000E+00  0.22032644831E+04  0.22032644831E+04  0.00000000000E+00 0.  1.
         -4   -1    0    0    0  501 -0.00000000000E+00 -0.00000000000E+00 -0.18427934297E+04  0.18427934297E+04  0.00000000000E+00 0. -1.
   -9000010    2    1    2    0  502 -0.77572835461E+03 -0.75919804772E+03 -0.38952773409E+03  0.13611071885E+04  0.72301090384E+03 0.  0.
        -13    1    1    2    0    0  0.63888534246E+03  0.86594211936E+03 -0.66126702800E+03  0.12630535730E+04  0.10566000000E+00 0.  1.
         13    1    3    3    0    0 -0.35565020663E+03 -0.63797643075E+03  0.61437671312E+02  0.73299085553E+03  0.10566000000E+00 0. -1.
          2    1    1    2  502    0  0.13684301215E+03 -0.10674407164E+03  0.14112658155E+04  0.14218971513E+04  0.00000000000E+00 0.  1.
         -4    1    3    3    0  502 -0.42007814799E+03 -0.12122161697E+03 -0.45096540541E+03  0.62811633294E+03  0.00000000000E+00 0. -1.
</event>
<event>
 7    1  0.5696597E-006  0.1109387E+04  0.7818608E-02  0.9176645E-01
          1   -1    0    0  501    0  0.00000000000E+00  0.00000000000E+00  0.57390495105E+03  0.57390495105E+03  0.00000000000E+00 0. -1.
         -4   -1    0    0    0  501 -0.00000000000E+00 -0.00000000000E+00 -0.22737263199E+04  0.22737263199E+04  0.00000000000E+00 0. -1.
   -9000010    2    1    2    0  502  0.15456280611E+03 -0.57456101621E+03 -0.94563592324E+03  0.14992551656E+04  0.99976433724E+03 0.  0.
        -13    1    1    2    0    0  0.13138216622E+02  0.14190759076E+03 -0.86059342932E+03  0.87231384192E+03  0.10566000000E+00 0.  1.
         13    1    3    3    0    0  0.33485695310E+03 -0.73110704077E+03 -0.96915272164E+03  0.12593266824E+04  0.10566000000E+00 0. -1.
          1    1    1    2  502    0 -0.16770102273E+03  0.43265342546E+03  0.10640798374E+03  0.47606226335E+03  0.00000000000E+00 0. -1.
         -4    1    3    3    0  502 -0.18029414699E+03  0.15654602456E+03  0.23516798403E+02  0.23992848320E+03  0.00000000000E+00 0. -1.
</event>
<event>
 7    1  0.5696597E-006  0.1010914E+04  0.7818608E-02  0.9097583E-01
         -4   -1    0    0    0  501 -0.00000000000E+00  0.00000000000E+00  0.10143655658E+04  0.10143655658E+04  0.00000000000E+00 0. -1.
          1   -1    0    0  501    0  0.00000000000E+00 -0.00000000000E+00 -0.13897345128E+04  0.13897345128E+04  0.00000000000E+00 0. -1.
   -9000010    2    1    2    0  502  0.57528634995E+02 -0.16766479957E+03  0.10835263263E+03  0.99954742026E+03  0.97771863206E+03 0.  0.
        -13    1    1    2    0    0 -0.13969145595E+03  0.22414195922E+03  0.41957051856E+03  0.49577490049E+03  0.10566000000E+00 0.  1.
         13    1    3    3    0    0 -0.41765680751E+03  0.78429771420E+02  0.17638839894E+03  0.46011011329E+03  0.10566000000E+00 0. -1.
          1    1    1    2  502    0  0.82162820950E+02 -0.56477159646E+02 -0.90329209818E+03  0.90877775795E+03  0.00000000000E+00 0. -1.
         -4    1    3    3    0  502  0.47518544251E+03 -0.24609457099E+03 -0.68035766317E+02  0.53943730696E+03  0.00000000000E+00 0. -1.
</event>
<event>
 7    1  0.5696597E-006  0.1302310E+04  0.7818608E-02  0.8640335E-01
          4   -1    0    0  501    0 -0.00000000000E+00  0.00000000000E+00  0.10762382398E+04  0.10762382398E+04  0.00000000000E+00 0.  1.
          2   -1    0    0  502    0  0.00000000000E+00 -0.00000000000E+00 -0.29499411545E+04  0.29499411545E+04  0.00000000000E+00 0. -1.
    9000010    2    1    2  502    0  0.38707192069E+03  0.67659379455E+03 -0.20514689658E+02  0.12843923226E+04  0.10206071484E+04 0.  0.
        -13    1    3    3    0    0 -0.15929473865E+03  0.53458422386E+03 -0.32234024194E+03  0.64425022228E+03  0.10566000000E+00 0.  1.
         13    1    1    2    0    0 -0.37881005713E+03 -0.73466939251E+03  0.59014276145E+02  0.82868502558E+03  0.10566000000E+00 0. -1.
          2    1    1    2  501    0 -0.82618635637E+01  0.58075597957E+02 -0.19122025012E+04  0.19131020461E+04  0.00000000000E+00 0. -1.
          4    1    3    3  502    0  0.54636665934E+03  0.14200957069E+03  0.30182555228E+03  0.64014210033E+03  0.00000000000E+00 0.  1.
</event>
<event>
 7    1  0.5696597E-006  0.1041513E+04  0.7818608E-02  0.9001128E-01
         -4   -1    0    0    0  501 -0.00000000000E+00  0.00000000000E+00  0.25053000743E+04  0.25053000743E+04  0.00000000000E+00 0. -1.
          2   -1    0    0  501    0  0.00000000000E+00 -0.00000000000E+00 -0.10537695616E+04  0.10537695616E+04  0.00000000000E+00 0. -1.
   -9000010    2    1    2    0  502 -0.33153571259E+03 -0.44291683605E+02  0.85900498532E+03  0.13472415619E+04  0.98249304285E+03 0.  0.
        -13    1    1    2    0    0  0.34260149777E+03  0.52549007355E+02  0.13806956481E+04  0.14235370274E+04  0.10566000000E+00 0.  1.
         13    1    3    3    0    0 -0.61774279097E+03  0.17152082090E+03  0.71661457249E+03  0.96154147309E+03  0.10566000000E+00 0. -1.
          2    1    1    2  502    0 -0.11065785183E+02 -0.82573237507E+01 -0.78817012077E+03  0.78829104667E+03  0.00000000000E+00 0. -1.
         -4    1    3    3    0  502  0.28620707838E+03 -0.21581250450E+03  0.14239041283E+03  0.38570008877E+03  0.00000000000E+00 0. -1.
</event>
<event>
 7    1  0.5696597E-006  0.1078421E+04  0.7818608E-02  0.8938969E-01
         -4   -1    0    0    0  501 -0.00000000000E+00  0.00000000000E+00  0.20937346435E+04  0.20937346435E+04  0.00000000000E+00 0. -1.
          1   -1    0    0  501    0  0.00000000000E+00 -0.00000000000E+00 -0.99871345939E+03  0.99871345939E+03  0.00000000000E+00 0. -1.
   -9000010    2    1    2    0  502 -0.30875909832E+03 -0.26192450920E+02  0.29352834891E+03  0.10882609210E+04  0.10010667886E+04 0.  0.
        -13    1    1    2    0    0  0.21819651763E+03  0.35691540375E+03  0.13187977716E+04  0.13835555281E+04  0.10566000000E+00 0.  1.
         13    1    3    3    0    0 -0.36389684923E+03  0.89317466715E+02  0.62735674248E+03  0.73073594426E+03  0.10566000000E+00 0. -1.
          1    1    1    2  502    0  0.90562580691E+02 -0.33072295283E+03 -0.51730493636E+03  0.62063165383E+03  0.00000000000E+00 0. -1.
         -4    1    3    3    0  502  0.55137750912E+02 -0.11550991764E+03 -0.33382839357E+03  0.35752497675E+03  0.00000000000E+00 0. -1.
</event>
<event>
 7    1  0.5696597E-006  0.1069116E+04  0.7818608E-02  0.8952728E-01
         -4   -1    0    0    0  501 -0.00000000000E+00  0.00000000000E+00  0.10396241449E+04  0.10396241449E+04  0.00000000000E+00 0. -1.
          2   -1    0    0  501    0  0.00000000000E+00 -0.00000000000E+00 -0.17423804575E+04  0.17423804575E+04  0.00000000000E+00 0.  1.
   -9000010    2    1    2    0  502  0.17792676259E+03  0.30324569646E+03  0.53256848310E+03  0.11827413366E+04  0.99580720762E+03 0.  0.
        -13    1    1    2    0    0 -0.27739417684E+03 -0.31579902695E+03 -0.65798931228E+02  0.42544807589E+03  0.10566000000E+00 0.  1.
         13    1    3    3    0    0  0.32831161818E+03  0.56788735225E+03  0.11493394531E+03  0.66595374196E+03  0.10566000000E+00 0. -1.
          2    1    1    2  502    0  0.99467414252E+02  0.12553330489E+02 -0.11695258644E+04  0.11738151899E+04  0.00000000000E+00 0.  1.
         -4    1    3    3    0  502 -0.15038485559E+03 -0.26464165580E+03  0.41763453779E+03  0.51678759460E+03  0.00000000000E+00 0. -1.
</event>
<event>
 7    1  0.5696597E-006  0.1078332E+04  0.7818608E-02  0.8942220E-01
          2   -1    0    0  501    0  0.00000000000E+00  0.00000000000E+00  0.37261319729E+03  0.37261319729E+03  0.00000000000E+00 0.  1.
         -4   -1    0    0    0  501 -0.00000000000E+00 -0.00000000000E+00 -0.21664591238E+04  0.21664591238E+04  0.00000000000E+00 0. -1.
   -9000010    2    1    2    0  502  0.35244052580E+03 -0.16177871100E+03 -0.17709598712E+04  0.20719041825E+04  0.10030460611E+04 0.  0.
        -13    1    1    2    0    0 -0.36409175138E+03  0.17720895627E+03 -0.74793547322E+02  0.41177652129E+03  0.10566000000E+00 0.  1.
         13    1    3    3    0    0  0.21810466024E+03  0.32622859974E+03 -0.24129530579E+03  0.46067144242E+03  0.10566000000E+00 0. -1.
          2    1    1    2  502    0  0.11651225579E+02 -0.15430245268E+02  0.51907492059E+02  0.55391617221E+02  0.00000000000E+00 0.  1.
         -4    1    3    3    0  502  0.13433586556E+03 -0.48800731074E+03 -0.15296645654E+04  0.16112327401E+04  0.00000000000E+00 0. -1.
</event>
<event>
 7    1  0.5696597E-006  0.1002995E+04  0.7818608E-02  0.9228113E-01
         -4   -1    0    0    0  501 -0.00000000000E+00  0.00000000000E+00  0.28846997747E+03  0.28846997747E+03  0.00000000000E+00 0. -1.
          2   -1    0    0  501    0  0.00000000000E+00 -0.00000000000E+00 -0.42018827156E+04  0.42018827156E+04  0.00000000000E+00 0. -1.
   -9000010    2    1    2    0  502 -0.14452781240E+03 -0.17423063860E+03 -0.81834640256E+03  0.13045955546E+04  0.99047166672E+03 0.  0.
        -13    1    1    2    0    0  0.31593877036E+02  0.14897383891E+03 -0.86842686046E+02  0.17530841688E+03  0.10566000000E+00 0.  1.
         13    1    3    3    0    0 -0.53942504843E+02  0.22809009932E+03 -0.85881353996E+03  0.89022221654E+03  0.10566000000E+00 0. -1.
          2    1    1    2  502    0  0.11293393537E+03  0.25256799694E+02 -0.30082236495E+04  0.30104487215E+04  0.00000000000E+00 0. -1.
         -4    1    3    3    0  502 -0.90585307559E+02 -0.40232073792E+03  0.40467137394E+02  0.41437333809E+03  0.00000000000E+00 0. -1.
</event>
<event>
 7    1  0.5696597E-006  0.1071737E+04  0.7818608E-02  0.8975887E-01
          4   -1    0    0  501    0 -0.00000000000E+00  0.00000000000E+00  0.11079660901E+04  0.11079660901E+04  0.00000000000E+00 0.  1.
          2   -1    0    0  502    0  0.00000000000E+00 -0.00000000000E+00 -0.24591552681E+04  0.24591552681E+04  0.00000000000E+00 0.  1.
    9000010    2    1    2  502    0 -0.61773218017E+03 -0.31388303606E+03 -0.63690310688E+02  0.12158016435E+04  0.99699627573E+03 0.  0.
        -13    1    3    3    0    0  0.23008075047E+03 -0.54571224957E+02 -0.21117738960E+03  0.31703481098E+03  0.10566000000E+00 0.  1.
         13    1    1    2    0    0  0.23819978306E+03  0.25835378784E+03  0.45058571664E+03  0.57141343662E+03  0.10566000000E+00 0. -1.
          2    1    1    2  501    0  0.37953239711E+03  0.55529248222E+02 -0.17380845839E+04  0.17799062781E+04  0.00000000000E+00 0.  1.
          4    1    3    3  502    0 -0.84781293063E+03 -0.25931181111E+03  0.14748707891E+03  0.89876683249E+03  0.00000000000E+00 0.  1.
</event>
<event>
 7    1  0.5696597E-006  0.1013156E+04  0.7818608E-02  0.9235573E-01
         -4   -1    0    0    0  501 -0.00000000000E+00  0.00000000000E+00  0.12935252659E+03  0.12935252659E+03  0.00000000000E+00 0. -1.
          2   -1    0    0  501    0  0.00000000000E+00 -0.00000000000E+00 -0.38430368655E+04  0.38430368655E+04  0.00000000000E+00 0. -1.
   -9000010    2    1    2    0  502 -0.58526703291E+02  0.89481365347E+02 -0.27240128641E+04  0.29044750725E+04  0.10021462332E+04 0.  0.
        -13    1    1    2    0    0 -0.73697266470E+02 -0.13651056035E+03 -0.14727274023E+03  0.21390580018E+03  0.10566000000E+00 0.  1.
         13    1    3    3    0    0 -0.16471219944E+03 -0.37145688603E+03 -0.19913842610E+04  0.20324176768E+04  0.10566000000E+00 0. -1.
          2    1    1    2  502    0  0.13222396976E+03  0.47029194999E+02 -0.84239873455E+03  0.85400851947E+03  0.00000000000E+00 0. -1.
         -4    1    3    3    0  502  0.10618549615E+03  0.46093825138E+03 -0.73262860312E+03  0.87205739564E+03  0.00000000000E+00 0. -1.
</event>
<event>
 7    1  0.5696597E-006  0.1050539E+04  0.7818608E-02  0.8963852E-01
          2   -1    0    0  501    0  0.00000000000E+00  0.00000000000E+00  0.20300176738E+04  0.20300176738E+04  0.00000000000E+00 0. -1.
         -4   -1    0    0    0  501 -0.00000000000E+00 -0.00000000000E+00 -0.32540043265E+03  0.32540043265E+03  0.00000000000E+00 0. -1.
   -9000010    2    1    2    0  502 -0.14670979098E+02 -0.45462914984E+03  0.11655613780E+04  0.15860371209E+04  0.97471920140E+03 0.  0.
        -13    1    1    2    0    0  0.61066483442E+02  0.37254261953E+03  0.22056446086E+03  0.43722512659E+03  0.10566000000E+00 0.  1.
         13    1    3    3    0    0  0.88789699980E+02 -0.68028139736E+03  0.11477489836E+04  0.13371589774E+04  0.10566000000E+00 0. -1.
          2    1    1    2  502    0 -0.46395504343E+02  0.82086530314E+02  0.31849140227E+03  0.33215585890E+03  0.00000000000E+00 0. -1.
         -4    1    3    3    0  502 -0.10346067908E+03  0.22565224752E+03  0.17812394426E+02  0.24887814352E+03  0.00000000000E+00 0. -1.
</event>
<event>
 7    1  0.5696597E-006  0.1096883E+04  0.7818608E-02  0.8901393E-01
          2   -1    0    0  501    0  0.00000000000E+00  0.00000000000E+00  0.22295277609E+04  0.22295277609E+04  0.00000000000E+00 0. -1.
         -4   -1    0    0    0  501 -0.00000000000E+00 -0.00000000000E+00 -0.40109248403E+03  0.40109248403E+03  0.00000000000E+00 0. -1.
   -9000010    2    1    2    0  502  0.40120926664E+03  0.16324667948E+03  0.13471215252E+04  0.17342119233E+04  0.10025648295E+04 0.  0.
        -13    1    1    2    0    0 -0.41685697025E+03 -0.16094521759E+03  0.33269256844E+02  0.44808475909E+03  0.10566000000E+00 0.  1.
         13    1    3    3    0    0  0.69649045657E+03  0.10648934717E+03  0.58798885086E+03  0.91769811869E+03  0.10566000000E+00 0. -1.
          2    1    1    2  502    0  0.15647703617E+02 -0.23014618885E+01  0.44804449487E+03  0.44832356256E+03  0.00000000000E+00 0. -1.
         -4    1    3    3    0  502 -0.29528118993E+03  0.56757332310E+02  0.75913267432E+03  0.81651380461E+03  0.00000000000E+00 0. -1.
</event>
<event>
 7    1  0.5696597E-006  0.1099486E+04  0.7818608E-02  0.8883294E-01
          2   -1    0    0  502    0  0.00000000000E+00  0.00000000000E+00  0.34370243485E+03  0.34370243485E+03  0.00000000000E+00 0.  1.
          4   -1    0    0  501    0 -0.00000000000E+00 -0.00000000000E+00 -0.22274314981E+04  0.22274314981E+04  0.00000000000E+00 0.  1.
    9000010    2    1    2  502    0 -0.48509080217E+03  0.65347313225E+02 -0.11972912292E+04  0.16294549726E+04  0.99097621687E+03 0.  0.
        -13    1    3    3    0    0 -0.92823792017E+02  0.49491249285E+03 -0.71098780750E+03  0.87123952248E+03  0.10566000000E+00 0.  1.
         13    1    1    2    0    0  0.46395183066E+03 -0.88070155542E+02 -0.74112965861E+03  0.87879510440E+03  0.10566000000E+00 0. -1.
          2    1    1    2  501    0  0.21138971507E+02  0.22722842317E+02  0.54691824523E+02  0.62883856028E+02  0.00000000000E+00 0.  1.
          4    1    3    3  502    0 -0.39226701015E+03 -0.42956517963E+03 -0.48630342170E+03  0.75821545010E+03  0.00000000000E+00 0.  1.
</event>
<event>
 7    1  0.5696597E-006  0.1013588E+04  0.7818608E-02  0.9356347E-01
          2   -1    0    0  502    0  0.00000000000E+00  0.00000000000E+00  0.14654000448E+04  0.14654000448E+04  0.00000000000E+00 0. -1.
          4   -1    0    0  501    0 -0.00000000000E+00 -0.00000000000E+00 -0.88037796674E+03  0.88037796674E+03  0.00000000000E+00 0.  1.
    9000010    2    1    2  502    0  0.14600284869E+02 -0.96712094762E+02 -0.34330253390E+03  0.10704815035E+04  0.10092113862E+04 0.  0.
        -13    1    3    3    0    0  0.26603106012E+03  0.35775132846E+02 -0.61889631494E+03  0.67459991468E+03  0.10566000000E+00 0.  1.
         13    1    1    2    0    0 -0.75919965286E+02  0.56995946570E+02 -0.15918072160E+03  0.18533993727E+03  0.10566000000E+00 0. -1.
          2    1    1    2  501    0  0.61319680416E+02  0.39716148192E+02  0.10875053336E+04  0.10899565708E+04  0.00000000000E+00 0. -1.
          4    1    3    3  502    0 -0.25143077525E+03 -0.13248722761E+03  0.27559378104E+03  0.39588158882E+03  0.00000000000E+00 0.  1.
</event>
<event>
 7    1  0.5696597E-006  0.1079724E+04  0.7818608E-02  0.8950360E-01
          4   -1    0    0  501    0 -0.00000000000E+00  0.00000000000E+00  0.21693179523E+04  0.21693179523E+04  0.00000000000E+00 0.  1.
          2   -1    0    0  502    0  0.00000000000E+00 -0.00000000000E+00 -0.10341456879E+04  0.10341456879E+04  0.00000000000E+00 0.  1.
    9000010    2    1    2  502    0 -0.24060613453E+03 -0.68322527265E+02  0.74851157134E+03  0.12818627889E+04  0.10101204668E+04 0.  0.
        -13    1    3    3    0    0  0.36465857240E+03 -0.24587893049E+01  0.51224292071E+03  0.62878831180E+03  0.10566000000E+00 0.  1.
         13    1    1    2    0    0  0.38990166605E+03 -0.10340477150E+03  0.11006435608E+04  0.11722338141E+04  0.10566000000E+00 0. -1.
          2    1    1    2  501    0 -0.14929553152E+03  0.17172729877E+03 -0.71398286770E+03  0.74936703707E+03  0.00000000000E+00 0.  1.
          4    1    3    3  502    0 -0.60526470692E+03 -0.65863737960E+02  0.23626865063E+03  0.65307447714E+03  0.00000000000E+00 0.  1.
</event>
<event>
 7    1  0.5696597E-006  0.1065399E+04  0.7818608E-02  0.8868549E-01
          2   -1    0    0  501    0  0.00000000000E+00  0.00000000000E+00  0.22414700898E+04  0.22414700898E+04  0.00000000000E+00 0.  1.
         -4   -1    0    0    0  501 -0.00000000000E+00 -0.00000000000E+00 -0.11657533916E+04  0.11657533916E+04  0.00000000000E+00 0. -1.
   -9000010    2    1    2    0  502  0.53362212458E+03 -0.49434258778E+02 -0.36664160542E+03  0.11166450378E+04  0.90844579138E+03 0.  0.
        -13    1    1    2    0    0 -0.56398311704E+03  0.59132691507E+02 -0.23433300910E+03  0.61358422554E+03  0.10566000000E+00 0.  1.
         13    1    3    3    0    0  0.42466836696E+03  0.47426555881E+01 -0.66804177893E+03  0.79160946447E+03  0.10566000000E+00 0. -1.
          2    1    1    2  502    0  0.30360992458E+02 -0.96984327296E+01  0.16766913127E+04  0.16769942181E+04  0.00000000000E+00 0.  1.
         -4    1    3    3    0  502  0.10895375762E+03 -0.54176914366E+02  0.30140017351E+03  0.32503557335E+03  0.00000000000E+00 0. -1.
</event>
<event>
 7    1  0.5696597E-006  0.1152688E+04  0.7818608E-02  0.8805958E-01
          4   -1    0    0  501    0 -0.00000000000E+00  0.00000000000E+00  0.16069500572E+04  0.16069500572E+04  0.00000000000E+00 0.  1.
          2   -1    0    0  502    0  0.00000000000E+00 -0.00000000000E+00 -0.25187402083E+04  0.25187402083E+04  0.00000000000E+00 0.  1.
    9000010    2    1    2  502    0 -0.53603885115E+03  0.89137164479E+02 -0.22251643020E+03  0.11605147599E+04  0.10009984327E+04 0.  0.
        -13    1    3    3    0    0  0.19698211158E+03  0.26356827812E+03  0.95561072583E+02  0.34263992656E+03  0.10566000000E+00 0.  1.
         13    1    1    2    0    0  0.56676153333E+03 -0.94129412214E+02  0.10652879760E+04  0.12103377483E+04  0.10566000000E+00 0. -1.
          2    1    1    2  501    0 -0.30722682182E+02  0.49922477348E+01 -0.17545616970E+04  0.17548377572E+04  0.00000000000E+00 0.  1.
          4    1    3    3  502    0 -0.73302096273E+03 -0.17443111364E+03 -0.31807750278E+03  0.81787483333E+03  0.00000000000E+00 0.  1.
</event>
<event>
 7    1  0.5696597E-006  0.1411306E+04  0.7818608E-02  0.8717425E-01
         -4   -1    0    0    0  501 -0.00000000000E+00  0.00000000000E+00  0.27523643110E+04  0.27523643110E+04  0.00000000000E+00 0. -1.
          2   -1    0    0  501    0  0.00000000000E+00 -0.00000000000E+00 -0.81438834721E+03  0.81438834721E+03  0.00000000000E+00 0. -1.
   -9000010    2    1    2    0  502 -0.84428954383E+03 -0.25650248943E+03  0.13892424544E+04  0.20001387006E+04  0.11366362056E+04 0.  0.
        -13    1    1    2    0    0  0.18245754494E+02  0.45409858182E+03  0.55488700413E+03  0.71724335346E+03  0.10566000000E+00 0.  1.
         13    1    3    3    0    0 -0.22604541056E+03  0.41265855921E+03  0.75662725357E+03  0.89099294393E+03  0.10566000000E+00 0. -1.
          2    1    1    2  502    0  0.82604378933E+03 -0.19759609240E+03 -0.61534947176E+01  0.84937060411E+03  0.00000000000E+00 0. -1.
         -4    1    3    3    0  502 -0.61824413327E+03 -0.66916104864E+03  0.63261520080E+03  0.11091457567E+04  0.00000000000E+00 0. -1.
</event>
<event>
 7    1  0.5696597E-006  0.1027669E+04  0.7818608E-02  0.9297331E-01
          2   -1    0    0  501    0  0.00000000000E+00  0.00000000000E+00  0.16763960463E+04  0.16763960463E+04  0.00000000000E+00 0. -1.
         -4   -1    0    0    0  501 -0.00000000000E+00 -0.00000000000E+00 -0.38593350447E+03  0.38593350447E+03  0.00000000000E+00 0. -1.
   -9000010    2    1    2    0  502 -0.16127320860E+03 -0.18350372492E+03  0.77241528185E+03  0.12804197301E+04  0.99154760493E+03 0.  0.
        -13    1    1    2    0    0 -0.89266299524E+02  0.68881442897E+02 -0.69863832608E+02  0.13264272192E+03  0.10566000000E+00 0.  1.
         13    1    3    3    0    0 -0.27708000418E+03  0.30686398120E+03  0.63573742743E+03  0.75835408581E+03  0.10566000000E+00 0. -1.
          2    1    1    2  502    0  0.25053950812E+03  0.11462228202E+03  0.58791109259E+03  0.64926709870E+03  0.00000000000E+00 0. -1.
         -4    1    3    3    0  502  0.11580679558E+03 -0.49036770612E+03  0.13667785443E+03  0.52206564434E+03  0.00000000000E+00 0. -1.
</event>
<event>
 7    1  0.5696597E-006  0.1131811E+04  0.7818608E-02  0.8833191E-01
          2   -1    0    0  501    0  0.00000000000E+00  0.00000000000E+00  0.15192884077E+04  0.15192884077E+04  0.00000000000E+00 0.  1.
         -4   -1    0    0    0  501 -0.00000000000E+00 -0.00000000000E+00 -0.20112691918E+04  0.20112691918E+04  0.00000000000E+00 0. -1.
   -9000010    2    1    2    0  502  0.49357526067E+03  0.21527975098E+03  0.46555375287E+02  0.11328509231E+04  0.99560127651E+03 0.  0.
        -13    1    1    2    0    0 -0.52500092313E+03 -0.12200271337E+03 -0.14158064594E+04  0.15149318708E+04  0.10566000000E+00 0.  1.
         13    1    3    3    0    0  0.25018736942E+03 -0.30979733979E+03 -0.26231841355E+03  0.47684281771E+03  0.10566000000E+00 0. -1.
          2    1    1    2  502    0  0.31425662461E+02 -0.93277037609E+02  0.87727030010E+03  0.88277480562E+03  0.00000000000E+00 0.  1.
         -4    1    3    3    0  502  0.24338789125E+03  0.52507709076E+03  0.30887378883E+03  0.65600810535E+03  0.00000000000E+00 0. -1.
</event>
<event>
 7    1  0.5696597E-006  0.1001036E+04  0.7818608E-02  0.9229146E-01
          2   -1    0    0  502    0  0.00000000000E+00  0.00000000000E+00  0.24579502755E+03  0.24579502755E+03  0.00000000000E+00 0.  1.
          4   -1    0    0  501    0 -0.00000000000E+00 -0.00000000000E+00 -0.22326352039E+04  0.22326352039E+04  0.00000000000E+00 0.  1.
    9000010    2    1    2  502    0 -0.16586552525E+03 -0.37712493880E+02 -0.14370451558E+04  0.17524399572E+04  0.98843989141E+03 0.  0.
        -13    1    3    3    0    0 -0.27230958548E+03 -0.40659067371E+03 -0.35573175953E+03  0.60499056372E+03  0.10566000000E+00 0.  1.
         13    1    1    2    0    0  0.15637438025E+03  0.19760763640E+02 -0.62682011913E+03  0.64633343368E+03  0.10566000000E+00 0. -1.
          2    1    1    2  501    0  0.94911449934E+01  0.17951730240E+02  0.77025098566E+02  0.79656840642E+02  0.00000000000E+00 0.  1.
          4    1    3    3  502    0  0.10644406023E+03  0.36887817983E+03 -0.10813133963E+04  0.11474493934E+04  0.00000000000E+00 0.  1.
</event>
<event>
 7    1  0.5696597E-006  0.1460368E+04  0.7818608E-02  0.8682002E-01
         -4   -1    0    0    0  501 -0.00000000000E+00  0.00000000000E+00  0.22728502640E+04  0.22728502640E+04  0.00000000000E+00 0. -1.
          2   -1    0    0  501    0  0.00000000000E+00 -0.00000000000E+00 -0.12312658927E+04  0.12312658927E+04  0.00000000000E+00 0.  1.
   -9000010    2    1    2    0  502 -0.65601467451E+03  0.62515315012E+03  0.78780658215E+03  0.15868554603E+04  0.10374484694E+04 0.  0.
        -13    1    1    2    0    0 -0.38244804209E+03 -0.28703597398E+03  0.60398852064E+03  0.77036244683E+03  0.10566000000E+00 0.  1.
         13    1    3    3    0    0 -0.24777124633E+03 -0.16098167556E+03 -0.11960038914E+03  0.31876316384E+03  0.10566000000E+00 0. -1.
          2    1    1    2  502    0  0.10384627166E+04 -0.33811717614E+03 -0.35021073148E+03  0.11468982496E+04  0.00000000000E+00 0.  1.
         -4    1    3    3    0  502 -0.40824342818E+03  0.78613482568E+03  0.90740697128E+03  0.12680922965E+04  0.00000000000E+00 0. -1.
</event>
<event>
 7    1  0.5696597E-006  0.1009729E+04  0.7818608E-02  0.9204898E-01
          4   -1    0    0  501    0 -0.00000000000E+00  0.00000000000E+00  0.16061092741E+03  0.16061092741E+03  0.00000000000E+00 0.  1.
          2   -1    0    0  502    0  0.00000000000E+00 -0.00000000000E+00 -0.26094229792E+04  0.26094229792E+04  0.00000000000E+00 0.  1.
    9000010    2    1    2  502    0 -0.12300410554E+03  0.12563491745E+03 -0.15628979844E+04  0.18612973255E+04  0.99542125847E+03 0.  0.
        -13    1    3    3    0    0 -0.35589047654E+03 -0.27907861003E+03 -0.11582702876E+04  0.12434359542E+04  0.10566000000E+00 0.  1.
         13    1    1    2    0    0  0.11157672833E+03 -0.12438768579E+03 -0.60682954261E+03  0.62941541737E+03  0.10566000000E+00 0. -1.
          2    1    1    2  501    0  0.11427377211E+02 -0.12472316611E+01 -0.27908452479E+03  0.27932116374E+03  0.00000000000E+00 0.  1.
          4    1    3    3  502    0  0.23288637101E+03  0.40471352749E+03 -0.40462769676E+03  0.61786137128E+03  0.00000000000E+00 0.  1.
</event>
<event>
 7    1  0.5696597E-006  0.1187159E+04  0.7818608E-02  0.8767599E-01
          2   -1    0    0  502    0  0.00000000000E+00  0.00000000000E+00  0.14175153723E+04  0.14175153723E+04  0.00000000000E+00 0.  1.
          4   -1    0    0  501    0 -0.00000000000E+00 -0.00000000000E+00 -0.18734590921E+04  0.18734590921E+04  0.00000000000E+00 0.  1.
    9000010    2    1    2  502    0 -0.54540752269E+03 -0.27112423573E+03 -0.33400988716E+03  0.12299293660E+04  0.10149807504E+04 0.  0.
        -13    1    3    3    0    0 -0.46748799832E+03  0.31618369759E+03 -0.29340659754E+03  0.63608537307E+03  0.10566000000E+00 0.  1.
         13    1    1    2    0    0  0.54480419774E+03  0.28982573778E+03 -0.10041596478E+04  0.11786208812E+04  0.10566000000E+00 0. -1.
          2    1    1    2  501    0  0.60332494968E+00 -0.18701502048E+02  0.88222581518E+03  0.88242421723E+03  0.00000000000E+00 0.  1.
          4    1    3    3  502    0 -0.77919524370E+02 -0.58730793332E+03 -0.40603289629E+02  0.59384399294E+03  0.00000000000E+00 0.  1.
</event>
<event>
 7    1  0.5696597E-006  0.1329536E+04  0.7818608E-02  0.8604429E-01
          4   -1    0    0  501    0 -0.00000000000E+00  0.00000000000E+00  0.15141567523E+04  0.15141567523E+04  0.00000000000E+00 0.  1.
          2   -1    0    0  502    0  0.00000000000E+00 -0.00000000000E+00 -0.15095146839E+04  0.15095146839E+04  0.00000000000E+00 0. -1.
    9000010    2    1    2  502    0 -0.94087312840E+03 -0.23202713848E+03  0.38195852821E+02  0.13837887738E+04  0.98708338584E+03 0.  0.
        -13    1    3    3    0    0 -0.81994958887E+03 -0.58259851052E+03  0.87656297992E+02  0.10096642959E+04  0.10566000000E+00 0.  1.
         13    1    1    2    0    0  0.81001840575E+03  0.30319588137E+03  0.55838430121E+03  0.10294904561E+04  0.10566000000E+00 0. -1.
          2    1    1    2  501    0  0.13085472265E+03 -0.71168742895E+02 -0.59193808564E+03  0.61039220640E+03  0.00000000000E+00 0. -1.
          4    1    3    3  502    0 -0.12092353953E+03  0.35057137204E+03 -0.49460445172E+02  0.37412447787E+03  0.00000000000E+00 0.  1.
</event>
<event>
 7    1  0.5696597E-006  0.1094166E+04  0.7818608E-02  0.8907023E-01
         -4   -1    0    0    0  501 -0.00000000000E+00  0.00000000000E+00  0.18507281258E+04  0.18507281258E+04  0.00000000000E+00 0. -1.
          2   -1    0    0  501    0  0.00000000000E+00 -0.00000000000E+00 -0.14900133972E+04  0.14900133972E+04  0.00000000000E+00 0.  1.
   -9000010    2    1    2    0  502 -0.43186806250E+03  0.77071320640E+02  0.92930378501E+03  0.14357634661E+04  0.10026770138E+04 0.  0.
        -13    1    1    2    0    0  0.41610553052E+03 -0.13942059454E+03  0.59515773535E+03  0.73945564831E+03  0.10566000000E+00 0.  1.
         13    1    3    3    0    0 -0.72449087822E+03  0.22162193925E+02  0.39847450573E+03  0.82713973326E+03  0.10566000000E+00 0. -1.
          2    1    1    2  502    0  0.15762531985E+02  0.62349273901E+02 -0.11637467918E+04  0.11655224086E+04  0.00000000000E+00 0.  1.
         -4    1    3    3    0  502  0.29262281572E+03  0.54909126715E+02  0.53082927928E+03  0.60862373287E+03  0.00000000000E+00 0. -1.
</event>
<event>
 7    1  0.5696597E-006  0.1004647E+04  0.7818608E-02  0.9340732E-01
         -4   -1    0    0    0  501  0.00000000000E+00  0.00000000000E+00  0.18119498265E+04  0.18119498265E+04  0.00000000000E+00 0. -1.
         -4   -1    0    0    0  502 -0.00000000000E+00 -0.00000000000E+00 -0.76924962955E+03  0.76924962955E+03  0.00000000000E+00 0. -1.
   -9000010    2    1    2    0  501  0.52005479114E+02 -0.12366735863E+02  0.13223337642E+03  0.10095364278E+04  0.99941013960E+03 0.  0.
        -13    1    1    2    0    0 -0.10301054737E+03  0.54255723192E+01 -0.32200127029E+03  0.33812045033E+03  0.10566000000E+00 0.  1.
         13    1    3    3    0    0 -0.33894599080E+03 -0.18942758649E+03  0.35489261423E+03  0.52603799672E+03  0.10566000000E+00 0. -1.
         -4    1    3    3    0  501  0.39095146991E+03  0.17706085063E+03 -0.22265923780E+03  0.48349843105E+03  0.00000000000E+00 0. -1.
         -4    1    1    2    0  502  0.51005068256E+02  0.69411635442E+01  0.12324680908E+04  0.12335425780E+04  0.00000000000E+00 0. -1.
</event>
<event>
 7    1  0.5696597E-006  0.1002233E+04  0.7818608E-02  0.9348706E-01
         -4   -1    0    0    0  501 -0.00000000000E+00  0.00000000000E+00  0.11386063044E+04  0.11386063044E+04  0.00000000000E+00 0. -1.
          5   -1    0    0  501    0  0.00000000000E+00 -0.00000000000E+00 -0.51745469903E+03  0.51745469903E+03  0.00000000000E+00 0. -1.
   -9000010    2    1    2    0  502  0.96063699815E+02  0.23193351098E+03  0.34197521530E+03  0.10720202416E+04  0.98450950353E+03 0.  0.
        -13    1    1    2    0    0  0.27597847254E+02 -0.96271926646E+02  0.36709220231E+03  0.38050837204E+03  0.10566000000E+00 0.  1.
         13    1    3    3    0    0  0.27785489757E+03 -0.16890195718E+03  0.50671013933E+03  0.60206842776E+03  0.10566000000E+00 0. -1.
          5    1    1    2  502    0 -0.12366154707E+03 -0.13566158434E+03 -0.87915812192E+02  0.20353238986E+03  0.00000000000E+00 0. -1.
         -4    1    3    3    0  502 -0.18179119776E+03  0.40083546816E+03 -0.16473492403E+03  0.46995181382E+03  0.00000000000E+00 0. -1.
</event>
<event>
 7    1  0.5696597E-006  0.1020715E+04  0.7818608E-02  0.9086756E-01
          2   -1    0    0  502    0  0.00000000000E+00  0.00000000000E+00  0.81721912363E+03  0.81721912363E+03  0.00000000000E+00 0.  1.
          4   -1    0    0  501    0 -0.00000000000E+00 -0.00000000000E+00 -0.58093944509E+03  0.58093944509E+03  0.00000000000E+00 0.  1.
    9000010    2    1    2  502    0 -0.17161701144E+03 -0.20270457710E+03  0.16486108818E+03  0.10352269688E+04  0.98690128909E+03 0.  0.
        -13    1    3    3    0    0 -0.55630432074E+03 -0.27915241901E+03  0.16140251168E+03  0.64300182912E+03  0.10566000000E+00 0.  1.
         13    1    1    2    0    0  0.14211439136E+03  0.21758945911E+03 -0.24923251420E+02  0.26108016503E+03  0.10566000000E+00 0. -1.
          2    1    1    2  501    0  0.29502620085E+02 -0.14884882013E+02  0.96341841773E+02  0.10185143485E+03  0.00000000000E+00 0.  1.
          4    1    3    3  502    0  0.38468730930E+03  0.76447841913E+02  0.34585765038E+01  0.39222513971E+03  0.00000000000E+00 0.  1.
</event>
<event>
 7    1  0.5696597E-006  0.1163061E+04  0.7818608E-02  0.8789823E-01
         -4   -1    0    0    0  501 -0.00000000000E+00  0.00000000000E+00  0.71183000040E+03  0.71183000040E+03  0.00000000000E+00 0. -1.
          1   -1    0    0  501    0  0.00000000000E+00 -0.00000000000E+00 -0.18024274694E+04  0.18024274694E+04  0.00000000000E+00 0.  1.
   -9000010    2    1    2    0  502  0.24698626992E+03 -0.51393286166E+03 -0.42237051028E+03  0.12252746631E+04  0.99888535297E+03 0.  0.
        -13    1    1    2    0    0 -0.32713070190E+03  0.51032089707E+03  0.97772058627E+01  0.60624872704E+03  0.10566000000E+00 0.  1.
         13    1    3    3    0    0 -0.31401739177E+03 -0.39793433431E+03 -0.41050208554E+03  0.65228109750E+03  0.10566000000E+00 0. -1.
          1    1    1    2  502    0  0.80144431984E+02  0.36119645881E+01 -0.67800416461E+03  0.68273407964E+03  0.00000000000E+00 0.  1.
         -4    1    3    3    0  502  0.56100366169E+03 -0.11599852735E+03 -0.11868424747E+02  0.57299356565E+03  0.00000000000E+00 0. -1.
</event>
<event>
 6    1  0.5696597E-006  0.1588292E+04  0.7818608E-02  0.8986763E-01
          4   -1    0    0  501    0  0.00000000000E+00  0.00000000000E+00  0.22225291318E+04  0.22225291318E+04  0.00000000000E+00 0.  1.
          4   -1    0    0  502    0 -0.00000000000E+00 -0.00000000000E+00 -0.77737694934E+03  0.77737694934E+03  0.00000000000E+00 0.  1.
        -13    1    1    2    0    0  0.56083582045E+03 -0.38213630432E+03 -0.36315431096E+03  0.76970516259E+03  0.10566000000E+00 0.  1.
         13    1    1    2    0    0  0.49033611291E+02 -0.10984162652E+03  0.23820517525E+03  0.26685425729E+03  0.10566000000E+00 0. -1.
          4    1    1    2  501    0 -0.53916753959E+03  0.44164276158E+03  0.42785512044E+03  0.81780802680E+03  0.00000000000E+00 0.  1.
          4    1    1    2  502    0 -0.70701892145E+02  0.50335169260E+02  0.11422461977E+04  0.11455386345E+04  0.00000000000E+00 0.  1.
</event>
<event>
 7    1  0.5696597E-006  0.1015731E+04  0.7818608E-02  0.9265869E-01
         -4   -1    0    0    0  501 -0.00000000000E+00  0.00000000000E+00  0.43380944402E+03  0.43380944402E+03  0.00000000000E+00 0. -1.
          2   -1    0    0  501    0  0.00000000000E+00 -0.00000000000E+00 -0.16350028297E+04  0.16350028297E+04  0.00000000000E+00 0. -1.
   -9000010    2    1    2    0  502 -0.92298755438E+02 -0.11679486986E+03 -0.54526301894E+03  0.11549268745E+04  0.10071664330E+04 0.  0.
        -13    1    1    2    0    0  0.82263932391E+02  0.10188906256E+03  0.95602625426E+02  0.16213762301E+03  0.10566000000E+00 0.  1.
         13    1    3    3    0    0  0.24790898787E+03 -0.44229962389E+03 -0.44255515534E+03  0.67301032699E+03  0.10566000000E+00 0. -1.
          2    1    1    2  502    0  0.10034823047E+02  0.14905807299E+02 -0.75153299216E+03  0.75174777624E+03  0.00000000000E+00 0. -1.
         -4    1    3    3    0  502 -0.34020774330E+03  0.32550475403E+03 -0.10270786360E+03  0.48191654749E+03  0.00000000000E+00 0. -1.
</event>
<event>
 7    1  0.5696597E-006  0.1675751E+04  0.7818608E-02  0.8361018E-01
          2   -1    0    0  501    0  0.00000000000E+00  0.00000000000E+00  0.28179043615E+04  0.28179043615E+04  0.00000000000E+00 0.  1.
         -4   -1    0    0    0  501 -0.00000000000E+00 -0.00000000000E+00 -0.10316105366E+04  0.10316105366E+04  0.00000000000E+00 0. -1.
   -9000010    2    1    2    0  502  0.12844128478E+03  0.13649176517E+04  0.12111475198E+04  0.20822579937E+04  0.99469727971E+03 0.  0.
        -13    1    1    2    0    0 -0.10033625127E+03 -0.13346934690E+04  0.15763453798E+03  0.13477101610E+04  0.10566000000E+00 0.  1.
         13    1    3    3    0    0 -0.29808126784E+03  0.44566730500E+02  0.27884764745E+03  0.41060279755E+03  0.10566000000E+00 0. -1.
          2    1    1    2  502    0 -0.28105033512E+02 -0.30224182728E+02  0.41751176715E+03  0.41954674333E+03  0.00000000000E+00 0.  1.
         -4    1    3    3    0  502  0.42652255262E+03  0.13203509212E+04  0.93229987235E+03  0.16716551962E+04  0.00000000000E+00 0. -1.
</event>
<event>
 7    1  0.5696597E-006  0.1043706E+04  0.7818608E-02  0.9237756E-01
          2   -1    0    0  501    0  0.00000000000E+00  0.00000000000E+00  0.72023591314E+03  0.72023591314E+03  0.00000000000E+00 0. -1.
         -4   -1    0    0    0  501 -0.00000000000E+00 -0.00000000000E+00 -0.80876981191E+03  0.80876981191E+03  0.00000000000E+00 0. -1.
   -9000010    2    1    2    0  502 -0.30531182828E+02  0.75141474362E+02 -0.45434137679E+02  0.10390895259E+04  0.10349224066E+04 0.  0.
        -13    1    1    2    0    0 -0.83458308139E+01 -0.13712277758E+03 -0.24184081084E+03  0.27813539505E+03  0.10566000000E+00 0.  1.
         13    1    3    3    0    0  0.16176303223E+03 -0.44850562663E+03  0.21377498225E+02  0.47726468999E+03  0.10566000000E+00 0. -1.
          2    1    1    2  502    0  0.38877013642E+02  0.61981303221E+02  0.19874104976E+03  0.21178080413E+03  0.00000000000E+00 0. -1.
         -4    1    3    3    0  502 -0.19229421506E+03  0.52364710099E+03 -0.66811635904E+02  0.56182483588E+03  0.00000000000E+00 0. -1.
</event>
<event>
 7    1  0.5696597E-006  0.1013248E+04  0.7818608E-02  0.9271592E-01
          4   -1    0    0  501    0 -0.00000000000E+00  0.00000000000E+00  0.77969903483E+03  0.77969903483E+03  0.00000000000E+00 0.  1.
          2   -1    0    0  502    0  0.00000000000E+00 -0.00000000000E+00 -0.13951668708E+04  0.13951668708E+04  0.00000000000E+00 0.  1.
    9000010    2    1    2  502    0  0.21732987514E+02 -0.38319636828E+02 -0.29039781819E+03  0.10439285059E+04  0.10017560158E+04 0.  0.
        -13    1    3    3    0    0  0.40144486162E+03 -0.22191272135E+03 -0.39949945461E+03  0.60827876686E+03  0.10566000000E+00 0.  1.
         13    1    1    2    0    0 -0.71157606221E+02 -0.10847710102E+03  0.38390832707E+03  0.40523610541E+03  0.10566000000E+00 0. -1.
          2    1    1    2  501    0  0.49424618707E+02  0.14679673785E+03 -0.70897834488E+03  0.72570129439E+03  0.00000000000E+00 0.  1.
          4    1    3    3  502    0 -0.37971187410E+03  0.18359308452E+03  0.10910163642E+03  0.43564973899E+03  0.00000000000E+00 0.  1.
</event>
<event>
 7    1  0.5696597E-006  0.1064978E+04  0.7818608E-02  0.8947826E-01
         -4   -1    0    0    0  501 -0.00000000000E+00  0.00000000000E+00  0.68895911460E+03  0.68895911460E+03  0.00000000000E+00 0. -1.
          2   -1    0    0  501    0  0.00000000000E+00 -0.00000000000E+00 -0.11803035841E+04  0.11803035841E+04  0.00000000000E+00 0. -1.
   -9000010    2    1    2    0  502 -0.18540578374E+03  0.99614223184E+02 -0.58452896801E+03  0.11657050495E+04  0.98635482961E+03 0.  0.
        -13    1    1    2    0    0  0.32700963529E+03 -0.28970828533E+03  0.14613778626E+03  0.46067608566E+03  0.10566000000E+00 0.  1.
         13    1    3    3    0    0 -0.16909929106E+02 -0.43833750619E+03 -0.32014516057E+03  0.54306413068E+03  0.10566000000E+00 0. -1.
          2    1    1    2  502    0 -0.14160385155E+03  0.19009406215E+03 -0.52953287810E+02  0.24288156358E+03  0.00000000000E+00 0. -1.
         -4    1    3    3    0  502 -0.16849585463E+03  0.53795172937E+03 -0.26438380744E+03  0.62264091883E+03  0.00000000000E+00 0. -1.
</event>
<event>
 7    1  0.5696597E-006  0.1050460E+04  0.7818608E-02  0.8943635E-01
         -4   -1    0    0    0  501  0.00000000000E+00  0.00000000000E+00  0.24406464265E+04  0.24406464265E+04  0.00000000000E+00 0. -1.
         -4   -1    0    0    0  502 -0.00000000000E+00 -0.00000000000E+00 -0.32104473445E+03  0.32104473445E+03  0.00000000000E+00 0. -1.
   -9000010    2    1    2    0  501 -0.34756470378E+03 -0.11909008709E+03  0.13725229374E+04  0.17149414030E+04  0.96032345056E+03 0.  0.
        -13    1    1    2    0    0  0.41211968596E+03  0.14836513238E+03  0.17723032488E+03  0.47250973247E+03  0.10566000000E+00 0.  1.
         13    1    3    3    0    0  0.26169518367E+03 -0.26331258917E+03  0.72329037700E+03  0.81299868967E+03  0.10566000000E+00 0. -1.
         -4    1    1    2    0  502 -0.64554982184E+02 -0.29275045282E+02  0.56984842980E+03  0.57424002555E+03  0.00000000000E+00 0. -1.
         -4    1    3    3    0  501 -0.60925988745E+03  0.14422250208E+03  0.64923256041E+03  0.90194271329E+03  0.00000000000E+00 0. -1.
</event>
<event>
 7    1  0.5696597E-006  0.1069459E+04  0.7818608E-02  0.8972080E-01
          2   -1    0    0  501    0  0.00000000000E+00  0.00000000000E+00  0.21229115947E+04  0.21229115947E+04  0.00000000000E+00 0. -1.
         -4   -1    0    0    0  501 -0.00000000000E+00 -0.00000000000E+00 -0.57198727258E+03  0.57198727258E+03  0.00000000000E+00 0. -1.
   -9000010    2    1    2    0  502  0.26279586189E+03  0.33513171732E+03  0.15453529315E+04  0.18932046431E+04  0.10073396671E+04 0.  0.
        -13    1    1    2    0    0 -0.26479015714E+03 -0.23841935188E+03 -0.30959059723E+03  0.47202114755E+03  0.10566000000E+00 0.  1.
         13    1    3    3    0    0  0.37098997522E+02  0.55351882873E+03  0.14686248953E+04  0.15699103553E+04  0.10566000000E+00 0. -1.
          2    1    1    2  502    0  0.19942952508E+01 -0.96712365439E+02  0.31516198791E+03  0.32967307664E+03  0.00000000000E+00 0. -1.
         -4    1    3    3    0  502  0.22569686437E+03 -0.21838711140E+03  0.76728036182E+02  0.32329428784E+03  0.00000000000E+00 0. -1.
</event>
<event>
 7    1  0.8289180E-006  0.1071694E+04  0.7818608E-02  0.9067099E-01
          4   -1    0    0  501    0  0.00000000000E+00  0.00000000000E+00  0.16074597066E+04  0.16074597066E+04  0.00000000000E+00 0.  1.
         -4   -1    0    0    0  501 -0.00000000000E+00 -0.00000000000E+00 -0.87224371995E+03  0.87224371995E+03  0.00000000000E+00 0. -1.
   -9000010    2    1    2    0  502  0.29823765448E+03  0.13378238765E+03 -0.17372917816E+03  0.10598998463E+04  0.99315780775E+03 0.  0.
        -13    1    1    2    0    0  0.10382173640E+03 -0.22016408283E+03 -0.14854947392E+03  0.28516334562E+03  0.10566000000E+00 0.  1.
         13    1    3    3    0    0 -0.20991692864E+03 -0.16032664831E+03  0.22763468190E+03  0.34869372041E+03  0.10566000000E+00 0. -1.
          4    1    1    2  502    0 -0.40205939088E+03  0.86381695182E+02  0.10574946388E+04  0.11346402347E+04  0.00000000000E+00 0.  1.
         -4    1    3    3    0  502  0.50815458312E+03  0.29410903596E+03 -0.40136386006E+03  0.71120612591E+03  0.00000000000E+00 0. -1.
</event>
<event>
 7    1  0.5696597E-006  0.1215824E+04  0.7818608E-02  0.8722018E-01
         -4   -1    0    0    0  501 -0.00000000000E+00  0.00000000000E+00  0.39282934392E+04  0.39282934392E+04  0.00000000000E+00 0. -1.
          5   -1    0    0  501    0  0.00000000000E+00 -0.00000000000E+00 -0.16840236463E+04  0.16840236463E+04  0.00000000000E+00 0.  1.
   -9000010    2    1    2    0  502  0.61401378229E+03 -0.36125458092E+03  0.20627679543E+03  0.12420393529E+04  0.99629003846E+03 0.  0.
        -13    1    1    2    0    0 -0.63538796162E+03  0.28417359037E+03  0.31649004063E+04  0.32405349997E+04  0.10566000000E+00 0.  1.
         13    1    3    3    0    0  0.72997139650E+03  0.95688408281E+01  0.37234407107E+03  0.81950590044E+03  0.10566000000E+00 0. -1.
          5    1    1    2  502    0  0.21374179330E+02  0.77080990554E+02 -0.11269074088E+04  0.11297427329E+04  0.00000000000E+00 0.  1.
         -4    1    3    3    0  502 -0.11595761421E+03 -0.37082342175E+03 -0.16606727564E+03  0.42253345246E+03  0.00000000000E+00 0. -1.
</event>
<event>
 7    1  0.5696597E-006  0.1293488E+04  0.7818608E-02  0.8643277E-01
          2   -1    0    0  501    0  0.00000000000E+00  0.00000000000E+00  0.46503713718E+03  0.46503713718E+03  0.00000000000E+00 0.  1.
         -4   -1    0    0    0  501 -0.00000000000E+00 -0.00000000000E+00 -0.29428388944E+04  0.29428388944E+04  0.00000000000E+00 0. -1.
   -9000010    2    1    2    0  502  0.30026229167E+03 -0.72282679360E+03 -0.75916662650E+03  0.14825145754E+04  0.10044299289E+04 0.  0.
        -13    1    1    2    0    0 -0.32045289348E+03  0.75905119345E+03 -0.15998828688E+04  0.17995760546E+04  0.10566000000E+00 0.  1.
         13    1    3    3    0    0  0.64884201364E+03 -0.64026934415E+03 -0.59426111733E+03  0.10881576533E+04  0.10566000000E+00 0. -1.
          2    1    1    2  502    0  0.20190601812E+02 -0.36224399849E+02 -0.11875226195E+03  0.12578540164E+03  0.00000000000E+00 0.  1.
         -4    1    3    3    0  502 -0.34857972196E+03 -0.82557449449E+02 -0.16490550916E+03  0.39435692206E+03  0.00000000000E+00 0. -1.
</event>
<event>
 7    1  0.5696597E-006  0.1206353E+04  0.7818608E-02  0.8729553E-01
          4   -1    0    0  501    0 -0.00000000000E+00  0.00000000000E+00  0.16143818297E+04  0.16143818297E+04  0.00000000000E+00 0.  1.
          2   -1    0    0  502    0  0.00000000000E+00 -0.00000000000E+00 -0.16116445726E+04  0.16116445726E+04  0.00000000000E+00 0.  1.
    9000010    2    1    2  502    0  0.40632042202E+03 -0.55834386713E+03 -0.38304251214E+03  0.12656412067E+04  0.98908136099E+03 0.  0.
        -13    1    3    3    0    0 -0.12253688272E+02 -0.12748608134E+03  0.31777267792E+03  0.34261106201E+03  0.10566000000E+00 0.  1.
         13    1    1    2    0    0 -0.38967701154E+03  0.57028424924E+03  0.10712455632E+04  0.12746134183E+04  0.10566000000E+00 0. -1.
          2    1    1    2  501    0 -0.16643410479E+02 -0.11940382114E+02 -0.68546579402E+03  0.68577177735E+03  0.00000000000E+00 0.  1.
          4    1    3    3  502    0  0.41857411029E+03 -0.43085778579E+03 -0.70081519006E+03  0.92303014469E+03  0.00000000000E+00 0.  1.
</event>
<event>
 7    1  0.5696597E-006  0.1251573E+04  0.7818608E-02  0.8686587E-01
          4   -1    0    0  501    0 -0.00000000000E+00  0.00000000000E+00  0.73630936226E+03  0.73630936226E+03  0.00000000000E+00 0.  1.
          2   -1    0    0  502    0  0.00000000000E+00 -0.00000000000E+00 -0.29607191523E+04  0.29607191523E+04  0.00000000000E+00 0. -1.
    9000010    2    1    2  502    0  0.23331380610E+03  0.69807730805E+03 -0.61162273291E+03  0.13884345445E+04  0.10059427701E+04 0.  0.
        -13    1    3    3    0    0 -0.39097942170E+03  0.35679810233E+03 -0.32671861980E+03  0.62202480795E+03  0.10566000000E+00 0.  1.
         13    1    1    2    0    0 -0.32084580741E+03 -0.67755278152E+03 -0.58771630512E+02  0.75197999947E+03  0.10566000000E+00 0. -1.
          2    1    1    2  501    0  0.87532001304E+02 -0.20524526525E+02 -0.15540154266E+04  0.15566139706E+04  0.00000000000E+00 0. -1.
          4    1    3    3  502    0  0.62429322781E+03  0.34127920572E+03 -0.28490411312E+03  0.76640973651E+03  0.00000000000E+00 0.  1.
</event>
<event>
 7    1  0.5696597E-006  0.1839779E+04  0.7818608E-02  0.8275469E-01
          4   -1    0    0  501    0 -0.00000000000E+00  0.00000000000E+00  0.26915374405E+04  0.26915374405E+04  0.00000000000E+00 0.  1.
          2   -1    0    0  502    0  0.00000000000E+00 -0.00000000000E+00 -0.17220039602E+04  0.17220039602E+04  0.00000000000E+00 0. -1.
    9000010    2    1    2  502    0 -0.10710981722E+04  0.10726309580E+04  0.62442696085E+03  0.19329008472E+04  0.10239180577E+04 0.  0.
        -13    1    3    3    0    0  0.10229616247E+03 -0.10549609607E+03 -0.22586388401E+02  0.14867443374E+03  0.10566000000E+00 0.  1.
         13    1    1    2    0    0  0.10378045680E+04 -0.11339928035E+04  0.99232453937E+03  0.18296682766E+04  0.10566000000E+00 0. -1.
          2    1    1    2  501    0  0.33293604162E+02  0.61361845428E+02 -0.64721801990E+03  0.65097227701E+03  0.00000000000E+00 0. -1.
          4    1    3    3  502    0 -0.11733943347E+04  0.11781270541E+04  0.64701334925E+03  0.17842264134E+04  0.00000000000E+00 0.  1.
</event>
<event>
 7    1  0.5696597E-006  0.1072356E+04  0.7818608E-02  0.8974095E-01
          2   -1    0    0  501    0  0.00000000000E+00  0.00000000000E+00  0.22629493956E+04  0.22629493956E+04  0.00000000000E+00 0.  1.
         -4   -1    0    0    0  501 -0.00000000000E+00 -0.00000000000E+00 -0.24609057816E+04  0.24609057816E+04  0.00000000000E+00 0. -1.
   -9000010    2    1    2    0  502 -0.31514583000E+03 -0.42837867424E+03 -0.13215379000E+04  0.17184069553E+04  0.96105923853E+03 0.  0.
        -13    1    1    2    0    0 -0.14943071243E+03  0.32021256991E+03 -0.87872253841E+03  0.94711083745E+03  0.10566000000E+00 0.  1.
         13    1    3    3    0    0 -0.80856836339E+02  0.28205939361E+03 -0.15296093362E+03  0.33089634009E+03  0.10566000000E+00 0. -1.
          2    1    1    2  502    0  0.46457654243E+03  0.10816610433E+03  0.20023040524E+04  0.20583373844E+04  0.00000000000E+00 0.  1.
         -4    1    3    3    0  502 -0.23428899366E+03 -0.71043806785E+03 -0.11685769664E+04  0.13875106152E+04  0.00000000000E+00 0. -1.
</event>
<event>
 7    1  0.5696597E-006  0.8962481E+03  0.7818608E-02  0.9145340E-01
         -4   -1    0    0    0  501 -0.00000000000E+00  0.00000000000E+00  0.28553782673E+04  0.28553782673E+04  0.00000000000E+00 0. -1.
          1   -1    0    0  501    0  0.00000000000E+00 -0.00000000000E+00 -0.11062738044E+04  0.11062738044E+04  0.00000000000E+00 0.  1.
   -9000010    2    1    2    0  502  0.39685296702E+03 -0.10675619771E+03  0.22562829970E+04  0.24432891978E+04  0.84259122849E+03 0.  0.
        -13    1    1    2    0    0 -0.25488744892E+03 -0.13592431981E+03  0.44222141389E+03  0.52820717754E+03  0.10566000000E+00 0.  1.
         13    1    3    3    0    0  0.59643761236E+03  0.31586229444E+02  0.10085050524E+04  0.11720998112E+04  0.10566000000E+00 0. -1.
          1    1    1    2  502    0 -0.14196551810E+03  0.24268051751E+03 -0.94939994797E+03  0.99015569640E+03  0.00000000000E+00 0.  1.
         -4    1    3    3    0  502 -0.19958464534E+03 -0.13834242715E+03  0.12477779445E+04  0.12711893866E+04  0.00000000000E+00 0. -1.
</event>
<event>
 7    1  0.5696597E-006  0.1018790E+04  0.7818608E-02  0.9218661E-01
          2   -1    0    0  502    0  0.00000000000E+00  0.00000000000E+00  0.11553575071E+04  0.11553575071E+04  0.00000000000E+00 0.  1.
          4   -1    0    0  501    0 -0.00000000000E+00 -0.00000000000E+00 -0.11901265381E+04  0.11901265381E+04  0.00000000000E+00 0.  1.
    9000010    2    1    2  502    0  0.81730451101E+02 -0.12073929708E+03  0.21534992615E+02  0.10174507796E+04  0.10067196673E+04 0.  0.
        -13    1    3    3    0    0  0.55406599551E+02  0.44511785800E+03 -0.23697956747E+02  0.44917858709E+03  0.10566000000E+00 0.  1.
         13    1    1    2    0    0 -0.93090844340E+02  0.12585557597E+03 -0.68325495712E+03  0.70095854293E+03  0.10566000000E+00 0. -1.
          2    1    1    2  501    0  0.11360393239E+02 -0.51162788908E+01  0.62695093350E+03  0.62707472271E+03  0.00000000000E+00 0.  1.
          4    1    3    3  502    0  0.26323851550E+02 -0.56585715508E+03  0.45232949362E+02  0.56827219255E+03  0.00000000000E+00 0.  1.
</event>
<event>
 7    1  0.5696597E-006  0.1123803E+04  0.7818608E-02  0.8851280E-01
         -4   -1    0    0    0  501 -0.00000000000E+00  0.00000000000E+00  0.18829678411E+04  0.18829678411E+04  0.00000000000E+00 0. -1.
          2   -1    0    0  501    0  0.00000000000E+00 -0.00000000000E+00 -0.11829775193E+04  0.11829775193E+04  0.00000000000E+00 0. -1.
   -9000010    2    1    2    0  502  0.66474327422E+02 -0.50133413472E+03  0.12478967907E+04  0.16781286203E+04  0.10015560471E+04 0.  0.
        -13    1    1    2    0    0 -0.87026559730E+02  0.50535996569E+03  0.26322766141E+03  0.57641229160E+03  0.10566000000E+00 0.  1.
         13    1    3    3    0    0 -0.41437578188E+03 -0.28351004832E+03  0.94348221972E+03  0.10687581327E+04  0.10566000000E+00 0. -1.
          2    1    1    2  502    0  0.20552232308E+02 -0.40258309678E+01 -0.81113413035E+03  0.81140444846E+03  0.00000000000E+00 0. -1.
         -4    1    3    3    0  502  0.48085010930E+03 -0.21782408640E+03  0.30441457094E+03  0.60937048766E+03  0.00000000000E+00 0. -1.
</event>
<event>
 7    1  0.5696597E-006  0.1154427E+04  0.7818608E-02  0.8996671E-01
          2   -1    0    0  502    0  0.00000000000E+00  0.00000000000E+00  0.34670287418E+04  0.34670287418E+04  0.00000000000E+00 0.  1.
          4   -1    0    0  501    0 -0.00000000000E+00 -0.00000000000E+00 -0.25716128905E+04  0.25716128905E+04  0.00000000000E+00 0.  1.
    9000010    2    1    2  502    0  0.22493036552E+02 -0.44567474742E+03 -0.11782006054E+04  0.16082881932E+04  0.99965110351E+03 0.  0.
        -13    1    3    3    0    0  0.33259624140E+03 -0.44863456677E+03 -0.11718295323E+04  0.12981054265E+04  0.10566000000E+00 0.  1.
         13    1    1    2    0    0  0.24950527372E+03 -0.67307662261E+02 -0.11378462728E+04  0.11668236176E+04  0.10566000000E+00 0. -1.
          2    1    1    2  501    0 -0.27199831027E+03  0.51298240968E+03  0.32114627294E+04  0.32635298215E+04  0.00000000000E+00 0.  1.
          4    1    3    3  502    0 -0.31010320484E+03  0.29598193503E+01 -0.63710730144E+01  0.31018276670E+03  0.00000000000E+00 0.  1.
</event>
<event>
 7    1  0.5696597E-006  0.1020916E+04  0.7818608E-02  0.9062365E-01
         -4   -1    0    0    0  501 -0.00000000000E+00  0.00000000000E+00  0.12555881573E+04  0.12555881573E+04  0.00000000000E+00 0. -1.
          2   -1    0    0  501    0  0.00000000000E+00 -0.00000000000E+00 -0.11945280185E+04  0.11945280185E+04  0.00000000000E+00 0. -1.
   -9000010    2    1    2    0  502  0.12499533579E+03 -0.12311571390E+03  0.12236425864E+03  0.10028408421E+04  0.97976294569E+03 0.  0.
        -13    1    1    2    0    0 -0.16256517922E+03  0.24644889123E+03  0.65552607258E+03  0.71894292992E+03  0.10566000000E+00 0.  1.
         13    1    3    3    0    0  0.19834817706E+03  0.16847637953E+03 -0.35409384944E+03  0.43944141268E+03  0.10566000000E+00 0. -1.
          2    1    1    2  502    0  0.37569843430E+02 -0.12333317733E+03 -0.71683019243E+03  0.72833240388E+03  0.00000000000E+00 0. -1.
         -4    1    3    3    0  502 -0.73352841268E+02 -0.29159209343E+03  0.47645810809E+03  0.56339942939E+03  0.00000000000E+00 0. -1.
</event>
<event>
 7    1  0.5696597E-006  0.1017004E+04  0.7818608E-02  0.9094368E-01
         -4   -1    0    0    0  501  0.00000000000E+00  0.00000000000E+00  0.71049118189E+03  0.71049118189E+03  0.00000000000E+00 0.  1.
         -4   -1    0    0    0  502 -0.00000000000E+00 -0.00000000000E+00 -0.23530175063E+04  0.23530175063E+04  0.00000000000E+00 0. -1.
   -9000010    2    1    2    0  501  0.89423523412E+02 -0.24840052179E+03 -0.19350296875E+04  0.21870113358E+04  0.98436746475E+03 0.  0.
        -13    1    1    2    0    0 -0.72355797206E+02  0.24144018829E+03 -0.23741529111E+03  0.34625822377E+03  0.10566000000E+00 0.  1.
         13    1    3    3    0    0  0.34640089661E+03  0.43940003953E+02 -0.16930764606E+04  0.17287082512E+04  0.10566000000E+00 0. -1.
         -4    1    1    2    0  502 -0.17067726206E+02  0.69603335017E+01  0.52991865416E+03  0.53023912865E+03  0.00000000000E+00 0.  1.
         -4    1    3    3    0  501 -0.25697737320E+03 -0.29234052574E+03 -0.24195322681E+03  0.45830308453E+03  0.00000000000E+00 0. -1.
</event>
<event>
 7    1  0.5696597E-006  0.1071293E+04  0.7818608E-02  0.8975888E-01
         -4   -1    0    0    0  501 -0.00000000000E+00  0.00000000000E+00  0.51151736468E+03  0.51151736468E+03  0.00000000000E+00 0. -1.
          2   -1    0    0  501    0  0.00000000000E+00 -0.00000000000E+00 -0.15669059704E+04  0.15669059704E+04  0.00000000000E+00 0. -1.
   -9000010    2    1    2    0  502 -0.28076019539E+03 -0.18571787733E+03 -0.80504352373E+03  0.13361477259E+04  0.10118686936E+04 0.  0.
        -13    1    1    2    0    0  0.35761490319E+03  0.29659731622E+02  0.81155096394E+02  0.36790525886E+03  0.10566000000E+00 0.  1.
         13    1    3    3    0    0  0.22935310687E+03  0.28854048672E+03 -0.24767526488E+03  0.44407376426E+03  0.10566000000E+00 0. -1.
          2    1    1    2  502    0 -0.76854707798E+02  0.15605814571E+03 -0.33150017843E+03  0.37437035039E+03  0.00000000000E+00 0. -1.
         -4    1    3    3    0  502 -0.51011330226E+03 -0.47425836405E+03 -0.55736825885E+03  0.89207396162E+03  0.00000000000E+00 0. -1.
</event>
<event>
 7    1  0.5696597E-006  0.1164427E+04  0.7818608E-02  0.8772955E-01
         -4   -1    0    0    0  501 -0.00000000000E+00  0.00000000000E+00  0.17478272787E+04  0.17478272787E+04  0.00000000000E+00 0. -1.
          1   -1    0    0  501    0  0.00000000000E+00 -0.00000000000E+00 -0.14216708263E+04  0.14216708263E+04  0.00000000000E+00 0. -1.
   -9000010    2    1    2    0  502  0.35168683371E+03  0.53350120730E+03  0.31104947061E+03  0.12058818826E+04  0.97421361843E+03 0.  0.
        -13    1    1    2    0    0 -0.30515622551E+03 -0.56023983037E+03  0.88560797730E+03  0.10914625464E+04  0.10566000000E+00 0.  1.
         13    1    3    3    0    0 -0.24505715727E+03  0.40835045669E+02  0.35213874219E+03  0.43095500484E+03  0.10566000000E+00 0. -1.
          1    1    1    2  502    0 -0.46530608200E+02  0.26738623076E+02 -0.87050099550E+03  0.87215367604E+03  0.00000000000E+00 0. -1.
         -4    1    3    3    0  502  0.59674399098E+03  0.49266616163E+03 -0.41089271576E+02  0.77492687773E+03  0.00000000000E+00 0. -1.
</event>
<event>
 7    1  0.5696597E-006  0.1006322E+04  0.7818608E-02  0.9589383E-01
          4   -1    0    0  501    0 -0.00000000000E+00  0.00000000000E+00  0.25405521196E+03  0.25405521196E+03  0.00000000000E+00 0.  1.
          2   -1    0    0  502    0  0.00000000000E+00 -0.00000000000E+00 -0.17452987087E+04  0.17452987087E+04  0.00000000000E+00 0.  1.
    9000010    2    1    2  502    0  0.25288093529E+01 -0.49662391047E+02 -0.10499383851E+04  0.14531191255E+04  0.10033503039E+04 0.  0.
        -13    1    3    3    0    0  0.44146395181E+03 -0.15320746440E+03 -0.23816771916E+03  0.52448719862E+03  0.10566000000E+00 0.  1.
         13    1    1    2    0    0  0.37253199128E+02 -0.17196725109E+02  0.40817228144E+02  0.57875603471E+02  0.10566000000E+00 0. -1.
          2    1    1    2  501    0 -0.39782008481E+02  0.66859116156E+02 -0.48212233977E+03  0.48835919170E+03  0.00000000000E+00 0.  1.
          4    1    3    3  502    0 -0.43893514246E+03  0.10354507335E+03 -0.81177066594E+03  0.92863192686E+03  0.00000000000E+00 0.  1.
</event>
<event>
 7    1  0.5696597E-006  0.9834882E+03  0.7818608E-02  0.9595171E-01
          4   -1    0    0  501    0 -0.00000000000E+00  0.00000000000E+00  0.12927069625E+04  0.12927069625E+04  0.00000000000E+00 0.  1.
          2   -1    0    0  502    0  0.00000000000E+00 -0.00000000000E+00 -0.99200903567E+03  0.99200903567E+03  0.00000000000E+00 0. -1.
    9000010    2    1    2  502    0 -0.25013978649E+02  0.14987400856E+02  0.10869983974E+04  0.14655411261E+04  0.98254514151E+03 0.  0.
        -13    1    3    3    0    0  0.31932642910E+03  0.36928509577E+03  0.56818875837E+03  0.74911903366E+03  0.10566000000E+00 0.  1.
         13    1    1    2    0    0  0.40573101679E+02 -0.20334013105E+02 -0.15144844862E+02  0.47843768234E+02  0.10566000000E+00 0. -1.
          2    1    1    2  501    0 -0.15559123031E+02  0.53466122491E+01 -0.77115562574E+03  0.77133110379E+03  0.00000000000E+00 0. -1.
          4    1    3    3  502    0 -0.34434040775E+03 -0.35429769492E+03  0.51880963904E+03  0.71642209248E+03  0.00000000000E+00 0.  1.
</event>
<event>
 7    1  0.5696597E-006  0.1674121E+04  0.7818608E-02  0.8364668E-01
         -4   -1    0    0    0  501 -0.00000000000E+00  0.00000000000E+00  0.21646436392E+04  0.21646436392E+04  0.00000000000E+00 0. -1.
          2   -1    0    0  501    0  0.00000000000E+00 -0.00000000000E+00 -0.23391220295E+04  0.23391220295E+04  0.00000000000E+00 0. -1.
   -9000010    2    1    2    0  502 -0.11123646259E+04  0.14760184212E+04 -0.54473569111E+03  0.21788917818E+04  0.10172742908E+04 0.  0.
        -13    1    1    2    0    0  0.16884017770E+03 -0.11169453285E+04 -0.22653926483E+03  0.11521258273E+04  0.10566000000E+00 0.  1.
         13    1    3    3    0    0 -0.98865154650E+03  0.64945081727E+03 -0.29774489099E+01  0.11828893105E+04  0.10566000000E+00 0. -1.
          2    1    1    2  502    0  0.94352444824E+03 -0.35907309275E+03  0.59679656561E+03  0.11727480595E+04  0.00000000000E+00 0. -1.
         -4    1    3    3    0  502 -0.12371307945E+03  0.82656760393E+03 -0.54175824220E+03  0.99600247132E+03  0.00000000000E+00 0. -1.
</event>
<event>
 7    1  0.5696597E-006  0.9914566E+03  0.7818608E-02  0.9066630E-01
          4   -1    0    0  501    0 -0.00000000000E+00  0.00000000000E+00  0.36442534066E+04  0.36442534066E+04  0.00000000000E+00 0.  1.
          2   -1    0    0  502    0  0.00000000000E+00 -0.00000000000E+00 -0.15653303932E+03  0.15653303932E+03  0.00000000000E+00 0.  1.
    9000010    2    1    2  502    0  0.20492280254E+03  0.22699798528E+03  0.25239930085E+04  0.27114910002E+04  0.94240187666E+03 0.  0.
        -13    1    3    3    0    0  0.41795962764E+03  0.27247241733E+03  0.62348392208E+03  0.79853846545E+03  0.10566000000E+00 0.  1.
         13    1    1    2    0    0 -0.23205084478E+03 -0.20397605744E+03  0.99503855190E+03  0.10418999748E+04  0.10566000000E+00 0. -1.
          2    1    1    2  501    0  0.27128042238E+02 -0.23021927835E+02 -0.31311193165E+02  0.47395470821E+02  0.00000000000E+00 0.  1.
          4    1    3    3  502    0 -0.21303682510E+03 -0.45474432057E+02  0.19005090864E+04  0.19129525348E+04  0.00000000000E+00 0.  1.
</event>
<event>
 7    1  0.5696597E-006  0.1162190E+04  0.7818608E-02  0.8865537E-01
          2   -1    0    0  501    0  0.00000000000E+00  0.00000000000E+00  0.24515549205E+04  0.24515549205E+04  0.00000000000E+00 0. -1.
         -4   -1    0    0    0  501 -0.00000000000E+00 -0.00000000000E+00 -0.10819770407E+04  0.10819770407E+04  0.00000000000E+00 0. -1.
   -9000010    2    1    2    0  502 -0.41959646789E+02  0.20501410407E+03 -0.17873917102E+03  0.10392597949E+04  0.10021585879E+04 0.  0.
        -13    1    1    2    0    0  0.15386957593E+03  0.40603556085E+03 -0.31088559493E+03  0.53403238419E+03  0.10566000000E+00 0.  1.
         13    1    3    3    0    0 -0.25484014255E+03  0.44914823141E+03 -0.39468347831E+03  0.64996360763E+03  0.10566000000E+00 0. -1.
          2    1    1    2  502    0 -0.11190992914E+03 -0.61104966491E+03  0.18592026457E+04  0.19602397821E+04  0.00000000000E+00 0. -1.
         -4    1    3    3    0  502  0.21288049576E+03 -0.24413412734E+03  0.21594430728E+03  0.38929618731E+03  0.00000000000E+00 0. -1.
</event>
<event>
 7    1  0.5696597E-006  0.1024287E+04  0.7818608E-02  0.9119042E-01
          4   -1    0    0  501    0 -0.00000000000E+00  0.00000000000E+00  0.33390909639E+04  0.33390909639E+04  0.00000000000E+00 0.  1.
          2   -1    0    0  502    0  0.00000000000E+00 -0.00000000000E+00 -0.12127377700E+04  0.12127377700E+04  0.00000000000E+00 0. -1.
    9000010    2    1    2  502    0  0.18690768784E+03  0.12377528308E+03  0.28955845989E+04  0.30712113045E+04  0.99883627418E+03 0.  0.
        -13    1    3    3    0    0  0.49798568959E+03 -0.16566486350E+03  0.10085410391E+04  0.11369211199E+04  0.10566000000E+00 0.  1.
         13    1    1    2    0    0 -0.19851381103E+03 -0.11257968231E+03  0.31902117330E+03  0.39224538011E+03  0.10566000000E+00 0. -1.
          2    1    1    2  501    0  0.11606123187E+02 -0.11195600772E+02 -0.10882525783E+04  0.10883720493E+04  0.00000000000E+00 0. -1.
          4    1    3    3  502    0 -0.31107800175E+03  0.28944014658E+03  0.18870435598E+04  0.19342901846E+04  0.00000000000E+00 0.  1.
</event>
<event>
 7    1  0.5696597E-006  0.1178712E+04  0.7818608E-02  0.8769932E-01
          2   -1    0    0  501    0  0.00000000000E+00  0.00000000000E+00  0.11739850731E+04  0.11739850731E+04  0.00000000000E+00 0.  1.
         -4   -1    0    0    0  501 -0.00000000000E+00 -0.00000000000E+00 -0.96863132613E+03  0.96863132613E+03  0.00000000000E+00 0. -1.
   -9000010    2    1    2    0  502  0.52204343225E+03 -0.27825551726E+03  0.45000896605E+02  0.11633468155E+04  0.10006973841E+04 0.  0.
        -13    1    1    2    0    0 -0.51863555323E+03  0.37063362168E+03 -0.15048331346E+03  0.65497889843E+03  0.10566000000E+00 0.  1.
         13    1    3    3    0    0  0.41146180993E+03 -0.30319833973E+03  0.48764423907E+03  0.70641840952E+03  0.10566000000E+00 0. -1.
          2    1    1    2  502    0 -0.34078790183E+01 -0.92378104415E+02  0.31083616378E+03  0.32429068523E+03  0.00000000000E+00 0.  1.
         -4    1    3    3    0  502  0.11058162232E+03  0.24942822468E+02 -0.44264334247E+03  0.45692840601E+03  0.00000000000E+00 0. -1.
</event>
<event>
 7    1  0.5696597E-006  0.1188423E+04  0.7818608E-02  0.8761569E-01
          2   -1    0    0  501    0  0.00000000000E+00  0.00000000000E+00  0.12465780125E+04  0.12465780125E+04  0.00000000000E+00 0.  1.
         -4   -1    0    0    0  501 -0.00000000000E+00 -0.00000000000E+00 -0.26572644466E+04  0.26572644466E+04  0.00000000000E+00 0. -1.
   -9000010    2    1    2    0  502  0.58970511686E+03  0.92947030381E+02 -0.28082971122E+03  0.12045596505E+04  0.10078230746E+04 0.  0.
        -13    1    1    2    0    0 -0.62890101192E+03 -0.76663137541E+02 -0.18615248550E+04  0.19663846309E+04  0.10566000000E+00 0.  1.
         13    1    3    3    0    0  0.48786663658E+03 -0.69654004990E+02  0.31077608278E+03  0.58262107780E+03  0.10566000000E+00 0. -1.
          2    1    1    2  502    0  0.39195895058E+02 -0.16283892840E+02  0.73166813214E+03  0.73289817775E+03  0.00000000000E+00 0.  1.
         -4    1    3    3    0  502  0.10183848028E+03  0.16260103537E+03 -0.59160579401E+03  0.62193857275E+03  0.00000000000E+00 0. -1.
</event>
<event>
 7    1  0.5696597E-006  0.1039930E+04  0.7818608E-02  0.9065894E-01
          4   -1    0    0  501    0 -0.00000000000E+00  0.00000000000E+00  0.80955795886E+03  0.80955795886E+03  0.00000000000E+00 0.  1.
          2   -1    0    0  502    0  0.00000000000E+00 -0.00000000000E+00 -0.58307317816E+03  0.58307317816E+03  0.00000000000E+00 0.  1.
    9000010    2    1    2  502    0 -0.25547798576E+03  0.11361765270E+02  0.14038763914E+03  0.10463760431E+04  0.10048860848E+04 0.  0.
        -13    1    3    3    0    0 -0.30254722734E+03 -0.37481216576E+03 -0.20750708631E+03  0.52447896659E+03  0.10566000000E+00 0.  1.
         13    1    1    2    0    0  0.26997333217E+03  0.59740353745E+01  0.12785278696E+03  0.29877689917E+03  0.10566000000E+00 0. -1.
          2    1    1    2  501    0 -0.14495346406E+02 -0.17335800644E+02 -0.41755645392E+02  0.47478194716E+02  0.00000000000E+00 0.  1.
          4    1    3    3  502    0  0.47069241573E+02  0.38617393102E+03  0.34789472545E+03  0.52189707654E+03  0.00000000000E+00 0.  1.
</event>
<event>
 7    1  0.5696597E-006  0.1022844E+04  0.7818608E-02  0.9316780E-01
          2   -1    0    0  501    0  0.00000000000E+00  0.00000000000E+00  0.19693579728E+04  0.19693579728E+04  0.00000000000E+00 0. -1.
         -4   -1    0    0    0  501 -0.00000000000E+00 -0.00000000000E+00 -0.58456684203E+03  0.58456684203E+03  0.00000000000E+00 0. -1.
   -9000010    2    1    2    0  502  0.11293012654E+03 -0.15932414275E+02 -0.11454917699E+03  0.10300737319E+04  0.10173118125E+04 0.  0.
        -13    1    1    2    0    0 -0.90982411238E+02  0.52428496964E+02  0.21972689838E+03  0.24352919226E+03  0.10566000000E+00 0.  1.
         13    1    3    3    0    0 -0.31979645689E+03 -0.15832879991E+03 -0.36479942763E+03  0.51031011775E+03  0.10566000000E+00 0. -1.
          2    1    1    2  502    0 -0.21947715302E+02 -0.36496082689E+02  0.12796134094E+04  0.12803218907E+04  0.00000000000E+00 0. -1.
         -4    1    3    3    0  502  0.43272658343E+03  0.14239638564E+03  0.25025025064E+03  0.51976361415E+03  0.00000000000E+00 0. -1.
</event>
<event>
 7    1  0.5696597E-006  0.1245718E+04  0.7818608E-02  0.8693882E-01
          2   -1    0    0  502    0  0.00000000000E+00  0.00000000000E+00  0.20228893112E+04  0.20228893112E+04  0.00000000000E+00 0.  1.
          4   -1    0    0  501    0 -0.00000000000E+00 -0.00000000000E+00 -0.99976124850E+03  0.99976124850E+03  0.00000000000E+00 0.  1.
    9000010    2    1    2  502    0 -0.40622714516E+03 -0.61644354368E+03  0.94635205384E+03  0.15675074239E+04  0.10082034409E+04 0.  0.
        -13    1    3    3    0    0 -0.43137334519E+03  0.28865968562E+02  0.13020528797E+02  0.43253410550E+03  0.10566000000E+00 0.  1.
         13    1    1    2    0    0  0.40827922603E+03  0.60594674547E+03 -0.49546163758E+03  0.88280554497E+03  0.10566000000E+00 0. -1.
          2    1    1    2  501    0 -0.20520808770E+01  0.10496798208E+02  0.57223764645E+03  0.57233759078E+03  0.00000000000E+00 0.  1.
          4    1    3    3  502    0  0.25146200035E+02 -0.64530951224E+03  0.93333152504E+03  0.11349733185E+04  0.00000000000E+00 0.  1.
</event>
<event>
 7    1  0.5696597E-006  0.1072004E+04  0.7818608E-02  0.8958633E-01
         -4   -1    0    0    0  501 -0.00000000000E+00  0.00000000000E+00  0.60844146838E+03  0.60844146838E+03  0.00000000000E+00 0. -1.
          1   -1    0    0  501    0  0.00000000000E+00 -0.00000000000E+00 -0.14001435209E+04  0.14001435209E+04  0.00000000000E+00 0. -1.
   -9000010    2    1    2    0  502 -0.41279203726E+03 -0.17156738096E+03 -0.97291209614E+03  0.14675341418E+04  0.10036263640E+04 0.  0.
        -13    1    1    2    0    0  0.29789289789E+03  0.21838090377E+03  0.73189552714E+02  0.37654630464E+03  0.10566000000E+00 0.  1.
         13    1    3    3    0    0 -0.26372220288E+03  0.20721658023E+02  0.15975406607E+03  0.30903100199E+03  0.10566000000E+00 0. -1.
          1    1    1    2  502    0  0.11489913937E+03 -0.46813522807E+02  0.10802049090E+03  0.16450454280E+03  0.00000000000E+00 0. -1.
         -4    1    3    3    0  502 -0.14906983439E+03 -0.19228903898E+03 -0.11326661622E+04  0.11585031399E+04  0.00000000000E+00 0. -1.
</event>
<event>
 7    1  0.5696597E-006  0.1028460E+04  0.7818608E-02  0.9140174E-01
          4   -1    0    0  501    0 -0.00000000000E+00  0.00000000000E+00  0.66186701292E+03  0.66186701292E+03  0.00000000000E+00 0.  1.
          2   -1    0    0  502    0  0.00000000000E+00 -0.00000000000E+00 -0.10029128321E+04  0.10029128321E+04  0.00000000000E+00 0. -1.
    9000010    2    1    2  502    0  0.20151218066E+03 -0.15275115372E+03 -0.78012641411E+02  0.10417311027E+04  0.10075602434E+04 0.  0.
        -13    1    3    3    0    0  0.94406908267E+02 -0.45536615396E+03 -0.38033472412E+03  0.60077076496E+03  0.10566000000E+00 0.  1.
         13    1    1    2    0    0 -0.84408940730E+02  0.18587699198E+03  0.10913683996E+03  0.23148647136E+03  0.10566000000E+00 0. -1.
          2    1    1    2  501    0 -0.11710323993E+03 -0.33125838254E+02 -0.37217001770E+03  0.39156227095E+03  0.00000000000E+00 0. -1.
          4    1    3    3  502    0  0.10710527239E+03  0.30261500024E+03  0.30232208271E+03  0.44096033771E+03  0.00000000000E+00 0.  1.
</event>
<event>
 7    1  0.5696597E-006  0.1459151E+04  0.7818608E-02  0.8501726E-01
          4   -1    0    0  501    0 -0.00000000000E+00  0.00000000000E+00  0.11003875055E+04  0.11003875055E+04  0.00000000000E+00 0.  1.
          2   -1    0    0  502    0  0.00000000000E+00 -0.00000000000E+00 -0.21125187423E+04  0.21125187423E+04  0.00000000000E+00 0.  1.
    9000010    2    1    2  502    0 -0.14586484453E+03 -0.10058123862E+04 -0.59158593102E+03  0.15401377146E+04  0.99454268742E+03 0.  0.
        -13    1    3    3    0    0 -0.49784972937E+03 -0.35548966890E+03 -0.50950188326E+03  0.79612777739E+03  0.10566000000E+00 0.  1.
         13    1    1    2    0    0  0.19215389289E+03  0.10738445009E+04  0.14568904557E+03  0.11005864073E+04  0.10566000000E+00 0. -1.
          2    1    1    2  501    0 -0.46289048361E+02 -0.68032114680E+02 -0.56623435128E+03  0.57218212590E+03  0.00000000000E+00 0.  1.
          4    1    3    3  502    0  0.35198488484E+03 -0.65032271733E+03 -0.82084047761E+02  0.74400993725E+03  0.00000000000E+00 0.  1.
</event>
<event>
 7    1  0.5696597E-006  0.1054057E+04  0.7818608E-02  0.9012539E-01
          2   -1    0    0  501    0  0.00000000000E+00  0.00000000000E+00  0.17011008445E+04  0.17011008445E+04  0.00000000000E+00 0.  1.
         -4   -1    0    0    0  501 -0.00000000000E+00 -0.00000000000E+00 -0.58405282095E+03  0.58405282095E+03  0.00000000000E+00 0. -1.
   -9000010    2    1    2    0  502  0.29432962960E+03  0.34761062306E+02  0.26665495691E+03  0.10810161181E+04  0.10048147686E+04 0.  0.
        -13    1    1    2    0    0 -0.32363970055E+03 -0.10417122806E+00 -0.27745373102E+02  0.32482685159E+03  0.10566000000E+00 0.  1.
         13    1    3    3    0    0  0.28131432098E+03 -0.46211706195E+03  0.21164273096E+03  0.58093251145E+03  0.10566000000E+00 0. -1.
          2    1    1    2  502    0  0.29310070943E+02 -0.34656891078E+02  0.87813843973E+03  0.87931069577E+03  0.00000000000E+00 0.  1.
         -4    1    3    3    0  502  0.13015308628E+02  0.49687812425E+03  0.55012225946E+02  0.50008360664E+03  0.00000000000E+00 0. -1.
</event>
<event>
 7    1  0.5696597E-006  0.1126686E+04  0.7818608E-02  0.8884144E-01
          2   -1    0    0  501    0  0.00000000000E+00  0.00000000000E+00  0.10255580868E+04  0.10255580868E+04  0.00000000000E+00 0. -1.
         -4   -1    0    0    0  501 -0.00000000000E+00 -0.00000000000E+00 -0.21671465789E+04  0.21671465789E+04  0.00000000000E+00 0. -1.
   -9000010    2    1    2    0  502 -0.13087643371E+03  0.14075972779E+03 -0.79821487870E+03  0.12968611499E+04  0.10038724558E+04 0.  0.
        -13    1    1    2    0    0 -0.41805655263E+03 -0.14053024481E+03 -0.96832914429E+03  0.10640401185E+04  0.10566000000E+00 0.  1.
         13    1    3    3    0    0 -0.11712369720E+03  0.30724431026E+03  0.13011565010E+03  0.35362002234E+03  0.10566000000E+00 0. -1.
          2    1    1    2  502    0  0.54893298634E+03 -0.22948298260E+00  0.62495553095E+03  0.83180339733E+03  0.00000000000E+00 0. -1.
         -4    1    3    3    0  502 -0.13752736507E+02 -0.16648458248E+03 -0.92833052880E+03  0.94324112753E+03  0.00000000000E+00 0. -1.
</event>
<event>
 7    1  0.5696597E-006  0.1224834E+04  0.7818608E-02  0.8704709E-01
         -4   -1    0    0    0  501 -0.00000000000E+00  0.00000000000E+00  0.22888643352E+04  0.22888643352E+04  0.00000000000E+00 0. -1.
          2   -1    0    0  501    0  0.00000000000E+00 -0.00000000000E+00 -0.90194743081E+03  0.90194743081E+03  0.00000000000E+00 0.  1.
   -9000010    2    1    2    0  502  0.27581236329E+03 -0.69823852737E+03  0.12109057251E+04  0.17293515765E+04  0.98018095233E+03 0.  0.
        -13    1    1    2    0    0 -0.21541607540E+03  0.69244366901E+03  0.65587229040E+03  0.97777849882E+03  0.10566000000E+00 0.  1.
         13    1    3    3    0    0  0.24400692438E+03  0.19651619136E+03  0.48181909105E+03  0.57472396877E+03  0.10566000000E+00 0. -1.
          2    1    1    2  502    0 -0.60396287887E+02  0.57948583637E+01 -0.47986111108E+03  0.48368169068E+03  0.00000000000E+00 0.  1.
         -4    1    3    3    0  502  0.31805438906E+02 -0.89475471873E+03  0.72908663402E+03  0.11546276077E+04  0.00000000000E+00 0. -1.
</event>
<event>
 6    1  0.5696597E-006  0.4207654E+03  0.7818608E-02  0.9900316E-01
         -2   -1    0    0    0  501  0.00000000000E+00  0.00000000000E+00  0.61638828501E+03  0.61638828501E+03  0.00000000000E+00 0.  1.
         -4   -1    0    0    0  502 -0.00000000000E+00 -0.00000000000E+00 -0.37124554559E+03  0.37124554559E+03  0.00000000000E+00 0. -1.
        -13    1    1    2    0    0 -0.18167634474E+03 -0.46361344902E+02  0.14865246840E+03  0.23927648457E+03  0.10566000000E+00 0.  1.
         13    1    1    2    0    0  0.72923796482E+02  0.89220100926E+02 -0.28770628895E+03  0.30992422681E+03  0.10566000000E+00 0. -1.
         -2    1    1    2    0  502 -0.39182694655E+01 -0.13644440517E+02  0.28542159465E+03  0.28577440453E+03  0.00000000000E+00 0.  1.
         -4    1    1    2    0  501  0.11267081773E+03 -0.29214315507E+02  0.98774965311E+02  0.15265871469E+03  0.00000000000E+00 0. -1.
</event>
<event>
 7    1  0.5696597E-006  0.1075854E+04  0.7818608E-02  0.9059329E-01
          2   -1    0    0  501    0  0.00000000000E+00  0.00000000000E+00  0.29859307575E+04  0.29859307575E+04  0.00000000000E+00 0. -1.
         -4   -1    0    0    0  501 -0.00000000000E+00 -0.00000000000E+00 -0.13601785567E+04  0.13601785567E+04  0.00000000000E+00 0. -1.
   -9000010    2    1    2    0  502  0.35360685022E+03  0.13785185111E+03  0.14919263684E+03  0.10763954952E+04  0.99615655487E+03 0.  0.
        -13    1    1    2    0    0  0.42439571181E+02 -0.24452273368E+03 -0.86119951294E+03  0.89624611394E+03  0.10566000000E+00 0.  1.
         13    1    3    3    0    0  0.67482055223E+03  0.25099632700E+03  0.50170896563E+02  0.72173337453E+03  0.10566000000E+00 0. -1.
          2    1    1    2  502    0 -0.39604642140E+03  0.10667088257E+03  0.23377590769E+04  0.23734677050E+04  0.00000000000E+00 0. -1.
         -4    1    3    3    0  502 -0.32121370202E+03 -0.11314447589E+03  0.99021740279E+02  0.35466212067E+03  0.00000000000E+00 0. -1.
</event>
<event>
 7    1  0.5696597E-006  0.9966818E+03  0.7818608E-02  0.9388093E-01
         -4   -1    0    0    0  501 -0.00000000000E+00  0.00000000000E+00  0.75717178316E+03  0.75717178316E+03  0.00000000000E+00 0. -1.
          2   -1    0    0  501    0  0.00000000000E+00 -0.00000000000E+00 -0.62101523121E+03  0.62101523121E+03  0.00000000000E+00 0. -1.
   -9000010    2    1    2    0  502 -0.73471554509E+02  0.26947671646E+02 -0.11033646682E+03  0.10019708449E+04  0.99279765903E+03 0.  0.
        -13    1    1    2    0    0  0.81217443292E+02 -0.33917324751E+02  0.30466224863E+03  0.31712104143E+03  0.10566000000E+00 0.  1.
         13    1    3    3    0    0 -0.16660096234E+01  0.20351971148E+03  0.40458928974E+03  0.45289684596E+03  0.10566000000E+00 0. -1.
          2    1    1    2  502    0 -0.77458887826E+01  0.69696531059E+01 -0.58169229851E+02  0.59095128047E+02  0.00000000000E+00 0. -1.
         -4    1    3    3    0  502 -0.71805544886E+02 -0.17657203983E+03 -0.51492575656E+03  0.54907399893E+03  0.00000000000E+00 0. -1.
</event>
<event>
 7    1  0.5696597E-006  0.1529354E+04  0.7818608E-02  0.8666201E-01
          2   -1    0    0  501    0  0.00000000000E+00  0.00000000000E+00  0.23939161734E+04  0.23939161734E+04  0.00000000000E+00 0.  1.
         -4   -1    0    0    0  501 -0.00000000000E+00 -0.00000000000E+00 -0.31217733443E+04  0.31217733443E+04  0.00000000000E+00 0. -1.
   -9000010    2    1    2    0  502  0.33141666932E+03  0.75869603607E+03 -0.17430050134E+04  0.21738970019E+04  0.10011518439E+04 0.  0.
        -13    1    1    2    0    0 -0.16241707500E+03  0.41539158042E+03 -0.94824262704E+03  0.10478995955E+04  0.10566000000E+00 0.  1.
         13    1    3    3    0    0  0.26148201445E+03  0.22820072498E+03 -0.15754020923E+04  0.16131770449E+04  0.10566000000E+00 0. -1.
          2    1    1    2  502    0 -0.16899959432E+03 -0.11740876165E+04  0.19633904695E+04  0.22938929203E+04  0.00000000000E+00 0.  1.
         -4    1    3    3    0  502  0.69934654868E+02  0.53049531109E+03 -0.16760292114E+03  0.56071995703E+03  0.00000000000E+00 0. -1.
</event>
<event>
 7    1  0.5696597E-006  0.9465512E+03  0.7818608E-02  0.9206799E-01
          4   -1    0    0  501    0 -0.00000000000E+00  0.00000000000E+00  0.23673788670E+04  0.23673788670E+04  0.00000000000E+00 0.  1.
          2   -1    0    0  502    0  0.00000000000E+00 -0.00000000000E+00 -0.40006472919E+03  0.40006472919E+03  0.00000000000E+00 0.  1.
    9000010    2    1    2  502    0  0.19359954718E+03  0.77828659268E+02  0.11009583855E+04  0.14182654768E+04  0.86938455877E+03 0.  0.
        -13    1    3    3    0    0  0.98586163989E+02 -0.36505067576E+03  0.24711450713E+03  0.45171541749E+03  0.10566000000E+00 0.  1.
         13    1    1    2    0    0  0.20161147328E+03 -0.31798807455E+02  0.92477415097E+03  0.94702987903E+03  0.10566000000E+00 0. -1.
          2    1    1    2  501    0 -0.39521102046E+03 -0.46029851813E+02 -0.58418398687E+02  0.40214824040E+03  0.00000000000E+00 0.  1.
          4    1    3    3  502    0  0.95013383196E+02  0.44287933503E+03  0.85384387841E+03  0.96655005927E+03  0.00000000000E+00 0.  1.
</event>
<event>
 7    1  0.5696597E-006  0.1240603E+04  0.7818608E-02  0.8828215E-01
         -4   -1    0    0    0  501 -0.00000000000E+00  0.00000000000E+00  0.19531427459E+04  0.19531427459E+04  0.00000000000E+00 0. -1.
          1   -1    0    0  501    0  0.00000000000E+00 -0.00000000000E+00 -0.88137294452E+03  0.88137294452E+03  0.00000000000E+00 0. -1.
   -9000010    2    1    2    0  502  0.62215303977E+02 -0.42176090693E+03  0.84471622634E+03  0.15033890467E+04  0.11682808378E+04 0.  0.
        -13    1    1    2    0    0 -0.54024362642E+02  0.41236835348E+03  0.72350367652E+03  0.83452014464E+03  0.10566000000E+00 0.  1.
         13    1    3    3    0    0  0.56375918311E+03 -0.34618957508E+03  0.21674435979E+03  0.69616791588E+03  0.10566000000E+00 0. -1.
          1    1    1    2  502    0 -0.81909413343E+01  0.93925534509E+01 -0.49645010151E+03  0.49660649902E+03  0.00000000000E+00 0. -1.
         -4    1    3    3    0  502 -0.50154387913E+03 -0.75571331853E+02  0.62797186655E+03  0.80722113084E+03  0.00000000000E+00 0. -1.
</event>
<event>
 7    1  0.5696597E-006  0.1078849E+04  0.7818608E-02  0.8935195E-01
          2   -1    0    0  502    0  0.00000000000E+00  0.00000000000E+00  0.21523482525E+04  0.21523482525E+04  0.00000000000E+00 0.  1.
          4   -1    0    0  501    0 -0.00000000000E+00 -0.00000000000E+00 -0.21110480802E+04  0.21110480802E+04  0.00000000000E+00 0.  1.
    9000010    2    1    2  502    0  0.21598074196E+03  0.33777205409E+03  0.33364244689E+03  0.11271405703E+04  0.99919514686E+03 0.  0.
        -13    1    3    3    0    0  0.50118303508E+03 -0.13598598183E+03  0.21217584717E+03  0.56097702555E+03  0.10566000000E+00 0.  1.
         13    1    1    2    0    0 -0.19517541897E+03 -0.35723173206E+03 -0.16899862676E+04  0.17383214750E+04  0.10566000000E+00 0. -1.
          2    1    1    2  501    0 -0.20805322987E+02  0.19459677969E+02  0.13976439930E+04  0.13979342873E+04  0.00000000000E+00 0.  1.
          4    1    3    3  502    0 -0.28520229312E+03  0.47375803592E+03  0.12146659972E+03  0.56616354478E+03  0.00000000000E+00 0.  1.
</event>
<event>
 7    1  0.5696597E-006  0.1104093E+04  0.7818608E-02  0.9004720E-01
          2   -1    0    0  501    0  0.00000000000E+00  0.00000000000E+00  0.18465662521E+04  0.18465662521E+04  0.00000000000E+00 0.  1.
         -4   -1    0    0    0  501 -0.00000000000E+00 -0.00000000000E+00 -0.16342023794E+04  0.16342023794E+04  0.00000000000E+00 0. -1.
   -9000010    2    1    2    0  502 -0.48843222459E+02 -0.20042778545E+03 -0.46091073588E+03  0.11160169482E+04  0.99523774281E+03 0.  0.
        -13    1    1    2    0    0 -0.84448227588E+02 -0.27318533885E+03 -0.77983552782E+03  0.83060531789E+03  0.10566000000E+00 0.  1.
         13    1    3    3    0    0  0.33994795044E+02  0.31106992683E+03  0.12220929039E+03  0.33593938038E+03  0.10566000000E+00 0. -1.
          2    1    1    2  502    0  0.13329145005E+03  0.47361312430E+03  0.14531101364E+04  0.15341463655E+04  0.00000000000E+00 0.  1.
         -4    1    3    3    0  502 -0.82838017503E+02 -0.51149771228E+03 -0.58312002627E+03  0.78007756784E+03  0.00000000000E+00 0. -1.
</event>
<event>
 7    1  0.5696597E-006  0.1018910E+04  0.7818608E-02  0.9319545E-01
          4   -1    0    0  501    0 -0.00000000000E+00  0.00000000000E+00  0.39894107530E+03  0.39894107530E+03  0.00000000000E+00 0.  1.
          2   -1    0    0  502    0  0.00000000000E+00 -0.00000000000E+00 -0.24797461921E+04  0.24797461921E+04  0.00000000000E+00 0.  1.
    9000010    2    1    2  502    0  0.25134957423E+03 -0.10351261212E+03 -0.54100048074E+03  0.11708387904E+04  0.10021429457E+04 0.  0.
        -13    1    3    3    0    0  0.44655227572E+03 -0.44735796802E+03 -0.24923805879E+03  0.67945397756E+03  0.10566000000E+00 0.  1.
         13    1    1    2    0    0 -0.70100138458E+02  0.79991844550E+02  0.42855107705E+02  0.11467037990E+03  0.10566000000E+00 0. -1.
          2    1    1    2  501    0 -0.18124943578E+03  0.23520767566E+02 -0.15826597438E+04  0.15931780971E+04  0.00000000000E+00 0.  1.
          4    1    3    3  502    0 -0.19520270149E+03  0.34384535591E+03 -0.29176242195E+03  0.49138481286E+03  0.00000000000E+00 0.  1.
</event>
<event>
 7    1  0.5696597E-006  0.1081480E+04  0.7818608E-02  0.8936680E-01
          2   -1    0    0  501    0  0.00000000000E+00  0.00000000000E+00  0.18544291742E+04  0.18544291742E+04  0.00000000000E+00 0. -1.
         -4   -1    0    0    0  501 -0.00000000000E+00 -0.00000000000E+00 -0.15239038926E+04  0.15239038926E+04  0.00000000000E+00 0. -1.
   -9000010    2    1    2    0  502 -0.20589504923E+03 -0.30140567745E+03 -0.91142707820E+02  0.10723808889E+04  0.10042189123E+04 0.  0.
        -13    1    1    2    0    0 -0.18504368540E+02  0.41068577616E+03 -0.88491356129E+03  0.97574445452E+03  0.10566000000E+00 0.  1.
         13    1    3    3    0    0  0.70755748299E+02  0.32268950627E+03 -0.19232113327E+03  0.38225949673E+03  0.10566000000E+00 0. -1.
          2    1    1    2  502    0  0.22439941777E+03 -0.10928009872E+03  0.13065815508E+04  0.13302077234E+04  0.00000000000E+00 0. -1.
         -4    1    3    3    0  502 -0.27665079753E+03 -0.62409518371E+03  0.10117842545E+03  0.69012139214E+03  0.00000000000E+00 0. -1.
</event>
<event>
 7    1  0.5696597E-006  0.1077583E+04  0.7818608E-02  0.9109169E-01
         -4   -1    0    0    0  501 -0.00000000000E+00  0.00000000000E+00  0.12980121716E+04  0.12980121716E+04  0.00000000000E+00 0. -1.
          2   -1    0    0  501    0  0.00000000000E+00 -0.00000000000E+00 -0.29286629855E+04  0.29286629855E+04  0.00000000000E+00 0. -1.
   -9000010    2    1    2    0  502 -0.18677487702E+03 -0.12875956808E+03  0.78316397040E+03  0.12824650256E+04  0.98990244787E+03 0.  0.
        -13    1    1    2    0    0 -0.15694678670E+03 -0.12816311584E+03  0.20631070259E+03  0.28917502535E+03  0.10566000000E+00 0.  1.
         13    1    3    3    0    0  0.35862163656E+03 -0.15061254135E+03  0.88315726752E+02  0.39886500796E+03  0.10566000000E+00 0. -1.
          2    1    1    2  502    0  0.34372166373E+03  0.25692268392E+03 -0.26201254869E+04  0.26550351061E+04  0.00000000000E+00 0. -1.
         -4    1    3    3    0  502 -0.54539651358E+03  0.21852973269E+02  0.69484824365E+03  0.88360001764E+03  0.00000000000E+00 0. -1.
</event>
<event>
 7    1  0.5696597E-006  0.1008885E+04  0.7818608E-02  0.9412494E-01
          2   -1    0    0  502    0  0.00000000000E+00  0.00000000000E+00  0.17370130094E+04  0.17370130094E+04  0.00000000000E+00 0.  1.
          4   -1    0    0  501    0 -0.00000000000E+00 -0.00000000000E+00 -0.24568345501E+03  0.24568345501E+03  0.00000000000E+00 0.  1.
    9000010    2    1    2  502    0 -0.31841692464E+02 -0.55275979137E+02  0.10362083793E+04  0.14455627016E+04  0.10059097334E+04 0.  0.
        -13    1    3    3    0    0 -0.49268667294E+03 -0.18376411271E+03  0.60392143905E+03  0.80076870726E+03  0.10566000000E+00 0.  1.
         13    1    1    2    0    0  0.10832482639E+02  0.77213626806E+02 -0.29798818832E+01  0.78026775563E+02  0.10566000000E+00 0. -1.
          2    1    1    2  501    0  0.21009209825E+02 -0.21937647669E+02  0.45810105697E+03  0.45910698718E+03  0.00000000000E+00 0.  1.
          4    1    3    3  502    0  0.46084498048E+03  0.12848813357E+03  0.43228694021E+03  0.64479399437E+03  0.00000000000E+00 0.  1.
</event>
<event>
 7    1  0.5696597E-006  0.1285235E+04  0.7818608E-02  0.9025205E-01
          4   -1    0    0  501    0 -0.00000000000E+00  0.00000000000E+00  0.17710231513E+04  0.17710231513E+04  0.00000000000E+00 0.  1.
          2   -1    0    0  502    0  0.00000000000E+00 -0.00000000000E+00 -0.25490504190E+04  0.25490504190E+04  0.00000000000E+00 0.  1.
    9000010    2    1    2  502    0 -0.73110612518E+03  0.42143730393E+03  0.95841923543E+03  0.16219685071E+04  0.10000444188E+04 0.  0.
        -13    1    3    3    0    0 -0.15468653152E+03 -0.29198651989E+03  0.55760699407E+02  0.33510195104E+03  0.10566000000E+00 0.  1.
         13    1    1    2    0    0  0.12526265569E+03  0.11030173925E+03  0.38988317516E+03  0.42410624615E+03  0.10566000000E+00 0. -1.
          2    1    1    2  501    0  0.60584346949E+03 -0.53173904318E+03 -0.21263296782E+04  0.22739988171E+04  0.00000000000E+00 0.  1.
          4    1    3    3  502    0 -0.57641959367E+03  0.71342382382E+03  0.90265853603E+03  0.12868665560E+04  0.00000000000E+00 0.  1.
</event>
<event>
 7    1  0.5696597E-006  0.1275118E+04  0.7818608E-02  0.8720101E-01
          2   -1    0    0  501    0  0.00000000000E+00  0.00000000000E+00  0.18994059152E+04  0.18994059152E+04  0.00000000000E+00 0.  1.
         -4   -1    0    0    0  501 -0.00000000000E+00 -0.00000000000E+00 -0.28633994069E+04  0.28633994069E+04  0.00000000000E+00 0. -1.
   -9000010    2    1    2    0  502  0.11696062275E+04  0.39413217309E+03 -0.40572589596E+03  0.16551648589E+04  0.10254941786E+04 0.  0.
        -13    1    1    2    0    0 -0.45416179094E+03 -0.40591443571E+03 -0.16744477648E+04  0.17817981900E+04  0.10566000000E+00 0.  1.
         13    1    3    3    0    0  0.69065495240E+03 -0.78724284446E+02 -0.63764087948E+03  0.94328557637E+03  0.10566000000E+00 0. -1.
          2    1    1    2  502    0 -0.71544443655E+03  0.11782262616E+02  0.11161801691E+04  0.13258422732E+04  0.00000000000E+00 0.  1.
         -4    1    3    3    0  502  0.47895127508E+03  0.47285645754E+03  0.23191498353E+03  0.71187928255E+03  0.00000000000E+00 0. -1.
</event>
<event>
 7    1  0.5696597E-006  0.1112656E+04  0.7818608E-02  0.8832674E-01
         -4   -1    0    0    0  501 -0.00000000000E+00  0.00000000000E+00  0.16974884121E+04  0.16974884121E+04  0.00000000000E+00 0. -1.
          2   -1    0    0  501    0  0.00000000000E+00 -0.00000000000E+00 -0.16185405530E+04  0.16185405530E+04  0.00000000000E+00 0. -1.
   -9000010    2    1    2    0  502  0.26847871620E+03 -0.51597900808E+03  0.60775746157E+03  0.12740727848E+04  0.95685796806E+03 0.  0.
        -13    1    1    2    0    0 -0.31173548313E+03  0.47029221238E+03  0.65042200616E+03  0.86104737020E+03  0.10566000000E+00 0.  1.
         13    1    3    3    0    0 -0.93328419081E+02  0.38556836507E+02  0.60354147320E+03  0.61193066967E+03  0.10566000000E+00 0. -1.
          2    1    1    2  502    0  0.43256766929E+02  0.45686795698E+02 -0.11792316086E+04  0.11809088101E+04  0.00000000000E+00 0. -1.
         -4    1    3    3    0  502  0.36180713528E+03 -0.55453584458E+03  0.42159883783E+01  0.66214211513E+03  0.00000000000E+00 0. -1.
</event>
<event>
 7    1  0.5696597E-006  0.1219744E+04  0.7818608E-02  0.9007520E-01
          2   -1    0    0  501    0  0.00000000000E+00  0.00000000000E+00  0.27238796344E+04  0.27238796344E+04  0.00000000000E+00 0.  1.
         -4   -1    0    0    0  501 -0.00000000000E+00 -0.00000000000E+00 -0.16813009131E+04  0.16813009131E+04  0.00000000000E+00 0. -1.
   -9000010    2    1    2    0  502 -0.44883980283E+03 -0.93401807564E+02  0.33195537249E+02  0.11593934492E+04  0.10643825253E+04 0.  0.
        -13    1    1    2    0    0 -0.88649668997E+02 -0.19002625223E+03 -0.10643777068E+04  0.10848357730E+04  0.10566000000E+00 0.  1.
         13    1    3    3    0    0 -0.18773009891E+03 -0.57832294353E+03  0.26333018416E+02  0.60859958600E+03  0.10566000000E+00 0. -1.
          2    1    1    2  502    0  0.53748947183E+03  0.28342805979E+03  0.20737608909E+04  0.21609513252E+04  0.00000000000E+00 0.  1.
         -4    1    3    3    0  502 -0.26110970393E+03  0.48492113597E+03  0.68625188326E+01  0.55079386322E+03  0.00000000000E+00 0. -1.
</event>
<event>
 7    1  0.5696597E-006  0.1040945E+04  0.7818608E-02  0.9040525E-01
          2   -1    0    0  501    0  0.00000000000E+00  0.00000000000E+00  0.13872233413E+04  0.13872233413E+04  0.00000000000E+00 0.  1.
         -4   -1    0    0    0  501 -0.00000000000E+00 -0.00000000000E+00 -0.13371205048E+04  0.13371205048E+04  0.00000000000E+00 0. -1.
   -9000010    2    1    2    0  502 -0.13875022306E+03  0.23321355097E+03  0.47673903151E+01  0.10343915470E+04  0.99814976822E+03 0.  0.
        -13    1    1    2    0    0  0.16300844282E+03 -0.24785515954E+03 -0.79530681773E+03  0.84883265609E+03  0.10566000000E+00 0.  1.
         13    1    3    3    0    0  0.37591988160E+03 -0.11742419699E+03 -0.91264837602E+02  0.40426907026E+03  0.10566000000E+00 0. -1.
          2    1    1    2  502    0 -0.24258219758E+02  0.14641608576E+02  0.84064226393E+03  0.84111964300E+03  0.00000000000E+00 0.  1.
         -4    1    3    3    0  502 -0.51467010467E+03  0.35063774796E+03  0.96032227917E+02  0.63012247677E+03  0.00000000000E+00 0. -1.
</event>
<event>
 7    1  0.5696597E-006  0.1055152E+04  0.7818608E-02  0.9067241E-01
          2   -1    0    0  502    0  0.00000000000E+00  0.00000000000E+00  0.38995282785E+04  0.38995282785E+04  0.00000000000E+00 0.  1.
          4   -1    0    0  501    0 -0.00000000000E+00 -0.00000000000E+00 -0.52457513696E+03  0.52457513696E+03  0.00000000000E+00 0.  1.
    9000010    2    1    2  502    0 -0.17310711648E+03  0.22347337295E+03  0.11627720853E+04  0.15749026199E+04  0.10239008339E+04 0.  0.
        -13    1    3    3    0    0 -0.57731455696E+03  0.14570642739E+03  0.92345482405E+03  0.10987680756E+04  0.10566000000E+00 0.  1.
         13    1    1    2    0    0  0.25570380535E+03 -0.26531339851E+02 -0.26127521376E+03  0.36654208019E+03  0.10566000000E+00 0. -1.
          2    1    1    2  501    0 -0.82596688862E+02 -0.19694203310E+03  0.24734562700E+04  0.24826587154E+04  0.00000000000E+00 0.  1.
          4    1    3    3  502    0  0.40420744048E+03  0.77766945565E+02  0.23931726121E+03  0.47613454430E+03  0.00000000000E+00 0.  1.
</event>
<event>
 7    1  0.5696597E-006  0.1142136E+04  0.7818608E-02  0.8824767E-01
          4   -1    0    0  501    0 -0.00000000000E+00  0.00000000000E+00  0.15913883135E+04  0.15913883135E+04  0.00000000000E+00 0.  1.
          2   -1    0    0  502    0  0.00000000000E+00 -0.00000000000E+00 -0.10478581984E+04  0.10478581984E+04  0.00000000000E+00 0.  1.
    9000010    2    1    2  502    0  0.64878980762E+03 -0.16383531236E+03  0.74311235277E+03  0.14177096222E+04  0.10049449636E+04 0.  0.
        -13    1    3    3    0    0 -0.27190114727E+03  0.13091412130E+01  0.16162324071E+03  0.31631318474E+03  0.10566000000E+00 0.  1.
         13    1    1    2    0    0 -0.39201796653E+03  0.32406489023E+03  0.33372363270E+03  0.60833182832E+03  0.10566000000E+00 0. -1.
          2    1    1    2  501    0 -0.25677184108E+03 -0.16022957787E+03 -0.53330587035E+03  0.61320506141E+03  0.00000000000E+00 0.  1.
          4    1    3    3  502    0  0.92069095489E+03 -0.16514445357E+03  0.58148911206E+03  0.11013964374E+04  0.00000000000E+00 0.  1.
</event>
<event>
 7    1  0.5696597E-006  0.1063208E+04  0.7818608E-02  0.8934731E-01
          2   -1    0    0  501    0  0.00000000000E+00  0.00000000000E+00  0.17128538199E+04  0.17128538199E+04  0.00000000000E+00 0. -1.
         -4   -1    0    0    0  501 -0.00000000000E+00 -0.00000000000E+00 -0.19320225926E+04  0.19320225926E+04  0.00000000000E+00 0. -1.
   -9000010    2    1    2    0  502 -0.37872373898E+03  0.19523672027E+03 -0.10795362463E+04  0.15152511549E+04  0.97418607464E+03 0.  0.
        -13    1    1    2    0    0  0.36888349273E+03 -0.21293275469E+03 -0.56308363025E+03  0.70603015166E+03  0.10566000000E+00 0.  1.
         13    1    3    3    0    0 -0.15252626567E+03 -0.26521033161E+03  0.15152683557E+02  0.30631747697E+03  0.10566000000E+00 0. -1.
          2    1    1    2  502    0  0.98402462460E+01  0.17696034419E+02  0.14234511039E+04  0.14235951058E+04  0.00000000000E+00 0. -1.
         -4    1    3    3    0  502 -0.22619747331E+03  0.46044705189E+03 -0.10946889299E+04  0.12089336780E+04  0.00000000000E+00 0. -1.
</event>
<event>
 7    1  0.5696597E-006  0.1018523E+04  0.7818608E-02  0.9134878E-01
         -4   -1    0    0    0  501 -0.00000000000E+00  0.00000000000E+00  0.72788285869E+03  0.72788285869E+03  0.00000000000E+00 0. -1.
          2   -1    0    0  501    0  0.00000000000E+00 -0.00000000000E+00 -0.15122652741E+04  0.15122652741E+04  0.00000000000E+00 0. -1.
   -9000010    2    1    2    0  502  0.19052147524E+03 -0.85538884049E+02  0.19530792493E+03  0.10354368541E+04  0.99517282920E+03 0.  0.
        -13    1    1    2    0    0 -0.21408429749E+03  0.49416860969E+02  0.43200776851E+01  0.21975619858E+03  0.10566000000E+00 0.  1.
         13    1    3    3    0    0 -0.18435769597E+03  0.29219998065E+03  0.33916592610E+03  0.48415093240E+03  0.10566000000E+00 0. -1.
          2    1    1    2  502    0  0.23562822249E+02  0.36122023080E+02 -0.98401041798E+03  0.98495508012E+03  0.00000000000E+00 0. -1.
         -4    1    3    3    0  502  0.37487917121E+03 -0.37773886470E+03 -0.14385800117E+03  0.55128592165E+03  0.00000000000E+00 0. -1.
</event>
<event>
 7    1  0.5696597E-006  0.1425823E+04  0.7818608E-02  0.8527682E-01
          4   -1    0    0  501    0 -0.00000000000E+00  0.00000000000E+00  0.25224099953E+04  0.25224099953E+04  0.00000000000E+00 0.  1.
          2   -1    0    0  502    0  0.00000000000E+00 -0.00000000000E+00 -0.89703559399E+03  0.89703559399E+03  0.00000000000E+00 0.  1.
    9000010    2    1    2  502    0  0.30080471796E+03  0.96241619510E+03  0.80837597994E+03  0.16332949225E+04  0.99872527153E+03 0.  0.
        -13    1    3    3    0    0  0.46365698367E+03  0.53893814972E+03  0.53494795248E+01  0.71095763293E+03  0.10566000000E+00 0.  1.
         13    1    1    2    0    0 -0.62155150277E+03 -0.83784040065E+03  0.95603864550E+03  0.14150309927E+04  0.10566000000E+00 0. -1.
          2    1    1    2  501    0  0.32074678481E+03 -0.12457579445E+03 -0.13904022414E+03  0.37111967404E+03  0.00000000000E+00 0.  1.
          4    1    3    3  502    0 -0.16285226571E+03  0.42347804538E+03  0.80302650041E+03  0.92233728957E+03  0.00000000000E+00 0.  1.
</event>
<event>
 7    1  0.5696597E-006  0.1030637E+04  0.7818608E-02  0.9046849E-01
         -4   -1    0    0    0  501 -0.00000000000E+00  0.00000000000E+00  0.13198015634E+04  0.13198015634E+04  0.00000000000E+00 0. -1.
          1   -1    0    0  501    0  0.00000000000E+00 -0.00000000000E+00 -0.68607291029E+03  0.68607291029E+03  0.00000000000E+00 0. -1.
   -9000010    2    1    2    0  502 -0.26386792497E+03 -0.37518280509E+02  0.54812198397E+03  0.11600127438E+04  0.98699440384E+03 0.  0.
        -13    1    1    2    0    0  0.30142028234E+03  0.14115436947E+02  0.41522394188E+03  0.51328779962E+03  0.10566000000E+00 0.  1.
         13    1    3    3    0    0  0.85683095695E+02 -0.37542828222E+03  0.55293141823E+03  0.67381091740E+03  0.10566000000E+00 0. -1.
          1    1    1    2  502    0 -0.37552357373E+02  0.23402843562E+02 -0.32961727273E+03  0.33257393029E+03  0.00000000000E+00 0. -1.
         -4    1    3    3    0  502 -0.34955102067E+03  0.33791000171E+03 -0.48094342612E+01  0.48620182637E+03  0.00000000000E+00 0. -1.
</event>
<event>
 7    1  0.5696597E-006  0.9991076E+03  0.7818608E-02  0.9156810E-01
          2   -1    0    0  501    0  0.00000000000E+00  0.00000000000E+00  0.17440635184E+04  0.17440635184E+04  0.00000000000E+00 0.  1.
         -4   -1    0    0    0  501 -0.00000000000E+00 -0.00000000000E+00 -0.81902919285E+03  0.81902919285E+03  0.00000000000E+00 0. -1.
   -9000010    2    1    2    0  502 -0.47018528252E+02  0.15659994050E+03 -0.16593267818E+03  0.10040138884E+04  0.97661453550E+03 0.  0.
        -13    1    1    2    0    0  0.15529069264E+03 -0.15426078678E+03 -0.18006938389E+03  0.28343708955E+03  0.10566000000E+00 0.  1.
         13    1    3    3    0    0  0.62990894145E+02 -0.33605566094E+03 -0.32804785412E+03  0.47383189609E+03  0.10566000000E+00 0. -1.
          2    1    1    2  502    0 -0.10827216439E+03 -0.23391537280E+01  0.12710363877E+04  0.12756417334E+04  0.00000000000E+00 0.  1.
         -4    1    3    3    0  502 -0.11000942240E+03  0.49265560144E+03  0.16211517594E+03  0.53018199226E+03  0.00000000000E+00 0. -1.
</event>
<event>
 7    1  0.5696597E-006  0.1141537E+04  0.7818608E-02  0.8816189E-01
          2   -1    0    0  502    0  0.00000000000E+00  0.00000000000E+00  0.91472598176E+03  0.91472598176E+03  0.00000000000E+00 0. -1.
          4   -1    0    0  501    0 -0.00000000000E+00 -0.00000000000E+00 -0.31208130315E+04  0.31208130315E+04  0.00000000000E+00 0.  1.
    9000010    2    1    2  502    0 -0.48760459224E+03  0.26719852604E+03 -0.15895572938E+04  0.19548161371E+04  0.99270360578E+03 0.  0.
        -13    1    3    3    0    0 -0.21556203183E+03  0.60155906077E+03 -0.60476616533E+03  0.87981953778E+03  0.10566000000E+00 0.  1.
         13    1    1    2    0    0  0.50403866833E+03 -0.25776375046E+03 -0.12890752031E+04  0.14079105158E+04  0.10566000000E+00 0. -1.
          2    1    1    2  501    0 -0.16434076089E+02 -0.94347755768E+01  0.67254544710E+03  0.67281236036E+03  0.00000000000E+00 0. -1.
          4    1    3    3  502    0 -0.27204256041E+03 -0.33436053473E+03 -0.98479112843E+03  0.10749965993E+04  0.00000000000E+00 0.  1.
</event>
<event>
 7    1  0.5696597E-006  0.1222843E+04  0.7818608E-02  0.9125826E-01
          4   -1    0    0  501    0  0.00000000000E+00  0.00000000000E+00  0.82497706890E+03  0.82497706890E+03  0.00000000000E+00 0.  1.
         -4   -1    0    0    0  501 -0.00000000000E+00 -0.00000000000E+00 -0.31984818756E+04  0.31984818756E+04  0.00000000000E+00 0. -1.
   -9000010    2    1    2    0  502  0.12214373553E+03 -0.57838043090E+03 -0.27688914231E+04  0.30008386052E+04  0.99439911855E+03 0.  0.
        -13    1    1    2    0    0  0.45825298358E+02 -0.12148448975E+03 -0.86897341072E+02  0.15623571380E+03  0.10566000000E+00 0.  1.
         13    1    3    3    0    0  0.43212289844E+03  0.69876550727E+02 -0.10931702031E+04  0.11775542602E+04  0.10566000000E+00 0. -1.
          4    1    1    2  502    0 -0.16796903389E+03  0.69986492064E+03  0.48228395749E+03  0.86638462541E+03  0.00000000000E+00 0.  1.
         -4    1    3    3    0  502 -0.30997916291E+03 -0.64825698163E+03 -0.16757212200E+04  0.18232843450E+04  0.00000000000E+00 0. -1.
</event>
<event>
 7    1  0.5696597E-006  0.9958996E+03  0.7818608E-02  0.9277217E-01
         -2   -1    0    0    0  501  0.00000000000E+00  0.00000000000E+00  0.15064411197E+04  0.15064411197E+04  0.00000000000E+00 0.  1.
         -4   -1    0    0    0  502 -0.00000000000E+00 -0.00000000000E+00 -0.21426920995E+04  0.21426920995E+04  0.00000000000E+00 0. -1.
   -9000010    2    1    2    0  501 -0.59632781398E+02 -0.13644469159E+03 -0.19236295052E+04  0.21671305996E+04  0.98687959755E+03 0.  0.
        -13    1    1    2    0    0  0.58932199101E+02  0.11420820657E+03 -0.54747748727E+02  0.13969196718E+03  0.10566000000E+00 0.  1.
         13    1    3    3    0    0 -0.87387574288E+02 -0.47819401527E+03 -0.16736166941E+04  0.17427848273E+04  0.10566000000E+00 0. -1.
         -2    1    1    2    0  502  0.70058229629E+00  0.22236485019E+02  0.13421262741E+04  0.13423106525E+04  0.00000000000E+00 0.  1.
         -4    1    3    3    0  501  0.27754792891E+02  0.34174932368E+03 -0.25001281110E+03  0.42434577231E+03  0.00000000000E+00 0. -1.
</event>
<event>
 7    1  0.1359254E-005  0.1076853E+04  0.7818608E-02  0.8933636E-01
          4   -1    0    0  501    0  0.00000000000E+00  0.00000000000E+00  0.11568292703E+04  0.11568292703E+04  0.00000000000E+00 0.  1.
         -4   -1    0    0    0  501 -0.00000000000E+00 -0.00000000000E+00 -0.11479521618E+04  0.11479521618E+04  0.00000000000E+00 0. -1.
   -9000010    2    1    2    0  502  0.45036201531E+03 -0.21946292999E+03 -0.25286826744E+03  0.11423728873E+04  0.99502941189E+03 0.  0.
        -13    1    1    2    0    0 -0.40312461132E+03 -0.32296261835E+02 -0.32717772758E+03  0.52019013579E+03  0.10566000000E+00 0.  1.
         13    1    3    3    0    0  0.31359982406E+03  0.36770506960E+03 -0.23944576530E+03  0.53933862605E+03  0.10566000000E+00 0. -1.
          4    1    1    2  502    0 -0.47237403990E+02  0.25175919182E+03  0.58892310353E+03  0.64221840901E+03  0.00000000000E+00 0.  1.
         -4    1    3    3    0  502  0.13676219125E+03 -0.58716799959E+03 -0.13422502145E+02  0.60303426127E+03  0.00000000000E+00 0. -1.
</event>
<event>
 7    1  0.5696597E-006  0.1246929E+04  0.7818608E-02  0.8773137E-01
          2   -1    0    0  502    0  0.00000000000E+00  0.00000000000E+00  0.98462970008E+03  0.98462970008E+03  0.00000000000E+00 0. -1.
          4   -1    0    0  501    0 -0.00000000000E+00 -0.00000000000E+00 -0.21710402324E+04  0.21710402324E+04  0.00000000000E+00 0.  1.
    9000010    2    1    2  502    0 -0.51458870330E+03  0.51466224707E+02 -0.15755589809E+04  0.20088083115E+04  0.11337876451E+04 0.  0.
        -13    1    3    3    0    0 -0.61046025390E+03  0.84176308611E+02 -0.22740878881E+03  0.65685777830E+03  0.10566000000E+00 0.  1.
         13    1    1    2    0    0  0.52040280649E+03 -0.22587274294E+02 -0.19926896548E+03  0.55770726886E+03  0.10566000000E+00 0. -1.
          2    1    1    2  501    0 -0.58141031993E+01 -0.28878950414E+02  0.58841741401E+03  0.58915435217E+03  0.00000000000E+00 0. -1.
          4    1    3    3  502    0  0.95871550602E+02 -0.32710083904E+02 -0.13481501921E+04  0.13519505332E+04  0.00000000000E+00 0.  1.
</event>
<event>
 7    1  0.5696597E-006  0.1000586E+04  0.7818608E-02  0.9428795E-01
          2   -1    0    0  502    0  0.00000000000E+00  0.00000000000E+00  0.84757856670E+03  0.84757856670E+03  0.00000000000E+00 0.  1.
          4   -1    0    0  501    0 -0.00000000000E+00 -0.00000000000E+00 -0.11591259188E+04  0.11591259188E+04  0.00000000000E+00 0.  1.
    9000010    2    1    2  502    0  0.76398700800E+02  0.37990517807E+02 -0.53262845873E+03  0.11342667395E+04  0.99779152150E+03 0.  0.
        -13    1    3    3    0    0  0.40519136330E+03  0.32362625917E+03 -0.11565879202E+03  0.53131060958E+03  0.10566000000E+00 0.  1.
         13    1    1    2    0    0 -0.73508744448E+02  0.13940211376E+02 -0.32011797813E+03  0.32874518413E+03  0.10566000000E+00 0. -1.
          2    1    1    2  501    0 -0.28899563520E+01 -0.51930729183E+02  0.54119908475E+03  0.54369256186E+03  0.00000000000E+00 0.  1.
          4    1    3    3  502    0 -0.32879266250E+03 -0.28563574137E+03 -0.41696966671E+03  0.60295612993E+03  0.00000000000E+00 0.  1.
</event>
<event>
 7    1  0.5696597E-006  0.1193886E+04  0.7818608E-02  0.8910121E-01
          4   -1    0    0  501    0 -0.00000000000E+00  0.00000000000E+00  0.20788461706E+04  0.20788461706E+04  0.00000000000E+00 0.  1.
          2   -1    0    0  502    0  0.00000000000E+00 -0.00000000000E+00 -0.14510732117E+04  0.14510732117E+04  0.00000000000E+00 0.  1.
    9000010    2    1    2  502    0 -0.48093244615E+03  0.62701305267E+03  0.90758324245E+03  0.15562255156E+04  0.98675687356E+03 0.  0.
        -13    1    3    3    0    0 -0.63407045624E+03  0.26342217947E+03  0.15109481896E+03  0.70304071262E+03  0.10566000000E+00 0.  1.
         13    1    1    2    0    0 -0.10910646423E+03 -0.31447675454E+03  0.70744764476E+03  0.78184527301E+03  0.10566000000E+00 0. -1.
          2    1    1    2  501    0  0.59003891038E+03 -0.31253629813E+03 -0.98725792828E+03  0.11918485937E+04  0.00000000000E+00 0.  1.
          4    1    3    3  502    0  0.15313801009E+03  0.36359087320E+03  0.75648842348E+03  0.85318480300E+03  0.00000000000E+00 0.  1.
</event>
<event>
 7    1  0.5696597E-006  0.1283831E+04  0.7818608E-02  0.8653056E-01
          2   -1    0    0  501    0  0.00000000000E+00  0.00000000000E+00  0.18004676654E+04  0.18004676654E+04  0.00000000000E+00 0.  1.
         -4   -1    0    0    0  501 -0.00000000000E+00 -0.00000000000E+00 -0.13520178449E+04  0.13520178449E+04  0.00000000000E+00 0. -1.
   -9000010    2    1    2    0  502  0.39860863627E+03 -0.56718863116E+03 -0.53732928251E+03  0.13341052533E+04  0.10052473729E+04 0.  0.
        -13    1    1    2    0    0 -0.43537849474E+03  0.85478083259E+03  0.19875076728E+03  0.97964615250E+03  0.10566000000E+00 0.  1.
         13    1    3    3    0    0  0.52774303015E+02 -0.17066130794E+03  0.29767241731E+03  0.34715888045E+03  0.10566000000E+00 0. -1.
          2    1    1    2  502    0  0.36769858470E+02 -0.28759220143E+03  0.78702833579E+03  0.83873410456E+03  0.00000000000E+00 0.  1.
         -4    1    3    3    0  502  0.34583433326E+03 -0.39652732322E+03 -0.83500169982E+03  0.98694637282E+03  0.00000000000E+00 0. -1.
</event>
<event>
 7    1  0.5696597E-006  0.1048792E+04  0.7818608E-02  0.9053831E-01
         -4   -1    0    0    0  501 -0.00000000000E+00  0.00000000000E+00  0.31927746950E+03  0.31927746950E+03  0.00000000000E+00 0. -1.
          2   -1    0    0  501    0  0.00000000000E+00 -0.00000000000E+00 -0.17811932454E+04  0.17811932454E+04  0.00000000000E+00 0. -1.
   -9000010    2    1    2    0  502 -0.19359637535E+03 -0.17654457690E+03 -0.13985515902E+04  0.17463018341E+04  0.10124109844E+04 0.  0.
        -13    1    1    2    0    0  0.19259472230E+03  0.19609413882E+03  0.13169934030E+02  0.27517103165E+03  0.10566000000E+00 0.  1.
         13    1    3    3    0    0 -0.34936008158E+03  0.29700549107E+03 -0.32314495622E+03  0.56097005466E+03  0.10566000000E+00 0. -1.
          2    1    1    2  502    0  0.10016530501E+01 -0.19549561918E+02 -0.76534119791E+02  0.78997849162E+02  0.00000000000E+00 0. -1.
         -4    1    3    3    0  502  0.15576370623E+03 -0.47355006797E+03 -0.10754066340E+04  0.11853317795E+04  0.00000000000E+00 0. -1.
</event>
<event>
 7    1  0.5696597E-006  0.1008808E+04  0.7818608E-02  0.9004425E-01
         -4   -1    0    0    0  501 -0.00000000000E+00  0.00000000000E+00  0.20676024531E+04  0.20676024531E+04  0.00000000000E+00 0. -1.
          1   -1    0    0  501    0  0.00000000000E+00 -0.00000000000E+00 -0.65702682565E+03  0.65702682565E+03  0.00000000000E+00 0. -1.
   -9000010    2    1    2    0  502  0.60983439066E+02 -0.37138915713E+03  0.11226338149E+04  0.15095681821E+04  0.93639763357E+03 0.  0.
        -13    1    1    2    0    0 -0.39940250918E+02  0.37303142879E+03  0.70439536458E+03  0.79807299874E+03  0.10566000000E+00 0.  1.
         13    1    3    3    0    0 -0.77064916608E+02  0.30077975253E+03  0.24498938228E+03  0.39550887410E+03  0.10566000000E+00 0. -1.
          1    1    1    2  502    0 -0.21043188147E+02 -0.16422716666E+01 -0.41645355201E+03  0.41698809792E+03  0.00000000000E+00 0. -1.
         -4    1    3    3    0  502  0.13804835567E+03 -0.67216890965E+03  0.87764443258E+03  0.11140593080E+04  0.00000000000E+00 0. -1.
</event>
<event>
 7    1  0.5696597E-006  0.1104999E+04  0.7818608E-02  0.8895398E-01
          2   -1    0    0  501    0  0.00000000000E+00  0.00000000000E+00  0.23127936268E+04  0.23127936268E+04  0.00000000000E+00 0. -1.
         -4   -1    0    0    0  501 -0.00000000000E+00 -0.00000000000E+00 -0.40773430205E+03  0.40773430205E+03  0.00000000000E+00 0. -1.
   -9000010    2    1    2    0  502 -0.26408406879E+03 -0.26067670607E+03  0.16886714692E+04  0.20028071060E+04  0.10109066389E+04 0.  0.
        -13    1    1    2    0    0  0.35671264927E+03  0.28269812801E+03 -0.27426052526E+02  0.45597625514E+03  0.10566000000E+00 0.  1.
         13    1    3    3    0    0 -0.41430661063E+02  0.38828724102E+03  0.63420977302E+03  0.74478555878E+03  0.10566000000E+00 0. -1.
          2    1    1    2  502    0 -0.92628580479E+02 -0.22021421945E+02  0.24381390810E+03  0.26174456772E+03  0.00000000000E+00 0. -1.
         -4    1    3    3    0  502 -0.22265340773E+03 -0.64896394709E+03  0.10544616962E+04  0.12580215472E+04  0.00000000000E+00 0. -1.
</event>
<event>
 7    1  0.5696597E-006  0.1141376E+04  0.7818608E-02  0.8941041E-01
          2   -1    0    0  501    0  0.00000000000E+00  0.00000000000E+00  0.33328978255E+04  0.33328978255E+04  0.00000000000E+00 0. -1.
         -4   -1    0    0    0  501 -0.00000000000E+00 -0.00000000000E+00 -0.49601944959E+03  0.49601944959E+03  0.00000000000E+00 0. -1.
   -9000010    2    1    2    0  502 -0.63276187488E+03  0.34056849449E+03  0.26241131486E+04  0.29044781335E+04  0.10166852620E+04 0.  0.
        -13    1    1    2    0    0  0.32419669924E+03 -0.86092742516E+02 -0.16540715199E+03  0.37399865936E+03  0.10566000000E+00 0.  1.
         13    1    3    3    0    0 -0.51141173195E+03 -0.29285995061E+03  0.14439439403E+04  0.15595778352E+04  0.10566000000E+00 0. -1.
          2    1    1    2  502    0  0.30856517564E+03 -0.25447575198E+03  0.37817237934E+03  0.55044048221E+03  0.00000000000E+00 0. -1.
         -4    1    3    3    0  502 -0.12135014292E+03  0.63342844510E+03  0.11801692083E+04  0.13449002983E+04  0.00000000000E+00 0. -1.
</event>
<event>
 7    1  0.5696597E-006  0.1092625E+04  0.7818608E-02  0.8935517E-01
          2   -1    0    0  502    0  0.00000000000E+00  0.00000000000E+00  0.10436662620E+04  0.10436662620E+04  0.00000000000E+00 0.  1.
          4   -1    0    0  501    0 -0.00000000000E+00 -0.00000000000E+00 -0.10410873382E+04  0.10410873382E+04  0.00000000000E+00 0.  1.
    9000010    2    1    2  502    0 -0.31950293087E+03  0.23346401348E+03 -0.36550226854E+03  0.11537003150E+04  0.10202180846E+04 0.  0.
        -13    1    3    3    0    0 -0.31012254112E+03 -0.12521009139E+03  0.26603964554E+03  0.42735308781E+03  0.10566000000E+00 0.  1.
         13    1    1    2    0    0  0.39424714231E+03 -0.70983885239E+02 -0.11430856116E+03  0.41657649898E+03  0.10566000000E+00 0. -1.
          2    1    1    2  501    0 -0.74744211438E+02 -0.16248012824E+03  0.48238975356E+03  0.51447678621E+03  0.00000000000E+00 0.  1.
          4    1    3    3  502    0 -0.93803897522E+01  0.35867410487E+03 -0.63154191407E+03  0.72634722719E+03  0.00000000000E+00 0.  1.
</event>
<event>
 7    1  0.5696597E-006  0.1007013E+04  0.7818608E-02  0.9140677E-01
          2   -1    0    0  502    0  0.00000000000E+00  0.00000000000E+00  0.36112633389E+03  0.36112633389E+03  0.00000000000E+00 0.  1.
          4   -1    0    0  501    0 -0.00000000000E+00 -0.00000000000E+00 -0.15575714075E+04  0.15575714075E+04  0.00000000000E+00 0.  1.
    9000010    2    1    2  502    0  0.18833604074E+03 -0.20717356974E+03 -0.57319697559E+03  0.11717174368E+04  0.98284059071E+03 0.  0.
        -13    1    3    3    0    0  0.86565036960E+02 -0.45046987109E+03  0.81503638954E+02  0.46589640985E+03  0.10566000000E+00 0.  1.
         13    1    1    2    0    0 -0.21735200271E+03  0.28825539472E+02 -0.42837691624E+03  0.48122717955E+03  0.10566000000E+00 0. -1.
          2    1    1    2  501    0  0.29015961970E+02  0.17834803027E+03 -0.19487118173E+03  0.26575312494E+03  0.00000000000E+00 0.  1.
          4    1    3    3  502    0  0.10177100378E+03  0.24329630135E+03 -0.65470061455E+03  0.70582102700E+03  0.00000000000E+00 0.  1.
</event>
<event>
 7    1  0.5696597E-006  0.1151034E+04  0.7818608E-02  0.8818395E-01
          2   -1    0    0  501    0  0.00000000000E+00  0.00000000000E+00  0.19109243316E+04  0.19109243316E+04  0.00000000000E+00 0.  1.
         -4   -1    0    0    0  501 -0.00000000000E+00 -0.00000000000E+00 -0.15655218265E+04  0.15655218265E+04  0.00000000000E+00 0. -1.
   -9000010    2    1    2    0  502  0.46147426109E+03  0.28612412182E+03 -0.92799706344E+03  0.14779088451E+04  0.10140071488E+04 0.  0.
        -13    1    1    2    0    0 -0.48984743705E+03 -0.24337667674E+03 -0.15555246577E+03  0.56866448732E+03  0.10566000000E+00 0.  1.
         13    1    3    3    0    0  0.14355217775E+03  0.62896375325E+03 -0.71828212205E+03  0.96546975543E+03  0.10566000000E+00 0. -1.
          2    1    1    2  502    0  0.28373175969E+02 -0.42747445089E+02  0.14289520344E+04  0.14298728257E+04  0.00000000000E+00 0.  1.
         -4    1    3    3    0  502  0.31792208333E+03 -0.34283963142E+03 -0.20971494139E+03  0.51243908964E+03  0.00000000000E+00 0. -1.
</event>
<event>
 7    1  0.5696597E-006  0.1000812E+04  0.7818608E-02  0.9439555E-01
          1   -1    0    0  501    0  0.00000000000E+00  0.00000000000E+00  0.28038040878E+03  0.28038040878E+03  0.00000000000E+00 0. -1.
         -4   -1    0    0    0  501 -0.00000000000E+00 -0.00000000000E+00 -0.17448266685E+04  0.17448266685E+04  0.00000000000E+00 0. -1.
   -9000010    2    1    2    0  502 -0.21142139492E+02 -0.57922540143E+02 -0.13058710326E+04  0.16448629348E+04  0.99823489701E+03 0.  0.
        -13    1    1    2    0    0  0.33324123922E+02  0.63909779579E+02 -0.26419778904E+03  0.27385295335E+03  0.10566000000E+00 0.  1.
         13    1    3    3    0    0  0.75787213773E+02 -0.35023601196E+03 -0.12874036442E+04  0.13363446861E+04  0.10566000000E+00 0. -1.
          1    1    1    2  502    0 -0.12181984430E+02 -0.59872394363E+01  0.10562256194E+03  0.10649118917E+03  0.00000000000E+00 0. -1.
         -4    1    3    3    0  502 -0.96929353265E+02  0.29231347182E+03 -0.18467388451E+02  0.30851824868E+03  0.00000000000E+00 0. -1.
</event>
<event>
 7    1  0.5696597E-006  0.1031035E+04  0.7818608E-02  0.9116428E-01
          2   -1    0    0  501    0  0.00000000000E+00  0.00000000000E+00  0.10672654797E+04  0.10672654797E+04  0.00000000000E+00 0.  1.
         -4   -1    0    0    0  501 -0.00000000000E+00 -0.00000000000E+00 -0.92468742287E+03  0.92468742287E+03  0.00000000000E+00 0. -1.
   -9000010    2    1    2    0  502  0.18247460234E+03 -0.12272352220E+03 -0.52879064143E+03  0.11577899419E+04  0.10062305719E+04 0.  0.
        -13    1    1    2    0    0 -0.19295477396E+03  0.12015723547E+03  0.77442601672E+02  0.24013886346E+03  0.10566000000E+00 0.  1.
         13    1    3    3    0    0 -0.18240771123E+03 -0.34174389932E+03 -0.61187062831E+03  0.72418722910E+03  0.10566000000E+00 0. -1.
          2    1    1    2  502    0  0.10480171617E+02  0.25662867376E+01  0.59392609661E+03  0.59402409721E+03  0.00000000000E+00 0.  1.
         -4    1    3    3    0  502  0.36488231357E+03  0.21902037712E+03  0.83079986888E+02  0.43360271282E+03  0.00000000000E+00 0. -1.
</event>
<event>
 7    1  0.5696597E-006  0.1014885E+04  0.7818608E-02  0.9160618E-01
          1   -1    0    0  501    0  0.00000000000E+00  0.00000000000E+00  0.43252963741E+03  0.43252963741E+03  0.00000000000E+00 0. -1.
         -4   -1    0    0    0  501 -0.00000000000E+00 -0.00000000000E+00 -0.30891775796E+04  0.30891775796E+04  0.00000000000E+00 0. -1.
   -9000010    2    1    2    0  502 -0.11743285932E+03  0.15238229824E+03 -0.17992730376E+04  0.20652163799E+04  0.99535139066E+03 0.  0.
        -13    1    1    2    0    0  0.11128069585E+03 -0.16443344364E+03 -0.11482558557E+04  0.11652953582E+04  0.10566000000E+00 0.  1.
         13    1    3    3    0    0  0.23038926237E+03 -0.32257048623E+03 -0.49435913012E+03  0.63365755065E+03  0.10566000000E+00 0. -1.
          1    1    1    2  502    0  0.61521634664E+01  0.12051145390E+02  0.29088095106E+03  0.29119547886E+03  0.00000000000E+00 0. -1.
         -4    1    3    3    0  502 -0.34782212168E+03  0.47495278447E+03 -0.13049139074E+04  0.14315588293E+04  0.00000000000E+00 0. -1.
</event>
<event>
 7    1  0.5696597E-006  0.1086727E+04  0.7818608E-02  0.8905523E-01
         -4   -1    0    0    0  501 -0.00000000000E+00  0.00000000000E+00  0.53896557811E+03  0.53896557811E+03  0.00000000000E+00 0. -1.
          2   -1    0    0  501    0  0.00000000000E+00 -0.00000000000E+00 -0.17522307423E+04  0.17522307423E+04  0.00000000000E+00 0. -1.
   -9000010    2    1    2    0  502 -0.46534810901E+03 -0.93733789451E+02 -0.95718361278E+03  0.14560775972E+04  0.98925558617E+03 0.  0.
        -13    1    1    2    0    0  0.43436852525E+03  0.10255320625E+03  0.11640581706E+03  0.46124126143E+03  0.10566000000E+00 0.  1.
         13    1    3    3    0    0  0.18811122179E+03 -0.29301930516E+03 -0.57786116020E+03  0.67466263910E+03  0.10566000000E+00 0. -1.
          2    1    1    2  502    0  0.30979583767E+02 -0.88194167961E+01 -0.37248736847E+03  0.37387746174E+03  0.00000000000E+00 0. -1.
         -4    1    3    3    0  502 -0.65345933081E+03  0.19928551571E+03 -0.37932245258E+03  0.78141495815E+03  0.00000000000E+00 0. -1.
</event>
<event>
 7    1  0.5696597E-006  0.1216068E+04  0.7818608E-02  0.8750598E-01
         -4   -1    0    0    0  501 -0.00000000000E+00  0.00000000000E+00  0.84312165573E+03  0.84312165573E+03  0.00000000000E+00 0. -1.
          2   -1    0    0  501    0  0.00000000000E+00 -0.00000000000E+00 -0.34446348469E+04  0.34446348469E+04  0.00000000000E+00 0. -1.
   -9000010    2    1    2    0  502 -0.40708824340E+03 -0.46388839949E+03 -0.48465442550E+03  0.13096272122E+04  0.10484847341E+04 0.  0.
        -13    1    1    2    0    0  0.47612257775E+03  0.39294019804E+03  0.20779953884E+03  0.65136423588E+03  0.10566000000E+00 0.  1.
         13    1    3    3    0    0  0.21909234689E+03 -0.16501149289E+03  0.19642545975E+03  0.33736215207E+03  0.10566000000E+00 0. -1.
          2    1    1    2  502    0 -0.69034334346E+02  0.70948201459E+02 -0.23246583045E+04  0.23267650546E+04  0.00000000000E+00 0. -1.
         -4    1    3    3    0  502 -0.62618059029E+03 -0.29887690660E+03 -0.68107988525E+03  0.97226506008E+03  0.00000000000E+00 0. -1.
</event>
<event>
 7    1  0.5696597E-006  0.1000138E+04  0.7818608E-02  0.9450735E-01
         -4   -1    0    0    0  501 -0.00000000000E+00  0.00000000000E+00  0.34437682207E+03  0.34437682207E+03  0.00000000000E+00 0. -1.
          1   -1    0    0  501    0  0.00000000000E+00 -0.00000000000E+00 -0.24025050818E+04  0.24025050818E+04  0.00000000000E+00 0. -1.
   -9000010    2    1    2    0  502  0.92725052086E+02  0.79244125790E+02 -0.79610260761E+03  0.12817070812E+04  0.99705371643E+03 0.  0.
        -13    1    1    2    0    0 -0.15276456262E+02 -0.67311891447E+02  0.88580256935E+02  0.11229752414E+03  0.10566000000E+00 0.  1.
         13    1    3    3    0    0 -0.40139941475E+03  0.23958836635E+03 -0.25874591736E+03  0.53429723598E+03  0.10566000000E+00 0. -1.
          1    1    1    2  502    0 -0.77448595825E+02 -0.11932234343E+02 -0.13506059090E+04  0.13528772985E+04  0.00000000000E+00 0. -1.
         -4    1    3    3    0  502  0.49412446684E+03 -0.16034424056E+03 -0.53735669025E+03  0.74740984525E+03  0.00000000000E+00 0. -1.
</event>
<event>
 7    1  0.6269439E-006  0.9715126E+03  0.7818608E-02  0.9127462E-01
         -4   -1    0    0    0  501 -0.00000000000E+00  0.00000000000E+00  0.17561728604E+04  0.17561728604E+04  0.00000000000E+00 0. -1.
          4   -1    0    0  501    0  0.00000000000E+00 -0.00000000000E+00 -0.25621689652E+03  0.25621689652E+03  0.00000000000E+00 0.  1.
   -9000010    2    1    2    0  502  0.15530196310E+03  0.19299894159E+03  0.11180476810E+04  0.14795436540E+04  0.93683056953E+03 0.  0.
        -13    1    1    2    0    0 -0.16204418306E+03 -0.20231143996E+03  0.41972929291E+03  0.49331625403E+03  0.10566000000E+00 0.  1.
         13    1    3    3    0    0  0.16318421394E+03  0.18432487366E+03  0.12869251624E+04  0.13102599481E+04  0.10566000000E+00 0. -1.
          4    1    1    2  502    0  0.67422199608E+01  0.93124983670E+01 -0.37821009995E+02  0.39529848885E+02  0.00000000000E+00 0. -1.
         -4    1    3    3    0  502 -0.78822508414E+01  0.86740679345E+01 -0.16887748148E+03  0.16928370590E+03  0.00000000000E+00 0.  1.
</event>
<event>
 7    1  0.5696597E-006  0.1012701E+04  0.7818608E-02  0.9243398E-01
          5   -1    0    0  501    0  0.00000000000E+00  0.00000000000E+00  0.54952965123E+03  0.54952965123E+03  0.00000000000E+00 0.  1.
         -4   -1    0    0    0  501 -0.00000000000E+00 -0.00000000000E+00 -0.17900573179E+04  0.17900573179E+04  0.00000000000E+00 0. -1.
   -9000010    2    1    2    0  502  0.83593735975E+02 -0.94163010948E+02 -0.94617337600E+03  0.13840922394E+04  0.10023036886E+04 0.  0.
        -13    1    1    2    0    0 -0.33086649631E+02  0.14226469588E+03 -0.61256082675E+03  0.62973387054E+03  0.10566000000E+00 0.  1.
         13    1    3    3    0    0 -0.13951583782E+03 -0.24657536751E+03 -0.10553158385E+04  0.10926827586E+04  0.10566000000E+00 0. -1.
          5    1    1    2  502    0 -0.50507086344E+02 -0.48101684931E+02  0.31820653604E+03  0.32576085929E+03  0.00000000000E+00 0.  1.
         -4    1    3    3    0  502  0.22310957380E+03  0.15241235656E+03  0.10914246247E+03  0.29140948074E+03  0.00000000000E+00 0. -1.
</event>
<event>
 7    1  0.5696597E-006  0.1029053E+04  0.7818608E-02  0.9154298E-01
          2   -1    0    0  501    0  0.00000000000E+00  0.00000000000E+00  0.12151787158E+04  0.12151787158E+04  0.00000000000E+00 0.  1.
         -4   -1    0    0    0  501 -0.00000000000E+00 -0.00000000000E+00 -0.17031098838E+04  0.17031098838E+04  0.00000000000E+00 0. -1.
   -9000010    2    1    2    0  502 -0.82359113484E+02 -0.49235009920E+02 -0.45657612441E+03  0.11129495288E+04  0.10104394026E+04 0.  0.
        -13    1    1    2    0    0  0.14857518604E+03  0.13106458876E+03 -0.90446318763E+03  0.92590830069E+03  0.10566000000E+00 0.  1.
         13    1    3    3    0    0  0.17969289948E+03 -0.39417967497E+03 -0.51816535528E+03  0.67539803143E+03  0.10566000000E+00 0. -1.
          2    1    1    2  502    0 -0.66216072554E+02 -0.81829578838E+02  0.87310814411E+03  0.87943077019E+03  0.00000000000E+00 0.  1.
         -4    1    3    3    0  502 -0.26205201297E+03  0.34494466505E+03  0.61589230870E+02  0.43755149732E+03  0.00000000000E+00 0. -1.
</event>
<event>
 7    1  0.5696597E-006  0.1665502E+04  0.7818608E-02  0.8385426E-01
         -4   -1    0    0    0  501 -0.00000000000E+00  0.00000000000E+00  0.34078408808E+04  0.34078408808E+04  0.00000000000E+00 0. -1.
          2   -1    0    0  501    0  0.00000000000E+00 -0.00000000000E+00 -0.74485633083E+03  0.74485633083E+03  0.00000000000E+00 0.  1.
   -9000010    2    1    2    0  502 -0.66814055804E+03  0.94089715561E+03  0.15783422380E+04  0.22571870410E+04  0.11278430099E+04 0.  0.
        -13    1    1    2    0    0  0.67108766903E+03 -0.10989238894E+04  0.11481458228E+04  0.17251757058E+04  0.10566000000E+00 0.  1.
         13    1    3    3    0    0 -0.21735678597E+03  0.38511261867E+03 -0.81489892462E+02  0.44966244585E+03  0.10566000000E+00 0. -1.
          2    1    1    2  502    0 -0.29471109935E+01  0.15802673374E+03 -0.63503510858E+02  0.17033446490E+03  0.00000000000E+00 0.  1.
         -4    1    3    3    0  502 -0.45078377207E+03  0.55578453694E+03  0.16598321305E+04  0.18075245952E+04  0.00000000000E+00 0. -1.
</event>
<event>
 7    1  0.5696597E-006  0.1636827E+04  0.7818608E-02  0.8383158E-01
         -4   -1    0    0    0  501 -0.00000000000E+00  0.00000000000E+00  0.17723629025E+04  0.17723629025E+04  0.00000000000E+00 0. -1.
          2   -1    0    0  501    0  0.00000000000E+00 -0.00000000000E+00 -0.13715461563E+04  0.13715461563E+04  0.00000000000E+00 0.  1.
   -9000010    2    1    2    0  502 -0.10026918482E+04  0.83204819668E+03  0.90045934608E+02  0.16378512408E+04  0.98830828827E+03 0.  0.
        -13    1    1    2    0    0  0.11043842407E+04 -0.70480317800E+03  0.29020837029E+03  0.13418766636E+04  0.10566000000E+00 0.  1.
         13    1    3    3    0    0  0.11371284808E+03  0.41396708262E+03 -0.70220350605E+02  0.43500605296E+03  0.10566000000E+00 0. -1.
          2    1    1    2  502    0 -0.10169239258E+03 -0.12724501868E+03  0.20562441310E+02  0.16418115446E+03  0.00000000000E+00 0.  1.
         -4    1    3    3    0  502 -0.11164046962E+04  0.41808111406E+03  0.16026628521E+03  0.12028451878E+04  0.00000000000E+00 0. -1.
</event>
<event>
 7    1  0.5696597E-006  0.1275315E+04  0.7818608E-02  0.8659048E-01
          2   -1    0    0  501    0  0.00000000000E+00  0.00000000000E+00  0.79619256549E+03  0.79619256549E+03  0.00000000000E+00 0.  1.
         -4   -1    0    0    0  501 -0.00000000000E+00 -0.00000000000E+00 -0.19462310981E+04  0.19462310981E+04  0.00000000000E+00 0. -1.
   -9000010    2    1    2    0  502  0.48500948800E+03 -0.65876470646E+03 -0.81804683016E+03  0.15280899703E+04  0.99832519699E+03 0.  0.
        -13    1    1    2    0    0 -0.69588909269E+03  0.40366518612E+03 -0.36162659954E+03  0.88203232394E+03  0.10566000000E+00 0.  1.
         13    1    3    3    0    0  0.17243631893E+03 -0.88504445846E+03 -0.62071007641E+03  0.10946775725E+04  0.10566000000E+00 0. -1.
          2    1    1    2  502    0  0.21087960469E+03  0.25509952034E+03  0.29634897125E+02  0.33230136937E+03  0.00000000000E+00 0.  1.
         -4    1    3    3    0  502  0.31257316907E+03  0.22627975199E+03 -0.19733675376E+03  0.43341239780E+03  0.00000000000E+00 0. -1.
</event>
<event>
 7    1  0.5696597E-006  0.9530071E+03  0.7818608E-02  0.9405881E-01
          4   -1    0    0  501    0 -0.00000000000E+00  0.00000000000E+00  0.89233005199E+03  0.89233005199E+03  0.00000000000E+00 0.  1.
          2   -1    0    0  502    0  0.00000000000E+00 -0.00000000000E+00 -0.16064324888E+04  0.16064324888E+04  0.00000000000E+00 0.  1.
    9000010    2    1    2  502    0 -0.10924675781E+03  0.32153223466E+02 -0.78640836361E+02  0.95839193330E+03  0.94834700020E+03 0.  0.
        -13    1    3    3    0    0 -0.32582767771E+02  0.33655727627E+03 -0.39005861721E+03  0.51621523902E+03  0.10566000000E+00 0.  1.
         13    1    1    2    0    0  0.84633080694E+02 -0.40809426231E+02  0.44741772927E+03  0.45717699335E+03  0.10566000000E+00 0. -1.
          2    1    1    2  501    0  0.24613677114E+02  0.86562027651E+01 -0.10828793297E+04  0.10831936141E+04  0.00000000000E+00 0.  1.
          4    1    3    3  502    0 -0.76663990038E+02 -0.30440405281E+03  0.31141778085E+03  0.44217669428E+03  0.00000000000E+00 0.  1.
</event>
<event>
 7    1  0.5696597E-006  0.1164511E+04  0.7818608E-02  0.8802070E-01
          1   -1    0    0  501    0  0.00000000000E+00  0.00000000000E+00  0.11789737717E+04  0.11789737717E+04  0.00000000000E+00 0. -1.
         -4   -1    0    0    0  501 -0.00000000000E+00 -0.00000000000E+00 -0.87222970868E+03  0.87222970868E+03  0.00000000000E+00 0. -1.
   -9000010    2    1    2    0  502  0.22244314192E+03 -0.50747521088E+03  0.10934450302E+03  0.11651128604E+04  0.10190778754E+04 0.  0.
        -13    1    1    2    0    0 -0.26532281095E+03  0.50156080581E+03 -0.10803170449E+03  0.57760738939E+03  0.10566000000E+00 0.  1.
         13    1    3    3    0    0  0.41281971779E+03  0.91992852889E+02 -0.19575301777E+03  0.46604941746E+03  0.10566000000E+00 0. -1.
          1    1    1    2  502    0  0.42879669032E+02  0.59144050741E+01  0.30543126453E+03  0.30848323059E+03  0.00000000000E+00 0. -1.
         -4    1    3    3    0  502 -0.19037657588E+03 -0.59946806377E+03  0.30509752079E+03  0.69906344298E+03  0.00000000000E+00 0. -1.
</event>
<event>
 7    1  0.5696597E-006  0.9909712E+03  0.7818608E-02  0.9362438E-01
          4   -1    0    0  501    0 -0.00000000000E+00  0.00000000000E+00  0.13202472784E+03  0.13202472784E+03  0.00000000000E+00 0.  1.
          2   -1    0    0  502    0  0.00000000000E+00 -0.00000000000E+00 -0.25036794671E+04  0.25036794671E+04  0.00000000000E+00 0. -1.
    9000010    2    1    2  502    0 -0.17936839368E+02 -0.10712548222E+03 -0.19717206842E+04  0.22072197958E+04  0.98607259942E+03 0.  0.
        -13    1    3    3    0    0  0.13337347227E+03 -0.30062998357E+03 -0.13725080393E+03  0.35637713797E+03  0.10566000000E+00 0.  1.
         13    1    1    2    0    0  0.20161463501E+02  0.95490327589E+02 -0.15436160981E+03  0.18262640834E+03  0.10566000000E+00 0. -1.
          2    1    1    2  501    0 -0.22246241333E+01  0.11635154627E+02 -0.24557244529E+03  0.24585799085E+03  0.00000000000E+00 0. -1.
          4    1    3    3  502    0 -0.15131031164E+03  0.19350450135E+03 -0.18344698802E+04  0.18508426578E+04  0.00000000000E+00 0.  1.
</event>
<event>
 7    1  0.5696597E-006  0.1080857E+04  0.7818608E-02  0.8922437E-01
          4   -1    0    0  501    0  0.00000000000E+00  0.00000000000E+00  0.21667931204E+04  0.21667931204E+04  0.00000000000E+00 0.  1.
          4   -1    0    0  502    0 -0.00000000000E+00 -0.00000000000E+00 -0.26590701921E+04  0.26590701921E+04  0.00000000000E+00 0.  1.
    9000010    2    1    2  501    0 -0.31898285372E+03  0.25935761962E+03 -0.14893549911E+04  0.18367496898E+04  0.99320425771E+03 0.  0.
        -13    1    3    3    0    0 -0.54661233683E+03 -0.18116134041E+03 -0.87079033544E+03  0.10439733222E+04  0.10566000000E+00 0.  1.
         13    1    1    2    0    0  0.23482768467E+03 -0.36625085331E+03 -0.94601562786E+03  0.10412633233E+04  0.10566000000E+00 0. -1.
          4    1    3    3  501    0  0.22762948310E+03  0.44051896003E+03 -0.61856465564E+03  0.79277636754E+03  0.00000000000E+00 0.  1.
          4    1    1    2  502    0  0.84155169056E+02  0.10689323369E+03  0.19430935472E+04  0.19478502995E+04  0.00000000000E+00 0.  1.
</event>
<event>
 7    1  0.5696597E-006  0.1040594E+04  0.7818608E-02  0.8994247E-01
          2   -1    0    0  501    0  0.00000000000E+00  0.00000000000E+00  0.16767508844E+04  0.16767508844E+04  0.00000000000E+00 0. -1.
         -4   -1    0    0    0  501 -0.00000000000E+00 -0.00000000000E+00 -0.48647146649E+03  0.48647146649E+03  0.00000000000E+00 0. -1.
   -9000010    2    1    2    0  502  0.31526648085E+03 -0.14651665249E+03  0.46363127871E+03  0.11365200642E+04  0.97768287825E+03 0.  0.
        -13    1    1    2    0    0 -0.32474351443E+03  0.15224102963E+03  0.64439468956E+02  0.36440106695E+03  0.10566000000E+00 0.  1.
         13    1    3    3    0    0  0.18577842168E+03 -0.10252579931E+03  0.77123141574E+03  0.79988941065E+03  0.10566000000E+00 0. -1.
          2    1    1    2  502    0  0.94770335869E+01 -0.57243771447E+01  0.66220867027E+03  0.66230121972E+03  0.00000000000E+00 0. -1.
         -4    1    3    3    0  502  0.12948805917E+03 -0.43990853179E+02 -0.30760013704E+03  0.33663065359E+03  0.00000000000E+00 0. -1.
</event>
<event>
 7    1  0.5696597E-006  0.9925384E+03  0.7818608E-02  0.9230732E-01
          2   -1    0    0  501    0  0.00000000000E+00  0.00000000000E+00  0.12088774231E+04  0.12088774231E+04  0.00000000000E+00 0.  1.
         -4   -1    0    0    0  501 -0.00000000000E+00 -0.00000000000E+00 -0.20754204627E+04  0.20754204627E+04  0.00000000000E+00 0. -1.
   -9000010    2    1    2    0  502 -0.19458605519E+03  0.24378171338E+03 -0.14744917374E+04  0.17953734259E+04  0.97567750729E+03 0.  0.
        -13    1    1    2    0    0  0.34645722487E+02 -0.15765074280E+03 -0.41744446204E+03  0.44756449015E+03  0.10566000000E+00 0.  1.
         13    1    3    3    0    0 -0.34449133066E+03  0.41964235337E+03 -0.34677771709E+03  0.64422727191E+03  0.10566000000E+00 0. -1.
          2    1    1    2  502    0  0.15994033270E+03 -0.86130970575E+02  0.10253931599E+04  0.10413599696E+04  0.00000000000E+00 0.  1.
         -4    1    3    3    0  502  0.14990527547E+03 -0.17586063999E+03 -0.11277140203E+04  0.11511461540E+04  0.00000000000E+00 0. -1.
</event>
<event>
 7    1  0.5696597E-006  0.1144541E+04  0.7818608E-02  0.8814597E-01
          5   -1    0    0  501    0  0.00000000000E+00  0.00000000000E+00  0.35462036967E+03  0.35462036967E+03  0.00000000000E+00 0.  1.
         -4   -1    0    0    0  501 -0.00000000000E+00 -0.00000000000E+00 -0.22446445407E+04  0.22446445407E+04  0.00000000000E+00 0. -1.
   -9000010    2    1    2    0  502 -0.25651421008E+03 -0.51051801679E+03 -0.13490075125E+04  0.17718124107E+04  0.99652885789E+03 0.  0.
        -13    1    1    2    0    0  0.23124619121E+03  0.50724034874E+03 -0.40495459557E+03  0.68902525932E+03  0.10566000000E+00 0.  1.
         13    1    3    3    0    0  0.14344782799E+03 -0.65600243586E+03 -0.55598111703E+03  0.87179784863E+03  0.10566000000E+00 0. -1.
          5    1    1    2  502    0  0.25268018868E+02  0.32776680434E+01 -0.13606206292E+03  0.13842724028E+03  0.00000000000E+00 0.  1.
         -4    1    3    3    0  502 -0.39996203807E+03  0.14548441908E+03 -0.79302639546E+03  0.90001456210E+03  0.00000000000E+00 0. -1.
</event>
<event>
 7    1  0.5696597E-006  0.1011088E+04  0.7818608E-02  0.9253730E-01
         -4   -1    0    0    0  501 -0.00000000000E+00  0.00000000000E+00  0.18846436229E+04  0.18846436229E+04  0.00000000000E+00 0. -1.
          2   -1    0    0  501    0  0.00000000000E+00 -0.00000000000E+00 -0.79536353958E+03  0.79536353958E+03  0.00000000000E+00 0.  1.
   -9000010    2    1    2    0  502 -0.45365679764E+02  0.15685197308E+03  0.86298666234E+03  0.13319778834E+04  0.10013783082E+04 0.  0.
        -13    1    1    2    0    0  0.23369367657E+02 -0.13722329195E+03  0.78061271048E+03  0.79292658811E+03  0.10566000000E+00 0.  1.
         13    1    3    3    0    0  0.19863358636E+03 -0.25678637524E+03  0.77967436360E+03  0.84456300450E+03  0.10566000000E+00 0. -1.
          2    1    1    2  502    0  0.21996312107E+02 -0.19628681122E+02 -0.55431928947E+03  0.55510269099E+03  0.00000000000E+00 0.  1.
         -4    1    3    3    0  502 -0.24399926612E+03  0.41363834832E+03  0.83312298734E+02  0.48741487891E+03  0.00000000000E+00 0. -1.
</event>
<event>
 7    1  0.5696597E-006  0.1040695E+04  0.7818608E-02  0.9002200E-01
          2   -1    0    0  502    0  0.00000000000E+00  0.00000000000E+00  0.15853151063E+04  0.15853151063E+04  0.00000000000E+00 0.  1.
          4   -1    0    0  501    0 -0.00000000000E+00 -0.00000000000E+00 -0.22310715468E+04  0.22310715468E+04  0.00000000000E+00 0.  1.
    9000010    2    1    2  502    0  0.11532557849E+03 -0.24221096040E+03 -0.14142477131E+04  0.17424479021E+04  0.98186656883E+03 0.  0.
        -13    1    3    3    0    0 -0.58793508021E+02 -0.57887994558E+03 -0.11217589667E+04  0.12636858227E+04  0.10566000000E+00 0.  1.
         13    1    1    2    0    0 -0.17572569331E+03  0.32509065734E+03 -0.59834317492E+03  0.70326241256E+03  0.10566000000E+00 0. -1.
          2    1    1    2  501    0  0.60400114819E+02 -0.82879696937E+02  0.13668344475E+04  0.13706763385E+04  0.00000000000E+00 0.  1.
          4    1    3    3  502    0  0.17411908651E+03  0.33666898517E+03 -0.29248874646E+03  0.47876207940E+03  0.00000000000E+00 0.  1.
</event>
<event>
 7    1  0.5696597E-006  0.1024961E+04  0.7818608E-02  0.9138355E-01
         -4   -1    0    0    0  501 -0.00000000000E+00  0.00000000000E+00  0.10863312897E+04  0.10863312897E+04  0.00000000000E+00 0. -1.
          2   -1    0    0  501    0  0.00000000000E+00 -0.00000000000E+00 -0.16129998445E+04  0.16129998445E+04  0.00000000000E+00 0. -1.
   -9000010    2    1    2    0  502  0.14791392377E+03  0.12336862137E+03  0.67770816426E+03  0.12259183653E+04  0.10032393218E+04 0.  0.
        -13    1    1    2    0    0 -0.15171259204E+03 -0.15313879378E+03  0.47862086488E+02  0.22081438185E+03  0.10566000000E+00 0.  1.
         13    1    3    3    0    0 -0.40220311017E+03  0.20550035449E+03  0.20516531260E+03  0.49607514973E+03  0.10566000000E+00 0. -1.
          2    1    1    2  502    0  0.37986682753E+01  0.29770172408E+02 -0.12522388056E+04  0.12525983870E+04  0.00000000000E+00 0. -1.
         -4    1    3    3    0  502  0.55011703394E+03 -0.82131733118E+02  0.47254285165E+03  0.72984321553E+03  0.00000000000E+00 0. -1.
</event>
<event>
 7    1  0.5696597E-006  0.1035161E+04  0.7818608E-02  0.9165440E-01
         -4   -1    0    0    0  501 -0.00000000000E+00  0.00000000000E+00  0.84070839064E+03  0.84070839064E+03  0.00000000000E+00 0. -1.
          2   -1    0    0  501    0  0.00000000000E+00 -0.00000000000E+00 -0.13657465710E+04  0.13657465710E+04  0.00000000000E+00 0.  1.
   -9000010    2    1    2    0  502 -0.52463284844E+02  0.19241978791E+03  0.39578374090E+03  0.11110350922E+04  0.10188112855E+04 0.  0.
        -13    1    1    2    0    0  0.99095215448E+02 -0.15141640362E+03 -0.86821442035E+01  0.18116892615E+03  0.10566000000E+00 0.  1.
         13    1    3    3    0    0 -0.52525841529E+03  0.57836777087E+02  0.30812213020E+03  0.61170315832E+03  0.10566000000E+00 0. -1.
          2    1    1    2  502    0 -0.46631930604E+02 -0.41003384292E+02 -0.91213977702E+03  0.91425094328E+03  0.00000000000E+00 0.  1.
         -4    1    3    3    0  502  0.47279513045E+03  0.13458301082E+03  0.87661610705E+02  0.49933193385E+03  0.00000000000E+00 0. -1.
</event>
<event>
 7    1  0.5696597E-006  0.1283029E+04  0.7818608E-02  0.8905881E-01
          4   -1    0    0  501    0 -0.00000000000E+00  0.00000000000E+00  0.20706334218E+04  0.20706334218E+04  0.00000000000E+00 0.  1.
          2   -1    0    0  502    0  0.00000000000E+00 -0.00000000000E+00 -0.32224453172E+04  0.32224453172E+04  0.00000000000E+00 0. -1.
    9000010    2    1    2  502    0 -0.49990563882E+03 -0.34463830217E+03  0.88778563278E+03  0.14555802755E+04  0.98074940817E+03 0.  0.
        -13    1    3    3    0    0 -0.77469103263E+03 -0.37806380558E+03  0.56654599309E+03  0.10315293552E+04  0.10566000000E+00 0.  1.
         13    1    1    2    0    0 -0.81502924333E+02 -0.26048170095E+03  0.81637504864E+03  0.86079130712E+03  0.10566000000E+00 0. -1.
          2    1    1    2  501    0  0.58140856316E+03  0.60512000313E+03 -0.28559725768E+04  0.29767071564E+04  0.00000000000E+00 0. -1.
          4    1    3    3  502    0  0.27478539381E+03  0.33425503410E+02  0.32123963969E+03  0.42405092034E+03  0.00000000000E+00 0.  1.
</event>
<event>
 7    1  0.5696597E-006  0.1009886E+04  0.7818608E-02  0.9254508E-01
          2   -1    0    0  502    0  0.00000000000E+00  0.00000000000E+00  0.21803260015E+04  0.21803260015E+04  0.00000000000E+00 0. -1.
          4   -1    0    0  501    0 -0.00000000000E+00 -0.00000000000E+00 -0.28790821837E+03  0.28790821837E+03  0.00000000000E+00 0.  1.
    9000010    2    1    2  502    0  0.32230908912E+02 -0.12470401442E+03  0.66067568899E+03  0.12055654345E+04  0.10001528524E+04 0.  0.
        -13    1    3    3    0    0 -0.68338609178E+02  0.12658431779E+03 -0.23187738055E+03  0.27287522019E+03  0.10566000000E+00 0.  1.
         13    1    1    2    0    0 -0.51668657274E+02  0.13453764245E+03  0.32332152699E+03  0.35398707372E+03  0.10566000000E+00 0. -1.
          2    1    1    2  501    0  0.19437748362E+02 -0.98336280296E+01  0.90842056720E+03  0.90868171172E+03  0.00000000000E+00 0. -1.
          4    1    3    3  502    0  0.10056951809E+03 -0.25128833221E+03  0.89255306955E+03  0.93269021429E+03  0.00000000000E+00 0.  1.
</event>
<event>
 7    1  0.5696597E-006  0.1010921E+04  0.7818608E-02  0.9297213E-01
         -4   -1    0    0    0  501 -0.00000000000E+00  0.00000000000E+00  0.46857828823E+03  0.46857828823E+03  0.00000000000E+00 0. -1.
          3   -1    0    0  501    0  0.00000000000E+00 -0.00000000000E+00 -0.74910959019E+03  0.74910959019E+03  0.00000000000E+00 0. -1.
   -9000010    2    1    2    0  502 -0.11056932257E+03  0.98420497861E+01 -0.21921213983E+03  0.10335838780E+04  0.10039518064E+04 0.  0.
        -13    1    1    2    0    0  0.10441427222E+03 -0.60274514122E+02 -0.29375957619E+02  0.12408994861E+03  0.10566000000E+00 0.  1.
         13    1    3    3    0    0  0.16010873798E+03 -0.44780861871E+03 -0.65178546112E+02  0.48001627160E+03  0.10566000000E+00 0. -1.
          3    1    1    2  502    0  0.61550503434E+01  0.50432464336E+02 -0.31943204517E+02  0.60014051842E+02  0.00000000000E+00 0. -1.
         -4    1    3    3    0  502 -0.27067806054E+03  0.45765066849E+03 -0.15403359371E+03  0.55356760637E+03  0.00000000000E+00 0. -1.
</event>
<event>
 7    1  0.5696597E-006  0.1321251E+04  0.7818608E-02  0.8617606E-01
          2   -1    0    0  501    0  0.00000000000E+00  0.00000000000E+00  0.19423595538E+04  0.19423595538E+04  0.00000000000E+00 0. -1.
         -4   -1    0    0    0  501 -0.00000000000E+00 -0.00000000000E+00 -0.24560890939E+04  0.24560890939E+04  0.00000000000E+00 0. -1.
   -9000010    2    1    2    0  502 -0.67513203875E+03 -0.44284917380E+03  0.12313503589E+04  0.17834793347E+04  0.10063081885E+04 0.  0.
        -13    1    1    2    0    0  0.69877231018E+03  0.49952448376E+03 -0.20926182445E+04  0.22620474309E+04  0.10566000000E+00 0.  1.
         13    1    3    3    0    0  0.36480371861E+02 -0.26542035284E+03 -0.81182148963E+02  0.27994523340E+03  0.10566000000E+00 0. -1.
          2    1    1    2  502    0 -0.23640271428E+02 -0.56675309952E+02  0.34753834553E+03  0.35292188201E+03  0.00000000000E+00 0. -1.
         -4    1    3    3    0  502 -0.71161241061E+03 -0.17742882097E+03  0.13125325079E+04  0.15035341013E+04  0.00000000000E+00 0. -1.
</event>
<event>
 7    1  0.5696597E-006  0.8104422E+03  0.7818608E-02  0.9190328E-01
          2   -1    0    0  501    0  0.00000000000E+00  0.00000000000E+00  0.68335555221E+03  0.68335555221E+03  0.00000000000E+00 0.  1.
         -4   -1    0    0    0  501 -0.00000000000E+00 -0.00000000000E+00 -0.10766737537E+04  0.10766737537E+04  0.00000000000E+00 0. -1.
   -9000010    2    1    2    0  502 -0.59184095477E+02  0.22623223998E+03 -0.43007947559E+03  0.88109683023E+03  0.73258411487E+03 0.  0.
        -13    1    1    2    0    0  0.34138069563E+03 -0.26739412760E+03 -0.22788863599E+03  0.48987104467E+03  0.10566000000E+00 0.  1.
         13    1    3    3    0    0 -0.38335738254E+03  0.22397365433E+03 -0.26872359937E+03  0.51897925258E+03  0.10566000000E+00 0. -1.
          2    1    1    2  502    0 -0.28219660016E+03  0.41161887620E+02  0.26464991013E+03  0.38906143096E+03  0.00000000000E+00 0.  1.
         -4    1    3    3    0  502  0.32417328707E+03  0.22585856452E+01 -0.16135587621E+03  0.36211757765E+03  0.00000000000E+00 0. -1.
</event>
<event>
 6    1  0.6335686E-006  0.8478024E+03  0.7818608E-02  0.9004043E-01
          4   -1    0    0  501    0 -0.00000000000E+00  0.00000000000E+00  0.89776642017E+03  0.89776642017E+03  0.00000000000E+00 0.  1.
          2   -1    0    0  502    0  0.00000000000E+00 -0.00000000000E+00 -0.10481863395E+04  0.10481863395E+04  0.00000000000E+00 0. -1.
        -13    1    1    2    0    0 -0.27500340868E+03  0.66428378637E+03  0.51877348663E+03  0.88658094115E+03  0.10566000000E+00 0.  1.
         13    1    1    2    0    0  0.28023783733E+03 -0.52606538258E+03 -0.37982410066E+03  0.70678454343E+03  0.10566000000E+00 0. -1.
          2    1    1    2  501    0  0.18022198440E+02 -0.52203506296E+02 -0.24849133738E+03  0.25455441551E+03  0.00000000000E+00 0. -1.
          4    1    1    2  502    0 -0.23256627086E+02 -0.86014897493E+02 -0.40877967899E+02  0.98032859561E+02  0.00000000000E+00 0.  1.
</event>
<event>
 7    1  0.5696597E-006  0.1003106E+04  0.7818608E-02  0.9256571E-01
          4   -1    0    0  501    0 -0.00000000000E+00  0.00000000000E+00  0.67794649331E+03  0.67794649331E+03  0.00000000000E+00 0.  1.
          2   -1    0    0  502    0  0.00000000000E+00 -0.00000000000E+00 -0.28483626116E+04  0.28483626116E+04  0.00000000000E+00 0. -1.
    9000010    2    1    2  502    0 -0.10853773470E+03 -0.43423979288E+02  0.90142097023E+02  0.10039727516E+04  0.99306072651E+03 0.  0.
        -13    1    3    3    0    0 -0.24719865708E+03  0.37444329917E+03 -0.18442076101E+03  0.48510410080E+03  0.10566000000E+00 0.  1.
         13    1    1    2    0    0  0.14154670560E+03  0.26095559027E+02  0.91127877530E+02  0.17035477479E+03  0.10566000000E+00 0. -1.
          2    1    1    2  501    0 -0.33008970894E+02  0.17328420260E+02 -0.23516860928E+04  0.23519815785E+04  0.00000000000E+00 0. -1.
          4    1    3    3  502    0  0.13866092238E+03 -0.41786727846E+03  0.27456285803E+03  0.51886865083E+03  0.00000000000E+00 0.  1.
</event>
<event>
 7    1  0.5696597E-006  0.1019796E+04  0.7818608E-02  0.9161392E-01
          4   -1    0    0  501    0 -0.00000000000E+00  0.00000000000E+00  0.18221630816E+03  0.18221630816E+03  0.00000000000E+00 0.  1.
          2   -1    0    0  502    0  0.00000000000E+00 -0.00000000000E+00 -0.23502172332E+04  0.23502172332E+04  0.00000000000E+00 0.  1.
    9000010    2    1    2  502    0 -0.86096139951E+02 -0.12862517575E+03 -0.15536216926E+04  0.18546608110E+04  0.10010341548E+04 0.  0.
        -13    1    3    3    0    0  0.98034906737E+02 -0.35686285862E+03 -0.15142013719E+04  0.15587712304E+04  0.10566000000E+00 0.  1.
         13    1    1    2    0    0  0.91961580128E+02  0.18115959831E+03 -0.32259663489E+03  0.38124051764E+03  0.10566000000E+00 0. -1.
          2    1    1    2  501    0 -0.58654401772E+01 -0.52534422556E+02 -0.29178259760E+03  0.29653221276E+03  0.00000000000E+00 0.  1.
          4    1    3    3  502    0 -0.18413104669E+03  0.22823768287E+03 -0.39420320665E+02  0.29588958062E+03  0.00000000000E+00 0.  1.
</event>
<event>
 7    1  0.5696597E-006  0.1008325E+04  0.7818608E-02  0.9175659E-01
          2   -1    0    0  501    0  0.00000000000E+00  0.00000000000E+00  0.47298491502E+03  0.47298491502E+03  0.00000000000E+00 0. -1.
         -4   -1    0    0    0  501 -0.00000000000E+00 -0.00000000000E+00 -0.10528864367E+04  0.10528864367E+04  0.00000000000E+00 0. -1.
   -9000010    2    1    2    0  502 -0.27974053462E+02  0.19466099016E+03 -0.56266869603E+03  0.11557190385E+04  0.99015907089E+03 0.  0.
        -13    1    1    2    0    0 -0.10990677119E+03 -0.16530348131E+03 -0.82297696813E+02  0.21488988192E+03  0.10566000000E+00 0.  1.
         13    1    3    3    0    0  0.33878440843E+03  0.10053805669E+03  0.12155860202E+03  0.37371015658E+03  0.10566000000E+00 0. -1.
          2    1    1    2  502    0  0.13788082465E+03 -0.29357508846E+02  0.65064871136E+02  0.15526243134E+03  0.00000000000E+00 0. -1.
         -4    1    3    3    0  502 -0.36675846189E+03  0.94122933469E+02 -0.68422729806E+03  0.78200888191E+03  0.00000000000E+00 0. -1.
</event>
<event>
 7    1  0.5696597E-006  0.1064548E+04  0.7818608E-02  0.8990536E-01
          2   -1    0    0  502    0  0.00000000000E+00  0.00000000000E+00  0.14537846042E+04  0.14537846042E+04  0.00000000000E+00 0. -1.
          4   -1    0    0  501    0 -0.00000000000E+00 -0.00000000000E+00 -0.16755711204E+04  0.16755711204E+04  0.00000000000E+00 0.  1.
    9000010    2    1    2  502    0 -0.20093025501E+03  0.25342474941E+03 -0.11709859558E+04  0.15795318351E+04  0.10095125748E+04 0.  0.
        -13    1    3    3    0    0  0.17096905323E+03 -0.22310777978E+03 -0.84968140472E+03  0.89496703808E+03  0.10566000000E+00 0.  1.
         13    1    1    2    0    0  0.21809980404E+03 -0.26714905714E+03 -0.20116219152E+03  0.39925227828E+03  0.10566000000E+00 0. -1.
          2    1    1    2  501    0 -0.17169549029E+02  0.13724307729E+02  0.11503616311E+04  0.11505716111E+04  0.00000000000E+00 0. -1.
          4    1    3    3  502    0 -0.37189930824E+03  0.47653252919E+03 -0.32130455104E+03  0.68456479705E+03  0.00000000000E+00 0.  1.
</event>
<event>
 7    1  0.5696597E-006  0.1083464E+04  0.7818608E-02  0.9022638E-01
          4   -1    0    0  501    0 -0.00000000000E+00  0.00000000000E+00  0.13338463079E+04  0.13338463079E+04  0.00000000000E+00 0.  1.
          2   -1    0    0  502    0  0.00000000000E+00 -0.00000000000E+00 -0.14677064748E+04  0.14677064748E+04  0.00000000000E+00 0. -1.
    9000010    2    1    2  502    0  0.18726186091E+03  0.15021218734E+03  0.73385249169E+03  0.13003190633E+04  0.10462597579E+04 0.  0.
        -13    1    3    3    0    0  0.68310943346E+02 -0.24760391246E+03 -0.16838121493E+03  0.30712591416E+03  0.10566000000E+00 0.  1.
         13    1    1    2    0    0 -0.25738814517E+03 -0.13827257958E+03  0.24801023886E+03  0.38324542174E+03  0.10566000000E+00 0. -1.
          2    1    1    2  501    0  0.70126284257E+02 -0.11939607756E+02 -0.11157228974E+04  0.11179882977E+04  0.00000000000E+00 0. -1.
          4    1    3    3  502    0  0.11895091756E+03  0.39781609980E+03  0.90223370662E+03  0.99319314910E+03  0.00000000000E+00 0.  1.
</event>
<event>
 7    1  0.5696597E-006  0.1079911E+04  0.7818608E-02  0.8827285E-01
         -4   -1    0    0    0  501 -0.00000000000E+00  0.00000000000E+00  0.34786291480E+03  0.34786291480E+03  0.00000000000E+00 0. -1.
          4   -1    0    0  501    0  0.00000000000E+00 -0.00000000000E+00 -0.30957062531E+04  0.30957062531E+04  0.00000000000E+00 0.  1.
   -9000010    2    1    2    0  502  0.26155299535E+03  0.55751149323E+03 -0.92872022446E+03  0.14157537009E+04  0.87327444238E+03 0.  0.
        -13    1    1    2    0    0 -0.44890056458E+03 -0.49795462957E+03 -0.11578657257E+04  0.13379549992E+04  0.10566000000E+00 0.  1.
         13    1    3    3    0    0  0.28755510828E+03  0.28594821208E+03 -0.10436938854E+04  0.11197103455E+04  0.10566000000E+00 0. -1.
          4    1    1    2  502    0  0.18734756924E+03 -0.59556863651E+02 -0.66125738814E+03  0.68986046783E+03  0.00000000000E+00 0.  1.
         -4    1    3    3    0  502 -0.26002112935E+02  0.27156328115E+03  0.11497366092E+03  0.29604335535E+03  0.00000000000E+00 0. -1.
</event>
<event>
 7    1  0.5696597E-006  0.9971849E+03  0.7818608E-02  0.9457120E-01
          2   -1    0    0  502    0  0.00000000000E+00  0.00000000000E+00  0.11364000899E+04  0.11364000899E+04  0.00000000000E+00 0.  1.
          4   -1    0    0  501    0 -0.00000000000E+00 -0.00000000000E+00 -0.13835199519E+04  0.13835199519E+04  0.00000000000E+00 0.  1.
    9000010    2    1    2  502    0  0.55480041619E+02 -0.56750859724E+02 -0.11677987394E+04  0.15361649085E+04  0.99486181713E+03 0.  0.
        -13    1    3    3    0    0 -0.22338262182E+02 -0.52391015543E+03 -0.62047160379E+03  0.81238283537E+03  0.10566000000E+00 0.  1.
         13    1    1    2    0    0 -0.54002629085E+02  0.38101870213E+02  0.32873782852E+01  0.66172913506E+02  0.10566000000E+00 0. -1.
          2    1    1    2  501    0 -0.14774125341E+01  0.18648989512E+02  0.91739149910E+03  0.91758221985E+03  0.00000000000E+00 0.  1.
          4    1    3    3  502    0  0.77818303801E+02  0.46715929571E+03 -0.54732713560E+03  0.72378207310E+03  0.00000000000E+00 0.  1.
</event>
<event>
 7    1  0.5696597E-006  0.1071397E+04  0.7818608E-02  0.8985896E-01
          2   -1    0    0  501    0  0.00000000000E+00  0.00000000000E+00  0.68707164253E+03  0.68707164253E+03  0.00000000000E+00 0.  1.
         -4   -1    0    0    0  501 -0.00000000000E+00 -0.00000000000E+00 -0.22810881610E+04  0.22810881610E+04  0.00000000000E+00 0. -1.
   -9000010    2    1    2    0  502 -0.19586248674E+03  0.27392795507E+03 -0.12946536079E+04  0.16802867268E+04  0.10167776953E+04 0.  0.
        -13    1    1    2    0    0  0.18536757307E+03 -0.28256662810E+03 -0.75753655045E+03  0.82949784381E+03  0.10566000000E+00 0.  1.
         13    1    3    3    0    0  0.47199495255E+01 -0.16759745717E+03  0.10579344808E+03  0.19825097829E+03  0.10566000000E+00 0. -1.
          2    1    1    2  502    0  0.10494913672E+02  0.86386730294E+01  0.45817363985E+03  0.45837523290E+03  0.00000000000E+00 0.  1.
         -4    1    3    3    0  502 -0.20058243627E+03  0.44152541223E+03 -0.14004470559E+04  0.14820357485E+04  0.00000000000E+00 0. -1.
</event>
<event>
 7    1  0.5696597E-006  0.1051627E+04  0.7818608E-02  0.9009466E-01
          2   -1    0    0  501    0  0.00000000000E+00  0.00000000000E+00  0.16128883376E+04  0.16128883376E+04  0.00000000000E+00 0. -1.
         -4   -1    0    0    0  501 -0.00000000000E+00 -0.00000000000E+00 -0.77026368404E+03  0.77026368404E+03  0.00000000000E+00 0. -1.
   -9000010    2    1    2    0  502  0.11938038273E+03  0.32669132914E+03 -0.17085398802E+03  0.10727111084E+04  0.10002695320E+04 0.  0.
        -13    1    1    2    0    0 -0.20423203338E+03 -0.24764225505E+03  0.32504614870E+02  0.32263597304E+03  0.10566000000E+00 0.  1.
         13    1    3    3    0    0 -0.20017586335E+03 -0.29993944720E+02 -0.46746192322E+03  0.50940227111E+03  0.10566000000E+00 0. -1.
          2    1    1    2  502    0  0.84851650654E+02 -0.79049074091E+02  0.98097402667E+03  0.98780494012E+03  0.00000000000E+00 0. -1.
         -4    1    3    3    0  502  0.31955624608E+03  0.35668527386E+03  0.29660793519E+03  0.56330883733E+03  0.00000000000E+00 0. -1.
</event>
<event>
 7    1  0.5696597E-006  0.1164463E+04  0.7818608E-02  0.8817753E-01
          2   -1    0    0  501    0  0.00000000000E+00  0.00000000000E+00  0.42491319532E+04  0.42491319532E+04  0.00000000000E+00 0. -1.
         -4   -1    0    0    0  501 -0.00000000000E+00 -0.00000000000E+00 -0.59228233636E+03  0.59228233636E+03  0.00000000000E+00 0. -1.
   -9000010    2    1    2    0  502 -0.42409959903E+02 -0.44696253571E+03  0.39628158094E+03  0.10541827841E+04  0.86757601270E+03 0.  0.
        -13    1    1    2    0    0 -0.48221840768E+03 -0.21376056491E+03  0.12764518412E+03  0.54269832874E+03  0.10566000000E+00 0.  1.
         13    1    3    3    0    0 -0.36480344871E+03  0.45476176452E+02  0.49258741805E+02  0.37091248782E+03  0.10566000000E+00 0. -1.
          2    1    1    2  502    0  0.52462836759E+03  0.66072310063E+03  0.31329228518E+04  0.32445331767E+04  0.00000000000E+00 0. -1.
         -4    1    3    3    0  502  0.32239348880E+03 -0.49243871216E+03  0.34702283913E+03  0.68327029625E+03  0.00000000000E+00 0. -1.
</event>
<event>
 7    1  0.5696597E-006  0.1021796E+04  0.7818608E-02  0.9293057E-01
          2   -1    0    0  502    0  0.00000000000E+00  0.00000000000E+00  0.13811738042E+04  0.13811738042E+04  0.00000000000E+00 0.  1.
          4   -1    0    0  501    0 -0.00000000000E+00 -0.00000000000E+00 -0.16244306606E+04  0.16244306606E+04  0.00000000000E+00 0.  1.
    9000010    2    1    2  502    0 -0.10909066685E+03 -0.14611882389E+03 -0.76299114726E+03  0.12584110944E+04  0.98396722885E+03 0.  0.
        -13    1    3    3    0    0 -0.47074491935E+03 -0.27597757356E+03 -0.66806491455E+03  0.86259790252E+03  0.10566000000E+00 0.  1.
         13    1    1    2    0    0 -0.11542469032E+03 -0.16395426400E+02 -0.59100627285E+03  0.60239529784E+03  0.10566000000E+00 0. -1.
          2    1    1    2  501    0  0.22451535717E+03  0.16251425029E+03  0.11107405637E+04  0.11447980726E+04  0.00000000000E+00 0.  1.
          4    1    3    3  502    0  0.36165425250E+03  0.12985874968E+03 -0.94926232708E+02  0.39581319189E+03  0.00000000000E+00 0.  1.
</event>
<event>
 7    1  0.5696597E-006  0.1082001E+04  0.7818608E-02  0.8921948E-01
          2   -1    0    0  501    0  0.00000000000E+00  0.00000000000E+00  0.21667424472E+04  0.21667424472E+04  0.00000000000E+00 0. -1.
         -4   -1    0    0    0  501 -0.00000000000E+00 -0.00000000000E+00 -0.37637750744E+03  0.37637750744E+03  0.00000000000E+00 0. -1.
   -9000010    2    1    2    0  502  0.47613196811E+03  0.80454858471E+02  0.16058612034E+04  0.19496963863E+04  0.99466132871E+03 0.  0.
        -13    1    1    2    0    0 -0.41697957677E+03 -0.39759504518E+02  0.26307364508E+02  0.41969616895E+03  0.10566000000E+00 0.  1.
         13    1    3    3    0    0 -0.17064589721E+03 -0.28372236001E+03  0.29582892208E+03  0.44399680416E+03  0.10566000000E+00 0. -1.
          2    1    1    2  502    0 -0.59152391345E+02 -0.40695353953E+02  0.15819637194E+03  0.17372739948E+03  0.00000000000E+00 0. -1.
         -4    1    3    3    0  502  0.64677786532E+03  0.36417721848E+03  0.13100322813E+04  0.15056995821E+04  0.00000000000E+00 0. -1.
</event>
<event>
 7    1  0.5696597E-006  0.1271728E+04  0.7818608E-02  0.9109506E-01
         -4   -1    0    0    0  501 -0.00000000000E+00  0.00000000000E+00  0.19603513683E+04  0.19603513683E+04  0.00000000000E+00 0. -1.
          4   -1    0    0  501    0  0.00000000000E+00 -0.00000000000E+00 -0.10023298563E+04  0.10023298563E+04  0.00000000000E+00 0.  1.
   -9000010    2    1    2    0  502 -0.48853440988E+03  0.65788793096E+03  0.84339307608E+03  0.15516488910E+04  0.10123339374E+04 0.  0.
        -13    1    1    2    0    0  0.12269923895E+03  0.10037604802E+02  0.52962716826E+03  0.54374700484E+03  0.10566000000E+00 0.  1.
         13    1    3    3    0    0 -0.36510856009E+03 -0.18916489926E+03  0.45000574450E+03  0.60958412136E+03  0.10566000000E+00 0. -1.
          4    1    1    2  502    0  0.36583517093E+03 -0.66792553576E+03 -0.41499873230E+03  0.86728532872E+03  0.00000000000E+00 0.  1.
         -4    1    3    3    0  502 -0.12342584979E+03  0.84705283022E+03  0.39338733157E+03  0.94206476965E+03  0.00000000000E+00 0. -1.
</event>
<event>
 7    1  0.5696597E-006  0.1100354E+04  0.7818608E-02  0.8901819E-01
          1   -1    0    0  501    0  0.00000000000E+00  0.00000000000E+00  0.12517870282E+04  0.12517870282E+04  0.00000000000E+00 0. -1.
         -4   -1    0    0    0  501 -0.00000000000E+00 -0.00000000000E+00 -0.11240560946E+04  0.11240560946E+04  0.00000000000E+00 0. -1.
   -9000010    2    1    2    0  502 -0.42363392627E+03  0.12276458580E+03 -0.41107366234E+03  0.11750252246E+04  0.10085464171E+04 0.  0.
        -13    1    1    2    0    0  0.41912066311E+03 -0.13278100886E+03 -0.18495786201E+03  0.47697206254E+03  0.10566000000E+00 0.  1.
         13    1    3    3    0    0  0.26140610799E+03  0.89452355109E+02  0.12624215221E+03  0.30376301501E+03  0.10566000000E+00 0. -1.
          1    1    1    2  502    0  0.45132631535E+01  0.10016423064E+02  0.72376245798E+03  0.72384583569E+03  0.00000000000E+00 0. -1.
         -4    1    3    3    0  502 -0.68504003426E+03  0.33312230689E+02 -0.53731581455E+03  0.87126220956E+03  0.00000000000E+00 0. -1.
</event>
<event>
 7    1  0.5696597E-006  0.1400038E+04  0.7818608E-02  0.8547075E-01
         -4   -1    0    0    0  501 -0.00000000000E+00  0.00000000000E+00  0.28652868349E+04  0.28652868349E+04  0.00000000000E+00 0. -1.
          2   -1    0    0  501    0  0.00000000000E+00 -0.00000000000E+00 -0.20788979837E+04  0.20788979837E+04  0.00000000000E+00 0.  1.
   -9000010    2    1    2    0  502 -0.29789538892E+03 -0.83528370885E+03  0.56574496425E+03  0.14478436327E+04  0.99485842366E+03 0.  0.
        -13    1    1    2    0    0 -0.62158770558E+03  0.96178027560E+03  0.15177904971E+04  0.19013365243E+04  0.10566000000E+00 0.  1.
         13    1    3    3    0    0 -0.37716180634E+03 -0.58683131445E+02  0.54696502239E+03  0.66698237230E+03  0.10566000000E+00 0. -1.
          2    1    1    2  502    0  0.91948309451E+03 -0.12649656675E+03 -0.12971466101E+04  0.15950046616E+04  0.00000000000E+00 0.  1.
         -4    1    3    3    0  502  0.79266417413E+02 -0.77660057741E+03  0.18779941859E+02  0.78086126039E+03  0.00000000000E+00 0. -1.
</event>
<event>
 7    1  0.5696597E-006  0.1039587E+04  0.7818608E-02  0.8991643E-01
          2   -1    0    0  501    0  0.00000000000E+00  0.00000000000E+00  0.86026692785E+03  0.86026692785E+03  0.00000000000E+00 0.  1.
         -4   -1    0    0    0  501 -0.00000000000E+00 -0.00000000000E+00 -0.17027218861E+04  0.17027218861E+04  0.00000000000E+00 0. -1.
   -9000010    2    1    2    0  502  0.30745754636E+03 -0.17668504363E+03 -0.12442239426E+04  0.16199217510E+04  0.97483614646E+03 0.  0.
        -13    1    1    2    0    0 -0.31412533451E+03  0.18681433454E+03 -0.14716819241E+03  0.39399595099E+03  0.10566000000E+00 0.  1.
         13    1    3    3    0    0  0.36929789824E+02 -0.56230915871E+03 -0.61865165711E+03  0.83683049858E+03  0.10566000000E+00 0. -1.
          2    1    1    2  502    0  0.66677881591E+01 -0.10129290910E+02  0.54893717680E+03  0.54907111197E+03  0.00000000000E+00 0.  1.
         -4    1    3    3    0  502  0.27052775653E+03  0.38562411508E+03 -0.62557228552E+03  0.78309125241E+03  0.00000000000E+00 0. -1.
</event>
<event>
 7    1  0.5696597E-006  0.1105700E+04  0.7818608E-02  0.8865552E-01
         -4   -1    0    0    0  501 -0.00000000000E+00  0.00000000000E+00  0.97803479183E+03  0.97803479183E+03  0.00000000000E+00 0. -1.
          1   -1    0    0  501    0  0.00000000000E+00 -0.00000000000E+00 -0.10587337716E+04  0.10587337716E+04  0.00000000000E+00 0. -1.
   -9000010    2    1    2    0  502  0.34830310358E+03 -0.27484552961E+03  0.13704610014E+03  0.10881184192E+04  0.98405535591E+03 0.  0.
        -13    1    1    2    0    0 -0.46025547479E+03  0.26429478168E+03  0.16015127227E+03  0.55437827778E+03  0.10566000000E+00 0.  1.
         13    1    3    3    0    0 -0.70952280941E+02  0.31058471568E+03  0.18152844843E+03  0.36667380672E+03  0.10566000000E+00 0. -1.
          1    1    1    2  502    0  0.11195237121E+03  0.10550747930E+02 -0.37789635221E+03  0.39427186650E+03  0.00000000000E+00 0. -1.
         -4    1    3    3    0  502  0.41925538452E+03 -0.58543024528E+03 -0.44482348294E+02  0.72144461246E+03  0.00000000000E+00 0. -1.
</event>
<event>
 7    1  0.5696597E-006  0.1015764E+04  0.7818608E-02  0.9167475E-01
          2   -1    0    0  502    0  0.00000000000E+00  0.00000000000E+00  0.79120616642E+03  0.79120616642E+03  0.00000000000E+00 0.  1.
          4   -1    0    0  501    0 -0.00000000000E+00 -0.00000000000E+00 -0.16008098814E+04  0.16008098814E+04  0.00000000000E+00 0.  1.
    9000010    2    1    2  502    0 -0.13382218974E+03 -0.11452647537E+03 -0.82281232741E+03  0.13049120988E+04  0.99737193028E+03 0.  0.
        -13    1    3    3    0    0 -0.24052578247E+03  0.13410000376E+02  0.17215714391E+03  0.29609217063E+03  0.10566000000E+00 0.  1.
         13    1    1    2    0    0  0.12190924204E+03  0.15065818664E+03 -0.51875853454E+03  0.55377809709E+03  0.10566000000E+00 0. -1.
          2    1    1    2  501    0  0.11912947702E+02 -0.36131711271E+02  0.53196714699E+03  0.53332585195E+03  0.00000000000E+00 0.  1.
          4    1    3    3  502    0  0.10670359273E+03 -0.12793647574E+03 -0.99496947132E+03  0.10088199281E+04  0.00000000000E+00 0.  1.
</event>
<event>
 7    1  0.1336833E-005  0.1340196E+04  0.7818608E-02  0.8782721E-01
          2   -1    0    0  501    0  0.00000000000E+00  0.00000000000E+00  0.23367977111E+04  0.23367977111E+04  0.00000000000E+00 0. -1.
         -4   -1    0    0    0  501 -0.00000000000E+00 -0.00000000000E+00 -0.46398796526E+03  0.46398796526E+03  0.00000000000E+00 0. -1.
   -9000010    2    1    2    0  502  0.23767108608E+03  0.29585010635E+03  0.92334478787E+03  0.16222389093E+04  0.12787019399E+04 0.  0.
        -13    1    1    2    0    0 -0.26438236322E+03 -0.31019377721E+03  0.24940284540E+03  0.47782842513E+03  0.10566000000E+00 0.  1.
         13    1    3    3    0    0  0.30397305471E+03  0.31206209411E+03 -0.21224971283E+03  0.48459500651E+03  0.10566000000E+00 0. -1.
          2    1    1    2  502    0  0.26711277133E+02  0.14343670867E+02  0.70006211256E+03  0.70071834189E+03  0.00000000000E+00 0. -1.
         -4    1    3    3    0  502 -0.66301968631E+02 -0.16211987768E+02  0.11355945007E+04  0.11376439028E+04  0.00000000000E+00 0. -1.
</event>
<event>
 7    1  0.5696597E-006  0.1065763E+04  0.7818608E-02  0.8982194E-01
         -4   -1    0    0    0  501 -0.00000000000E+00  0.00000000000E+00  0.21270169653E+04  0.21270169653E+04  0.00000000000E+00 0. -1.
          5   -1    0    0  501    0  0.00000000000E+00 -0.00000000000E+00 -0.34336655412E+03  0.34336655412E+03  0.00000000000E+00 0. -1.
   -9000010    2    1    2    0  502 -0.87759052541E+02 -0.34227901162E+03  0.15607322949E+04  0.18908412825E+04  0.10072432111E+04 0.  0.
        -13    1    1    2    0    0  0.75698548339E+02  0.33768349744E+03  0.32613268002E+03  0.47552386986E+03  0.10566000000E+00 0.  1.
         13    1    3    3    0    0  0.31185195836E+02 -0.63019626201E+03  0.56307562918E+03  0.84567962044E+03  0.10566000000E+00 0. -1.
          5    1    1    2  502    0  0.12060504202E+02  0.45955141840E+01 -0.10321456373E+03  0.10401836702E+03  0.00000000000E+00 0. -1.
         -4    1    3    3    0  502 -0.11894424838E+03  0.28791725039E+03  0.99765666571E+03  0.10451616621E+04  0.00000000000E+00 0. -1.
</event>
<event>
 7    1  0.5696597E-006  0.1065899E+04  0.7818608E-02  0.8974866E-01
         -2   -1    0    0    0  501  0.00000000000E+00  0.00000000000E+00  0.26343865220E+03  0.26343865220E+03  0.00000000000E+00 0.  1.
         -4   -1    0    0    0  502 -0.00000000000E+00 -0.00000000000E+00 -0.27394134390E+04  0.27394134390E+04  0.00000000000E+00 0. -1.
   -9000010    2    1    2    0  501 -0.35335807065E+03  0.97849164977E+02 -0.22125205916E+04  0.24570634441E+04  0.10037315451E+04 0.  0.
        -13    1    1    2    0    0  0.33829185497E+03 -0.10326601608E+03 -0.32612457653E+03  0.48110549758E+03  0.10566000000E+00 0.  1.
         13    1    3    3    0    0 -0.23320711274E+03 -0.16576220083E+03 -0.69349890158E+02  0.29440122806E+03  0.10566000000E+00 0. -1.
         -2    1    1    2    0  502  0.15066215677E+02  0.54168511039E+01  0.62670381391E+02  0.64683149540E+02  0.00000000000E+00 0.  1.
         -4    1    3    3    0  501 -0.12015095791E+03  0.26361136581E+03 -0.21431707015E+04  0.21626622160E+04  0.00000000000E+00 0. -1.
</event>
<event>
 7    1  0.5696597E-006  0.1076552E+04  0.7818608E-02  0.9003143E-01
          2   -1    0    0  502    0  0.00000000000E+00  0.00000000000E+00  0.79659309702E+03  0.79659309702E+03  0.00000000000E+00 0.  1.
          4   -1    0    0  501    0 -0.00000000000E+00 -0.00000000000E+00 -0.17603852367E+04  0.17603852367E+04  0.00000000000E+00 0.  1.
    9000010    2    1    2  502    0 -0.24904000524E+03  0.22432871197E+03 -0.74662985578E+03  0.13162075448E+04  0.10308258166E+04 0.  0.
        -13    1    3    3    0    0 -0.37134874975E+03  0.33732579014E+03  0.48317767363E+02  0.50400714325E+03  0.10566000000E+00 0.  1.
         13    1    1    2    0    0  0.23289528843E+03 -0.20095620122E+03 -0.69607564137E+03  0.76101571590E+03  0.10566000000E+00 0. -1.
          2    1    1    2  501    0  0.16144716814E+02 -0.23372510749E+02  0.47891335749E+03  0.47975507305E+03  0.00000000000E+00 0.  1.
          4    1    3    3  502    0  0.12230874451E+03 -0.11299707818E+03 -0.79494762314E+03  0.81220040150E+03  0.00000000000E+00 0.  1.
</event>
<event>
 7    1  0.5696597E-006  0.1010181E+04  0.7818608E-02  0.9305387E-01
          4   -1    0    0  501    0 -0.00000000000E+00  0.00000000000E+00  0.45289885287E+03  0.45289885287E+03  0.00000000000E+00 0.  1.
          2   -1    0    0  502    0  0.00000000000E+00 -0.00000000000E+00 -0.17914681564E+04  0.17914681564E+04  0.00000000000E+00 0.  1.
    9000010    2    1    2  502    0 -0.24701715496E+02  0.79481287920E+02 -0.40081565871E+03  0.10838765230E+04  0.10035973670E+04 0.  0.
        -13    1    3    3    0    0  0.16122322810E+03 -0.25772242744E+03 -0.58329771146E+03  0.65776136269E+03  0.10566000000E+00 0.  1.
         13    1    1    2    0    0 -0.19554336512E+02 -0.11518452182E+03  0.79713388096E+02  0.14143578596E+03  0.10566000000E+00 0. -1.
          2    1    1    2  501    0  0.44256052009E+02  0.35703233903E+02 -0.10174670329E+04  0.10190547002E+04  0.00000000000E+00 0.  1.
          4    1    3    3  502    0 -0.18592494360E+03  0.33720371536E+03  0.18248205276E+03  0.42611516035E+03  0.00000000000E+00 0.  1.
</event>
<event>
 7    1  0.9250652E-006  0.1375445E+04  0.7818608E-02  0.8661827E-01
          4   -1    0    0  501    0  0.00000000000E+00  0.00000000000E+00  0.11742599026E+04  0.11742599026E+04  0.00000000000E+00 0.  1.
         -4   -1    0    0    0  501 -0.00000000000E+00 -0.00000000000E+00 -0.30204962036E+04  0.30204962036E+04  0.00000000000E+00 0. -1.
   -9000010    2    1    2    0  502 -0.14122068505E+04  0.42767622106E+03 -0.16677736307E+04  0.24400329221E+04  0.99752525740E+03 0.  0.
        -13    1    1    2    0    0  0.54936429783E+03 -0.29791351193E+03 -0.52468760100E+03  0.81599674149E+03  0.10566000000E+00 0.  1.
         13    1    3    3    0    0 -0.44926095229E+03  0.61504431309E+03 -0.98356855054E+03  0.12439943790E+04  0.10566000000E+00 0. -1.
          4    1    1    2  502    0  0.86284255271E+03 -0.12976270913E+03  0.34622493058E+03  0.93872644258E+03  0.00000000000E+00 0.  1.
         -4    1    3    3    0  502 -0.96294589825E+03 -0.18736809203E+03 -0.68420508011E+03  0.11960385431E+04  0.00000000000E+00 0. -1.
</event>
<event>
 7    1  0.5696597E-006  0.1133647E+04  0.7818608E-02  0.8891637E-01
          2   -1    0    0  502    0  0.00000000000E+00  0.00000000000E+00  0.33921306673E+03  0.33921306673E+03  0.00000000000E+00 0. -1.
          4   -1    0    0  501    0 -0.00000000000E+00 -0.00000000000E+00 -0.33476729908E+04  0.33476729908E+04  0.00000000000E+00 0.  1.
    9000010    2    1    2  502    0  0.31929728696E+03 -0.16613012173E+03 -0.15446192546E+04  0.19037849800E+04  0.10530900405E+04 0.  0.
        -13    1    3    3    0    0  0.13355568516E+03 -0.55738370096E+03 -0.12635557588E+04  0.13874750008E+04  0.10566000000E+00 0.  1.
         13    1    1    2    0    0 -0.40595436887E+03  0.14118587435E+03 -0.15792196817E+04  0.16366634398E+04  0.10566000000E+00 0. -1.
          2    1    1    2  501    0  0.86657081917E+02  0.24944247384E+02  0.11537901221E+03  0.14643763786E+03  0.00000000000E+00 0. -1.
          4    1    3    3  502    0  0.18574160180E+03  0.39125357923E+03 -0.28106349585E+03  0.51630997918E+03  0.00000000000E+00 0.  1.
</event>
<event>
 7    1  0.5696597E-006  0.1017670E+04  0.7818608E-02  0.9103912E-01
          2   -1    0    0  502    0  0.00000000000E+00  0.00000000000E+00  0.84947001641E+03  0.84947001641E+03  0.00000000000E+00 0.  1.
          4   -1    0    0  501    0 -0.00000000000E+00 -0.00000000000E+00 -0.80056537830E+03  0.80056537830E+03  0.00000000000E+00 0.  1.
    9000010    2    1    2  502    0 -0.15579248558E+03  0.27343984083E+03  0.46099217061E+02  0.10375413998E+04  0.98758613470E+03 0.  0.
        -13    1    3    3    0    0 -0.51708290472E+02 -0.34105342076E+03  0.19569251598E+03  0.39659394233E+03  0.10566000000E+00 0.  1.
         13    1    1    2    0    0  0.62862099294E+02 -0.23181549926E+03 -0.24590670478E+03  0.34374436409E+03  0.10566000000E+00 0. -1.
          2    1    1    2  501    0  0.92930386288E+02 -0.41624341569E+02  0.24871212583E+03  0.26874963078E+03  0.00000000000E+00 0.  1.
          4    1    3    3  502    0 -0.10408419511E+03  0.61449326159E+03 -0.14959329891E+03  0.64094745751E+03  0.00000000000E+00 0.  1.
</event>
<event>
 7    1  0.5696597E-006  0.1042133E+04  0.7818608E-02  0.9012138E-01
          2   -1    0    0  501    0  0.00000000000E+00  0.00000000000E+00  0.66915198473E+03  0.66915198473E+03  0.00000000000E+00 0.  1.
         -4   -1    0    0    0  501 -0.00000000000E+00 -0.00000000000E+00 -0.85266958477E+03  0.85266958477E+03  0.00000000000E+00 0. -1.
   -9000010    2    1    2    0  502  0.23948501163E+03  0.17738590285E+03 -0.97463100435E+02  0.10370437108E+04  0.98850481677E+03 0.  0.
        -13    1    1    2    0    0 -0.18308668456E+03 -0.29332493156E+03 -0.40969815822E+02  0.34819360492E+03  0.10566000000E+00 0.  1.
         13    1    3    3    0    0  0.55399647682E+03  0.33242252673E+03  0.67378618457E+02  0.64958195942E+03  0.10566000000E+00 0. -1.
          2    1    1    2  502    0 -0.56398327077E+02  0.11593902870E+03 -0.45084683781E+02  0.13658425380E+03  0.00000000000E+00 0.  1.
         -4    1    3    3    0  502 -0.31451146519E+03 -0.15503662388E+03 -0.16484171889E+03  0.38746175136E+03  0.00000000000E+00 0. -1.
</event>
<event>
 7    1  0.5696597E-006  0.1009983E+04  0.7818608E-02  0.9293140E-01
          4   -1    0    0  501    0 -0.00000000000E+00  0.00000000000E+00  0.15000015784E+04  0.15000015784E+04  0.00000000000E+00 0.  1.
          2   -1    0    0  502    0  0.00000000000E+00 -0.00000000000E+00 -0.50429085053E+03  0.50429085053E+03  0.00000000000E+00 0. -1.
    9000010    2    1    2  502    0  0.76567173698E+02 -0.12184612950E+03  0.11631395485E+04  0.15424340110E+04  0.10027462579E+04 0.  0.
        -13    1    3    3    0    0 -0.15299741843E+02 -0.54402670468E+03  0.43914925131E+03  0.69932196705E+03  0.10566000000E+00 0.  1.
         13    1    1    2    0    0 -0.22798852421E+02  0.11656623071E+03  0.12032730142E+03  0.16907437549E+03  0.10566000000E+00 0. -1.
          2    1    1    2  501    0 -0.53768321277E+02  0.52798987853E+01 -0.28775612208E+03  0.29278404243E+03  0.00000000000E+00 0. -1.
          4    1    3    3  502    0  0.91866915541E+02  0.42218057518E+03  0.72399029722E+03  0.84311204398E+03  0.00000000000E+00 0.  1.
</event>
<event>
 7    1  0.5696597E-006  0.1230061E+04  0.7818608E-02  0.8728653E-01
         -4   -1    0    0    0  501 -0.00000000000E+00  0.00000000000E+00  0.21578504555E+04  0.21578504555E+04  0.00000000000E+00 0. -1.
          2   -1    0    0  501    0  0.00000000000E+00 -0.00000000000E+00 -0.11828885756E+04  0.11828885756E+04  0.00000000000E+00 0. -1.
   -9000010    2    1    2    0  502  0.55615471236E+03  0.34005594673E+03  0.10485741956E+04  0.16154786420E+04  0.10417856249E+04 0.  0.
        -13    1    1    2    0    0 -0.55352124847E+03 -0.35022827451E+03  0.69589843187E+03  0.95567790359E+03  0.10566000000E+00 0.  1.
         13    1    3    3    0    0 -0.95007851964E+02 -0.16850495800E+03 -0.86202898481E+02  0.21178140540E+03  0.10566000000E+00 0. -1.
          2    1    1    2  502    0 -0.26334638972E+01  0.10172327783E+02 -0.76951074753E+03  0.76958248547E+03  0.00000000000E+00 0. -1.
         -4    1    3    3    0  502  0.65116256433E+03  0.50856090473E+03  0.11347770940E+04  0.14036972366E+04  0.00000000000E+00 0. -1.
</event>
<event>
 7    1  0.5696597E-006  0.1017507E+04  0.7818608E-02  0.9164811E-01
          2   -1    0    0  501    0  0.00000000000E+00  0.00000000000E+00  0.82388381027E+03  0.82388381027E+03  0.00000000000E+00 0. -1.
         -4   -1    0    0    0  501 -0.00000000000E+00 -0.00000000000E+00 -0.79678975508E+03  0.79678975508E+03  0.00000000000E+00 0. -1.
   -9000010    2    1    2    0  502  0.18608638864E+03  0.28306522329E+01 -0.13167716908E+03  0.10246362694E+04  0.99895167603E+03 0.  0.
        -13    1    1    2    0    0 -0.19383972585E+03 -0.11085787700E+02 -0.17541314946E+03  0.26166107501E+03  0.10566000000E+00 0.  1.
         13    1    3    3    0    0  0.58299683133E+03  0.13351677062E+03 -0.68076056073E+02  0.60195215254E+03  0.10566000000E+00 0. -1.
          2    1    1    2  502    0  0.77533372119E+01  0.82551354670E+01  0.33418437373E+03  0.33437622096E+03  0.00000000000E+00 0. -1.
         -4    1    3    3    0  502 -0.39691044269E+03 -0.13068611839E+03 -0.63601113012E+02  0.42268411684E+03  0.00000000000E+00 0. -1.
</event>
<event>
 7    1  0.5696597E-006  0.9974247E+03  0.7818608E-02  0.9308917E-01
         -4   -1    0    0    0  501 -0.00000000000E+00  0.00000000000E+00  0.10108360059E+03  0.10108360059E+03  0.00000000000E+00 0. -1.
          2   -1    0    0  501    0  0.00000000000E+00 -0.00000000000E+00 -0.36347487478E+04  0.36347487478E+04  0.00000000000E+00 0. -1.
   -9000010    2    1    2    0  502  0.74696022296E+02 -0.57792804987E+02 -0.25537163248E+04  0.27406772422E+04  0.99041666716E+03 0.  0.
        -13    1    1    2    0    0 -0.75075643505E+02  0.98463092824E+02 -0.57566948224E+03  0.58883503364E+03  0.10566000000E+00 0.  1.
         13    1    3    3    0    0  0.93084983714E+02 -0.49400749032E+03 -0.90623670231E+03  0.10363267759E+04  0.10566000000E+00 0. -1.
          2    1    1    2  502    0  0.37962120846E+00 -0.40670287838E+02 -0.40427934017E+03  0.40632007250E+03  0.00000000000E+00 0. -1.
         -4    1    3    3    0  502 -0.18388961418E+02  0.43621468533E+03 -0.16474796225E+04  0.17043504663E+04  0.00000000000E+00 0. -1.
</event>
<event>
 7    1  0.5696597E-006  0.1160026E+04  0.7818608E-02  0.8840776E-01
         -4   -1    0    0    0  501 -0.00000000000E+00  0.00000000000E+00  0.28347258733E+04  0.28347258733E+04  0.00000000000E+00 0. -1.
          2   -1    0    0  501    0  0.00000000000E+00 -0.00000000000E+00 -0.63399055872E+03  0.63399055872E+03  0.00000000000E+00 0. -1.
   -9000010    2    1    2    0  502 -0.25479276917E+03  0.11611011595E+03  0.10863776300E+04  0.15035145483E+04  0.10009688944E+04 0.  0.
        -13    1    1    2    0    0 -0.45372678563E+02  0.48217520813E+03  0.11965186043E+04  0.12908169479E+04  0.10566000000E+00 0.  1.
         13    1    3    3    0    0 -0.56583524412E+03  0.29446974969E+02  0.27411010049E+03  0.62942275632E+03  0.10566000000E+00 0. -1.
          2    1    1    2  502    0  0.30016544773E+03 -0.59828532408E+03 -0.82160919735E+02  0.67438493589E+03  0.00000000000E+00 0. -1.
         -4    1    3    3    0  502  0.31104247495E+03  0.86663140980E+02  0.81226752951E+03  0.87409179194E+03  0.00000000000E+00 0. -1.
</event>
<event>
 7    1  0.5696597E-006  0.1214738E+04  0.7818608E-02  0.8737120E-01
          4   -1    0    0  501    0 -0.00000000000E+00  0.00000000000E+00  0.28383262087E+04  0.28383262087E+04  0.00000000000E+00 0.  1.
          2   -1    0    0  502    0  0.00000000000E+00 -0.00000000000E+00 -0.15646185851E+04  0.15646185851E+04  0.00000000000E+00 0. -1.
    9000010    2    1    2  502    0 -0.62145830870E+03 -0.24564904607E+03  0.23829637449E+04  0.26780356481E+04  0.10231348102E+04 0.  0.
        -13    1    3    3    0    0 -0.86281787084E+03 -0.35093600209E+03  0.15929399449E+04  0.18452827521E+04  0.10566000000E+00 0.  1.
         13    1    1    2    0    0  0.58224138878E+03  0.22945354252E+03 -0.11087176090E+02  0.62592084134E+03  0.10566000000E+00 0. -1.
          2    1    1    2  501    0  0.39216919918E+02  0.16195503551E+02 -0.10981689451E+04  0.10989883044E+04  0.00000000000E+00 0. -1.
          4    1    3    3  502    0  0.24135956215E+03  0.10528695602E+03  0.79002379994E+03  0.83275289602E+03  0.00000000000E+00 0.  1.
</event>
<event>
 7    1  0.5696597E-006  0.1336857E+04  0.7818608E-02  0.8600162E-01
         -4   -1    0    0    0  501 -0.00000000000E+00  0.00000000000E+00  0.19291484165E+04  0.19291484165E+04  0.00000000000E+00 0. -1.
          1   -1    0    0  501    0  0.00000000000E+00 -0.00000000000E+00 -0.10600359414E+04  0.10600359414E+04  0.00000000000E+00 0. -1.
   -9000010    2    1    2    0  502  0.81690225200E+03  0.51570665691E+03 -0.22366757987E+03  0.14047412787E+04  0.99498152165E+03 0.  0.
        -13    1    1    2    0    0 -0.67935316018E+03 -0.56009776687E+03  0.11325484581E+04  0.14345369447E+04  0.10566000000E+00 0.  1.
         13    1    3    3    0    0  0.88285122552E+03  0.12220118591E+03  0.91961437374E+02  0.89600018603E+03  0.10566000000E+00 0. -1.
          1    1    1    2  502    0 -0.13754909182E+03  0.44391109965E+02 -0.39768403104E+02  0.14990613460E+03  0.00000000000E+00 0. -1.
         -4    1    3    3    0  502 -0.65948973524E+02  0.39350547099E+03 -0.31562901724E+03  0.50874109264E+03  0.00000000000E+00 0. -1.
</event>
<event>
 7    1  0.5696597E-006  0.9588087E+03  0.7818608E-02  0.9201143E-01
          4   -1    0    0  501    0 -0.00000000000E+00  0.00000000000E+00  0.14114277025E+04  0.14114277025E+04  0.00000000000E+00 0.  1.
          2   -1    0    0  502    0  0.00000000000E+00 -0.00000000000E+00 -0.16010408356E+04  0.16010408356E+04  0.00000000000E+00 0. -1.
    9000010    2    1    2  502    0  0.15399890987E+03 -0.18323659725E+03  0.92059178035E+03  0.13355918176E+04  0.93756331112E+03 0.  0.
        -13    1    3    3    0    0 -0.11035559348E+03 -0.34192379299E+03 -0.56962856761E+01  0.35933646636E+03  0.10566000000E+00 0.  1.
         13    1    1    2    0    0 -0.70958079259E+02  0.18284884562E+03  0.24797243283E+03  0.31616307179E+03  0.10566000000E+00 0. -1.
          2    1    1    2  501    0 -0.83040830609E+02  0.38775163253E+00 -0.13581773463E+04  0.13607136488E+04  0.00000000000E+00 0. -1.
          4    1    3    3  502    0  0.26435450334E+03  0.15868719574E+03  0.92628806603E+03  0.97625535123E+03  0.00000000000E+00 0.  1.
</event>
<event>
 7    1  0.5696597E-006  0.1167129E+04  0.7818608E-02  0.8788664E-01
          2   -1    0    0  501    0  0.00000000000E+00  0.00000000000E+00  0.26363974661E+04  0.26363974661E+04  0.00000000000E+00 0. -1.
         -4   -1    0    0    0  501 -0.00000000000E+00 -0.00000000000E+00 -0.31706257870E+03  0.31706257870E+03  0.00000000000E+00 0. -1.
   -9000010    2    1    2    0  502 -0.57889777109E+03  0.16419798924E+03  0.13163823567E+04  0.17624177596E+04  0.10055696104E+04 0.  0.
        -13    1    1    2    0    0  0.56235444945E+03 -0.16814852773E+03  0.82618570859E+03  0.10134590719E+04  0.10566000000E+00 0.  1.
         13    1    3    3    0    0 -0.38938441936E+03 -0.15053131987E+03  0.23255037505E+02  0.41811566849E+03  0.10566000000E+00 0. -1.
          2    1    1    2  502    0  0.16543321641E+02  0.39505384912E+01  0.17676682206E+03  0.17758321325E+03  0.00000000000E+00 0. -1.
         -4    1    3    3    0  502 -0.18951335173E+03  0.31472930911E+03  0.12931273192E+04  0.13443020911E+04  0.00000000000E+00 0. -1.
</event>
<event>
 7    1  0.5696597E-006  0.1033733E+04  0.7818608E-02  0.9042880E-01
          4   -1    0    0  501    0 -0.00000000000E+00  0.00000000000E+00  0.18981058558E+04  0.18981058558E+04  0.00000000000E+00 0.  1.
          2   -1    0    0  502    0  0.00000000000E+00 -0.00000000000E+00 -0.74126400238E+03  0.74126400238E+03  0.00000000000E+00 0.  1.
    9000010    2    1    2  502    0 -0.28160510086E+03  0.10508476778E+03  0.15553779819E+04  0.18678518093E+04  0.98960874786E+03 0.  0.
        -13    1    3    3    0    0 -0.52154571640E+03  0.75667409361E+02  0.15376622672E+04  0.16254663178E+04  0.10566000000E+00 0.  1.
         13    1    1    2    0    0  0.27402834005E+03 -0.11598828009E+03  0.67637696695E+02  0.30515517601E+03  0.10566000000E+00 0. -1.
          2    1    1    2  501    0  0.75767608144E+01  0.10903512309E+02 -0.46617382516E+03  0.46636287283E+03  0.00000000000E+00 0.  1.
          4    1    3    3  502    0  0.23994061554E+03  0.29417358417E+02  0.17715714678E+02  0.24238549154E+03  0.00000000000E+00 0.  1.
</event>
<event>
 7    1  0.5696597E-006  0.1300500E+04  0.7818608E-02  0.8610237E-01
         -4   -1    0    0    0  501 -0.00000000000E+00  0.00000000000E+00  0.24493060318E+04  0.24493060318E+04  0.00000000000E+00 0. -1.
          2   -1    0    0  501    0  0.00000000000E+00 -0.00000000000E+00 -0.99601913448E+03  0.99601913448E+03  0.00000000000E+00 0. -1.
   -9000010    2    1    2    0  502 -0.44077903460E+03 -0.74558172681E+03  0.35089377335E+03  0.13054796686E+04  0.91157690645E+03 0.  0.
        -13    1    1    2    0    0  0.51127962366E+03  0.79530023800E+03  0.14779581053E+04  0.17544997846E+04  0.10566000000E+00 0.  1.
         13    1    3    3    0    0 -0.51979163743E+03 -0.87387643259E+03  0.46343610593E+03  0.11174150533E+04  0.10566000000E+00 0. -1.
          2    1    1    2  502    0 -0.70500589058E+02 -0.49718511192E+02 -0.37556498127E+03  0.38534571305E+03  0.00000000000E+00 0. -1.
         -4    1    3    3    0  502  0.79012602835E+02  0.12829470579E+03 -0.11254233258E+03  0.18806461539E+03  0.00000000000E+00 0. -1.
</event>
<event>
 7    1  0.5696597E-006  0.1275035E+04  0.7818608E-02  0.8981513E-01
          2   -1    0    0  501    0  0.00000000000E+00  0.00000000000E+00  0.67609739382E+03  0.67609739382E+03  0.00000000000E+00 0. -1.
         -4   -1    0    0    0  501 -0.00000000000E+00 -0.00000000000E+00 -0.10480991204E+04  0.10480991204E+04  0.00000000000E+00 0. -1.
   -9000010    2    1    2    0  502 -0.22079818442E+03 -0.12190776885E+02 -0.49401207157E+03  0.13700577713E+04  0.12586142842E+04 0.  0.
        -13    1    1    2    0    0  0.20004342723E+03  0.14394359515E+02 -0.28157333797E+02  0.20252757090E+03  0.10566000000E+00 0.  1.
         13    1    3    3    0    0 -0.30534404528E+03 -0.49666657777E+03 -0.63142438692E+03  0.85942390182E+03  0.10566000000E+00 0. -1.
          2    1    1    2  502    0  0.20754757192E+02 -0.22035826300E+01  0.15016767880E+03  0.15161117202E+03  0.00000000000E+00 0. -1.
         -4    1    3    3    0  502  0.84545860853E+02  0.48447580088E+03  0.13741231535E+03  0.51063386946E+03  0.00000000000E+00 0. -1.
</event>
<event>
 7    1  0.5696597E-006  0.1140339E+04  0.7818608E-02  0.8818077E-01
          4   -1    0    0  501    0 -0.00000000000E+00  0.00000000000E+00  0.83935482698E+03  0.83935482698E+03  0.00000000000E+00 0.  1.
          2   -1    0    0  502    0  0.00000000000E+00 -0.00000000000E+00 -0.35791845658E+04  0.35791845658E+04  0.00000000000E+00 0.  1.
    9000010    2    1    2  502    0  0.59335843923E+02  0.38538823739E+03 -0.20835895768E+04  0.23407603377E+04  0.99285880051E+03 0.  0.
        -13    1    3    3    0    0  0.45321678035E+03  0.47128147841E+03 -0.11313409947E+04  0.13066920599E+04  0.10566000000E+00 0.  1.
         13    1    1    2    0    0  0.83175550480E+02 -0.56466985939E+03  0.58398598545E+03  0.81658426673E+03  0.10566000000E+00 0. -1.
          2    1    1    2  501    0 -0.14251139440E+03  0.17928162200E+03 -0.12402261475E+04  0.12611947884E+04  0.00000000000E+00 0.  1.
          4    1    3    3  502    0 -0.39388093643E+03 -0.85893241022E+02 -0.95224858215E+03  0.10340682778E+04  0.00000000000E+00 0.  1.
</event>
<event>
 7    1  0.5696597E-006  0.1134013E+04  0.7818608E-02  0.8836460E-01
          4   -1    0    0  501    0 -0.00000000000E+00  0.00000000000E+00  0.33807121253E+04  0.33807121253E+04  0.00000000000E+00 0.  1.
          2   -1    0    0  502    0  0.00000000000E+00 -0.00000000000E+00 -0.37894941066E+03  0.37894941066E+03  0.00000000000E+00 0.  1.
    9000010    2    1    2  502    0 -0.50802631615E+03 -0.17998338705E+03  0.81864574871E+03  0.14028518675E+04  0.10036571839E+04 0.  0.
        -13    1    3    3    0    0  0.47372721305E+02 -0.13625146023E+03 -0.19716229921E+03  0.24429821640E+03  0.10566000000E+00 0.  1.
         13    1    1    2    0    0  0.49465905011E+03  0.18096950040E+03  0.22385992396E+04  0.22997313109E+04  0.10566000000E+00 0. -1.
          2    1    1    2  501    0  0.13367266044E+02 -0.98611335196E+00 -0.55482273597E+02  0.57078357584E+02  0.00000000000E+00 0.  1.
          4    1    3    3  502    0 -0.55539903746E+03 -0.43731926817E+02  0.10158080479E+04  0.11585536511E+04  0.00000000000E+00 0.  1.
</event>
<event>
 7    1  0.5696597E-006  0.1002136E+04  0.7818608E-02  0.9322729E-01
          4   -1    0    0  501    0 -0.00000000000E+00  0.00000000000E+00  0.29522510784E+03  0.29522510784E+03  0.00000000000E+00 0.  1.
          2   -1    0    0  502    0  0.00000000000E+00 -0.00000000000E+00 -0.24630440028E+04  0.24630440028E+04  0.00000000000E+00 0.  1.
    9000010    2    1    2  502    0  0.71030203851E+02 -0.91113512151E+02 -0.13303050279E+04  0.16658736349E+04  0.99603039020E+03 0.  0.
        -13    1    3    3    0    0  0.33157008198E+03 -0.43204815425E+03 -0.93713540688E+03  0.10838944178E+04  0.10566000000E+00 0.  1.
         13    1    1    2    0    0 -0.55883217913E+02  0.95202160535E+02  0.10345714415E+03  0.15129367883E+03  0.10566000000E+00 0. -1.
          2    1    1    2  501    0 -0.15146985938E+02 -0.40886483839E+01 -0.94097101119E+03  0.94110179690E+03  0.00000000000E+00 0.  1.
          4    1    3    3  502    0 -0.26053987813E+03  0.34093464210E+03 -0.39316962100E+03  0.58197921712E+03  0.00000000000E+00 0.  1.
</event>
<event>
 7    1  0.5696597E-006  0.1005477E+04  0.7818608E-02  0.9505090E-01
          4   -1    0    0  501    0 -0.00000000000E+00  0.00000000000E+00  0.58677601122E+03  0.58677601122E+03  0.00000000000E+00 0.  1.
          2   -1    0    0  502    0  0.00000000000E+00 -0.00000000000E+00 -0.88751148325E+03  0.88751148325E+03  0.00000000000E+00 0.  1.
    9000010    2    1    2  502    0 -0.62423513903E+02 -0.29995249167E+01  0.14534279229E+03  0.10163218674E+04  0.10039322281E+04 0.  0.
        -13    1    3    3    0    0  0.32469461709E+03 -0.47367055381E+02 -0.28583233408E+03  0.43516705605E+03  0.10566000000E+00 0.  1.
         13    1    1    2    0    0  0.53317857292E+02  0.74382487261E+01 -0.11765710548E+03  0.12938828032E+03  0.10566000000E+00 0. -1.
          2    1    1    2  501    0  0.91056566116E+01 -0.44387238093E+01 -0.32842115884E+03  0.32857734679E+03  0.00000000000E+00 0.  1.
          4    1    3    3  502    0 -0.38711813099E+03  0.44367530464E+02  0.43117512637E+03  0.58115481131E+03  0.00000000000E+00 0.  1.
</event>
<event>
 7    1  0.5696597E-006  0.1439034E+04  0.7818608E-02  0.8745045E-01
          2   -1    0    0  502    0  0.00000000000E+00  0.00000000000E+00  0.29713116107E+04  0.29713116107E+04  0.00000000000E+00 0.  1.
          4   -1    0    0  501    0 -0.00000000000E+00 -0.00000000000E+00 -0.19259143401E+04  0.19259143401E+04  0.00000000000E+00 0.  1.
    9000010    2    1    2  502    0 -0.41162332147E+03 -0.58727993281E+03 -0.94584041717E+03  0.15890425308E+04  0.10564613535E+04 0.  0.
        -13    1    3    3    0    0  0.32272834014E+03 -0.39136269479E+03 -0.47525085758E+03  0.69511274567E+03  0.10566000000E+00 0.  1.
         13    1    1    2    0    0 -0.38004653189E+03 -0.22456349830E+02 -0.49742771719E+03  0.62639763652E+03  0.10566000000E+00 0. -1.
          2    1    1    2  501    0  0.79166985336E+03  0.60973628264E+03  0.24886654049E+04  0.26817857835E+04  0.00000000000E+00 0.  1.
          4    1    3    3  502    0 -0.73435166161E+03 -0.19591723802E+03 -0.47058955960E+03  0.89392978509E+03  0.00000000000E+00 0.  1.
</event>
<event>
 7    1  0.5696597E-006  0.1092137E+04  0.7818608E-02  0.8885432E-01
          2   -1    0    0  501    0  0.00000000000E+00  0.00000000000E+00  0.87758020508E+03  0.87758020508E+03  0.00000000000E+00 0. -1.
         -4   -1    0    0    0  501 -0.00000000000E+00 -0.00000000000E+00 -0.19810951635E+04  0.19810951635E+04  0.00000000000E+00 0. -1.
   -9000010    2    1    2    0  502 -0.27316529806E+03 -0.17892465874E+03 -0.42976172167E+03  0.11189727804E+04  0.98018958996E+03 0.  0.
        -13    1    1    2    0    0  0.41137577743E+03  0.29445737213E+03 -0.11360216050E+04  0.12435755998E+04  0.10566000000E+00 0.  1.
         13    1    3    3    0    0  0.13535599820E+02  0.39219231842E+03 -0.19470982794E+03  0.43807528503E+03  0.10566000000E+00 0. -1.
          2    1    1    2  502    0 -0.13821047937E+03 -0.11553271340E+03  0.46226836816E+03  0.49612698846E+03  0.00000000000E+00 0. -1.
         -4    1    3    3    0  502 -0.28670089788E+03 -0.57111697716E+03 -0.23505189373E+03  0.68089749536E+03  0.00000000000E+00 0. -1.
</event>
<event>
 7    1  0.5696597E-006  0.1031701E+04  0.7818608E-02  0.9160520E-01
          2   -1    0    0  502    0  0.00000000000E+00  0.00000000000E+00  0.15426756376E+04  0.15426756376E+04  0.00000000000E+00 0.  1.
          4   -1    0    0  501    0 -0.00000000000E+00 -0.00000000000E+00 -0.39177935713E+03  0.39177935713E+03  0.00000000000E+00 0.  1.
    9000010    2    1    2  502    0  0.11983397498E+03  0.21634491763E+03  0.96088798084E+03  0.14188982641E+04  0.10142984113E+04 0.  0.
        -13    1    3    3    0    0  0.49047575371E+03  0.30357699127E+02  0.86254322884E+03  0.99270785615E+03  0.10566000000E+00 0.  1.
         13    1    1    2    0    0 -0.18036432707E+03 -0.56498186296E+02 -0.72393499283E+02  0.20239606082E+03  0.10566000000E+00 0. -1.
          2    1    1    2  501    0  0.60530352084E+02 -0.15984673133E+03  0.26240179886E+03  0.31316066976E+03  0.00000000000E+00 0.  1.
          4    1    3    3  502    0 -0.37064177873E+03  0.18598721850E+03  0.98344752002E+02  0.42619040795E+03  0.00000000000E+00 0.  1.
</event>
<event>
 7    1  0.5696597E-006  0.1060985E+04  0.7818608E-02  0.9025854E-01
         -2   -1    0    0    0  501  0.00000000000E+00  0.00000000000E+00  0.89243897359E+03  0.89243897359E+03  0.00000000000E+00 0.  1.
         -4   -1    0    0    0  502 -0.00000000000E+00 -0.00000000000E+00 -0.19171522711E+04  0.19171522711E+04  0.00000000000E+00 0. -1.
   -9000010    2    1    2    0  501  0.17835375075E+03 -0.24666691211E+03 -0.14268087908E+04  0.17794845632E+04  0.10188853514E+04 0.  0.
        -13    1    1    2    0    0 -0.15663567171E+03  0.24735758578E+03 -0.24553615307E+03  0.38211061556E+03  0.10566000000E+00 0.  1.
         13    1    3    3    0    0  0.16871605889E+03  0.29891126695E+03 -0.12047711222E+03  0.36376888236E+03  0.10566000000E+00 0. -1.
         -2    1    1    2    0  502 -0.21718079037E+02 -0.69067366894E+00  0.64763164639E+03  0.64799606588E+03  0.00000000000E+00 0.  1.
         -4    1    3    3    0  501  0.96376918610E+01 -0.54557817906E+03 -0.13063316786E+04  0.14157156809E+04  0.00000000000E+00 0. -1.
</event>
<event>
 7    1  0.5696597E-006  0.1049748E+04  0.7818608E-02  0.9100998E-01
          4   -1    0    0  501    0 -0.00000000000E+00  0.00000000000E+00  0.60772769205E+03  0.60772769205E+03  0.00000000000E+00 0.  1.
          2   -1    0    0  502    0  0.00000000000E+00 -0.00000000000E+00 -0.16295917639E+04  0.16295917639E+04  0.00000000000E+00 0.  1.
    9000010    2    1    2  502    0 -0.21152478872E+03 -0.13796753338E+03 -0.78698280131E+02  0.10586298364E+04  0.10250492352E+04 0.  0.
        -13    1    3    3    0    0  0.34851334335E+03 -0.30528975664E+03 -0.99005443059E+02  0.47377787509E+03  0.10566000000E+00 0.  1.
         13    1    1    2    0    0  0.12277918839E+03  0.18824098068E+03  0.52507745156E+01  0.22480430981E+03  0.10566000000E+00 0. -1.
          2    1    1    2  501    0  0.88745600325E+02 -0.50273447298E+02 -0.94841656628E+03  0.95388530981E+03  0.00000000000E+00 0.  1.
          4    1    3    3  502    0 -0.56003813207E+03  0.16732222326E+03  0.20307162928E+02  0.58485196129E+03  0.00000000000E+00 0.  1.
</event>
<event>
 7    1  0.5696597E-006  0.1070165E+04  0.7818608E-02  0.8965845E-01
         -4   -1    0    0    0  501 -0.00000000000E+00  0.00000000000E+00  0.82462701572E+03  0.82462701572E+03  0.00000000000E+00 0. -1.
          4   -1    0    0  501    0  0.00000000000E+00 -0.00000000000E+00 -0.21261958915E+04  0.21261958915E+04  0.00000000000E+00 0. -1.
   -9000010    2    1    2    0  502 -0.15605638821E+03 -0.31110680130E+03 -0.38174126013E+03  0.11300104264E+04  0.10050154904E+04 0.  0.
        -13    1    1    2    0    0  0.16716989724E+03  0.32970417535E+03  0.37455248918E+03  0.52625107705E+03  0.10566000000E+00 0.  1.
         13    1    3    3    0    0  0.10513220153E+03 -0.27688374316E+03 -0.67421384232E+03  0.73639778881E+03  0.10566000000E+00 0. -1.
          4    1    1    2  502    0 -0.11113509031E+02 -0.18597374047E+02 -0.12943801048E+04  0.12945614038E+04  0.00000000000E+00 0. -1.
         -4    1    3    3    0  502 -0.26118858974E+03 -0.34223058140E+02  0.29247258219E+03  0.39361263757E+03  0.00000000000E+00 0. -1.
</event>
<event>
 7    1  0.5696597E-006  0.1054539E+04  0.7818608E-02  0.9386021E-01
         -4   -1    0    0    0  501 -0.00000000000E+00  0.00000000000E+00  0.52614474966E+03  0.52614474966E+03  0.00000000000E+00 0. -1.
          2   -1    0    0  501    0  0.00000000000E+00 -0.00000000000E+00 -0.15687192782E+04  0.15687192782E+04  0.00000000000E+00 0. -1.
   -9000010    2    1    2    0  502 -0.26717004061E+03 -0.10440205632E+03 -0.16980953708E+03  0.10571096526E+04  0.10031779098E+04 0.  0.
        -13    1    1    2    0    0 -0.56143523175E+02  0.49412375709E+02  0.27443709898E+02  0.79667097629E+02  0.10566000000E+00 0.  1.
         13    1    3    3    0    0 -0.57185174878E+03  0.12350222027E+02 -0.36345137772E+03  0.67769009561E+03  0.10566000000E+00 0. -1.
          2    1    1    2  502    0  0.32331356379E+03  0.54989680612E+02 -0.90020870133E+03  0.95808727757E+03  0.00000000000E+00 0. -1.
         -4    1    3    3    0  502  0.30468170817E+03 -0.11675227835E+03  0.19364184064E+03  0.37941955700E+03  0.00000000000E+00 0. -1.
</event>
<event>
 7    1  0.5696597E-006  0.1025395E+04  0.7818608E-02  0.9170504E-01
          4   -1    0    0  501    0 -0.00000000000E+00  0.00000000000E+00  0.12397574273E+04  0.12397574273E+04  0.00000000000E+00 0.  1.
          2   -1    0    0  502    0  0.00000000000E+00 -0.00000000000E+00 -0.97434708852E+03  0.97434708852E+03  0.00000000000E+00 0.  1.
    9000010    2    1    2  502    0  0.24517048165E+03  0.98859945021E+02 -0.22228654710E+03  0.10646579541E+04  0.10070766586E+04 0.  0.
        -13    1    3    3    0    0 -0.71083744688E+02 -0.42147461846E+03 -0.41260750887E+02  0.42941380217E+03  0.10566000000E+00 0.  1.
         13    1    1    2    0    0 -0.16771441128E+03  0.77734195767E+02  0.77870595278E+03  0.80034598831E+03  0.10566000000E+00 0. -1.
          2    1    1    2  501    0 -0.77456070370E+02 -0.17659414079E+03 -0.29100906687E+03  0.34910057347E+03  0.00000000000E+00 0.  1.
          4    1    3    3  502    0  0.31625422634E+03  0.52033456348E+03 -0.18102579621E+03  0.63524415190E+03  0.00000000000E+00 0.  1.
</event>
<event>
 7    1  0.5696597E-006  0.1790930E+04  0.7818608E-02  0.8697534E-01
         -4   -1    0    0    0  501 -0.00000000000E+00  0.00000000000E+00  0.44955126367E+04  0.44955126367E+04  0.00000000000E+00 0. -1.
          2   -1    0    0  501    0  0.00000000000E+00 -0.00000000000E+00 -0.19473664328E+04  0.19473664328E+04  0.00000000000E+00 0. -1.
   -9000010    2    1    2    0  502 -0.10844662133E+04 -0.10490470283E+04  0.32054029999E+04  0.36911139029E+04  0.10359279979E+04 0.  0.
        -13    1    1    2    0    0  0.21128028095E+03 -0.11874329263E+03  0.71162169127E+03  0.75176111186E+03  0.10566000000E+00 0.  1.
         13    1    3    3    0    0 -0.66335360220E+03 -0.11674639231E+04  0.20014033107E+04  0.24101089677E+04  0.10566000000E+00 0. -1.
          2    1    1    2  502    0  0.87318593232E+03  0.11677903209E+04 -0.13688784873E+04  0.20000040548E+04  0.00000000000E+00 0. -1.
         -4    1    3    3    0  502 -0.42111261106E+03  0.11841689477E+03  0.12039996892E+04  0.12810049351E+04  0.00000000000E+00 0. -1.
</event>
<event>
 7    1  0.5696597E-006  0.1042545E+04  0.7818608E-02  0.9036969E-01
          2   -1    0    0  501    0  0.00000000000E+00  0.00000000000E+00  0.84658604765E+03  0.84658604765E+03  0.00000000000E+00 0. -1.
         -4   -1    0    0    0  501 -0.00000000000E+00 -0.00000000000E+00 -0.20549453997E+04  0.20549453997E+04  0.00000000000E+00 0. -1.
   -9000010    2    1    2    0  502 -0.19021982953E+03 -0.23550898533E+03 -0.83151802943E+03  0.13345431192E+04  0.99896698545E+03 0.  0.
        -13    1    1    2    0    0  0.19982448536E+03  0.22094350064E+03 -0.94895113146E+03  0.99461254591E+03  0.10566000000E+00 0.  1.
         13    1    3    3    0    0 -0.62107929903E+02  0.36535139813E+03 -0.53895601183E+03  0.65407387421E+03  0.10566000000E+00 0. -1.
          2    1    1    2  502    0 -0.96046558268E+01  0.14565484691E+02  0.57210980882E+03  0.57237578225E+03  0.00000000000E+00 0. -1.
         -4    1    3    3    0  502 -0.12811189963E+03 -0.60086038346E+03 -0.29256201761E+03  0.68046924499E+03  0.00000000000E+00 0. -1.
</event>
<event>
 7    1  0.5696597E-006  0.1052068E+04  0.7818608E-02  0.8983381E-01
          1   -1    0    0  501    0  0.00000000000E+00  0.00000000000E+00  0.56504349802E+03  0.56504349802E+03  0.00000000000E+00 0. -1.
         -4   -1    0    0    0  501 -0.00000000000E+00 -0.00000000000E+00 -0.96599755863E+03  0.96599755863E+03  0.00000000000E+00 0. -1.
   -9000010    2    1    2    0  502  0.33286043450E+03 -0.82143775640E+02 -0.38378384530E+03  0.11143778033E+04  0.98843521784E+03 0.  0.
        -13    1    1    2    0    0 -0.35894962844E+03  0.81019395201E+02 -0.53577145697E+02  0.37185951630E+03  0.10566000000E+00 0.  1.
         13    1    3    3    0    0  0.47661011431E+03  0.56808113453E+02  0.18275340243E+03  0.51359826721E+03  0.10566000000E+00 0. -1.
          1    1    1    2  502    0  0.26089193948E+02  0.11243804395E+01  0.36406930385E+02  0.44803737035E+02  0.00000000000E+00 0. -1.
         -4    1    3    3    0  502 -0.14374967981E+03 -0.13895188909E+03 -0.56653724773E+03  0.60077953610E+03  0.00000000000E+00 0. -1.
</event>
<event>
 7    1  0.5696597E-006  0.1019039E+04  0.7818608E-02  0.9156799E-01
         -4   -1    0    0    0  501 -0.00000000000E+00  0.00000000000E+00  0.12434521648E+04  0.12434521648E+04  0.00000000000E+00 0. -1.
          2   -1    0    0  501    0  0.00000000000E+00 -0.00000000000E+00 -0.12667491381E+04  0.12667491381E+04  0.00000000000E+00 0. -1.
   -9000010    2    1    2    0  502 -0.15577259041E+03  0.11379529078E+03  0.98788806894E+03  0.14184857750E+04  0.99948216042E+03 0.  0.
        -13    1    1    2    0    0  0.16652078270E+03 -0.12084276828E+03 -0.22296268520E+03  0.30338839113E+03  0.10566000000E+00 0.  1.
         13    1    3    3    0    0 -0.41626889502E+03  0.39780526153E+03  0.35178003778E+03  0.67474293268E+03  0.10566000000E+00 0. -1.
          2    1    1    2  502    0 -0.10748192286E+02  0.70474775011E+01 -0.78822235699E+03  0.78832713681E+03  0.00000000000E+00 0. -1.
         -4    1    3    3    0  502  0.26049630461E+03 -0.28400997075E+03  0.63610803116E+03  0.74374284232E+03  0.00000000000E+00 0. -1.
</event>
<event>
 7    1  0.5696597E-006  0.1025776E+04  0.7818608E-02  0.9124068E-01
          4   -1    0    0  501    0 -0.00000000000E+00  0.00000000000E+00  0.45285913782E+03  0.45285913782E+03  0.00000000000E+00 0.  1.
          2   -1    0    0  502    0  0.00000000000E+00 -0.00000000000E+00 -0.16439323396E+04  0.16439323396E+04  0.00000000000E+00 0.  1.
    9000010    2    1    2  502    0  0.73342963159E+02 -0.30466890815E+03 -0.60761456142E+03  0.12117959257E+04  0.10005256501E+04 0.  0.
        -13    1    3    3    0    0  0.36492039260E+03 -0.42558259242E+03 -0.68660836933E+03  0.88640763755E+03  0.10566000000E+00 0.  1.
         13    1    1    2    0    0  0.11939567425E+03  0.18656387255E+03  0.37068365960E+02  0.22457845063E+03  0.10566000000E+00 0. -1.
          2    1    1    2  501    0 -0.19273863741E+03  0.11810503560E+03 -0.62052700629E+03  0.66041710102E+03  0.00000000000E+00 0.  1.
          4    1    3    3  502    0 -0.29157742944E+03  0.12091368428E+03  0.78993807904E+02  0.32538828819E+03  0.00000000000E+00 0.  1.
</event>
<event>
 7    1  0.5696597E-006  0.1012692E+04  0.7818608E-02  0.9341417E-01
          1   -1    0    0  501    0  0.00000000000E+00  0.00000000000E+00  0.10417154944E+04  0.10417154944E+04  0.00000000000E+00 0. -1.
         -4   -1    0    0    0  501 -0.00000000000E+00 -0.00000000000E+00 -0.69866423894E+03  0.69866423894E+03  0.00000000000E+00 0. -1.
   -9000010    2    1    2    0  502 -0.11579364729E+03  0.13967062141E+02 -0.42330113782E+02  0.10153748677E+04  0.10077653674E+04 0.  0.
        -13    1    1    2    0    0  0.98100378008E+02 -0.15185607409E+02 -0.15514619473E+03  0.18418642659E+03  0.10566000000E+00 0.  1.
         13    1    3    3    0    0  0.14432968867E+03 -0.45451457818E+03  0.98909084213E+01  0.47698260141E+03  0.10566000000E+00 0. -1.
          1    1    1    2  502    0  0.17693269281E+02  0.12185452676E+01  0.54052756398E+03  0.54081843908E+03  0.00000000000E+00 0. -1.
         -4    1    3    3    0  502 -0.26012333596E+03  0.46848164032E+03 -0.52221022203E+02  0.53839226628E+03  0.00000000000E+00 0. -1.
</event>
<event>
 7    1  0.5696597E-006  0.1107257E+04  0.7818608E-02  0.8879963E-01
         -2   -1    0    0    0  501  0.00000000000E+00  0.00000000000E+00  0.55673980466E+03  0.55673980466E+03  0.00000000000E+00 0. -1.
         -4   -1    0    0    0  502 -0.00000000000E+00 -0.00000000000E+00 -0.11804776200E+04  0.11804776200E+04  0.00000000000E+00 0. -1.
   -9000010    2    1    2    0  501 -0.30210060077E+03  0.37679487209E+03 -0.43792540968E+03  0.11947712217E+04  0.10012294737E+04 0.  0.
        -13    1    1    2    0    0  0.30206643425E+03 -0.35848849036E+03 -0.20869741357E+03  0.51314008810E+03  0.10566000000E+00 0.  1.
         13    1    3    3    0    0 -0.47748002827E+02  0.56808493057E+03 -0.60837979592E+03  0.83374237470E+03  0.10566000000E+00 0. -1.
         -2    1    1    2    0  502  0.34166515896E-01 -0.18306381734E+02  0.22885007953E+02  0.29306114867E+02  0.00000000000E+00 0. -1.
         -4    1    3    3    0  501 -0.25435259794E+03 -0.19129005848E+03  0.17045438624E+03  0.36102884696E+03  0.00000000000E+00 0. -1.
</event>
<event>
 7    1  0.5696597E-006  0.1099273E+04  0.7818608E-02  0.9160680E-01
          4   -1    0    0  501    0  0.00000000000E+00  0.00000000000E+00  0.60210724786E+03  0.60210724786E+03  0.00000000000E+00 0.  1.
          4   -1    0    0  502    0 -0.00000000000E+00 -0.00000000000E+00 -0.13458636327E+04  0.13458636327E+04  0.00000000000E+00 0.  1.
    9000010    2    1    2  501    0 -0.34580983934E+03 -0.34874815141E+03 -0.73183771264E+03  0.13421907121E+04  0.10122646650E+04 0.  0.
        -13    1    3    3    0    0  0.32702869736E+03 -0.17322116186E+03 -0.47220801019E+03  0.59994479401E+03  0.10566000000E+00 0.  1.
         13    1    1    2    0    0 -0.27449932468E+02  0.15346113485E+03 -0.86017663588E+02  0.17805299300E+03  0.10566000000E+00 0. -1.
          4    1    3    3  501    0 -0.67283853670E+03 -0.17552698955E+03 -0.25962970245E+03  0.74224591809E+03  0.00000000000E+00 0.  1.
          4    1    1    2  502    0  0.37325977181E+03  0.19528701656E+03  0.74098991411E+02  0.42772717544E+03  0.00000000000E+00 0.  1.
</event>
<event>
 7    1  0.5696597E-006  0.1010993E+04  0.7818608E-02  0.9208775E-01
          2   -1    0    0  502    0  0.00000000000E+00  0.00000000000E+00  0.59654139439E+03  0.59654139439E+03  0.00000000000E+00 0.  1.
          4   -1    0    0  501    0 -0.00000000000E+00 -0.00000000000E+00 -0.18492434738E+04  0.18492434738E+04  0.00000000000E+00 0.  1.
    9000010    2    1    2  502    0 -0.72352218406E+02 -0.12315265673E+03 -0.11930053549E+04  0.15614531193E+04  0.99723249381E+03 0.  0.
        -13    1    3    3    0    0 -0.76128125615E+01  0.17622203039E+03  0.11990845604E+03  0.21328433581E+03  0.10566000000E+00 0.  1.
         13    1    1    2    0    0  0.72003040639E+02  0.15198956466E+03 -0.45649314005E+03  0.48648870871E+03  0.10566000000E+00 0. -1.
          2    1    1    2  501    0  0.34917776687E+00 -0.28836907931E+02  0.39679641555E+03  0.39784304013E+03  0.00000000000E+00 0.  1.
          4    1    3    3  502    0 -0.64739405844E+02 -0.29937468712E+03 -0.13129138109E+04  0.13481687835E+04  0.00000000000E+00 0.  1.
</event>
<event>
 7    1  0.5696597E-006  0.1072321E+04  0.7818608E-02  0.8959345E-01
          2   -1    0    0  501    0  0.00000000000E+00  0.00000000000E+00  0.12631654815E+04  0.12631654815E+04  0.00000000000E+00 0.  1.
         -4   -1    0    0    0  501 -0.00000000000E+00 -0.00000000000E+00 -0.10573413981E+04  0.10573413981E+04  0.00000000000E+00 0. -1.
   -9000010    2    1    2    0  502  0.20733739484E+03  0.30357511544E+03 -0.35539165099E+03  0.11271501767E+04  0.10044987055E+04 0.  0.
        -13    1    1    2    0    0 -0.22202177739E+03 -0.30541465961E+03 -0.20320431566E+03  0.42879341063E+03  0.10566000000E+00 0.  1.
         13    1    3    3    0    0  0.29686155493E+03  0.59502734719E+03 -0.45575804027E+03  0.80616358708E+03  0.10566000000E+00 0. -1.
          2    1    1    2  502    0  0.14684382546E+02  0.18395441677E+01  0.76442005002E+03  0.76456329227E+03  0.00000000000E+00 0.  1.
         -4    1    3    3    0  502 -0.89524160086E+02 -0.29145223175E+03  0.10036638928E+03  0.32098658964E+03  0.00000000000E+00 0. -1.
</event>
<event>
 7    1  0.5696597E-006  0.1069839E+04  0.7818608E-02  0.8950627E-01
          1   -1    0    0  501    0  0.00000000000E+00  0.00000000000E+00  0.93024991032E+03  0.93024991032E+03  0.00000000000E+00 0.  1.
         -4   -1    0    0    0  501 -0.00000000000E+00 -0.00000000000E+00 -0.11342529011E+04  0.11342529011E+04  0.00000000000E+00 0. -1.
   -9000010    2    1    2    0  502  0.59751543081E+02 -0.40424285578E+03 -0.74620210093E+03  0.13095717334E+04  0.99557923650E+03 0.  0.
        -13    1    1    2    0    0 -0.72037096675E+02  0.36495813098E+03  0.22432362024E+03  0.43440174773E+03  0.10566000000E+00 0.  1.
         13    1    3    3    0    0  0.29695030744E+03  0.21258182624E+03 -0.85475292971E+02  0.37506873345E+03  0.10566000000E+00 0. -1.
          1    1    1    2  502    0  0.12285553594E+02  0.39284724801E+02  0.31787548995E+03  0.32052933023E+03  0.00000000000E+00 0.  1.
         -4    1    3    3    0  502 -0.23719876436E+03 -0.61682468203E+03 -0.66072680795E+03  0.93450299995E+03  0.00000000000E+00 0. -1.
</event>
<event>
 7    1  0.5696597E-006  0.1105144E+04  0.7818608E-02  0.9264755E-01
          2   -1    0    0  502    0  0.00000000000E+00  0.00000000000E+00  0.19156594656E+04  0.19156594656E+04  0.00000000000E+00 0. -1.
          4   -1    0    0  501    0 -0.00000000000E+00 -0.00000000000E+00 -0.11661638735E+04  0.11661638735E+04  0.00000000000E+00 0.  1.
    9000010    2    1    2  502    0  0.37893440730E+03  0.71635206628E+02 -0.56164011256E+03  0.12221191785E+04  0.10145998140E+04 0.  0.
        -13    1    3    3    0    0  0.30192738868E+03 -0.16427783958E+03  0.21592033527E+03  0.40591742874E+03  0.10566000000E+00 0.  1.
         13    1    1    2    0    0  0.61129166864E+02 -0.82438444207E+02 -0.23270577535E+03  0.25433218666E+03  0.10566000000E+00 0. -1.
          2    1    1    2  501    0 -0.44006357416E+03  0.10803237579E+02  0.15438414801E+04  0.16053719740E+04  0.00000000000E+00 0. -1.
          4    1    3    3  502    0  0.77007018620E+02  0.23591304621E+03 -0.77756044783E+03  0.81620174976E+03  0.00000000000E+00 0.  1.
</event>
<event>
 7    1  0.5696597E-006  0.1180894E+04  0.7818608E-02  0.9149043E-01
          2   -1    0    0  502    0  0.00000000000E+00  0.00000000000E+00  0.12885430469E+04  0.12885430469E+04  0.00000000000E+00 0.  1.
          4   -1    0    0  501    0 -0.00000000000E+00 -0.00000000000E+00 -0.13143578510E+04  0.13143578510E+04  0.00000000000E+00 0.  1.
    9000010    2    1    2  502    0 -0.10817353607E+03 -0.47276167711E+02 -0.71860363032E+03  0.13811290415E+04  0.11735372605E+04 0.  0.
        -13    1    3    3    0    0  0.37793685521E+03  0.33218629415E+03 -0.54221753855E+03  0.73971877820E+03  0.10566000000E+00 0.  1.
         13    1    1    2    0    0  0.10802341148E+03  0.76568804966E+02 -0.24767789174E+03  0.28084904939E+03  0.10566000000E+00 0. -1.
          2    1    1    2  501    0  0.15012458649E+00 -0.29292637255E+02  0.94046671796E+03  0.94092280699E+03  0.00000000000E+00 0.  1.
          4    1    3    3  502    0 -0.48611039127E+03 -0.37946246186E+03 -0.17638609177E+03  0.64141026327E+03  0.00000000000E+00 0.  1.
</event>
<event>
 7    1  0.5696597E-006  0.1073537E+04  0.7818608E-02  0.8953422E-01
         -4   -1    0    0    0  501 -0.00000000000E+00  0.00000000000E+00  0.22650322831E+04  0.22650322831E+04  0.00000000000E+00 0. -1.
          2   -1    0    0  501    0  0.00000000000E+00 -0.00000000000E+00 -0.69131496100E+03  0.69131496100E+03  0.00000000000E+00 0.  1.
   -9000010    2    1    2    0  502 -0.24846553895E+03  0.12607325845E+03  0.94801927729E+03  0.14078403192E+04  0.10028181409E+04 0.  0.
        -13    1    1    2    0    0  0.39901105316E+03 -0.54385306437E+02  0.10328261461E+04  0.11085564673E+04  0.10566000000E+00 0.  1.
         13    1    3    3    0    0  0.37259671198E+03  0.17187777587E+03  0.46179353029E+03  0.61775687402E+03  0.10566000000E+00 0. -1.
          2    1    1    2  502    0 -0.15054551420E+03 -0.71687952013E+02 -0.40712810122E+03  0.43995045757E+03  0.00000000000E+00 0.  1.
         -4    1    3    3    0  502 -0.62106225093E+03 -0.45804517421E+02  0.48622574699E+03  0.79008344520E+03  0.00000000000E+00 0. -1.
</event>
<event>
 7    1  0.5696597E-006  0.1198684E+04  0.7818608E-02  0.8845528E-01
          1   -1    0    0  501    0  0.00000000000E+00  0.00000000000E+00  0.66331078252E+03  0.66331078252E+03  0.00000000000E+00 0. -1.
         -4   -1    0    0    0  501 -0.00000000000E+00 -0.00000000000E+00 -0.17167828087E+04  0.17167828087E+04  0.00000000000E+00 0. -1.
   -9000010    2    1    2    0  502  0.30227729285E+03  0.20842201029E+03 -0.28606576498E+03  0.12117524954E+04  0.11187936325E+04 0.  0.
        -13    1    1    2    0    0 -0.28476680362E+02 -0.46140811233E+03 -0.60579015648E+03  0.76203024369E+03  0.10566000000E+00 0.  1.
         13    1    3    3    0    0 -0.37710045512E+03  0.17050538258E+03 -0.33084654007E+03  0.52984552748E+03  0.10566000000E+00 0. -1.
          1    1    1    2  502    0 -0.27380061249E+03  0.25298610204E+03 -0.16161610469E+03  0.40631085209E+03  0.00000000000E+00 0. -1.
         -4    1    3    3    0  502  0.67937774798E+03  0.37916627705E+02  0.44780775089E+02  0.68190696794E+03  0.00000000000E+00 0. -1.
</event>
<event>
 7    1  0.5696597E-006  0.1011325E+04  0.7818608E-02  0.9093761E-01
          2   -1    0    0  501    0  0.00000000000E+00  0.00000000000E+00  0.90872763604E+03  0.90872763604E+03  0.00000000000E+00 0. -1.
         -4   -1    0    0    0  501 -0.00000000000E+00 -0.00000000000E+00 -0.13716506904E+04  0.13716506904E+04  0.00000000000E+00 0. -1.
   -9000010    2    1    2    0  502 -0.12255500474E+03 -0.23250276798E+03 -0.62575354103E+03  0.11897675339E+04  0.97719088421E+03 0.  0.
        -13    1    1    2    0    0  0.14277687581E+03  0.21773266287E+03 -0.42706866148E+03  0.50018036899E+03  0.10566000000E+00 0.  1.
         13    1    3    3    0    0 -0.18924166031E+03 -0.54968197013E+03 -0.64092100194E+03  0.86529903281E+03  0.10566000000E+00 0. -1.
          2    1    1    2  502    0 -0.20221871072E+02  0.14770105118E+02  0.58989914817E+03  0.59043042357E+03  0.00000000000E+00 0. -1.
         -4    1    3    3    0  502  0.66686655568E+02  0.31717920214E+03  0.15167460912E+02  0.32446850105E+03  0.00000000000E+00 0. -1.
</event>
<event>
 7    1  0.5696597E-006  0.1330853E+04  0.7818608E-02  0.8608832E-01
          2   -1    0    0  502    0  0.00000000000E+00  0.00000000000E+00  0.11241723004E+04  0.11241723004E+04  0.00000000000E+00 0. -1.
          4   -1    0    0  501    0 -0.00000000000E+00 -0.00000000000E+00 -0.18077235301E+04  0.18077235301E+04  0.00000000000E+00 0.  1.
    9000010    2    1    2  502    0 -0.25357130935E+03 -0.66619943620E+03  0.13905084048E+03  0.12410247425E+04  0.10063235948E+04 0.  0.
        -13    1    3    3    0    0 -0.31000462229E+03 -0.12773494082E+02 -0.31592719007E+03  0.44280472963E+03  0.10566000000E+00 0.  1.
         13    1    1    2    0    0  0.55230964050E+03  0.73396477098E+03 -0.98276008914E+03  0.13452017053E+04  0.10566000000E+00 0. -1.
          2    1    1    2  501    0 -0.29873833115E+03 -0.67765334782E+02  0.16015801902E+03  0.34566938272E+03  0.00000000000E+00 0. -1.
          4    1    3    3  502    0  0.56433312943E+02 -0.65342594212E+03  0.45497803055E+03  0.79822001286E+03  0.00000000000E+00 0.  1.
</event>
<event>
 7    1  0.5696597E-006  0.1130379E+04  0.7818608E-02  0.8848808E-01
         -4   -1    0    0    0  501 -0.00000000000E+00  0.00000000000E+00  0.10702672117E+04  0.10702672117E+04  0.00000000000E+00 0. -1.
          1   -1    0    0  501    0  0.00000000000E+00 -0.00000000000E+00 -0.13903605919E+04  0.13903605919E+04  0.00000000000E+00 0. -1.
   -9000010    2    1    2    0  502  0.20497076670E+03 -0.48344972869E+03  0.41890772721E+03  0.12136086568E+04  0.10107549815E+04 0.  0.
        -13    1    1    2    0    0 -0.13057710250E+03  0.47869579560E+03  0.80570688333E+01  0.49625091632E+03  0.10566000000E+00 0.  1.
         13    1    3    3    0    0  0.26105992531E+03 -0.13713982248E+03  0.70289622976E+03  0.76224847424E+03  0.10566000000E+00 0. -1.
          1    1    1    2  502    0 -0.74393664195E+02  0.47539330922E+01 -0.74705817629E+03  0.75076823049E+03  0.00000000000E+00 0. -1.
         -4    1    3    3    0  502 -0.56089158608E+02 -0.34630990621E+03 -0.28398850254E+03  0.45136018259E+03  0.00000000000E+00 0. -1.
</event>
<event>
 7    1  0.5696597E-006  0.1063934E+04  0.7818608E-02  0.8956147E-01
          4   -1    0    0  502    0  0.00000000000E+00  0.00000000000E+00  0.80568232120E+03  0.80568232120E+03  0.00000000000E+00 0.  1.
          4   -1    0    0  501    0 -0.00000000000E+00 -0.00000000000E+00 -0.24667101055E+04  0.24667101055E+04  0.00000000000E+00 0.  1.
    9000010    2    1    2  502    0 -0.47000527051E+03  0.47093442788E+03 -0.53518690965E+03  0.13074818527E+04  0.99015129006E+03 0.  0.
        -13    1    3    3    0    0 -0.28625874378E+03  0.65438840005E+03 -0.18103609759E+01  0.71426293134E+03  0.10566000000E+00 0.  1.
         13    1    1    2    0    0  0.35706904485E+03 -0.11789567537E+03 -0.14342478395E+04  0.14827220135E+04  0.10566000000E+00 0. -1.
          4    1    1    2  501    0  0.11293622566E+03 -0.35303875251E+03  0.30840696489E+03  0.48218856045E+03  0.00000000000E+00 0.  1.
          4    1    3    3  502    0 -0.18374652673E+03 -0.18345397217E+03 -0.53337654867E+03  0.59321892136E+03  0.00000000000E+00 0.  1.
</event>
<event>
 7    1  0.5696597E-006  0.1023592E+04  0.7818608E-02  0.9031559E-01
          4   -1    0    0  502    0  0.00000000000E+00  0.00000000000E+00  0.12948493774E+04  0.12948493774E+04  0.00000000000E+00 0.  1.
          4   -1    0    0  501    0 -0.00000000000E+00 -0.00000000000E+00 -0.67396005503E+03  0.67396005503E+03  0.00000000000E+00 0.  1.
    9000010    2    1    2  502    0 -0.21526833574E+03 -0.17489892460E+03  0.29345182208E+03  0.10017917788E+04  0.91681116154E+03 0.  0.
        -13    1    3    3    0    0 -0.43201701048E+02  0.36920424171E+03  0.29059506075E+02  0.37285737907E+03  0.10566000000E+00 0.  1.
         13    1    1    2    0    0  0.45265714971E+01 -0.32203219716E+03 -0.23941324173E+02  0.32295266530E+03  0.10566000000E+00 0. -1.
          4    1    1    2  501    0  0.21074176424E+03  0.49693112177E+03  0.35137882448E+03  0.64406498839E+03  0.00000000000E+00 0.  1.
          4    1    3    3  502    0 -0.17206663469E+03 -0.54410316631E+03  0.26439231601E+03  0.62893439970E+03  0.00000000000E+00 0.  1.
</event>
<event>
 7    1  0.5696597E-006  0.1046879E+04  0.7818608E-02  0.9088080E-01
          4   -1    0    0  501    0 -0.00000000000E+00  0.00000000000E+00  0.14086367907E+04  0.14086367907E+04  0.00000000000E+00 0.  1.
          2   -1    0    0  502    0  0.00000000000E+00 -0.00000000000E+00 -0.67982727649E+03  0.67982727649E+03  0.00000000000E+00 0.  1.
    9000010    2    1    2  502    0 -0.23475545578E+03 -0.61091110146E+01  0.87494269812E+03  0.13634215306E+04  0.10189436196E+04 0.  0.
        -13    1    3    3    0    0 -0.45928616224E+03 -0.97740910364E+02  0.98946308751E+03  0.10952325219E+04  0.10566000000E+00 0.  1.
         13    1    1    2    0    0  0.24093841340E+03  0.14335796835E+02  0.23905796851E+03  0.33971393494E+03  0.10566000000E+00 0. -1.
          2    1    1    2  501    0 -0.61829576217E+01 -0.82266858201E+01 -0.38519115243E+03  0.38532860163E+03  0.00000000000E+00 0.  1.
          4    1    3    3  502    0  0.22453070646E+03  0.91631799349E+02 -0.11452038939E+03  0.26818900869E+03  0.00000000000E+00 0.  1.
</event>
<event>
 7    1  0.5696597E-006  0.1443109E+04  0.7818608E-02  0.8689821E-01
          1   -1    0    0  501    0  0.00000000000E+00  0.00000000000E+00  0.43283633447E+04  0.43283633447E+04  0.00000000000E+00 0. -1.
         -4   -1    0    0    0  501 -0.00000000000E+00 -0.00000000000E+00 -0.81752425566E+03  0.81752425566E+03  0.00000000000E+00 0. -1.
   -9000010    2    1    2    0  502 -0.49899992612E+03 -0.67816115023E+03  0.44783997258E+03  0.13699120896E+04  0.98346073643E+03 0.  0.
        -13    1    1    2    0    0 -0.46409591197E+03  0.11852902188E+03 -0.38481042698E+02  0.48053610307E+03  0.10566000000E+00 0.  1.
         13    1    3    3    0    0 -0.14614929179E+03 -0.10503732017E+03 -0.30869557219E+03  0.35733096923E+03  0.10566000000E+00 0. -1.
          1    1    1    2  502    0  0.96309583809E+03  0.55963212835E+03  0.31014801592E+04  0.32954394077E+04  0.00000000000E+00 0. -1.
         -4    1    3    3    0  502 -0.35285063433E+03 -0.57312383006E+03  0.75653554477E+03  0.10125811203E+04  0.00000000000E+00 0. -1.
</event>
<event>
 7    1  0.5696597E-006  0.1023655E+04  0.7818608E-02  0.9190505E-01
         -4   -1    0    0    0  501 -0.00000000000E+00  0.00000000000E+00  0.13751339269E+04  0.13751339269E+04  0.00000000000E+00 0. -1.
          2   -1    0    0  501    0  0.00000000000E+00 -0.00000000000E+00 -0.52989464477E+03  0.52989464477E+03  0.00000000000E+00 0. -1.
   -9000010    2    1    2    0  502  0.14874568012E+03  0.79779348065E+01  0.39281342744E+03  0.10930759266E+04  0.10091202445E+04 0.  0.
        -13    1    1    2    0    0 -0.16948349973E+03 -0.33229324796E+02  0.61877424911E+03  0.64242542542E+03  0.10566000000E+00 0.  1.
         13    1    3    3    0    0 -0.29305033400E+03 -0.22416170692E+03  0.45980107595E+03  0.58952863350E+03  0.10566000000E+00 0. -1.
          2    1    1    2  502    0  0.20737819615E+02  0.25251389990E+02 -0.16634839444E+03  0.16952721962E+03  0.00000000000E+00 0. -1.
         -4    1    3    3    0  502  0.44179601412E+03  0.23213964173E+03 -0.66987648510E+02  0.50354729312E+03  0.00000000000E+00 0. -1.
</event>
<event>
 7    1  0.5696597E-006  0.1016003E+04  0.7818608E-02  0.9161591E-01
          2   -1    0    0  501    0  0.00000000000E+00  0.00000000000E+00  0.56697714352E+03  0.56697714352E+03  0.00000000000E+00 0. -1.
         -4   -1    0    0    0  501 -0.00000000000E+00 -0.00000000000E+00 -0.16309060810E+04  0.16309060810E+04  0.00000000000E+00 0. -1.
   -9000010    2    1    2    0  502 -0.13208897450E+03 -0.14863141685E+03 -0.81565074651E+03  0.13032174861E+04  0.99677022456E+03 0.  0.
        -13    1    1    2    0    0  0.19635242945E+03  0.35402438757E+02 -0.53974582288E+03  0.57544172051E+03  0.10566000000E+00 0.  1.
         13    1    3    3    0    0  0.46985166825E+02  0.41538050400E+02  0.22329661034E+03  0.23193620434E+03  0.10566000000E+00 0. -1.
          2    1    1    2  502    0 -0.64263454947E+02  0.11322897809E+03  0.29146763194E+03  0.31922401788E+03  0.00000000000E+00 0. -1.
         -4    1    3    3    0  502 -0.17907414133E+03 -0.19016946725E+03 -0.10389473568E+04  0.10712812818E+04  0.00000000000E+00 0. -1.
</event>
<event>
 7    1  0.5696597E-006  0.1191946E+04  0.7818608E-02  0.8786872E-01
          4   -1    0    0  501    0 -0.00000000000E+00  0.00000000000E+00  0.80854042722E+03  0.80854042722E+03  0.00000000000E+00 0.  1.
          2   -1    0    0  502    0  0.00000000000E+00 -0.00000000000E+00 -0.19277950468E+04  0.19277950468E+04  0.00000000000E+00 0.  1.
    9000010    2    1    2  502    0 -0.55195506690E+03  0.14744213538E+03 -0.62874177583E+03  0.13328058049E+04  0.10269671434E+04 0.  0.
        -13    1    3    3    0    0  0.32938521828E+02 -0.34886487361E+03 -0.40119627209E+03  0.53268199346E+03  0.10566000000E+00 0.  1.
         13    1    1    2    0    0  0.26128765545E+03  0.49584159006E+03 -0.31185225976E+02  0.56134004918E+03  0.10566000000E+00 0. -1.
          2    1    1    2  501    0  0.29066741145E+03 -0.64328372545E+03 -0.45932761775E+03  0.84218961994E+03  0.00000000000E+00 0.  1.
          4    1    3    3  502    0 -0.58489358872E+03  0.49630700900E+03 -0.22754550374E+03  0.80012381141E+03  0.00000000000E+00 0.  1.
</event>
<event>
 7    1  0.5696597E-006  0.1041397E+04  0.7818608E-02  0.9056568E-01
          4   -1    0    0  501    0 -0.00000000000E+00  0.00000000000E+00  0.15212117870E+04  0.15212117870E+04  0.00000000000E+00 0.  1.
          2   -1    0    0  502    0  0.00000000000E+00 -0.00000000000E+00 -0.28122491146E+04  0.28122491146E+04  0.00000000000E+00 0.  1.
    9000010    2    1    2  502    0  0.29280330467E+03 -0.13567681125E+03  0.12950297035E+04  0.16700913739E+04  0.10039727546E+04 0.  0.
        -13    1    3    3    0    0  0.58653647351E+03 -0.12068817927E+03  0.12312379395E+04  0.13691375191E+04  0.10566000000E+00 0.  1.
         13    1    1    2    0    0 -0.18547993475E+03  0.90568713483E+02 -0.24910745037E+03  0.32351202613E+03  0.10566000000E+00 0. -1.
          2    1    1    2  501    0 -0.10732336993E+03  0.45108097763E+02 -0.23369595807E+04  0.23398575016E+04  0.00000000000E+00 0.  1.
          4    1    3    3  502    0 -0.29373316883E+03 -0.14988631977E+02  0.63791763975E+02  0.30095385479E+03  0.00000000000E+00 0.  1.
</event>
<event>
 7    1  0.5696597E-006  0.9946808E+03  0.7818608E-02  0.9436201E-01
          2   -1    0    0  502    0  0.00000000000E+00  0.00000000000E+00  0.35595549011E+04  0.35595549011E+04  0.00000000000E+00 0.  1.
          4   -1    0    0  501    0 -0.00000000000E+00 -0.00000000000E+00 -0.11235936142E+03  0.11235936142E+03  0.00000000000E+00 0.  1.
    9000010    2    1    2  502    0  0.42208540280E+02 -0.41236270676E+02  0.31719707679E+04  0.33239723178E+04  0.99192309480E+03 0.  0.
        -13    1    3    3    0    0  0.12566907250E+03 -0.42870629494E+03  0.77575336816E+03  0.89519556661E+03  0.10566000000E+00 0.  1.
         13    1    1    2    0    0 -0.43515237740E+02  0.60104761571E+02  0.21724583558E+01  0.74235362317E+02  0.10566000000E+00 0. -1.
          2    1    1    2  501    0  0.13066974601E+01 -0.18868490895E+02  0.27305231342E+03  0.27370658244E+03  0.00000000000E+00 0.  1.
          4    1    3    3  502    0 -0.83460532224E+02  0.38747002426E+03  0.23962173998E+04  0.24287767512E+04  0.00000000000E+00 0.  1.
</event>
<event>
 7    1  0.5696597E-006  0.1015279E+04  0.7818608E-02  0.9364484E-01
         -4   -1    0    0    0  501 -0.00000000000E+00  0.00000000000E+00  0.57048252930E+03  0.57048252930E+03  0.00000000000E+00 0. -1.
          2   -1    0    0  501    0  0.00000000000E+00 -0.00000000000E+00 -0.11389206825E+04  0.11389206825E+04  0.00000000000E+00 0. -1.
   -9000010    2    1    2    0  502 -0.26816037481E+02  0.70732117111E+02  0.18029518303E+02  0.10141947072E+04  0.10112090330E+04 0.  0.
        -13    1    1    2    0    0  0.77733947724E+02 -0.51347393571E+02  0.12297209374E+02  0.93969963168E+02  0.10566000000E+00 0.  1.
         13    1    3    3    0    0  0.19680878023E+03  0.38372178083E+03 -0.29143914942E+03  0.52049292986E+03  0.10566000000E+00 0. -1.
          2    1    1    2  502    0 -0.50917910243E+02 -0.19384723540E+02 -0.59876488092E+03  0.60123854144E+03  0.00000000000E+00 0. -1.
         -4    1    3    3    0  502 -0.22362481771E+03 -0.31298966371E+03  0.30946866772E+03  0.49370177738E+03  0.00000000000E+00 0. -1.
</event>
<event>
 7    1  0.5696597E-006  0.1117139E+04  0.7818608E-02  0.8878998E-01
          2   -1    0    0  502    0  0.00000000000E+00  0.00000000000E+00  0.86830452867E+03  0.86830452867E+03  0.00000000000E+00 0. -1.
          4   -1    0    0  501    0 -0.00000000000E+00 -0.00000000000E+00 -0.12877507173E+04  0.12877507173E+04  0.00000000000E+00 0.  1.
    9000010    2    1    2  502    0 -0.95611679253E+02 -0.51497371559E+03 -0.52356491535E+03  0.12580940274E+04  0.10170254865E+04 0.  0.
        -13    1    3    3    0    0 -0.18627821424E+03 -0.49237916952E+03 -0.80483177822E+03  0.96171254649E+03  0.10566000000E+00 0.  1.
         13    1    1    2    0    0 -0.18806982086E+03  0.42281950330E+03 -0.16986327935E+03  0.49295043840E+03  0.10566000000E+00 0. -1.
          2    1    1    2  501    0  0.28368150011E+03  0.92154212297E+02  0.27398200611E+03  0.40501078013E+03  0.00000000000E+00 0. -1.
          4    1    3    3  502    0  0.90666534988E+02 -0.22594546075E+02  0.28126686287E+03  0.29638148091E+03  0.00000000000E+00 0.  1.
</event>
<event>
 7    1  0.5696597E-006  0.1024702E+04  0.7818608E-02  0.9147730E-01
          2   -1    0    0  501    0  0.00000000000E+00  0.00000000000E+00  0.13983875044E+04  0.13983875044E+04  0.00000000000E+00 0. -1.
         -4   -1    0    0    0  501 -0.00000000000E+00 -0.00000000000E+00 -0.13092409058E+04  0.13092409058E+04  0.00000000000E+00 0. -1.
   -9000010    2    1    2    0  502 -0.22663053172E+03  0.54206687698E+02 -0.58716841571E+03  0.11866276965E+04  0.10044992677E+04 0.  0.
        -13    1    1    2    0    0  0.19918679826E+03 -0.20150767929E+02 -0.39814725958E+03  0.44564861217E+03  0.10566000000E+00 0.  1.
         13    1    3    3    0    0 -0.12344589346E+03  0.21936600097E+03  0.23339679245E+03  0.34327016311E+03  0.10566000000E+00 0. -1.
          2    1    1    2  502    0  0.27443733457E+02 -0.34055919768E+02  0.10744622739E+04  0.10753521015E+04  0.00000000000E+00 0. -1.
         -4    1    3    3    0  502 -0.10318463826E+03 -0.16515931327E+03 -0.82056520816E+03  0.84335753342E+03  0.00000000000E+00 0. -1.
</event>
<event>
 7    1  0.5696597E-006  0.1022203E+04  0.7818608E-02  0.9272262E-01
          2   -1    0    0  501    0  0.00000000000E+00  0.00000000000E+00  0.13127701851E+04  0.13127701851E+04  0.00000000000E+00 0. -1.
         -4   -1    0    0    0  501 -0.00000000000E+00 -0.00000000000E+00 -0.47655430833E+03  0.47655430833E+03  0.00000000000E+00 0. -1.
   -9000010    2    1    2    0  502  0.66803178027E+02 -0.88324906125E+02  0.15391637608E+03  0.10319734477E+04  0.10144037620E+04 0.  0.
        -13    1    1    2    0    0 -0.72999487890E+02  0.10625559175E+03  0.73778414339E+02  0.14853431117E+03  0.10566000000E+00 0.  1.
         13    1    3    3    0    0 -0.24729615031E+02 -0.54925830178E+03  0.64172649506E+02  0.55354708566E+03  0.10566000000E+00 0. -1.
          2    1    1    2  502    0  0.61963098623E+01 -0.17930685623E+02  0.60852108631E+03  0.60881673451E+03  0.00000000000E+00 0. -1.
         -4    1    3    3    0  502  0.91532793059E+02  0.46093339566E+03  0.89743726576E+02  0.47842636204E+03  0.00000000000E+00 0. -1.
</event>
<event>
 7    1  0.5696597E-006  0.1114868E+04  0.7818608E-02  0.8921171E-01
          2   -1    0    0  501    0  0.00000000000E+00  0.00000000000E+00  0.27025304362E+04  0.27025304362E+04  0.00000000000E+00 0. -1.
         -4   -1    0    0    0  501 -0.00000000000E+00 -0.00000000000E+00 -0.60055845100E+03  0.60055845100E+03  0.00000000000E+00 0. -1.
   -9000010    2    1    2    0  502 -0.47706291013E+02  0.29380789941E+03  0.23379257293E+04  0.25777678888E+04  0.10442181769E+04 0.  0.
        -13    1    1    2    0    0 -0.12473507016E+03 -0.37512638343E+03 -0.32793953708E+03  0.51363702400E+03  0.10566000000E+00 0.  1.
         13    1    3    3    0    0 -0.49609062884E+03  0.38263768141E+03  0.12699342860E+04  0.14160687163E+04  0.10566000000E+00 0. -1.
          2    1    1    2  502    0  0.17244136117E+03  0.81318484019E+02  0.91985792954E+02  0.21168397434E+03  0.00000000000E+00 0. -1.
         -4    1    3    3    0  502  0.44838433783E+03 -0.88829781997E+02  0.10679914433E+04  0.11616991726E+04  0.00000000000E+00 0. -1.
</event>
<event>
 7    1  0.5696597E-006  0.9981715E+03  0.7818608E-02  0.9193185E-01
          4   -1    0    0  501    0 -0.00000000000E+00  0.00000000000E+00  0.58571966654E+03  0.58571966654E+03  0.00000000000E+00 0.  1.
          2   -1    0    0  502    0  0.00000000000E+00 -0.00000000000E+00 -0.89470225659E+03  0.89470225659E+03  0.00000000000E+00 0.  1.
    9000010    2    1    2  502    0  0.11864523191E+03 -0.25968339327E+03 -0.21678973117E+03  0.10446022104E+04  0.98116452986E+03 0.  0.
        -13    1    3    3    0    0  0.26058552574E+03  0.23439191480E+03  0.18112906178E+03  0.39452773557E+03  0.10566000000E+00 0.  1.
         13    1    1    2    0    0  0.12179180178E+02  0.17683478678E+03  0.88278156633E+02  0.19801999481E+03  0.10566000000E+00 0. -1.
          2    1    1    2  501    0 -0.13082441208E+03  0.82848606491E+02 -0.18047101552E+03  0.23779971791E+03  0.00000000000E+00 0.  1.
          4    1    3    3  502    0 -0.14194029383E+03 -0.49407530806E+03 -0.39791879295E+03  0.65007447484E+03  0.00000000000E+00 0.  1.
</event>
<event>
 7    1  0.5696597E-006  0.1219280E+04  0.7818608E-02  0.8718290E-01
          2   -1    0    0  502    0  0.00000000000E+00  0.00000000000E+00  0.68370747065E+03  0.68370747065E+03  0.00000000000E+00 0. -1.
          4   -1    0    0  501    0 -0.00000000000E+00 -0.00000000000E+00 -0.20667394466E+04  0.20667394466E+04  0.00000000000E+00 0.  1.
    9000010    2    1    2  502    0  0.40863641437E+03  0.59005851066E+03 -0.70188392458E+03  0.14147129657E+04  0.99680437735E+03 0.  0.
        -13    1    3    3    0    0  0.41494915344E+03  0.53835584425E+03  0.30578855809E+02  0.68040053834E+03  0.10566000000E+00 0.  1.
         13    1    1    2    0    0 -0.75905209216E+02 -0.71883213780E+03 -0.65920240096E+03  0.97827862070E+03  0.10566000000E+00 0. -1.
          2    1    1    2  501    0 -0.33273120515E+03  0.12877362714E+03 -0.21945650371E+02  0.35745533077E+03  0.00000000000E+00 0. -1.
          4    1    3    3  502    0 -0.63127390702E+01  0.51702666407E+02 -0.73246278039E+03  0.73431242741E+03  0.00000000000E+00 0.  1.
</event>
<event>
 7    1  0.5696597E-006  0.1036877E+04  0.7818608E-02  0.9284286E-01
          2   -1    0    0  502    0  0.00000000000E+00  0.00000000000E+00  0.42099039475E+04  0.42099039475E+04  0.00000000000E+00 0.  1.
          4   -1    0    0  501    0 -0.00000000000E+00 -0.00000000000E+00 -0.33615483791E+03  0.33615483791E+03  0.00000000000E+00 0.  1.
    9000010    2    1    2  502    0 -0.27210501400E+03  0.25118067125E+03  0.64324478438E+03  0.12460229972E+04  0.10008379432E+04 0.  0.
        -13    1    3    3    0    0 -0.58905778610E+03 -0.90102872306E+02  0.29806038708E+03  0.66629393549E+03  0.10566000000E+00 0.  1.
         13    1    1    2    0    0  0.10933812648E+03 -0.36754666231E+02  0.85629580436E+02  0.14365990255E+03  0.10566000000E+00 0. -1.
          2    1    1    2  501    0  0.16276688752E+03 -0.21442600502E+03  0.31448747448E+04  0.31563758857E+04  0.00000000000E+00 0.  1.
          4    1    3    3  502    0  0.31695277210E+03  0.34128354355E+03  0.34518439729E+03  0.57972906170E+03  0.00000000000E+00 0.  1.
</event>
<event>
 7    1  0.5696597E-006  0.1047006E+04  0.7818608E-02  0.9108040E-01
         -4   -1    0    0    0  501 -0.00000000000E+00  0.00000000000E+00  0.21232327375E+04  0.21232327375E+04  0.00000000000E+00 0. -1.
          2   -1    0    0  501    0  0.00000000000E+00 -0.00000000000E+00 -0.19324445369E+04  0.19324445369E+04  0.00000000000E+00 0. -1.
   -9000010    2    1    2    0  502  0.15456513874E+03  0.10045906113E+03  0.12293799627E+04  0.16100757895E+04  0.10232236072E+04 0.  0.
        -13    1    1    2    0    0 -0.15289646805E+03 -0.16641366739E+03  0.68470861221E+03  0.72103864906E+03  0.10566000000E+00 0.  1.
         13    1    3    3    0    0 -0.15834932330E+03 -0.37804190322E+03  0.78644343541E+03  0.88683903671E+03  0.10566000000E+00 0. -1.
          2    1    1    2  502    0 -0.16686706903E+01  0.65954606256E+02 -0.17233003743E+04  0.17245628358E+04  0.00000000000E+00 0. -1.
         -4    1    3    3    0  502  0.31291446204E+03  0.47850096436E+03  0.44293652729E+03  0.72323675284E+03  0.00000000000E+00 0. -1.
</event>
<event>
 7    1  0.5696597E-006  0.9986176E+03  0.7818608E-02  0.9447172E-01
         -4   -1    0    0    0  501 -0.00000000000E+00  0.00000000000E+00  0.19298611786E+04  0.19298611786E+04  0.00000000000E+00 0. -1.
          2   -1    0    0  501    0  0.00000000000E+00 -0.00000000000E+00 -0.58203828004E+03  0.58203828004E+03  0.00000000000E+00 0.  1.
   -9000010    2    1    2    0  502  0.51774211439E+02  0.33534064053E+02  0.17669686350E+04  0.20293557864E+04  0.99614338748E+03 0.  0.
        -13    1    1    2    0    0 -0.68249855293E+02 -0.26883826815E+02 -0.11191498124E+02  0.74202720206E+02  0.10566000000E+00 0.  1.
         13    1    3    3    0    0 -0.15409321940E+03 -0.35133493987E+03  0.26760119960E+03  0.46775140132E+03  0.10566000000E+00 0. -1.
          2    1    1    2  502    0  0.16475643854E+02 -0.66502372387E+01 -0.40795423833E+03  0.40834095199E+03  0.00000000000E+00 0.  1.
         -4    1    3    3    0  502  0.20586743084E+03  0.38486900393E+03  0.14993674354E+04  0.15616043851E+04  0.00000000000E+00 0. -1.
</event>
<event>
 7    1  0.5696597E-006  0.1026398E+04  0.7818608E-02  0.9227804E-01
          2   -1    0    0  501    0  0.00000000000E+00  0.00000000000E+00  0.86594546924E+03  0.86594546924E+03  0.00000000000E+00 0. -1.
         -4   -1    0    0    0  501 -0.00000000000E+00 -0.00000000000E+00 -0.17511188114E+04  0.17511188114E+04  0.00000000000E+00 0. -1.
   -9000010    2    1    2    0  502 -0.15079130321E+03  0.32297567142E+03 -0.14182957348E+04  0.17284704102E+04  0.92140971668E+03 0.  0.
        -13    1    1    2    0    0 -0.14529782539E+03  0.26046366392E+02 -0.42097965634E+02  0.15349958026E+03  0.10566000000E+00 0.  1.
         13    1    3    3    0    0  0.10254938368E+03 -0.23389133239E+03 -0.98406173444E+02  0.27368835853E+03  0.10566000000E+00 0. -1.
          2    1    1    2  502    0  0.29608912860E+03 -0.34902203781E+03  0.57522035827E+03  0.73509429023E+03  0.00000000000E+00 0. -1.
         -4    1    3    3    0  502 -0.25334068689E+03  0.55686700381E+03 -0.13198895613E+04  0.14547820516E+04  0.00000000000E+00 0. -1.
</event>
<event>
 7    1  0.5696597E-006  0.1004331E+04  0.7818608E-02  0.9186770E-01
         -4   -1    0    0    0  501 -0.00000000000E+00  0.00000000000E+00  0.14298207279E+04  0.14298207279E+04  0.00000000000E+00 0. -1.
          1   -1    0    0  501    0  0.00000000000E+00 -0.00000000000E+00 -0.89564378565E+03  0.89564378565E+03  0.00000000000E+00 0. -1.
   -9000010    2    1    2    0  502 -0.11704767100E+03 -0.15463873786E+03  0.12196751920E+03  0.10134445373E+04  0.98720841661E+03 0.  0.
        -13    1    1    2    0    0  0.10402452810E+03  0.15233040984E+03  0.85214725798E+03  0.87188337331E+03  0.10566000000E+00 0.  1.
         13    1    3    3    0    0 -0.22137551557E+03 -0.30197126585E+03 -0.34727057462E+03  0.51067663688E+03  0.10566000000E+00 0. -1.
          1    1    1    2  502    0  0.13023142901E+02  0.23083280175E+01 -0.43993783496E+03  0.44013660295E+03  0.00000000000E+00 0. -1.
         -4    1    3    3    0  502  0.10432784457E+03  0.14733252799E+03  0.46923809382E+03  0.50276790038E+03  0.00000000000E+00 0. -1.
</event>
<event>
 7    1  0.5696597E-006  0.2415667E+04  0.7818608E-02  0.8468918E-01
          4   -1    0    0  501    0 -0.00000000000E+00  0.00000000000E+00  0.27237791663E+04  0.27237791663E+04  0.00000000000E+00 0.  1.
          2   -1    0    0  502    0  0.00000000000E+00 -0.00000000000E+00 -0.27858982663E+04  0.27858982663E+04  0.00000000000E+00 0.  1.
    9000010    2    1    2  502    0 -0.20580058483E+04  0.23629140892E+03  0.83212109938E+03  0.24426542693E+04  0.99141951448E+03 0.  0.
        -13    1    3    3    0    0 -0.19475631273E+04  0.46229768808E+03  0.88002144446E+03  0.21865861613E+04  0.10566000000E+00 0.  1.
         13    1    1    2    0    0 -0.15219960002E+03  0.22690540188E+03  0.38465033228E+03  0.47181211190E+03  0.10566000000E+00 0. -1.
          2    1    1    2  501    0  0.22102054483E+04 -0.46319681080E+03 -0.12788905316E+04  0.25952110514E+04  0.00000000000E+00 0.  1.
          4    1    3    3  502    0 -0.11044272100E+03 -0.22600627916E+03 -0.47900345072E+02  0.25606810793E+03  0.00000000000E+00 0.  1.
</event>
<event>
 7    1  0.5696597E-006  0.1120343E+04  0.7818608E-02  0.8853767E-01
         -4   -1    0    0    0  501 -0.00000000000E+00  0.00000000000E+00  0.16097999613E+04  0.16097999613E+04  0.00000000000E+00 0. -1.
          2   -1    0    0  501    0  0.00000000000E+00 -0.00000000000E+00 -0.18225027139E+04  0.18225027139E+04  0.00000000000E+00 0.  1.
   -9000010    2    1    2    0  502 -0.17702999372E+03 -0.51427113966E+03  0.54182064827E+03  0.12591005529E+04  0.99797302756E+03 0.  0.
        -13    1    1    2    0    0  0.12094597904E+03  0.48614447525E+03  0.62008443636E+03  0.79716315773E+03  0.10566000000E+00 0.  1.
         13    1    3    3    0    0  0.19044194672E+03  0.48101843965E+02  0.55338708206E+03  0.58721307566E+03  0.10566000000E+00 0. -1.
          2    1    1    2  502    0  0.56084014685E+02  0.28126664409E+02 -0.13746078372E+04  0.13760389646E+04  0.00000000000E+00 0.  1.
         -4    1    3    3    0  502 -0.36747194044E+03 -0.56237298363E+03 -0.11566433798E+02  0.67188747728E+03  0.00000000000E+00 0. -1.
</event>
<event>
 7    1  0.5696597E-006  0.1105015E+04  0.7818608E-02  0.8883115E-01
         -4   -1    0    0    0  501 -0.00000000000E+00  0.00000000000E+00  0.11719729958E+04  0.11719729958E+04  0.00000000000E+00 0. -1.
          2   -1    0    0  501    0  0.00000000000E+00 -0.00000000000E+00 -0.24772008024E+04  0.24772008024E+04  0.00000000000E+00 0. -1.
   -9000010    2    1    2    0  502  0.51784551358E+03  0.74629469029E+02  0.57313757398E+03  0.12660329196E+04  0.10003095227E+04 0.  0.
        -13    1    1    2    0    0 -0.34528250359E+03 -0.31860638565E+03  0.11336699598E+02  0.46995592153E+03  0.10566000000E+00 0.  1.
         13    1    3    3    0    0 -0.22052993093E+03  0.16474768098E+03 -0.68512830819E+02  0.28367105593E+03  0.10566000000E+00 0. -1.
          2    1    1    2  502    0 -0.17256300999E+03  0.24397691662E+03 -0.18897020802E+04  0.19131849571E+04  0.00000000000E+00 0. -1.
         -4    1    3    3    0  502  0.73837544451E+03 -0.90118211950E+02  0.64165040480E+03  0.98236186365E+03  0.00000000000E+00 0. -1.
</event>
<event>
 7    1  0.5696597E-006  0.1079176E+04  0.7818608E-02  0.9321352E-01
          4   -1    0    0  502    0  0.00000000000E+00  0.00000000000E+00  0.11326675490E+04  0.11326675490E+04  0.00000000000E+00 0.  1.
          4   -1    0    0  501    0 -0.00000000000E+00 -0.00000000000E+00 -0.58651235471E+03  0.58651235471E+03  0.00000000000E+00 0.  1.
    9000010    2    1    2  502    0 -0.28797208874E+03 -0.21817671637E+03  0.16092463132E+03  0.10794020165E+04  0.10043321029E+04 0.  0.
        -13    1    3    3    0    0  0.16833773012E+03  0.16337147096E+03 -0.26040813693E+03  0.35048571704E+03  0.10566000000E+00 0.  1.
         13    1    1    2    0    0 -0.84687360653E+02  0.27076715397E+02  0.95769889349E+02  0.13067892118E+03  0.10566000000E+00 0. -1.
          4    1    1    2  501    0  0.37265944940E+03  0.19110000097E+03  0.28946067358E+03  0.50909896596E+03  0.00000000000E+00 0.  1.
          4    1    3    3  502    0 -0.45630981886E+03 -0.38154818732E+03  0.42133276826E+03  0.72891629948E+03  0.00000000000E+00 0.  1.
</event>
<event>
 7    1  0.5696597E-006  0.1067111E+04  0.7818608E-02  0.8935885E-01
          4   -1    0    0  501    0  0.00000000000E+00  0.00000000000E+00  0.10157390934E+04  0.10157390934E+04  0.00000000000E+00 0.  1.
         -4   -1    0    0    0  501 -0.00000000000E+00 -0.00000000000E+00 -0.12131311063E+04  0.12131311063E+04  0.00000000000E+00 0. -1.
   -9000010    2    1    2    0  502 -0.18607887240E+03 -0.33709596484E+03  0.16341004783E+03  0.10667397912E+04  0.98131131760E+03 0.  0.
        -13    1    1    2    0    0  0.22100875455E+03  0.36011913140E+03 -0.70147392282E+03  0.81889946511E+03  0.10566000000E+00 0.  1.
         13    1    3    3    0    0  0.27824864836E+03  0.19438060872E+03  0.11873286982E+03  0.35958814900E+03  0.10566000000E+00 0. -1.
          4    1    1    2  502    0 -0.34929882155E+02 -0.23023166565E+02  0.34067186212E+03  0.34323094340E+03  0.00000000000E+00 0.  1.
         -4    1    3    3    0  502 -0.46432752076E+03 -0.53147657356E+03  0.44677178009E+02  0.70715164216E+03  0.00000000000E+00 0. -1.
</event>
<event>
 7    1  0.5696597E-006  0.1092102E+04  0.7818608E-02  0.8901395E-01
         -4   -1    0    0    0  501 -0.00000000000E+00  0.00000000000E+00  0.22044666040E+04  0.22044666040E+04  0.00000000000E+00 0. -1.
          2   -1    0    0  501    0  0.00000000000E+00 -0.00000000000E+00 -0.67880043940E+03  0.67880043940E+03  0.00000000000E+00 0. -1.
   -9000010    2    1    2    0  502  0.34344516532E+03  0.15697012512E+03  0.82238437299E+03  0.13447411917E+04  0.99469523668E+03 0.  0.
        -13    1    1    2    0    0 -0.40066858038E+03 -0.23551579355E+03  0.10660558953E+04  0.11629609552E+04  0.10566000000E+00 0.  1.
         13    1    3    3    0    0  0.26928698763E+03  0.56474344770E+03  0.62970270459E+03  0.88768020748E+03  0.10566000000E+00 0. -1.
          2    1    1    2  502    0  0.57223415054E+02  0.78545668432E+02 -0.36277410364E+03  0.37556489656E+03  0.00000000000E+00 0. -1.
         -4    1    3    3    0  502  0.74158177692E+02 -0.40777332258E+03  0.19268166840E+03  0.45706098419E+03  0.00000000000E+00 0. -1.
</event>
<event>
 7    1  0.5696597E-006  0.9827743E+03  0.7818608E-02  0.9422653E-01
         -4   -1    0    0    0  501 -0.00000000000E+00  0.00000000000E+00  0.67983124407E+03  0.67983124407E+03  0.00000000000E+00 0. -1.
          2   -1    0    0  501    0  0.00000000000E+00 -0.00000000000E+00 -0.12860629197E+04  0.12860629197E+04  0.00000000000E+00 0. -1.
   -9000010    2    1    2    0  502 -0.54231432455E+02 -0.73482437006E+02  0.22695769473E+03  0.10095484884E+04  0.97945782884E+03 0.  0.
        -13    1    1    2    0    0  0.43488204817E+02  0.67115721543E+02  0.35548330735E+02  0.87518221066E+02  0.10566000000E+00 0.  1.
         13    1    3    3    0    0  0.12869503494E+03 -0.50120382990E+03  0.14275505162E+03  0.53679298342E+03  0.10566000000E+00 0. -1.
          2    1    1    2  502    0  0.10743227638E+02  0.63667154627E+01 -0.86873770107E+03  0.86882745426E+03  0.00000000000E+00 0. -1.
         -4    1    3    3    0  502 -0.18292646739E+03  0.42772139289E+03  0.84202643107E+02  0.47275550501E+03  0.00000000000E+00 0. -1.
</event>
<event>
 7    1  0.5696597E-006  0.1026109E+04  0.7818608E-02  0.9448141E-01
          2   -1    0    0  501    0  0.00000000000E+00  0.00000000000E+00  0.95597172067E+03  0.95597172067E+03  0.00000000000E+00 0.  1.
         -4   -1    0    0    0  501 -0.00000000000E+00 -0.00000000000E+00 -0.67337559097E+03  0.67337559097E+03  0.00000000000E+00 0. -1.
   -9000010    2    1    2    0  502 -0.12089912139E+03 -0.15683679150E+03 -0.20540732739E+03  0.10408579557E+04  0.10009888796E+04 0.  0.
        -13    1    1    2    0    0  0.35764129381E+02 -0.53707517140E+02  0.18792778620E+02  0.67206770790E+02  0.10566000000E+00 0.  1.
         13    1    3    3    0    0 -0.10151034627E+03  0.34825505764E+03  0.18025747075E+03  0.40506629395E+03  0.10566000000E+00 0. -1.
          2    1    1    2  502    0  0.85134992012E+02  0.21054430864E+03  0.46921067847E+03  0.52128258512E+03  0.00000000000E+00 0.  1.
         -4    1    3    3    0  502 -0.19388775122E+02 -0.50509184913E+03 -0.38566479814E+03  0.63579166178E+03  0.00000000000E+00 0. -1.
</event>
<event>
 7    1  0.5696597E-006  0.1124037E+04  0.7818608E-02  0.9032133E-01
          2   -1    0    0  501    0  0.00000000000E+00  0.00000000000E+00  0.17376718876E+04  0.17376718876E+04  0.00000000000E+00 0.  1.
         -4   -1    0    0    0  501 -0.00000000000E+00 -0.00000000000E+00 -0.56038821243E+03  0.56038821243E+03  0.00000000000E+00 0. -1.
   -9000010    2    1    2    0  502 -0.26921825249E+03 -0.36291307218E+03  0.50319410907E+03  0.11791811431E+04  0.96596039848E+03 0.  0.
        -13    1    1    2    0    0  0.40738484142E+02 -0.23920586987E+03  0.24619783744E+03  0.34567681235E+03  0.10566000000E+00 0.  1.
         13    1    3    3    0    0 -0.59459014709E+02  0.32627028593E+03  0.71247789112E+02  0.33921074943E+03  0.10566000000E+00 0. -1.
          2    1    1    2  502    0  0.22847976834E+03  0.60211894204E+03  0.42789172866E+03  0.77320214457E+03  0.00000000000E+00 0.  1.
         -4    1    3    3    0  502 -0.20975923778E+03 -0.68918335811E+03  0.43194631995E+03  0.83997039367E+03  0.00000000000E+00 0. -1.
</event>
<event>
 7    1  0.5696597E-006  0.9915643E+03  0.7818608E-02  0.9434379E-01
          1   -1    0    0  501    0  0.00000000000E+00  0.00000000000E+00  0.10606934428E+04  0.10606934428E+04  0.00000000000E+00 0. -1.
         -4   -1    0    0    0  501 -0.00000000000E+00 -0.00000000000E+00 -0.41744085911E+03  0.41744085911E+03  0.00000000000E+00 0. -1.
   -9000010    2    1    2    0  502 -0.76117382382E+02  0.58885972061E+02  0.29952745220E+03  0.10362018909E+04  0.98728731908E+03 0.  0.
        -13    1    1    2    0    0 -0.15103098772E+02 -0.73688347246E+02 -0.10410656620E+02  0.75937270478E+02  0.10566000000E+00 0.  1.
         13    1    3    3    0    0 -0.11122539501E+03  0.48975992757E+03 -0.13591895563E+02  0.50241479471E+03  0.10566000000E+00 0. -1.
          1    1    1    2  502    0  0.91220481154E+02  0.14802375185E+02  0.35413578808E+03  0.36599514053E+03  0.00000000000E+00 0. -1.
         -4    1    3    3    0  502  0.35108012626E+02 -0.43087395551E+03  0.31311934776E+03  0.53378709616E+03  0.00000000000E+00 0. -1.
</event>
<event>
 7    1  0.5696597E-006  0.1066982E+04  0.7818608E-02  0.9103973E-01
          2   -1    0    0  501    0  0.00000000000E+00  0.00000000000E+00  0.63376727526E+03  0.63376727526E+03  0.00000000000E+00 0. -1.
         -4   -1    0    0    0  501 -0.00000000000E+00 -0.00000000000E+00 -0.20141264105E+04  0.20141264105E+04  0.00000000000E+00 0. -1.
   -9000010    2    1    2    0  502 -0.32946026997E+03 -0.24045855753E+03  0.70311602667E+02  0.10818248842E+04  0.99951836960E+03 0.  0.
        -13    1    1    2    0    0  0.19359607588E+03 -0.88963923484E+02 -0.75442385843E+03  0.78393200573E+03  0.10566000000E+00 0.  1.
         13    1    3    3    0    0  0.23388247243E+03 -0.35881795926E+03 -0.16628289363E+03  0.45945767017E+03  0.10566000000E+00 0. -1.
          2    1    1    2  502    0  0.13586419409E+03  0.32942248102E+03 -0.69624687945E+03  0.78213679582E+03  0.00000000000E+00 0. -1.
         -4    1    3    3    0  502 -0.56334274240E+03  0.11835940173E+03  0.23659449630E+03  0.62236721401E+03  0.00000000000E+00 0. -1.
</event>
<event>
 7    1  0.5696597E-006  0.1380952E+04  0.7818608E-02  0.8563094E-01
         -4   -1    0    0    0  501 -0.00000000000E+00  0.00000000000E+00  0.11146847277E+04  0.11146847277E+04  0.00000000000E+00 0. -1.
          2   -1    0    0  501    0  0.00000000000E+00 -0.00000000000E+00 -0.29534106665E+04  0.29534106665E+04  0.00000000000E+00 0. -1.
   -9000010    2    1    2    0  502 -0.71396736966E+03 -0.63971741288E+03 -0.83689968197E+03  0.16166757942E+04  0.99712174419E+03 0.  0.
        -13    1    1    2    0    0  0.79524654040E+03  0.53152170616E+03  0.40454596254E+03  0.10385517951E+04  0.10566000000E+00 0.  1.
         13    1    3    3    0    0 -0.43739604287E+03 -0.40345071185E+03  0.10746478127E+03  0.60467881192E+03  0.10566000000E+00 0. -1.
          2    1    1    2  502    0 -0.81279170737E+02  0.10819570671E+03 -0.14063722194E+04  0.14128678049E+04  0.00000000000E+00 0. -1.
         -4    1    3    3    0  502 -0.27657132680E+03 -0.23626670103E+03 -0.94436446324E+03  0.10119969823E+04  0.00000000000E+00 0. -1.
</event>
<event>
 7    1  0.5696597E-006  0.1197817E+04  0.7818608E-02  0.8770563E-01
          2   -1    0    0  501    0  0.00000000000E+00  0.00000000000E+00  0.13153732868E+04  0.13153732868E+04  0.00000000000E+00 0. -1.
         -4   -1    0    0    0  501 -0.00000000000E+00 -0.00000000000E+00 -0.12203818280E+04  0.12203818280E+04  0.00000000000E+00 0. -1.
   -9000010    2    1    2    0  502  0.71199116990E+03 -0.35913989658E+03  0.14101904524E+03  0.13191542132E+04  0.10413301953E+04 0.  0.
        -13    1    1    2    0    0 -0.55236666834E+03  0.87945650758E+02 -0.44052127359E+03  0.71197077007E+03  0.10566000000E+00 0.  1.
         13    1    3    3    0    0  0.58299655126E+01 -0.49535291043E+03  0.30468839350E+03  0.58158707230E+03  0.10566000000E+00 0. -1.
          2    1    1    2  502    0 -0.15962450155E+03  0.27119424582E+03  0.39449368713E+03  0.50463013153E+03  0.00000000000E+00 0. -1.
         -4    1    3    3    0  502  0.70616120438E+03  0.13621301385E+03 -0.16366934826E+03  0.73756714086E+03  0.00000000000E+00 0. -1.
</event>
<event>
 7    1  0.5696597E-006  0.1078036E+04  0.7818608E-02  0.8976567E-01
          4   -1    0    0  501    0 -0.00000000000E+00  0.00000000000E+00  0.54266663828E+03  0.54266663828E+03  0.00000000000E+00 0.  1.
          2   -1    0    0  502    0  0.00000000000E+00 -0.00000000000E+00 -0.12301290681E+04  0.12301290681E+04  0.00000000000E+00 0.  1.
    9000010    2    1    2  502    0  0.55056530636E+02 -0.30113072974E+03 -0.23108682830E+03  0.10911974275E+04  0.10215673084E+04 0.  0.
        -13    1    3    3    0    0 -0.40095614222E+02  0.14252138760E+03 -0.52838349579E+03  0.54873411958E+03  0.10566000000E+00 0.  1.
         13    1    1    2    0    0 -0.17638595701E+03  0.32689196444E+03 -0.27629594873E+03  0.46293609137E+03  0.10566000000E+00 0. -1.
          2    1    1    2  501    0  0.12132942638E+03 -0.25761234703E+02 -0.18007965281E+03  0.21866218757E+03  0.00000000000E+00 0.  1.
          4    1    3    3  502    0  0.95152144858E+02 -0.44365211734E+03  0.29729666749E+03  0.54246330787E+03  0.00000000000E+00 0.  1.
</event>
<event>
 7    1  0.5696597E-006  0.1025654E+04  0.7818608E-02  0.9073702E-01
          4   -1    0    0  501    0 -0.00000000000E+00  0.00000000000E+00  0.76412142019E+03  0.76412142019E+03  0.00000000000E+00 0.  1.
          2   -1    0    0  502    0  0.00000000000E+00 -0.00000000000E+00 -0.99620776332E+03  0.99620776332E+03  0.00000000000E+00 0. -1.
    9000010    2    1    2  502    0  0.26880460818E+03  0.81270881424E+01  0.22337334238E+03  0.10492965927E+04  0.98934610847E+03 0.  0.
        -13    1    3    3    0    0  0.27683656494E+03  0.20732804769E+03 -0.31957409363E+03  0.47090446540E+03  0.10566000000E+00 0.  1.
         13    1    1    2    0    0 -0.27088857745E+03  0.14217654400E+02 -0.16780749273E+02  0.27177999889E+03  0.10566000000E+00 0. -1.
          2    1    1    2  501    0  0.20839692712E+01 -0.22344742542E+02 -0.43867893623E+03  0.43925259196E+03  0.00000000000E+00 0. -1.
          4    1    3    3  502    0 -0.80319567621E+01 -0.19920095955E+03  0.54294743601E+03  0.57839212726E+03  0.00000000000E+00 0.  1.
</event>
<event>
 6    1  0.5696597E-006  0.1133763E+04  0.7818608E-02  0.8712297E-01
          2   -1    0    0  502    0  0.00000000000E+00  0.00000000000E+00  0.17343647537E+04  0.17343647537E+04  0.00000000000E+00 0. -1.
          4   -1    0    0  501    0 -0.00000000000E+00 -0.00000000000E+00 -0.67505549469E+03  0.67505549469E+03  0.00000000000E+00 0.  1.
        -13    1    1    2    0    0 -0.68911077620E+03 -0.32440752613E+03  0.18340785415E+03  0.78342348510E+03  0.10566000000E+00 0.  1.
         13    1    1    2    0    0  0.89004828761E+03  0.60723423126E+01  0.49232119789E+03  0.10171543642E+04  0.10566000000E+00 0. -1.
          2    1    1    2  501    0  0.12325197888E+02  0.17405624566E+02  0.19207201820E+03  0.19325249402E+03  0.00000000000E+00 0. -1.
          4    1    1    2  502    0 -0.21326270930E+03  0.30092955925E+03  0.19150818877E+03  0.41558990504E+03  0.00000000000E+00 0.  1.
</event>
<event>
 7    1  0.5696597E-006  0.9548457E+03  0.7818608E-02  0.9171137E-01
          2   -1    0    0  502    0  0.00000000000E+00  0.00000000000E+00  0.36997284571E+03  0.36997284571E+03  0.00000000000E+00 0. -1.
          4   -1    0    0  501    0 -0.00000000000E+00 -0.00000000000E+00 -0.20656459169E+04  0.20656459169E+04  0.00000000000E+00 0.  1.
    9000010    2    1    2  502    0  0.23886937421E+03 -0.79617895666E+02 -0.13440307480E+04  0.16520883823E+04  0.92713525676E+03 0.  0.
        -13    1    3    3    0    0 -0.15568451831E+03  0.52503599421E+02  0.69644838413E+02  0.17845086684E+03  0.10566000000E+00 0.  1.
         13    1    1    2    0    0 -0.22167488717E+03  0.40099339401E+02 -0.54273928127E+03  0.58763394321E+03  0.10566000000E+00 0. -1.
          2    1    1    2  501    0 -0.17194487040E+02  0.39518556266E+02  0.19109695805E+03  0.19589643705E+03  0.00000000000E+00 0. -1.
          4    1    3    3  502    0  0.39455389252E+03 -0.13212149509E+03 -0.14136755864E+04  0.14736375155E+04  0.00000000000E+00 0.  1.
</event>
<event>
 7    1  0.5696597E-006  0.1028608E+04  0.7818608E-02  0.9210764E-01
         -4   -1    0    0    0  502 -0.00000000000E+00  0.00000000000E+00  0.21727875086E+04  0.21727875086E+04  0.00000000000E+00 0. -1.
         -2   -1    0    0    0  501  0.00000000000E+00 -0.00000000000E+00 -0.45947819739E+03  0.45947819739E+03  0.00000000000E+00 0.  1.
   -9000010    2    1    2    0  501 -0.10861621052E+03 -0.80819721137E+02  0.18116359660E+04  0.20817913821E+04  0.10166125991E+04 0.  0.
        -13    1    1    2    0    0  0.95401626251E+02  0.13143464922E+03  0.19428377186E+03  0.25322466799E+03  0.10566000000E+00 0.  1.
         13    1    3    3    0    0  0.27322296983E+03  0.26141080756E+03  0.13137228769E+04  0.13670604266E+04  0.10566000000E+00 0. -1.
         -2    1    1    2    0  502  0.13214584266E+02 -0.50614928078E+02 -0.29261042663E+03  0.29724965594E+03  0.00000000000E+00 0.  1.
         -4    1    3    3    0  501 -0.38183918035E+03 -0.34223052869E+03  0.49791308909E+03  0.71473095547E+03  0.00000000000E+00 0. -1.
</event>
<event>
 7    1  0.5696597E-006  0.1047217E+04  0.7818608E-02  0.9011774E-01
          4   -1    0    0  501    0 -0.00000000000E+00  0.00000000000E+00  0.29824377518E+03  0.29824377518E+03  0.00000000000E+00 0.  1.
          2   -1    0    0  502    0  0.00000000000E+00 -0.00000000000E+00 -0.18365509103E+04  0.18365509103E+04  0.00000000000E+00 0.  1.
    9000010    2    1    2  502    0  0.29676372807E+03 -0.99780320338E+02 -0.12827731787E+04  0.16535174837E+04  0.99528298396E+03 0.  0.
        -13    1    3    3    0    0  0.46770566852E+03 -0.31960166007E+03 -0.31856867202E+03  0.64990754992E+03  0.10566000000E+00 0.  1.
         13    1    1    2    0    0 -0.30153956910E+03  0.12883631844E+03 -0.13066741072E+03  0.35298568253E+03  0.10566000000E+00 0. -1.
          2    1    1    2  501    0  0.47758410353E+01 -0.29055998100E+02 -0.12486654576E+03  0.12829151933E+03  0.00000000000E+00 0.  1.
          4    1    3    3  502    0 -0.17094194046E+03  0.21982133973E+03 -0.96420450667E+03  0.10036099337E+04  0.00000000000E+00 0.  1.
</event>
<event>
 7    1  0.5696597E-006  0.1405951E+04  0.7818608E-02  0.8539241E-01
         -4   -1    0    0    0  501 -0.00000000000E+00  0.00000000000E+00  0.33905469632E+04  0.33905469632E+04  0.00000000000E+00 0. -1.
          1   -1    0    0  501    0  0.00000000000E+00 -0.00000000000E+00 -0.10368066695E+04  0.10368066695E+04  0.00000000000E+00 0. -1.
   -9000010    2    1    2    0  502 -0.41846994929E+03 -0.95465114215E+03 -0.33757205855E+03  0.14703722510E+04  0.98059357535E+03 0.  0.
        -13    1    1    2    0    0  0.38099686080E+03  0.92902549927E+03  0.27225905079E+04  0.29018521794E+04  0.10566000000E+00 0.  1.
         13    1    3    3    0    0 -0.33133341890E+03 -0.77454155764E+03  0.22609543195E+03  0.87224745027E+03  0.10566000000E+00 0. -1.
          1    1    1    2  502    0  0.37473088491E+02  0.25625642880E+02 -0.31278155580E+02  0.55129202339E+02  0.00000000000E+00 0. -1.
         -4    1    3    3    0  502 -0.87136530386E+02 -0.18010958451E+03 -0.56366749050E+03  0.59812480069E+03  0.00000000000E+00 0. -1.
</event>
<event>
 7    1  0.5696597E-006  0.1032229E+04  0.7818608E-02  0.9047014E-01
         -4   -1    0    0    0  501 -0.00000000000E+00  0.00000000000E+00  0.17872794128E+03  0.17872794128E+03  0.00000000000E+00 0. -1.
          2   -1    0    0  501    0  0.00000000000E+00 -0.00000000000E+00 -0.36161251439E+04  0.36161251439E+04  0.00000000000E+00 0. -1.
   -9000010    2    1    2    0  502 -0.63546949303E+02 -0.25982071320E+03 -0.18074360476E+04  0.20776765702E+04  0.98912579912E+03 0.  0.
        -13    1    1    2    0    0  0.12628167648E+02  0.30382506383E+03 -0.49996942993E+03  0.58518252030E+03  0.10566000000E+00 0.  1.
         13    1    3    3    0    0  0.24257538708E+03 -0.49608039223E+03 -0.62693366049E+03  0.83545460666E+03  0.10566000000E+00 0. -1.
          2    1    1    2  502    0  0.50918781655E+02 -0.44004350635E+02 -0.11299917251E+04  0.11319939947E+04  0.00000000000E+00 0. -1.
         -4    1    3    3    0  502 -0.30612233638E+03  0.23625967903E+03 -0.11805023871E+04  0.12422219635E+04  0.00000000000E+00 0. -1.
</event>
<event>
 7    1  0.5696597E-006  0.1182884E+04  0.7818608E-02  0.8970454E-01
         -4   -1    0    0    0  501 -0.00000000000E+00  0.00000000000E+00  0.29187334262E+04  0.29187334262E+04  0.00000000000E+00 0. -1.
          1   -1    0    0  501    0  0.00000000000E+00 -0.00000000000E+00 -0.70700605658E+03  0.70700605658E+03  0.00000000000E+00 0. -1.
   -9000010    2    1    2    0  502  0.57627530961E+02 -0.58484318947E+03  0.13055511151E+04  0.17439055327E+04  0.99568082457E+03 0.  0.
        -13    1    1    2    0    0  0.26659290564E+03  0.18137752475E+02  0.11532120978E+04  0.11837647187E+04  0.10566000000E+00 0.  1.
         13    1    3    3    0    0  0.14222160872E+03 -0.32038241556E+03 -0.55432797526E+02  0.35488686140E+03  0.10566000000E+00 0. -1.
          1    1    1    2  502    0 -0.32422043660E+03  0.56670543699E+03 -0.24703584335E+03  0.69806923133E+03  0.00000000000E+00 0. -1.
         -4    1    3    3    0  502 -0.84594077764E+02 -0.26446077391E+03  0.13609839126E+04  0.13890186713E+04  0.00000000000E+00 0. -1.
</event>
<event>
 7    1  0.5696597E-006  0.1015759E+04  0.7818608E-02  0.9174927E-01
         -4   -1    0    0    0  501 -0.00000000000E+00  0.00000000000E+00  0.12916496485E+04  0.12916496485E+04  0.00000000000E+00 0. -1.
          1   -1    0    0  501    0  0.00000000000E+00 -0.00000000000E+00 -0.15886746329E+04  0.15886746329E+04  0.00000000000E+00 0. -1.
   -9000010    2    1    2    0  502  0.15451910239E+01  0.16863441379E+03  0.92016130968E+03  0.13681979771E+04  0.99841319884E+03 0.  0.
        -13    1    1    2    0    0  0.92315458585E+01 -0.19186069233E+03  0.84742789917E+02  0.20994546508E+03  0.10566000000E+00 0.  1.
         13    1    3    3    0    0 -0.24458154272E+03 -0.35593666400E+03  0.42665074757E+03  0.60707652844E+03  0.10566000000E+00 0. -1.
          1    1    1    2  502    0 -0.10776736882E+02  0.23226278534E+02 -0.13019290840E+04  0.13021808392E+04  0.00000000000E+00 0. -1.
         -4    1    3    3    0  502  0.24612673375E+03  0.52457107779E+03  0.49351056211E+03  0.76112144868E+03  0.00000000000E+00 0. -1.
</event>
<event>
 7    1  0.5696597E-006  0.1080626E+04  0.7818608E-02  0.8919989E-01
         -4   -1    0    0    0  501 -0.00000000000E+00  0.00000000000E+00  0.11436437405E+04  0.11436437405E+04  0.00000000000E+00 0. -1.
          5   -1    0    0  501    0  0.00000000000E+00 -0.00000000000E+00 -0.12661324016E+04  0.12661324016E+04  0.00000000000E+00 0. -1.
   -9000010    2    1    2    0  502  0.14067472464E+03 -0.39545717369E+03 -0.45101006244E+03  0.11668757833E+04  0.99096582324E+03 0.  0.
        -13    1    1    2    0    0 -0.15423038697E+03  0.40332439500E+03  0.72621718947E+03  0.84489584998E+03  0.10566000000E+00 0.  1.
         13    1    3    3    0    0  0.56378064388E+03 -0.18529434272E+03 -0.33069682941E+03  0.67936956953E+03  0.10566000000E+00 0. -1.
          5    1    1    2  502    0  0.13555662335E+02 -0.78672213106E+01 -0.39769578818E+03  0.39800450888E+03  0.00000000000E+00 0. -1.
         -4    1    3    3    0  502 -0.42310591924E+03 -0.21016283097E+03 -0.12031323303E+03  0.48750621376E+03  0.00000000000E+00 0. -1.
</event>
<event>
 7    1  0.5696597E-006  0.9743682E+03  0.7818608E-02  0.9051637E-01
          4   -1    0    0  501    0 -0.00000000000E+00  0.00000000000E+00  0.10653007916E+04  0.10653007916E+04  0.00000000000E+00 0.  1.
          2   -1    0    0  502    0  0.00000000000E+00 -0.00000000000E+00 -0.11822728554E+04  0.11822728554E+04  0.00000000000E+00 0.  1.
    9000010    2    1    2  502    0 -0.30480832569E+03 -0.17367579405E+03  0.68752050969E+03  0.11943453631E+04  0.91143019381E+03 0.  0.
        -13    1    3    3    0    0 -0.26619280274E+03 -0.42299467296E+03  0.77937259207E+03  0.92585352514E+03  0.10566000000E+00 0.  1.
         13    1    1    2    0    0  0.30099350954E+03  0.15573965839E+03 -0.10684793029E+03  0.35534268721E+03  0.10566000000E+00 0. -1.
          2    1    1    2  501    0  0.38148161435E+01  0.17936135657E+02 -0.69764464328E+03  0.69788559670E+03  0.00000000000E+00 0.  1.
          4    1    3    3  502    0 -0.38615522952E+02  0.24931887891E+03 -0.91852082381E+02  0.26849183793E+03  0.00000000000E+00 0.  1.
</event>
<event>
 7    1  0.5696597E-006  0.1098568E+04  0.7818608E-02  0.8859679E-01
          4   -1    0    0  501    0 -0.00000000000E+00  0.00000000000E+00  0.71686451494E+03  0.71686451494E+03  0.00000000000E+00 0.  1.
          2   -1    0    0  502    0  0.00000000000E+00 -0.00000000000E+00 -0.28585234756E+04  0.28585234756E+04  0.00000000000E+00 0. -1.
    9000010    2    1    2  502    0 -0.62268760629E+02  0.52628174187E+03  0.13801414145E+03  0.11086913044E+04  0.96400136663E+03 0.  0.
        -13    1    3    3    0    0  0.44420047139E+03  0.17861432238E+03 -0.13395954661E+01  0.47876814913E+03  0.10566000000E+00 0.  1.
         13    1    1    2    0    0  0.40383502841E+02 -0.52083474606E+03 -0.63675619113E+03  0.82362498634E+03  0.10566000000E+00 0. -1.
          2    1    1    2  501    0  0.21885257788E+02 -0.54469958070E+01 -0.16429169110E+04  0.16430716998E+04  0.00000000000E+00 0. -1.
          4    1    3    3  502    0 -0.50646923202E+03  0.34766741949E+03  0.13935373691E+03  0.62992315528E+03  0.00000000000E+00 0.  1.
</event>
<event>
 6    1  0.5696597E-006  0.7528292E+03  0.7818608E-02  0.9303203E-01
         -4   -1    0    0    0  501 -0.00000000000E+00  0.00000000000E+00  0.18447565703E+04  0.18447565703E+04  0.00000000000E+00 0. -1.
          1   -1    0    0  501    0  0.00000000000E+00 -0.00000000000E+00 -0.11496228552E+04  0.11496228552E+04  0.00000000000E+00 0.  1.
        -13    1    1    2    0    0  0.22124325612E+03  0.17318309287E+03  0.68354359030E+03  0.73903505535E+03  0.10566000000E+00 0.  1.
         13    1    1    2    0    0 -0.11740068583E+03 -0.35091759683E+03  0.18167385298E+03  0.41222746248E+03  0.10566000000E+00 0. -1.
          1    1    1    2  502    0 -0.18939776178E+02  0.19665907766E+02 -0.99678974002E+03  0.99716360185E+03  0.00000000000E+00 0.  1.
         -4    1    1    2    0  502 -0.84902794103E+02  0.15806859620E+03  0.82670601190E+03  0.84595330584E+03  0.00000000000E+00 0. -1.
</event>
<event>
 7    1  0.5696597E-006  0.1105939E+04  0.7818608E-02  0.8864023E-01
          4   -1    0    0  501    0 -0.00000000000E+00  0.00000000000E+00  0.58341497734E+03  0.58341497734E+03  0.00000000000E+00 0.  1.
          2   -1    0    0  502    0  0.00000000000E+00 -0.00000000000E+00 -0.14996337259E+04  0.14996337259E+04  0.00000000000E+00 0. -1.
    9000010    2    1    2  502    0  0.12834575000E+03  0.47991024130E+03 -0.23343201890E+03  0.11257172935E+04  0.98283388538E+03 0.  0.
        -13    1    3    3    0    0  0.30908246230E+03  0.54986722974E+03  0.19105528700E+03  0.65908123377E+03  0.10566000000E+00 0.  1.
         13    1    1    2    0    0 -0.16746745066E+03 -0.48700839720E+03 -0.35115259894E+03  0.62332229615E+03  0.10566000000E+00 0. -1.
          2    1    1    2  501    0  0.39121700655E+02  0.70981559028E+01 -0.33163413074E+03  0.33400911357E+03  0.00000000000E+00 0. -1.
          4    1    3    3  502    0 -0.18073671230E+03 -0.69956988446E+02 -0.42448730589E+03  0.46663605976E+03  0.00000000000E+00 0.  1.
</event>
<event>
 7    1  0.5696597E-006  0.1014278E+04  0.7818608E-02  0.9085596E-01
          2   -1    0    0  501    0  0.00000000000E+00  0.00000000000E+00  0.49236045812E+03  0.49236045812E+03  0.00000000000E+00 0. -1.
         -4   -1    0    0    0  501 -0.00000000000E+00 -0.00000000000E+00 -0.11452702788E+04  0.11452702788E+04  0.00000000000E+00 0. -1.
   -9000010    2    1    2    0  502 -0.68321116544E+02 -0.22466595722E+03 -0.14788735119E+03  0.10171579984E+04  0.97856893357E+03 0.  0.
        -13    1    1    2    0    0  0.69218184875E+02  0.26014432360E+03 -0.51710851162E+03  0.58298151787E+03  0.10566000000E+00 0.  1.
         13    1    3    3    0    0  0.20895395029E+03 -0.52411670018E+02 -0.49550105966E+03  0.54030551338E+03  0.10566000000E+00 0. -1.
          2    1    1    2  502    0 -0.89706833064E+00 -0.35478366386E+02  0.12086042129E+02  0.37491220671E+02  0.00000000000E+00 0. -1.
         -4    1    3    3    0  502 -0.27727506683E+03 -0.17225428720E+03  0.34761370847E+03  0.47685248501E+03  0.00000000000E+00 0. -1.
</event>
<event>
 7    1  0.5696597E-006  0.1041908E+04  0.7818608E-02  0.9053051E-01
          1   -1    0    0  501    0  0.00000000000E+00  0.00000000000E+00  0.96484024922E+03  0.96484024922E+03  0.00000000000E+00 0. -1.
         -4   -1    0    0    0  501 -0.00000000000E+00 -0.00000000000E+00 -0.14508447166E+04  0.14508447166E+04  0.00000000000E+00 0. -1.
   -9000010    2    1    2    0  502 -0.28462506763E+03 -0.41213079673E+02 -0.49382499871E+03  0.11548363014E+04  0.10035306705E+04 0.  0.
        -13    1    1    2    0    0  0.27737419441E+03  0.34256243907E+02 -0.59530166090E+03  0.65764276975E+03  0.10566000000E+00 0.  1.
         13    1    3    3    0    0 -0.18532233992E+03 -0.50674930018E+03 -0.39493046811E+03  0.66866232786E+03  0.10566000000E+00 0. -1.
          1    1    1    2  502    0  0.72508732246E+01  0.69568357665E+01  0.60312219219E+03  0.60320589473E+03  0.00000000000E+00 0. -1.
         -4    1    3    3    0  502 -0.99302727714E+02  0.46553622050E+03 -0.98894530599E+02  0.48617397351E+03  0.00000000000E+00 0. -1.
</event>
<event>
 7    1  0.5696597E-006  0.1024526E+04  0.7818608E-02  0.9168557E-01
         -4   -1    0    0    0  501 -0.00000000000E+00  0.00000000000E+00  0.28802148034E+04  0.28802148034E+04  0.00000000000E+00 0. -1.
          1   -1    0    0  501    0  0.00000000000E+00 -0.00000000000E+00 -0.12417436698E+04  0.12417436698E+04  0.00000000000E+00 0. -1.
   -9000010    2    1    2    0  502 -0.19731439227E+03 -0.15454144631E+03  0.16724799313E+04  0.19684483654E+04  0.10073647892E+04 0.  0.
        -13    1    1    2    0    0  0.95889744711E+02  0.15713508179E+03  0.10493686227E+04  0.10653923196E+04  0.10566000000E+00 0.  1.
         13    1    3    3    0    0 -0.52371423710E+03 -0.21928779958E+03  0.52359533336E+03  0.77234436973E+03  0.10566000000E+00 0. -1.
          1    1    1    2  502    0  0.10142464756E+03 -0.25936354723E+01 -0.10833774205E+04  0.10881177883E+04  0.00000000000E+00 0. -1.
         -4    1    3    3    0  502  0.32639984483E+03  0.64746353267E+02  0.11488845980E+04  0.11961039957E+04  0.00000000000E+00 0. -1.
</event>
<event>
 7    1  0.5696597E-006  0.1014489E+04  0.7818608E-02  0.9241657E-01
         -4   -1    0    0    0  501 -0.00000000000E+00  0.00000000000E+00  0.15553584401E+03  0.15553584401E+03  0.00000000000E+00 0. -1.
          2   -1    0    0  501    0  0.00000000000E+00 -0.00000000000E+00 -0.27594238155E+04  0.27594238155E+04  0.00000000000E+00 0. -1.
   -9000010    2    1    2    0  502  0.60011707022E+02  0.12257845399E+03 -0.20272480887E+04  0.22663936895E+04  0.10040810028E+04 0.  0.
        -13    1    1    2    0    0 -0.12398951522E+03 -0.79048040111E+02 -0.13313419495E+03  0.19836007048E+03  0.10566000000E+00 0.  1.
         13    1    3    3    0    0 -0.19738801255E+03 -0.31998951967E+03 -0.35337840549E+03  0.51597638398E+03  0.10566000000E+00 0. -1.
          2    1    1    2  502    0  0.63977808200E+02 -0.43530413877E+02 -0.44350568781E+03  0.45020589955E+03  0.00000000000E+00 0. -1.
         -4    1    3    3    0  502  0.25739971957E+03  0.44256797365E+03 -0.16738696832E+04  0.17504173055E+04  0.00000000000E+00 0. -1.
</event>
<event>
 7    1  0.5696597E-006  0.1019972E+04  0.7818608E-02  0.9384135E-01
          2   -1    0    0  501    0  0.00000000000E+00  0.00000000000E+00  0.20395487609E+04  0.20395487609E+04  0.00000000000E+00 0. -1.
         -4   -1    0    0    0  501 -0.00000000000E+00 -0.00000000000E+00 -0.33627990780E+03  0.33627990780E+03  0.00000000000E+00 0. -1.
   -9000010    2    1    2    0  502  0.14366895126E+03  0.45257526862E+02  0.72009237581E+03  0.12373415352E+04  0.99488292460E+03 0.  0.
        -13    1    1    2    0    0  0.60801408123E+02  0.56847706569E+02 -0.38392446372E+02  0.91664955541E+02  0.10566000000E+00 0.  1.
         13    1    3    3    0    0  0.52556028038E+03  0.17429074416E+03  0.22195375550E+03  0.59653529029E+03  0.10566000000E+00 0. -1.
          2    1    1    2  502    0 -0.20447035938E+03 -0.10210523343E+03  0.10215689236E+04  0.10468221780E+04  0.00000000000E+00 0. -1.
         -4    1    3    3    0  502 -0.38189132912E+03 -0.12903321730E+03  0.49813862030E+03  0.64080624487E+03  0.00000000000E+00 0. -1.
</event>
<event>
 7    1  0.5696597E-006  0.1074017E+04  0.7818608E-02  0.8974915E-01
          4   -1    0    0  501    0 -0.00000000000E+00  0.00000000000E+00  0.47933085862E+03  0.47933085862E+03  0.00000000000E+00 0.  1.
          2   -1    0    0  502    0  0.00000000000E+00 -0.00000000000E+00 -0.27395782352E+04  0.27395782352E+04  0.00000000000E+00 0.  1.
    9000010    2    1    2  502    0  0.32089437949E+03 -0.15774024684E+03 -0.43765973671E+03  0.11619056075E+04  0.10151962408E+04 0.  0.
        -13    1    3    3    0    0  0.23392968151E+03 -0.49193567108E+03 -0.57336993841E+03  0.79087097419E+03  0.10566000000E+00 0.  1.
         13    1    1    2    0    0 -0.28148728927E+03  0.20740983433E+03 -0.14549365446E+03  0.37871143111E+03  0.10566000000E+00 0. -1.
          2    1    1    2  501    0 -0.39407090213E+02 -0.49669587483E+02 -0.16770939854E+04  0.16782920552E+04  0.00000000000E+00 0.  1.
          4    1    3    3  502    0  0.86964697973E+02  0.33419542424E+03  0.13571020170E+03  0.37103463332E+03  0.00000000000E+00 0.  1.
</event>
<event>
 7    1  0.5696597E-006  0.1009208E+04  0.7818608E-02  0.9291351E-01
          2   -1    0    0  502    0  0.00000000000E+00  0.00000000000E+00  0.87860641403E+03  0.87860641403E+03  0.00000000000E+00 0.  1.
          4   -1    0    0  501    0 -0.00000000000E+00 -0.00000000000E+00 -0.89060438836E+03  0.89060438836E+03  0.00000000000E+00 0.  1.
    9000010    2    1    2  502    0 -0.11514457490E+03  0.61851205785E+02 -0.55791878362E+03  0.11541341413E+04  0.10018325220E+04 0.  0.
        -13    1    3    3    0    0 -0.24029624335E+03  0.11759809989E+03  0.23096900700E+03  0.35343781776E+03  0.10566000000E+00 0.  1.
         13    1    1    2    0    0  0.11692925251E+03 -0.26300516042E+02  0.71987202774E+02  0.13980821065E+03  0.10566000000E+00 0. -1.
          2    1    1    2  501    0 -0.17846776133E+01 -0.35550689743E+02  0.47393360652E+03  0.47526845046E+03  0.00000000000E+00 0.  1.
          4    1    3    3  502    0  0.12515166845E+03 -0.55746894109E+02 -0.78888779062E+03  0.80069632352E+03  0.00000000000E+00 0.  1.
</event>
<event>
 7    1  0.5696597E-006  0.1039545E+04  0.7818608E-02  0.9059316E-01
         -4   -1    0    0    0  502 -0.00000000000E+00  0.00000000000E+00  0.17409851593E+04  0.17409851593E+04  0.00000000000E+00 0. -1.
         -2   -1    0    0    0  501  0.00000000000E+00 -0.00000000000E+00 -0.73398115357E+03  0.73398115357E+03  0.00000000000E+00 0. -1.
   -9000010    2    1    2    0  501  0.80742315495E+02 -0.19659191609E+03  0.58617556029E+03  0.11771828177E+04  0.99849381361E+03 0.  0.
        -13    1    1    2    0    0 -0.27291336621E+03 -0.34750138299E+02  0.78130284063E+03  0.82832567116E+03  0.10566000000E+00 0.  1.
         13    1    3    3    0    0 -0.40690350978E+03 -0.29654212102E+03  0.17996644806E+03  0.53469208841E+03  0.10566000000E+00 0. -1.
         -2    1    1    2    0  502  0.19217105071E+03  0.23134205439E+03 -0.36047439523E+03  0.46945782396E+03  0.00000000000E+00 0. -1.
         -4    1    3    3    0  501  0.48764582527E+03  0.99950204930E+02  0.40620911223E+03  0.64249072929E+03  0.00000000000E+00 0. -1.
</event>
<event>
 7    1  0.5696597E-006  0.1092623E+04  0.7818608E-02  0.8908994E-01
          4   -1    0    0  501    0 -0.00000000000E+00  0.00000000000E+00  0.15011378490E+04  0.15011378490E+04  0.00000000000E+00 0.  1.
          2   -1    0    0  502    0  0.00000000000E+00 -0.00000000000E+00 -0.96194245230E+03  0.96194245230E+03  0.00000000000E+00 0. -1.
    9000010    2    1    2  502    0  0.89501912937E+02  0.41638362555E+03  0.10952458762E+04  0.15441600268E+04  0.10017388597E+04 0.  0.
        -13    1    3    3    0    0 -0.40818635527E+03 -0.29801317729E+02  0.31302782904E+03  0.51525785010E+03  0.10566000000E+00 0.  1.
         13    1    1    2    0    0 -0.11052973693E+03 -0.43555314397E+03 -0.97916182087E+02  0.45990320052E+03  0.10566000000E+00 0. -1.
          2    1    1    2  501    0  0.21027823994E+02  0.19169518417E+02 -0.45813429736E+03  0.45901707402E+03  0.00000000000E+00 0. -1.
          4    1    3    3  502    0  0.49768826821E+03  0.44618494328E+03  0.78221804715E+03  0.10289021767E+04  0.00000000000E+00 0.  1.
</event>
<event>
 7    1  0.5696597E-006  0.1354964E+04  0.7818608E-02  0.8573616E-01
         -4   -1    0    0    0  501 -0.00000000000E+00  0.00000000000E+00  0.16067384213E+04  0.16067384213E+04  0.00000000000E+00 0. -1.
          2   -1    0    0  501    0  0.00000000000E+00 -0.00000000000E+00 -0.13949584561E+04  0.13949584561E+04  0.00000000000E+00 0. -1.
   -9000010    2    1    2    0  502  0.13313787609E+03  0.92250453553E+03 -0.63090406178E+03  0.14735995338E+04  0.95116525313E+03 0.  0.
        -13    1    1    2    0    0 -0.25849169546E+02 -0.97206337211E+03  0.95652256324E+03  0.13640054267E+04  0.10566000000E+00 0.  1.
         13    1    3    3    0    0 -0.70242636440E+02  0.10750646322E+04 -0.51799559879E+03  0.11954151759E+04  0.10566000000E+00 0. -1.
          2    1    1    2  502    0 -0.10728870655E+03  0.49558836577E+02 -0.11383853625E+03  0.16409191683E+03  0.00000000000E+00 0. -1.
         -4    1    3    3    0  502  0.20338051253E+03 -0.15256009663E+03 -0.11290846299E+03  0.27818435789E+03  0.00000000000E+00 0. -1.
</event>
<event>
 7    1  0.5696597E-006  0.1295299E+04  0.7818608E-02  0.8962788E-01
         -4   -1    0    0    0  501 -0.00000000000E+00  0.00000000000E+00  0.16597640676E+04  0.16597640676E+04  0.00000000000E+00 0. -1.
          2   -1    0    0  501    0  0.00000000000E+00 -0.00000000000E+00 -0.86323850384E+03  0.86323850384E+03  0.00000000000E+00 0. -1.
   -9000010    2    1    2    0  502  0.27304274192E+03 -0.48936371745E+03  0.66386840041E+02  0.12637556766E+04  0.11307705385E+04 0.  0.
        -13    1    1    2    0    0  0.19567450960E+03 -0.76130913565E+02 -0.18113110663E+02  0.21074279501E+03  0.10566000000E+00 0.  1.
         13    1    3    3    0    0  0.43096502234E+03 -0.13117945514E+03  0.50441915939E+03  0.67629697579E+03  0.10566000000E+00 0. -1.
          2    1    1    2  502    0 -0.46871725152E+03  0.56549463102E+03  0.74825183435E+03  0.10485040998E+04  0.00000000000E+00 0. -1.
         -4    1    3    3    0  502 -0.15792228042E+03 -0.35818426231E+03 -0.43803231935E+03  0.58745870086E+03  0.00000000000E+00 0. -1.
</event>
<event>
 7    1  0.5696597E-006  0.1118707E+04  0.7818608E-02  0.8970907E-01
          1   -1    0    0  501    0  0.00000000000E+00  0.00000000000E+00  0.17756075154E+04  0.17756075154E+04  0.00000000000E+00 0.  1.
         -4   -1    0    0    0  501 -0.00000000000E+00 -0.00000000000E+00 -0.11823679971E+04  0.11823679971E+04  0.00000000000E+00 0. -1.
   -9000010    2    1    2    0  502  0.15788976557E+03 -0.14175169248E+03  0.47255913620E+03  0.11918152248E+04  0.10733539363E+04 0.  0.
        -13    1    1    2    0    0 -0.12726489795E+03  0.29349406981E+03 -0.78482542197E+03  0.84751759710E+03  0.10566000000E+00 0.  1.
         13    1    3    3    0    0  0.16554049223E+03 -0.53269532357E+03 -0.25734994811E+02  0.55841764249E+03  0.10566000000E+00 0. -1.
          1    1    1    2  502    0 -0.30624867620E+02 -0.15174237733E+03  0.90550580409E+03  0.91864269052E+03  0.00000000000E+00 0.  1.
         -4    1    3    3    0  502 -0.76507266574E+01  0.39094363109E+03  0.49829413101E+03  0.63339758233E+03  0.00000000000E+00 0. -1.
</event>
<event>
 6    1  0.5696597E-006  0.6563908E+03  0.7818608E-02  0.9589998E-01
          2   -1    0    0  502    0  0.00000000000E+00  0.00000000000E+00  0.25679256992E+04  0.25679256992E+04  0.00000000000E+00 0. -1.
          4   -1    0    0  501    0 -0.00000000000E+00 -0.00000000000E+00 -0.15041347434E+04  0.15041347434E+04  0.00000000000E+00 0.  1.
        -13    1    1    2    0    0  0.25459654318E+03  0.13508065913E+03 -0.11048313132E+04  0.11418048984E+04  0.10566000000E+00 0.  1.
         13    1    1    2    0    0 -0.15071885647E+03 -0.31053428683E+02 -0.25348410582E+03  0.29653784278E+03  0.10566000000E+00 0. -1.
          2    1    1    2  501    0  0.33699465592E+02 -0.53972642041E+01  0.24600103529E+04  0.24602470854E+04  0.00000000000E+00 0. -1.
          4    1    1    2  502    0 -0.13757715230E+03 -0.98629966247E+02 -0.37903978116E+02  0.17347061605E+03  0.00000000000E+00 0.  1.
</event>
<event>
 7    1  0.5696597E-006  0.1014710E+04  0.7818608E-02  0.9260374E-01
          4   -1    0    0  501    0 -0.00000000000E+00  0.00000000000E+00  0.81234154678E+03  0.81234154678E+03  0.00000000000E+00 0.  1.
          2   -1    0    0  502    0  0.00000000000E+00 -0.00000000000E+00 -0.16803422107E+04  0.16803422107E+04  0.00000000000E+00 0. -1.
    9000010    2    1    2  502    0 -0.14066432948E+03  0.10458208782E+01  0.30889495650E+03  0.10614434875E+04  0.10057129986E+04 0.  0.
        -13    1    3    3    0    0  0.56443485260E+02  0.44148915601E+03 -0.66576934950E+02  0.45003448905E+03  0.10566000000E+00 0.  1.
         13    1    1    2    0    0  0.13243459609E+03 -0.23135170026E+02  0.91501327010E+02  0.16262429813E+03  0.10566000000E+00 0. -1.
          2    1    1    2  501    0  0.82297333912E+01  0.22089349147E+02 -0.12683969474E+04  0.12686159718E+04  0.00000000000E+00 0. -1.
          4    1    3    3  502    0 -0.19710781474E+03 -0.44044333513E+03  0.37547189145E+03  0.61140899843E+03  0.00000000000E+00 0.  1.
</event>
<event>
 7    1  0.5696597E-006  0.1036021E+04  0.7818608E-02  0.9005264E-01
          1   -1    0    0  501    0  0.00000000000E+00  0.00000000000E+00  0.18115955205E+04  0.18115955205E+04  0.00000000000E+00 0. -1.
         -4   -1    0    0    0  501 -0.00000000000E+00 -0.00000000000E+00 -0.39143764116E+03  0.39143764116E+03  0.00000000000E+00 0. -1.
   -9000010    2    1    2    0  502 -0.86609479310E+02  0.32177017806E+03  0.98686178085E+03  0.14279427619E+04  0.97677382605E+03 0.  0.
        -13    1    1    2    0    0  0.85047567121E+02 -0.33652115243E+03  0.56098798168E+01  0.34714702450E+03  0.10566000000E+00 0.  1.
         13    1    3    3    0    0 -0.28240919147E+02 -0.33522998094E+03  0.52194950276E+03  0.62097341668E+03  0.10566000000E+00 0. -1.
          1    1    1    2  502    0  0.15619121888E+01  0.14750974365E+02  0.42768621869E+03  0.42794337531E+03  0.00000000000E+00 0. -1.
         -4    1    3    3    0  502 -0.58368560163E+02  0.65700015900E+03  0.46491227809E+03  0.80696934518E+03  0.00000000000E+00 0. -1.
</event>
<event>
 7    1  0.5696597E-006  0.1559035E+04  0.7818608E-02  0.8589716E-01
         -4   -1    0    0    0  501 -0.00000000000E+00  0.00000000000E+00  0.24121026396E+04  0.24121026396E+04  0.00000000000E+00 0. -1.
          2   -1    0    0  501    0  0.00000000000E+00 -0.00000000000E+00 -0.13823773454E+04  0.13823773454E+04  0.00000000000E+00 0. -1.
   -9000010    2    1    2    0  502  0.13171659315E+04 -0.20871501605E+03 -0.65766880398E+02  0.16713168665E+04  0.10052296935E+04 0.  0.
        -13    1    1    2    0    0 -0.24777352605E+03  0.53508610519E+03  0.74768205284E+03  0.95222755866E+03  0.10566000000E+00 0.  1.
         13    1    3    3    0    0  0.43556509107E+03  0.88185564436E+02 -0.47900790034E+03  0.65340815888E+03  0.10566000000E+00 0. -1.
          2    1    1    2  502    0 -0.10693924054E+04 -0.32637108914E+03  0.34781012174E+03  0.11709355599E+04  0.00000000000E+00 0. -1.
         -4    1    3    3    0  502  0.88160084040E+03 -0.29690058048E+03  0.41324101994E+03  0.10179087076E+04  0.00000000000E+00 0. -1.
</event>
<event>
 7    1  0.5696597E-006  0.1087589E+04  0.7818608E-02  0.8920149E-01
          1   -1    0    0  501    0  0.00000000000E+00  0.00000000000E+00  0.12839966666E+04  0.12839966666E+04  0.00000000000E+00 0. -1.
         -4   -1    0    0    0  501 -0.00000000000E+00 -0.00000000000E+00 -0.17199880591E+04  0.17199880591E+04  0.00000000000E+00 0. -1.
   -9000010    2    1    2    0  502  0.41660538963E+03 -0.22032531121E+03 -0.35216410890E+03  0.11621054457E+04  0.10021807292E+04 0.  0.
        -13    1    1    2    0    0 -0.39031819351E+03  0.14782437241E+03 -0.91575569722E+03  0.10063840447E+04  0.10566000000E+00 0.  1.
         13    1    3    3    0    0 -0.75962737126E+02  0.29150871246E+03  0.10308586947E+03  0.31839342725E+03  0.10566000000E+00 0. -1.
          1    1    1    2  502    0 -0.26287196126E+02  0.72500938795E+02  0.83192841367E+03  0.83549523534E+03  0.00000000000E+00 0. -1.
         -4    1    3    3    0  502  0.49256812676E+03 -0.51183402367E+03 -0.45524997837E+03  0.84371201846E+03  0.00000000000E+00 0. -1.
</event>
<event>
 6    1  0.5696597E-006  0.2104649E+04  0.7818608E-02  0.8476118E-01
          4   -1    0    0  501    0 -0.00000000000E+00  0.00000000000E+00  0.24301377404E+04  0.24301377404E+04  0.00000000000E+00 0.  1.
          2   -1    0    0  502    0  0.00000000000E+00 -0.00000000000E+00 -0.20301012234E+04  0.20301012234E+04  0.00000000000E+00 0.  1.
        -13    1    1    2    0    0  0.52367547624E+03  0.46135381356E+03  0.11587049000E+04  0.13526567939E+04  0.10566000000E+00 0.  1.
         13    1    1    2    0    0  0.16685507442E+03 -0.37225263343E+03  0.94928987439E+03  0.10332298465E+04  0.10566000000E+00 0. -1.
          2    1    1    2  501    0 -0.47835710936E+02  0.14867527500E+03 -0.12275878527E+04  0.12374831428E+04  0.00000000000E+00 0.  1.
          4    1    1    2  502    0 -0.64269483973E+03 -0.23777645513E+03 -0.48037040473E+03  0.83686918056E+03  0.00000000000E+00 0.  1.
</event>
<event>
 7    1  0.5696597E-006  0.1069781E+04  0.7818608E-02  0.8981553E-01
          1   -1    0    0  501    0  0.00000000000E+00  0.00000000000E+00  0.11177027795E+04  0.11177027795E+04  0.00000000000E+00 0.  1.
         -4   -1    0    0    0  501 -0.00000000000E+00 -0.00000000000E+00 -0.21079445084E+04  0.21079445084E+04  0.00000000000E+00 0. -1.
   -9000010    2    1    2    0  502  0.85948329639E+02 -0.33859743392E+03 -0.17138797788E+04  0.20210455614E+04  0.10125245318E+04 0.  0.
        -13    1    1    2    0    0 -0.33079055622E+02  0.34223386296E+03 -0.11632129269E+03  0.36297230635E+03  0.10566000000E+00 0.  1.
         13    1    3    3    0    0  0.48659716376E+03 -0.99014781470E+02 -0.13198157870E+04  0.14101398688E+04  0.10566000000E+00 0. -1.
          1    1    1    2  502    0 -0.52869274017E+02 -0.36364290338E+01  0.83995934255E+03  0.84162942017E+03  0.00000000000E+00 0.  1.
         -4    1    3    3    0  502 -0.40064883412E+03 -0.23958265245E+03 -0.39406399176E+03  0.61090569259E+03  0.00000000000E+00 0. -1.
</event>
<event>
 7    1  0.5696597E-006  0.1025464E+04  0.7818608E-02  0.9162285E-01
          4   -1    0    0  501    0 -0.00000000000E+00  0.00000000000E+00  0.15705636921E+04  0.15705636921E+04  0.00000000000E+00 0.  1.
          2   -1    0    0  502    0  0.00000000000E+00 -0.00000000000E+00 -0.61433015341E+03  0.61433015341E+03  0.00000000000E+00 0. -1.
    9000010    2    1    2  502    0  0.16015396225E+03 -0.29283384314E+02  0.70513739378E+03  0.12405169149E+04  0.10075498319E+04 0.  0.
        -13    1    3    3    0    0 -0.21954718673E+03 -0.65622062071E+02 -0.17036100048E+03  0.28553476825E+03  0.10566000000E+00 0.  1.
         13    1    1    2    0    0 -0.18342553712E+03  0.58537839339E+02  0.58114903624E+03  0.61221386769E+03  0.10566000000E+00 0. -1.
          2    1    1    2  501    0  0.23271574870E+02 -0.29254455025E+02 -0.33005289131E+03  0.33216306296E+03  0.00000000000E+00 0. -1.
          4    1    3    3  502    0  0.37970114898E+03  0.36338677757E+02  0.87549839425E+03  0.95498214662E+03  0.00000000000E+00 0.  1.
</event>
<event>
 7    1  0.5696597E-006  0.1021357E+04  0.7818608E-02  0.9180305E-01
          4   -1    0    0  501    0 -0.00000000000E+00  0.00000000000E+00  0.13411340567E+04  0.13411340567E+04  0.00000000000E+00 0.  1.
          2   -1    0    0  502    0  0.00000000000E+00 -0.00000000000E+00 -0.10550729045E+04  0.10550729045E+04  0.00000000000E+00 0. -1.
    9000010    2    1    2  502    0  0.56784649108E+02  0.16301953504E+03  0.10532621755E+04  0.14662588191E+04  0.10053625461E+04 0.  0.
        -13    1    3    3    0    0  0.26670041036E+03  0.39833244110E+03  0.13896193556E+03  0.49910747662E+03  0.10566000000E+00 0.  1.
         13    1    1    2    0    0 -0.59831358359E+02 -0.17376745035E+03 -0.22486842657E+02  0.18515017554E+03  0.10566000000E+00 0. -1.
          2    1    1    2  501    0  0.30467092506E+01  0.10747915316E+02 -0.74471418063E+03  0.74479796654E+03  0.00000000000E+00 0. -1.
          4    1    3    3  502    0 -0.20991576125E+03 -0.23531290606E+03  0.91430023992E+03  0.96715134250E+03  0.00000000000E+00 0.  1.
</event>
<event>
 7    1  0.5696597E-006  0.1181010E+04  0.7818608E-02  0.8759139E-01
          4   -1    0    0  501    0 -0.00000000000E+00  0.00000000000E+00  0.85472333247E+03  0.85472333247E+03  0.00000000000E+00 0.  1.
          2   -1    0    0  502    0  0.00000000000E+00 -0.00000000000E+00 -0.22915041532E+04  0.22915041532E+04  0.00000000000E+00 0.  1.
    9000010    2    1    2  502    0  0.35559241304E+03 -0.56553790005E+03 -0.23722373503E+03  0.12152712722E+04  0.98708159948E+03 0.  0.
        -13    1    3    3    0    0  0.37998142253E+03 -0.32040499749E+03  0.33017163193E+03  0.59670642830E+03  0.10566000000E+00 0.  1.
         13    1    1    2    0    0 -0.31654508587E+03  0.55740460267E+03  0.84251295223E+02  0.64652840184E+03  0.10566000000E+00 0. -1.
          2    1    1    2  501    0 -0.39047327173E+02  0.81332973820E+01 -0.12838083809E+04  0.12844278116E+04  0.00000000000E+00 0.  1.
          4    1    3    3  502    0 -0.24389009491E+02 -0.24513290257E+03 -0.56739536695E+03  0.61856484393E+03  0.00000000000E+00 0.  1.
</event>
<event>
 7    1  0.5696597E-006  0.1009833E+04  0.7818608E-02  0.9419646E-01
          2   -1    0    0  501    0  0.00000000000E+00  0.00000000000E+00  0.50966700736E+03  0.50966700736E+03  0.00000000000E+00 0. -1.
         -4   -1    0    0    0  501 -0.00000000000E+00 -0.00000000000E+00 -0.93931026437E+03  0.93931026437E+03  0.00000000000E+00 0. -1.
   -9000010    2    1    2    0  502  0.22195057132E+02  0.55349863922E+02 -0.33918237592E+03  0.10588170072E+04  0.10012454957E+04 0.  0.
        -13    1    1    2    0    0  0.21331162399E+02  0.72098936323E+02 -0.20184318908E+03  0.21539257009E+03  0.10566000000E+00 0.  1.
         13    1    3    3    0    0  0.40699611890E+03  0.32627824252E+03 -0.10083765631E+03  0.53129236437E+03  0.10566000000E+00 0. -1.
          2    1    1    2  502    0 -0.43526219531E+02 -0.12744880025E+03  0.11138230799E+03  0.17476769439E+03  0.00000000000E+00 0. -1.
         -4    1    3    3    0  502 -0.38480106177E+03 -0.27092837860E+03 -0.23834471961E+03  0.52752464288E+03  0.00000000000E+00 0. -1.
</event>
<event>
 7    1  0.5696597E-006  0.9964311E+03  0.7818608E-02  0.9198384E-01
         -4   -1    0    0    0  501  0.00000000000E+00  0.00000000000E+00  0.52671807255E+03  0.52671807255E+03  0.00000000000E+00 0. -1.
         -4   -1    0    0    0  502 -0.00000000000E+00 -0.00000000000E+00 -0.29043713055E+04  0.29043713055E+04  0.00000000000E+00 0. -1.
   -9000010    2    1    2    0  501 -0.83426638973E+02 -0.17355371254E+03 -0.20315760475E+04  0.22637545294E+04  0.97989919762E+03 0.  0.
        -13    1    1    2    0    0  0.83053414350E+02  0.15933178376E+03 -0.74591158984E+03  0.76724741640E+03  0.10566000000E+00 0.  1.
         13    1    3    3    0    0 -0.51274122869E+03 -0.26771096067E+02 -0.13561049683E+04  0.14500486045E+04  0.10566000000E+00 0. -1.
         -4    1    1    2    0  502  0.37322462354E+00  0.14221928784E+02  0.39983440435E+03  0.40008743226E+03  0.00000000000E+00 0. -1.
         -4    1    3    3    0  501  0.42931458971E+03 -0.14678261647E+03 -0.67547107924E+03  0.81370592497E+03  0.00000000000E+00 0. -1.
</event>
<event>
 7    1  0.5696597E-006  0.9823988E+03  0.7818608E-02  0.9218550E-01
          2   -1    0    0  502    0  0.00000000000E+00  0.00000000000E+00  0.13029801620E+04  0.13029801620E+04  0.00000000000E+00 0. -1.
          4   -1    0    0  501    0 -0.00000000000E+00 -0.00000000000E+00 -0.62431061073E+03  0.62431061073E+03  0.00000000000E+00 0.  1.
    9000010    2    1    2  502    0 -0.97714057824E+02  0.14339005686E+03 -0.18885376089E+03  0.10002222380E+04  0.96678334533E+03 0.  0.
        -13    1    3    3    0    0  0.61195494361E+02 -0.40237881052E+03 -0.21098115899E+02  0.40755212837E+03  0.10566000000E+00 0.  1.
         13    1    1    2    0    0  0.89276333756E+02 -0.15074759594E+03  0.22844774103E+03  0.28789491658E+03  0.10566000000E+00 0. -1.
          2    1    1    2  501    0  0.84377240681E+01  0.73575390745E+01  0.63907557115E+03  0.63917361821E+03  0.00000000000E+00 0. -1.
          4    1    3    3  502    0 -0.15890955219E+03  0.54576886738E+03 -0.16775564499E+03  0.59267010959E+03  0.00000000000E+00 0.  1.
</event>
<event>
 7    1  0.5696597E-006  0.9571041E+03  0.7818608E-02  0.9385927E-01
          4   -1    0    0  501    0 -0.00000000000E+00  0.00000000000E+00  0.82977835178E+03  0.82977835178E+03  0.00000000000E+00 0.  1.
          2   -1    0    0  502    0  0.00000000000E+00 -0.00000000000E+00 -0.12986499365E+04  0.12986499365E+04  0.00000000000E+00 0.  1.
    9000010    2    1    2  502    0  0.80669792532E+02  0.60105769135E+02  0.54161709155E+03  0.10997742573E+04  0.95185819545E+03 0.  0.
        -13    1    3    3    0    0  0.36720254158E+03  0.37908710139E+03  0.27929733861E+03  0.59711954540E+03  0.10566000000E+00 0.  1.
         13    1    1    2    0    0 -0.72201082366E+02 -0.69080585663E+02 -0.26736736657E+03  0.28543027779E+03  0.10566000000E+00 0. -1.
          2    1    1    2  501    0 -0.84687101669E+01  0.89748165275E+01 -0.74312130971E+03  0.74322375320E+03  0.00000000000E+00 0.  1.
          4    1    3    3  502    0 -0.28653274905E+03 -0.31898133225E+03  0.26231975295E+03  0.50265471190E+03  0.00000000000E+00 0.  1.
</event>
<event>
 7    1  0.5696597E-006  0.1036394E+04  0.7818608E-02  0.9075372E-01
          2   -1    0    0  501    0  0.00000000000E+00  0.00000000000E+00  0.81341983938E+03  0.81341983938E+03  0.00000000000E+00 0. -1.
         -4   -1    0    0    0  501 -0.00000000000E+00 -0.00000000000E+00 -0.16790725174E+04  0.16790725174E+04  0.00000000000E+00 0. -1.
   -9000010    2    1    2    0  502 -0.87753893306E+02 -0.25364150828E+03 -0.54851584093E+03  0.11743925792E+04  0.10031418353E+04 0.  0.
        -13    1    1    2    0    0  0.42165689974E+02  0.25669405407E+03 -0.79581177869E+03  0.83724917502E+03  0.10566000000E+00 0.  1.
         13    1    3    3    0    0 -0.15319226783E+01  0.22736275576E+03  0.18491896390E+03  0.29307201140E+03  0.10566000000E+00 0. -1.
          2    1    1    2  502    0  0.45588203332E+02 -0.30525457845E+01  0.47867494159E+03  0.48085060260E+03  0.00000000000E+00 0. -1.
         -4    1    3    3    0  502 -0.86221970628E+02 -0.48100426404E+03 -0.73343480483E+03  0.88132056777E+03  0.00000000000E+00 0. -1.
</event>
<event>
 7    1  0.5696597E-006  0.1064165E+04  0.7818608E-02  0.9062929E-01
          4   -1    0    0  501    0 -0.00000000000E+00  0.00000000000E+00  0.22902343232E+04  0.22902343232E+04  0.00000000000E+00 0.  1.
          2   -1    0    0  502    0  0.00000000000E+00 -0.00000000000E+00 -0.12115983181E+04  0.12115983181E+04  0.00000000000E+00 0.  1.
    9000010    2    1    2  502    0  0.23927058472E+03  0.49936542292E+02  0.19733382505E+04  0.22410608417E+04  0.10337048779E+04 0.  0.
        -13    1    3    3    0    0  0.28998721514E+03 -0.40228373307E+03  0.15194987638E+04  0.15983745779E+04  0.10566000000E+00 0.  1.
         13    1    1    2    0    0 -0.25397250206E+03 -0.48209007848E+02  0.91676327365E+02  0.27428215473E+03  0.10566000000E+00 0. -1.
          2    1    1    2  501    0  0.14701917343E+02 -0.17275344437E+01 -0.98637857272E+03  0.98648964489E+03  0.00000000000E+00 0.  1.
          4    1    3    3  502    0 -0.50716630419E+02  0.45222027536E+03  0.45383948663E+03  0.64268626380E+03  0.00000000000E+00 0.  1.
</event>
<event>
 7    1  0.5696597E-006  0.1076712E+04  0.7818608E-02  0.9049994E-01
          4   -1    0    0  501    0 -0.00000000000E+00  0.00000000000E+00  0.30508695653E+04  0.30508695653E+04  0.00000000000E+00 0.  1.
          2   -1    0    0  502    0  0.00000000000E+00 -0.00000000000E+00 -0.82775929722E+03  0.82775929722E+03  0.00000000000E+00 0.  1.
    9000010    2    1    2  502    0 -0.16759621344E+03 -0.98659446684E+01  0.13928870940E+04  0.17232001756E+04  0.10005491297E+04 0.  0.
        -13    1    3    3    0    0 -0.48982301356E+03  0.11284424544E+02  0.12968270359E+04  0.13862951688E+04  0.10566000000E+00 0.  1.
         13    1    1    2    0    0 -0.20540965038E+03 -0.15444893474E+03  0.14174769782E+04  0.14405861977E+04  0.10566000000E+00 0. -1.
          2    1    1    2  501    0  0.37300586383E+03  0.16431487940E+03 -0.58725380409E+03  0.71484248927E+03  0.00000000000E+00 0.  1.
          4    1    3    3  502    0  0.32222680012E+03 -0.21150369213E+02  0.96060058024E+02  0.33690500676E+03  0.00000000000E+00 0.  1.
</event>
<event>
 7    1  0.5696597E-006  0.1080354E+04  0.7818608E-02  0.8930415E-01
          2   -1    0    0  502    0  0.00000000000E+00  0.00000000000E+00  0.12040752735E+04  0.12040752735E+04  0.00000000000E+00 0.  1.
          4   -1    0    0  501    0 -0.00000000000E+00 -0.00000000000E+00 -0.16121644086E+04  0.16121644086E+04  0.00000000000E+00 0.  1.
    9000010    2    1    2  502    0  0.13366195255E+03  0.38418248226E+03 -0.10726021282E+04  0.15206521651E+04  0.99822141066E+03 0.  0.
        -13    1    3    3    0    0  0.20459875224E+03  0.25049790268E+03 -0.12478600858E+04  0.12890945091E+04  0.10566000000E+00 0.  1.
         13    1    1    2    0    0 -0.12455572004E+03 -0.39818287328E+03 -0.17750764535E+03  0.45340126079E+03  0.10566000000E+00 0. -1.
          2    1    1    2  501    0 -0.91062325112E+01  0.14000391012E+02  0.84202063851E+03  0.84218625618E+03  0.00000000000E+00 0.  1.
          4    1    3    3  502    0 -0.70936799695E+02  0.13368457958E+03  0.17525795757E+03  0.23155765602E+03  0.00000000000E+00 0.  1.
</event>
<event>
 7    1  0.5696597E-006  0.1091570E+04  0.7818608E-02  0.8916064E-01
          1   -1    0    0  501    0  0.00000000000E+00  0.00000000000E+00  0.13372834226E+04  0.13372834226E+04  0.00000000000E+00 0.  1.
         -4   -1    0    0    0  501 -0.00000000000E+00 -0.00000000000E+00 -0.24011604955E+04  0.24011604955E+04  0.00000000000E+00 0. -1.
   -9000010    2    1    2    0  502 -0.91165165062E+02  0.43177361227E+03 -0.13146951116E+04  0.17129199973E+04  0.10054512128E+04 0.  0.
        -13    1    1    2    0    0  0.78839360542E+02 -0.41343592314E+03 -0.83732623452E+03  0.93715534545E+03  0.10566000000E+00 0.  1.
         13    1    3    3    0    0 -0.49730345743E+03  0.47620193571E+03 -0.85899565042E+03  0.11008871654E+04  0.10566000000E+00 0. -1.
          1    1    1    2  502    0  0.12325804520E+02 -0.18337689130E+02  0.10881442732E+04  0.10883685753E+04  0.00000000000E+00 0.  1.
         -4    1    3    3    0  502  0.40613829237E+03 -0.44428323437E+02 -0.45569946115E+03  0.61203283192E+03  0.00000000000E+00 0. -1.
</event>
<event>
 7    1  0.5696597E-006  0.1087336E+04  0.7818608E-02  0.8933958E-01
         -4   -1    0    0    0  501 -0.00000000000E+00  0.00000000000E+00  0.14655689670E+04  0.14655689670E+04  0.00000000000E+00 0. -1.
          2   -1    0    0  501    0  0.00000000000E+00 -0.00000000000E+00 -0.10512622452E+04  0.10512622452E+04  0.00000000000E+00 0. -1.
   -9000010    2    1    2    0  502  0.34819567441E+03  0.13533284373E+03  0.26161659418E+03  0.11093981428E+04  0.10113188373E+04 0.  0.
        -13    1    1    2    0    0 -0.36879453846E+03 -0.16154466363E+03  0.72759355616E+03  0.83156387853E+03  0.10566000000E+00 0.  1.
         13    1    3    3    0    0  0.50853522893E+03 -0.31525732720E+03  0.17456699259E+03  0.62327273925E+03  0.10566000000E+00 0. -1.
          2    1    1    2  502    0  0.20598864057E+02  0.26211819900E+02 -0.57490342854E+03  0.57586919074E+03  0.00000000000E+00 0. -1.
         -4    1    3    3    0  502 -0.16033955453E+03  0.45059017093E+03  0.87049601590E+02  0.48612540360E+03  0.00000000000E+00 0. -1.
</event>
<event>
 7    1  0.5696597E-006  0.1212026E+04  0.7818608E-02  0.9031622E-01
         -4   -1    0    0    0  501 -0.00000000000E+00  0.00000000000E+00  0.15142229955E+04  0.15142229955E+04  0.00000000000E+00 0. -1.
          1   -1    0    0  501    0  0.00000000000E+00 -0.00000000000E+00 -0.11225027509E+04  0.11225027509E+04  0.00000000000E+00 0.  1.
   -9000010    2    1    2    0  502  0.21106586313E+03  0.16731692517E+02  0.81280627592E+03  0.14618058962E+04  0.11964086626E+04 0.  0.
        -13    1    1    2    0    0 -0.19252896693E+03 -0.56997685913E+01  0.35214918867E+03  0.40138379727E+03  0.10566000000E+00 0.  1.
         13    1    3    3    0    0 -0.35383662625E+03 -0.37929788482E+03  0.27534494807E+03  0.58726663033E+03  0.10566000000E+00 0. -1.
          1    1    1    2  502    0 -0.18536896199E+02 -0.11031923925E+02 -0.77323521990E+03  0.77353605292E+03  0.00000000000E+00 0.  1.
         -4    1    3    3    0  502  0.56490248938E+03  0.39602957734E+03  0.53746132785E+03  0.87453926588E+03  0.00000000000E+00 0. -1.
</event>
<event>
 7    1  0.5696597E-006  0.1187833E+04  0.7818608E-02  0.8733792E-01
         -4   -1    0    0    0  501 -0.00000000000E+00  0.00000000000E+00  0.11288569407E+04  0.11288569407E+04  0.00000000000E+00 0. -1.
          2   -1    0    0  501    0  0.00000000000E+00 -0.00000000000E+00 -0.14108324467E+04  0.14108324467E+04  0.00000000000E+00 0.  1.
   -9000010    2    1    2    0  502 -0.43023962635E+03 -0.56051545461E+03 -0.48691260585E+03  0.12816527938E+04  0.95198019260E+03 0.  0.
        -13    1    1    2    0    0  0.46570571328E+03  0.53772333653E+03  0.55698627617E+03  0.90347214735E+03  0.10566000000E+00 0.  1.
         13    1    3    3    0    0 -0.57267419812E+03 -0.73977049529E+03 -0.48256774862E+03  0.10526574780E+04  0.10566000000E+00 0. -1.
          2    1    1    2  502    0 -0.35466086935E+02  0.22792118083E+02 -0.35204917640E+03  0.35456444629E+03  0.00000000000E+00 0.  1.
         -4    1    3    3    0  502  0.14243457177E+03  0.17925504067E+03 -0.43448572243E+01  0.22899531573E+03  0.00000000000E+00 0. -1.
</event>
<event>
 7    1  0.5696597E-006  0.1178872E+04  0.7818608E-02  0.8771744E-01
          2   -1    0    0  502    0  0.00000000000E+00  0.00000000000E+00  0.12501966978E+04  0.12501966978E+04  0.00000000000E+00 0. -1.
          4   -1    0    0  501    0 -0.00000000000E+00 -0.00000000000E+00 -0.11852253813E+04  0.11852253813E+04  0.00000000000E+00 0.  1.
    9000010    2    1    2  502    0  0.25924055350E+03  0.56159574927E+03  0.29194582035E+03  0.12148492444E+04  0.10040074076E+04 0.  0.
        -13    1    3    3    0    0  0.50836389830E+03  0.25922736123E+03 -0.18290805676E+03  0.59923955669E+03  0.10566000000E+00 0.  1.
         13    1    1    2    0    0 -0.24500596515E+03 -0.56706287830E+03 -0.59178028813E+03  0.85544850897E+03  0.10566000000E+00 0. -1.
          2    1    1    2  501    0 -0.14234588350E+02  0.54671290310E+01  0.36480578422E+03  0.36512432569E+03  0.00000000000E+00 0. -1.
          4    1    3    3  502    0 -0.24912334480E+03  0.30236838804E+03  0.47485387711E+03  0.61560968772E+03  0.00000000000E+00 0.  1.
</event>
<event>
 7    1  0.5696597E-006  0.1045776E+04  0.7818608E-02  0.9074928E-01
         -4   -1    0    0    0  502 -0.00000000000E+00  0.00000000000E+00  0.27975891982E+04  0.27975891982E+04  0.00000000000E+00 0. -1.
         -2   -1    0    0    0  501  0.00000000000E+00 -0.00000000000E+00 -0.13672125966E+04  0.13672125966E+04  0.00000000000E+00 0. -1.
   -9000010    2    1    2    0  501 -0.45426266456E+03 -0.19103413875E+03  0.16305610177E+04  0.19742202531E+04  0.99798184590E+03 0.  0.
        -13    1    1    2    0    0  0.25013985652E+03 -0.43670705445E+02  0.95814205695E+03  0.99121808438E+03  0.10566000000E+00 0.  1.
         13    1    3    3    0    0 -0.61353665496E+03 -0.47152669214E+03  0.12964188134E+04  0.15097901839E+04  0.10566000000E+00 0. -1.
         -2    1    1    2    0  502  0.20412280804E+03  0.23470484419E+03 -0.11583264730E+04  0.11993634573E+04  0.00000000000E+00 0. -1.
         -4    1    3    3    0  501  0.15927399039E+03  0.28049255339E+03  0.33414220426E+03  0.46443006921E+03  0.00000000000E+00 0. -1.
</event>
<event>
 7    1  0.5696597E-006  0.1006117E+04  0.7818608E-02  0.9231347E-01
          2   -1    0    0  502    0  0.00000000000E+00  0.00000000000E+00  0.11663735261E+04  0.11663735261E+04  0.00000000000E+00 0. -1.
          4   -1    0    0  501    0 -0.00000000000E+00 -0.00000000000E+00 -0.13659827350E+04  0.13659827350E+04  0.00000000000E+00 0.  1.
    9000010    2    1    2  502    0  0.15152733943E+03  0.28616220636E+02 -0.35407334198E+03  0.10665451672E+04  0.99416861721E+03 0.  0.
        -13    1    3    3    0    0  0.25360091495E+03 -0.37953609122E+03  0.78442625219E+02  0.46315691209E+03  0.10566000000E+00 0.  1.
         13    1    1    2    0    0 -0.11904671825E+03  0.10094078022E+03 -0.64073564942E+03  0.65947202051E+03  0.10566000000E+00 0. -1.
          2    1    1    2  501    0 -0.32480621180E+02 -0.12955700086E+03  0.79519978254E+03  0.80633907345E+03  0.00000000000E+00 0. -1.
          4    1    3    3  502    0 -0.10207357551E+03  0.40815231185E+03 -0.43251596720E+03  0.60338825508E+03  0.00000000000E+00 0.  1.
</event>
<event>
 7    1  0.5696597E-006  0.1063214E+04  0.7818608E-02  0.8989734E-01
          4   -1    0    0  501    0 -0.00000000000E+00  0.00000000000E+00  0.25319972442E+04  0.25319972442E+04  0.00000000000E+00 0.  1.
          2   -1    0    0  502    0  0.00000000000E+00 -0.00000000000E+00 -0.87917077266E+03  0.87917077266E+03  0.00000000000E+00 0. -1.
    9000010    2    1    2  502    0 -0.33385885767E+03 -0.41124696436E+02  0.49780216854E+03  0.11728695085E+04  0.10073047738E+04 0.  0.
        -13    1    3    3    0    0  0.10862408804E+03 -0.41890078240E+03  0.38709051360E+03  0.58061702944E+03  0.10566000000E+00 0.  1.
         13    1    1    2    0    0  0.33901074065E+03  0.31150963042E+02  0.16795232815E+04  0.17136794126E+04  0.10566000000E+00 0. -1.
          2    1    1    2  501    0 -0.51518829835E+01  0.99737333938E+01 -0.52449897850E+03  0.52461909583E+03  0.00000000000E+00 0. -1.
          4    1    3    3  502    0 -0.44248294571E+03  0.37777608596E+03  0.11071165494E+03  0.59225247903E+03  0.00000000000E+00 0.  1.
</event>
<event>
 7    1  0.5696597E-006  0.1027738E+04  0.7818608E-02  0.9080560E-01
          2   -1    0    0  501    0  0.00000000000E+00  0.00000000000E+00  0.24914052239E+04  0.24914052239E+04  0.00000000000E+00 0.  1.
         -4   -1    0    0    0  501 -0.00000000000E+00 -0.00000000000E+00 -0.17797561900E+04  0.17797561900E+04  0.00000000000E+00 0. -1.
   -9000010    2    1    2    0  502 -0.20378084467E+03  0.17153908251E+03 -0.29364458395E+03  0.10700419618E+04  0.99388649695E+03 0.  0.
        -13    1    1    2    0    0  0.22036471599E+03 -0.14078828001E+03 -0.10821937713E+04  0.11133397135E+04  0.10566000000E+00 0.  1.
         13    1    3    3    0    0  0.38311612568E+03  0.17823997263E+03 -0.21532965035E+02  0.42309707319E+03  0.10566000000E+00 0. -1.
          2    1    1    2  502    0 -0.16583871324E+02 -0.30750802496E+02  0.20874873892E+04  0.20877797385E+04  0.00000000000E+00 0.  1.
         -4    1    3    3    0  502 -0.58689697034E+03 -0.67008901272E+01 -0.27211161891E+03  0.64694488859E+03  0.00000000000E+00 0. -1.
</event>
<event>
 7    1  0.5696597E-006  0.8365342E+03  0.7818608E-02  0.9209936E-01
          2   -1    0    0  502    0  0.00000000000E+00  0.00000000000E+00  0.19249236395E+04  0.19249236395E+04  0.00000000000E+00 0.  1.
          4   -1    0    0  501    0 -0.00000000000E+00 -0.00000000000E+00 -0.30835990851E+04  0.30835990851E+04  0.00000000000E+00 0.  1.
    9000010    2    1    2  502    0  0.13790187094E+03 -0.27353607773E+03 -0.23608930598E+04  0.25064136347E+04  0.78387139051E+03 0.  0.
        -13    1    3    3    0    0  0.25111140034E+03  0.16896965606E+03 -0.45443264718E+03  0.54600066121E+03  0.10566000000E+00 0.  1.
         13    1    1    2    0    0 -0.14805951918E+03  0.24496447205E+03 -0.61829948110E+03  0.68133946992E+03  0.10566000000E+00 0. -1.
          2    1    1    2  501    0  0.10157648239E+02  0.28571605685E+02  0.18205170953E+04  0.18207696199E+04  0.00000000000E+00 0.  1.
          4    1    3    3  502    0 -0.11320952940E+03 -0.44250573380E+03 -0.19064604126E+04  0.19604129735E+04  0.00000000000E+00 0.  1.
</event>
<event>
 7    1  0.5696597E-006  0.1011821E+04  0.7818608E-02  0.9167231E-01
         -4   -1    0    0    0  501 -0.00000000000E+00  0.00000000000E+00  0.47009882912E+03  0.47009882912E+03  0.00000000000E+00 0. -1.
          2   -1    0    0  501    0  0.00000000000E+00 -0.00000000000E+00 -0.20250043461E+04  0.20250043461E+04  0.00000000000E+00 0.  1.
   -9000010    2    1    2    0  502 -0.52563877464E+02  0.18281842938E+03 -0.22596182239E+03  0.10358833643E+04  0.99287968048E+03 0.  0.
        -13    1    1    2    0    0  0.70358575769E+02 -0.18303079032E+03 -0.82643044924E+02  0.21279211317E+03  0.10566000000E+00 0.  1.
         13    1    3    3    0    0  0.46253908285E+03  0.17849201193E+03 -0.10664764534E+03  0.50712477055E+03  0.10566000000E+00 0. -1.
          2    1    1    2  502    0 -0.17794698305E+02  0.21236094264E+00 -0.12463006497E+04  0.12464276978E+04  0.00000000000E+00 0.  1.
         -4    1    3    3    0  502 -0.51510296031E+03  0.43264174502E+01 -0.11931417705E+03  0.52875859374E+03  0.00000000000E+00 0. -1.
</event>
<event>
 7    1  0.5696597E-006  0.1064658E+04  0.7818608E-02  0.9014811E-01
         -4   -1    0    0    0  501 -0.00000000000E+00  0.00000000000E+00  0.15443248236E+04  0.15443248236E+04  0.00000000000E+00 0. -1.
          2   -1    0    0  501    0  0.00000000000E+00 -0.00000000000E+00 -0.95194099913E+03  0.95194099913E+03  0.00000000000E+00 0.  1.
   -9000010    2    1    2    0  502 -0.75189393448E+02 -0.29737505239E+03  0.11873822522E+04  0.15949030420E+04  0.10196831537E+04 0.  0.
        -13    1    1    2    0    0  0.59474163356E+02  0.30009507453E+03  0.21887847458E+00  0.30593183707E+03  0.10566000000E+00 0.  1.
         13    1    3    3    0    0  0.66422805867E+01 -0.36288486445E+03 -0.38105355997E+02  0.36494050756E+03  0.10566000000E+00 0. -1.
          2    1    1    2  502    0  0.15715230092E+02 -0.27200221388E+01 -0.59521730622E+03  0.59543094361E+03  0.00000000000E+00 0.  1.
         -4    1    3    3    0  502 -0.81831674035E+02  0.65509812056E+02  0.12254876082E+04  0.12299625344E+04  0.00000000000E+00 0. -1.
</event>
<event>
 7    1  0.5696597E-006  0.1045310E+04  0.7818608E-02  0.9116864E-01
         -4   -1    0    0    0  501 -0.00000000000E+00  0.00000000000E+00  0.25032998183E+04  0.25032998183E+04  0.00000000000E+00 0. -1.
          2   -1    0    0  501    0  0.00000000000E+00 -0.00000000000E+00 -0.28706312284E+03  0.28706312284E+03  0.00000000000E+00 0. -1.
   -9000010    2    1    2    0  502 -0.13579317233E+03  0.15698052618E+03  0.21501523641E+04  0.23900918630E+04  0.10228886809E+04 0.  0.
        -13    1    1    2    0    0  0.14830065600E+03 -0.16073947424E+03  0.18144716492E+03  0.28417133559E+03  0.10566000000E+00 0.  1.
         13    1    3    3    0    0 -0.44658231843E+03  0.43741911791E+03  0.12920505547E+04  0.14353278019E+04  0.10566000000E+00 0. -1.
          2    1    1    2  502    0 -0.12507483673E+02  0.37589480615E+01 -0.11536283359E+03  0.11609974252E+03  0.00000000000E+00 0. -1.
         -4    1    3    3    0  502  0.31078914610E+03 -0.28043859173E+03  0.85810180940E+03  0.95476406110E+03  0.00000000000E+00 0. -1.
</event>
<event>
 7    1  0.5696597E-006  0.1350336E+04  0.7818608E-02  0.8605826E-01
          4   -1    0    0  501    0 -0.00000000000E+00  0.00000000000E+00  0.25213024991E+04  0.25213024991E+04  0.00000000000E+00 0.  1.
          2   -1    0    0  502    0  0.00000000000E+00 -0.00000000000E+00 -0.10540940394E+04  0.10540940394E+04  0.00000000000E+00 0. -1.
    9000010    2    1    2  502    0 -0.23146410049E+03  0.76180137868E+03 -0.39623084610E+02  0.13209855573E+04  0.10533355987E+04 0.  0.
        -13    1    3    3    0    0 -0.84297405953E+02 -0.25185691216E+03  0.10685462845E+03  0.28627937341E+03  0.10566000000E+00 0.  1.
         13    1    1    2    0    0  0.29845428672E+03 -0.79806962739E+03  0.17786051814E+04  0.19721628974E+04  0.10566000000E+00 0. -1.
          2    1    1    2  501    0 -0.66990186227E+02  0.36268248715E+02 -0.27177363713E+03  0.28224808370E+03  0.00000000000E+00 0. -1.
          4    1    3    3  502    0 -0.14716669454E+03  0.10136582908E+04 -0.14647771306E+03  0.10347061839E+04  0.00000000000E+00 0.  1.
</event>
<event>
 7    1  0.5696597E-006  0.1009922E+04  0.7818608E-02  0.9255011E-01
          2   -1    0    0  501    0  0.00000000000E+00  0.00000000000E+00  0.15212808540E+04  0.15212808540E+04  0.00000000000E+00 0. -1.
         -4   -1    0    0    0  501 -0.00000000000E+00 -0.00000000000E+00 -0.24297920695E+03  0.24297920695E+03  0.00000000000E+00 0. -1.
   -9000010    2    1    2    0  502  0.18455077447E+02  0.12498982838E+03  0.11089056991E+04  0.14986966545E+04  0.10002283568E+04 0.  0.
        -13    1    1    2    0    0  0.15744447585E+02 -0.14016704959E+03  0.66233779012E+02  0.15582558861E+03  0.10566000000E+00 0.  1.
         13    1    3    3    0    0 -0.48672702991E+03  0.12130816880E+03  0.59146303678E+03  0.77553040463E+03  0.10566000000E+00 0. -1.
          2    1    1    2  502    0 -0.34199525032E+02  0.15177221208E+02  0.10316216893E+03  0.10973781779E+03  0.00000000000E+00 0. -1.
         -4    1    3    3    0  502  0.50518210736E+03  0.36816595776E+01  0.51744266232E+03  0.72316624990E+03  0.00000000000E+00 0. -1.
</event>
<event>
 7    1  0.5696597E-006  0.1148611E+04  0.7818608E-02  0.8814688E-01
          4   -1    0    0  501    0 -0.00000000000E+00  0.00000000000E+00  0.31938573114E+04  0.31938573114E+04  0.00000000000E+00 0.  1.
          2   -1    0    0  502    0  0.00000000000E+00 -0.00000000000E+00 -0.13163980139E+04  0.13163980139E+04  0.00000000000E+00 0.  1.
    9000010    2    1    2  502    0  0.21077653773E+03  0.52866528695E+03  0.98916921117E+03  0.15204228936E+04  0.10046473573E+04 0.  0.
        -13    1    3    3    0    0  0.28835731403E+03 -0.19115984436E+03  0.74501097689E+02  0.35389610251E+03  0.10566000000E+00 0.  1.
         13    1    1    2    0    0 -0.21687752496E+03 -0.51080258171E+03  0.18992672010E+04  0.19786791175E+04  0.10566000000E+00 0. -1.
          2    1    1    2  501    0  0.61009872279E+01 -0.17862705240E+02 -0.10109771146E+04  0.10111533141E+04  0.00000000000E+00 0.  1.
          4    1    3    3  502    0 -0.77580776294E+02  0.71982513132E+03  0.91466811348E+03  0.11665267911E+04  0.00000000000E+00 0.  1.
</event>
<event>
 7    1  0.5696597E-006  0.9992133E+03  0.7818608E-02  0.9201450E-01
          2   -1    0    0  502    0  0.00000000000E+00  0.00000000000E+00  0.18113841248E+04  0.18113841248E+04  0.00000000000E+00 0.  1.
          4   -1    0    0  501    0 -0.00000000000E+00 -0.00000000000E+00 -0.26502235952E+03  0.26502235952E+03  0.00000000000E+00 0.  1.
    9000010    2    1    2  502    0  0.40678704563E+02  0.14181252980E+03  0.10066931882E+04  0.14150080322E+04  0.98338751537E+03 0.  0.
        -13    1    3    3    0    0  0.23338884923E+03 -0.25389827323E+03  0.32985295504E+02  0.34644296641E+03  0.10566000000E+00 0.  1.
         13    1    1    2    0    0 -0.12932055308E+03 -0.12923242436E+03  0.91628857443E+02  0.20450106023E+03  0.10566000000E+00 0. -1.
          2    1    1    2  501    0  0.88641848518E+02 -0.12580105441E+02  0.44803971957E+03  0.45689739185E+03  0.00000000000E+00 0.  1.
          4    1    3    3  502    0 -0.19271014466E+03  0.39571080304E+03  0.97370789272E+03  0.10685650658E+04  0.00000000000E+00 0.  1.
</event>
<event>
 7    1  0.5696597E-006  0.1906633E+04  0.7818608E-02  0.8244219E-01
          2   -1    0    0  501    0  0.00000000000E+00  0.00000000000E+00  0.15667507573E+04  0.15667507573E+04  0.00000000000E+00 0.  1.
         -4   -1    0    0    0  501 -0.00000000000E+00 -0.00000000000E+00 -0.24746399886E+04  0.24746399886E+04  0.00000000000E+00 0. -1.
   -9000010    2    1    2    0  502 -0.11789075516E+04 -0.10661302496E+04  0.25861981230E+03  0.19187973157E+04  0.10432843367E+04 0.  0.
        -13    1    1    2    0    0  0.11913256983E+04  0.10652944490E+04 -0.12557489562E+04  0.20324897625E+04  0.10566000000E+00 0.  1.
         13    1    3    3    0    0 -0.12402542679E+04 -0.93085023978E+03  0.50520064081E+03  0.16309324071E+04  0.10566000000E+00 0. -1.
          2    1    1    2  502    0 -0.12418146660E+02  0.83580066710E+00  0.89239912574E+02  0.90103667658E+02  0.00000000000E+00 0.  1.
         -4    1    3    3    0  502  0.61346716216E+02 -0.13528000984E+03 -0.24658082851E+03  0.28786490867E+03  0.00000000000E+00 0. -1.
</event>
<event>
 7    1  0.5696597E-006  0.1047699E+04  0.7818608E-02  0.9045484E-01
          4   -1    0    0  501    0 -0.00000000000E+00  0.00000000000E+00  0.17530001766E+04  0.17530001766E+04  0.00000000000E+00 0.  1.
          2   -1    0    0  502    0  0.00000000000E+00 -0.00000000000E+00 -0.73032785890E+03  0.73032785890E+03  0.00000000000E+00 0. -1.
    9000010    2    1    2  502    0 -0.68822443912E+02 -0.26859273612E+03  0.13035790482E+04  0.16712868242E+04  0.10084655310E+04 0.  0.
        -13    1    3    3    0    0 -0.23361799371E+03  0.25684148951E+03  0.12255361588E+03  0.36819059962E+03  0.10566000000E+00 0.  1.
         13    1    1    2    0    0  0.80341906800E+02  0.27544210936E+03  0.18794603559E+03  0.34299694030E+03  0.10566000000E+00 0. -1.
          2    1    1    2  501    0 -0.11519462888E+02 -0.68493732428E+01 -0.46885276607E+03  0.46904427103E+03  0.00000000000E+00 0. -1.
          4    1    3    3  502    0  0.16479554980E+03 -0.52543422563E+03  0.11810254323E+04  0.13030962246E+04  0.00000000000E+00 0.  1.
</event>
<event>
 7    1  0.5696597E-006  0.1014563E+04  0.7818608E-02  0.9225088E-01
          2   -1    0    0  502    0  0.00000000000E+00  0.00000000000E+00  0.13468998712E+04  0.13468998712E+04  0.00000000000E+00 0.  1.
          4   -1    0    0  501    0 -0.00000000000E+00 -0.00000000000E+00 -0.72164154393E+03  0.72164154393E+03  0.00000000000E+00 0.  1.
    9000010    2    1    2  502    0  0.16913606611E+03  0.27031868047E+02  0.25522863046E+03  0.10487913478E+04  0.10027382045E+04 0.  0.
        -13    1    3    3    0    0  0.25310139387E+03 -0.17524199674E+03 -0.31348427647E+03  0.43936599295E+03  0.10566000000E+00 0.  1.
         13    1    1    2    0    0 -0.14596371714E+03 -0.49224367911E+02 -0.30619788757E+03  0.34276172866E+03  0.10566000000E+00 0. -1.
          2    1    1    2  501    0 -0.23172348978E+02  0.22192499864E+02  0.67622758439E+03  0.67698833867E+03  0.00000000000E+00 0.  1.
          4    1    3    3  502    0 -0.83965327760E+02  0.20227386478E+03  0.56871290693E+03  0.60942535486E+03  0.00000000000E+00 0.  1.
</event>
<event>
 7    1  0.5696597E-006  0.1155997E+04  0.7818608E-02  0.8848255E-01
          4   -1    0    0  501    0 -0.00000000000E+00  0.00000000000E+00  0.45544021960E+03  0.45544021960E+03  0.00000000000E+00 0.  1.
          2   -1    0    0  502    0  0.00000000000E+00 -0.00000000000E+00 -0.42315899840E+04  0.42315899840E+04  0.00000000000E+00 0. -1.
    9000010    2    1    2  502    0 -0.30463048548E+03  0.54881769394E+02 -0.38204172703E+03  0.11065820443E+04  0.99134060655E+03 0.  0.
        -13    1    3    3    0    0 -0.52211746359E+03  0.36073631655E+03 -0.11247375915E+03  0.64450577462E+03  0.10566000000E+00 0.  1.
         13    1    1    2    0    0 -0.24959538731E+03 -0.40329475233E+03 -0.16771503278E+04  0.17429221864E+04  0.10566000000E+00 0. -1.
          2    1    1    2  501    0  0.55422587280E+03  0.34841298293E+03 -0.17169577095E+04  0.18375259729E+04  0.00000000000E+00 0. -1.
          4    1    3    3  502    0  0.21748697810E+03 -0.30585454716E+03 -0.26956796789E+03  0.46207626965E+03  0.00000000000E+00 0.  1.
</event>
<event>
 7    1  0.5696597E-006  0.1117678E+04  0.7818608E-02  0.8833623E-01
          2   -1    0    0  501    0  0.00000000000E+00  0.00000000000E+00  0.41224663997E+03  0.41224663997E+03  0.00000000000E+00 0. -1.
         -4   -1    0    0    0  501 -0.00000000000E+00 -0.00000000000E+00 -0.31783455319E+04  0.31783455319E+04  0.00000000000E+00 0. -1.
   -9000010    2    1    2    0  502 -0.49041842286E+03  0.11573204750E+03 -0.50091814057E+03  0.12011215010E+04  0.96843675076E+03 0.  0.
        -13    1    1    2    0    0  0.47961375739E+03 -0.30398671561E+03 -0.18030189856E+04  0.18903213359E+04  0.10566000000E+00 0.  1.
         13    1    3    3    0    0 -0.33019424717E+03  0.53461772627E+03 -0.38848809853E+03  0.73876069736E+03  0.10566000000E+00 0. -1.
          2    1    1    2  502    0  0.10804665468E+02  0.18825466812E+03 -0.46216176579E+03  0.49914933499E+03  0.00000000000E+00 0. -1.
         -4    1    3    3    0  502 -0.16022417568E+03 -0.41888567877E+03 -0.11243004204E+03  0.46236080360E+03  0.00000000000E+00 0. -1.
</event>
<event>
 7    1  0.5696597E-006  0.1034684E+04  0.7818608E-02  0.9296932E-01
          2   -1    0    0  502    0  0.00000000000E+00  0.00000000000E+00  0.39957960488E+03  0.39957960488E+03  0.00000000000E+00 0. -1.
          4   -1    0    0  501    0 -0.00000000000E+00 -0.00000000000E+00 -0.16135472716E+04  0.16135472716E+04  0.00000000000E+00 0.  1.
    9000010    2    1    2  502    0  0.19528355536E+02  0.25474618076E+03 -0.86488044991E+03  0.13500185944E+04  0.10046168619E+04 0.  0.
        -13    1    3    3    0    0 -0.44757052321E+03  0.37608455993E+02 -0.65409524465E+03  0.79345722597E+03  0.10566000000E+00 0.  1.
         13    1    1    2    0    0 -0.10840020643E+03 -0.22160414974E+02 -0.39475578083E+03  0.40996807974E+03  0.10566000000E+00 0. -1.
          2    1    1    2  501    0  0.88871850896E+02 -0.23258576579E+03  0.45668563997E+02  0.25314020239E+03  0.00000000000E+00 0. -1.
          4    1    3    3  502    0  0.46709887874E+03  0.21713772477E+03 -0.21078520526E+03  0.55656136840E+03  0.00000000000E+00 0.  1.
</event>
<event>
 7    1  0.5696597E-006  0.1029070E+04  0.7818608E-02  0.9118841E-01
          4   -1    0    0  501    0 -0.00000000000E+00  0.00000000000E+00  0.59567099835E+03  0.59567099835E+03  0.00000000000E+00 0.  1.
          2   -1    0    0  502    0  0.00000000000E+00 -0.00000000000E+00 -0.29471770942E+04  0.29471770942E+04  0.00000000000E+00 0. -1.
    9000010    2    1    2  502    0  0.10227022366E+03  0.13164865301E+03 -0.22029948250E+03  0.10417083384E+04  0.10044072052E+04 0.  0.
        -13    1    3    3    0    0  0.38903755607E+03 -0.70180468770E+02 -0.46782046157E+03  0.61247980673E+03  0.10566000000E+00 0.  1.
         13    1    1    2    0    0 -0.14605623513E+03 -0.17829139581E+03  0.11253612812E+03  0.25648515929E+03  0.10566000000E+00 0. -1.
          2    1    1    2  501    0  0.43786011463E+02  0.46642742803E+02 -0.22437427415E+04  0.22446545949E+04  0.00000000000E+00 0. -1.
          4    1    3    3  502    0 -0.28676733241E+03  0.20182912178E+03  0.24752097907E+03  0.42922853169E+03  0.00000000000E+00 0.  1.
</event>
<event>
 7    1  0.5696597E-006  0.1181731E+04  0.7818608E-02  0.8766139E-01
          1   -1    0    0  501    0  0.00000000000E+00  0.00000000000E+00  0.26436624287E+04  0.26436624287E+04  0.00000000000E+00 0. -1.
         -4   -1    0    0    0  501 -0.00000000000E+00 -0.00000000000E+00 -0.37835481792E+04  0.37835481792E+04  0.00000000000E+00 0. -1.
   -9000010    2    1    2    0  502  0.59824895100E+03 -0.23134072859E+03 -0.25260089956E+04  0.27917766108E+04  0.10009369904E+04 0.  0.
        -13    1    1    2    0    0 -0.28890509906E+03  0.64998012120E+03 -0.98101069242E+03  0.12117434976E+04  0.10566000000E+00 0.  1.
         13    1    3    3    0    0  0.25038572119E+02 -0.37425971771E+03 -0.27651009233E+03  0.46599904368E+03  0.10566000000E+00 0. -1.
          1    1    1    2  502    0 -0.30934385194E+03 -0.41863939260E+03  0.23671339375E+04  0.24236904996E+04  0.00000000000E+00 0. -1.
         -4    1    3    3    0  502  0.57321037888E+03  0.14291898911E+03 -0.22494989032E+04  0.23257775671E+04  0.00000000000E+00 0. -1.
</event>
<event>
 7    1  0.5696597E-006  0.9932639E+03  0.7818608E-02  0.9378380E-01
          2   -1    0    0  501    0  0.00000000000E+00  0.00000000000E+00  0.15489508910E+03  0.15489508910E+03  0.00000000000E+00 0. -1.
         -4   -1    0    0    0  501 -0.00000000000E+00 -0.00000000000E+00 -0.23097849775E+04  0.23097849775E+04  0.00000000000E+00 0. -1.
   -9000010    2    1    2    0  502 -0.61639604302E+02  0.26870453800E+02 -0.15863091048E+04  0.18705590911E+04  0.98898598321E+03 0.  0.
        -13    1    1    2    0    0  0.79442482381E+02 -0.47915267844E+02 -0.55623295980E+03  0.56391674707E+03  0.10566000000E+00 0.  1.
         13    1    3    3    0    0 -0.19772483656E+03  0.16787895767E+03  0.12599007364E+02  0.25968673738E+03  0.10566000000E+00 0. -1.
          2    1    1    2  502    0 -0.17802878079E+02  0.21044814044E+02 -0.12347823776E+02  0.30204228480E+02  0.00000000000E+00 0. -1.
         -4    1    3    3    0  502  0.13608523226E+03 -0.14100850387E+03 -0.15989081122E+04  0.16108723537E+04  0.00000000000E+00 0. -1.
</event>
<event>
 7    1  0.5696597E-006  0.1417122E+04  0.7818608E-02  0.8532284E-01
          2   -1    0    0  501    0  0.00000000000E+00  0.00000000000E+00  0.13584183686E+04  0.13584183686E+04  0.00000000000E+00 0.  1.
         -4   -1    0    0    0  501 -0.00000000000E+00 -0.00000000000E+00 -0.12827997826E+04  0.12827997826E+04  0.00000000000E+00 0. -1.
   -9000010    2    1    2    0  502 -0.94200356069E+03 -0.37552893341E+03 -0.95315303871E+02  0.14195428067E+04  0.98874874704E+03 0.  0.
        -13    1    1    2    0    0  0.93849564099E+03  0.38931856400E+03 -0.33647427932E+02  0.10165998097E+04  0.10566000000E+00 0.  1.
         13    1    3    3    0    0 -0.50491199413E+03  0.15820727428E+03  0.31606109141E+03  0.61632806858E+03  0.10566000000E+00 0. -1.
          2    1    1    2  502    0  0.35079197000E+01 -0.13789630589E+02  0.20458131776E+03  0.20507553484E+03  0.00000000000E+00 0.  1.
         -4    1    3    3    0  502 -0.43709156656E+03 -0.53373620769E+03 -0.41137639529E+03  0.80321473814E+03  0.00000000000E+00 0. -1.
</event>
<event>
 7    1  0.5696597E-006  0.1012486E+04  0.7818608E-02  0.9281795E-01
         -4   -1    0    0    0  501 -0.00000000000E+00  0.00000000000E+00  0.40148309605E+03  0.40148309605E+03  0.00000000000E+00 0. -1.
          2   -1    0    0  501    0  0.00000000000E+00 -0.00000000000E+00 -0.21541688886E+04  0.21541688886E+04  0.00000000000E+00 0. -1.
   -9000010    2    1    2    0  502 -0.10638471973E+02  0.19798915479E+03 -0.30778120207E+03  0.10618656659E+04  0.99675299933E+03 0.  0.
        -13    1    1    2    0    0  0.11350441292E+03 -0.52526731063E+02 -0.19782492927E+03  0.23404491670E+03  0.10566000000E+00 0.  1.
         13    1    3    3    0    0  0.36875966369E+03  0.43395755337E+03 -0.17514935102E+03  0.59580210978E+03  0.10566000000E+00 0. -1.
          2    1    1    2  502    0 -0.10286594095E+03 -0.14546242373E+03 -0.12470796612E+04  0.12597414020E+04  0.00000000000E+00 0. -1.
         -4    1    3    3    0  502 -0.37939813566E+03 -0.23596839858E+03 -0.13263185105E+03  0.46606355616E+03  0.00000000000E+00 0. -1.
</event>
<event>
 7    1  0.5696597E-006  0.1076889E+04  0.7818608E-02  0.8942379E-01
          1   -1    0    0  501    0  0.00000000000E+00  0.00000000000E+00  0.40822898472E+03  0.40822898472E+03  0.00000000000E+00 0. -1.
         -4   -1    0    0    0  501 -0.00000000000E+00 -0.00000000000E+00 -0.41196756672E+04  0.41196756672E+04  0.00000000000E+00 0. -1.
   -9000010    2    1    2    0  502  0.98404442940E+02  0.39409612896E+03 -0.24370501097E+04  0.26657342670E+04  0.10009649104E+04 0.  0.
        -13    1    1    2    0    0 -0.99914291487E+02 -0.38239401722E+03 -0.15432509105E+04  0.15930572601E+04  0.10566000000E+00 0.  1.
         13    1    3    3    0    0  0.37758563180E+03 -0.13779073224E+03 -0.52284794896E+03  0.65949009404E+03  0.10566000000E+00 0. -1.
          1    1    1    2  502    0  0.15098485478E+01 -0.11702111743E+02  0.26885433770E+03  0.26911312484E+03  0.00000000000E+00 0. -1.
         -4    1    3    3    0  502 -0.27918118886E+03  0.53188686121E+03 -0.19142021608E+04  0.20062441730E+04  0.00000000000E+00 0. -1.
</event>
<event>
 7    1  0.5696597E-006  0.8740387E+03  0.7818608E-02  0.9513341E-01
         -4   -1    0    0    0  501 -0.00000000000E+00  0.00000000000E+00  0.24925406551E+04  0.24925406551E+04  0.00000000000E+00 0. -1.
          4   -1    0    0  501    0  0.00000000000E+00 -0.00000000000E+00 -0.11273249200E+04  0.11273249200E+04  0.00000000000E+00 0. -1.
   -9000010    2    1    2    0  502 -0.83318242555E+02 -0.44924559089E+02  0.20417339027E+04  0.22214425520E+04  0.87015489246E+03 0.  0.
        -13    1    1    2    0    0  0.62188158250E+02  0.53096808333E+02  0.35619534246E+03  0.36546103928E+03  0.10566000000E+00 0.  1.
         13    1    3    3    0    0 -0.38847664521E+03 -0.28874145686E+03  0.11725582265E+04  0.12685340116E+04  0.10566000000E+00 0. -1.
          4    1    1    2  502    0  0.21130084305E+02 -0.81722492434E+01 -0.10327135100E+04  0.10329619838E+04  0.00000000000E+00 0. -1.
         -4    1    3    3    0  502  0.30515840266E+03  0.24381689777E+03  0.86917567616E+03  0.95290854041E+03  0.00000000000E+00 0. -1.
</event>
<event>
 7    1  0.5696597E-006  0.9066427E+03  0.7818608E-02  0.9477922E-01
          2   -1    0    0  502    0  0.00000000000E+00  0.00000000000E+00  0.12661508841E+04  0.12661508841E+04  0.00000000000E+00 0. -1.
          4   -1    0    0  501    0 -0.00000000000E+00 -0.00000000000E+00 -0.66941163224E+03  0.66941163224E+03  0.00000000000E+00 0.  1.
    9000010    2    1    2  502    0  0.92385388893E+02  0.66904576638E+01 -0.33951219153E+03  0.96892401644E+03  0.90275434041E+03 0.  0.
        -13    1    3    3    0    0  0.37921648842E+03 -0.28323345411E+03 -0.29723539195E+03  0.55890538020E+03  0.10566000000E+00 0.  1.
         13    1    1    2    0    0 -0.79280713297E+02 -0.16963043900E+02  0.93635132678E+02  0.12385768283E+03  0.10566000000E+00 0. -1.
          2    1    1    2  501    0 -0.13104675596E+02  0.10272586236E+02  0.84261631071E+03  0.84278081707E+03  0.00000000000E+00 0. -1.
          4    1    3    3  502    0 -0.28683109953E+03  0.28992391178E+03 -0.42276799579E+02  0.41001863624E+03  0.00000000000E+00 0.  1.
</event>
<event>
 6    1  0.5696597E-006  0.5117187E+03  0.7818608E-02  0.9768963E-01
         -2   -1    0    0    0  501  0.00000000000E+00  0.00000000000E+00  0.44677468970E+03  0.44677468970E+03  0.00000000000E+00 0. -1.
         -4   -1    0    0    0  502 -0.00000000000E+00 -0.00000000000E+00 -0.82313035648E+03  0.82313035648E+03  0.00000000000E+00 0. -1.
        -13    1    1    2    0    0 -0.26955533566E+02  0.16192247830E+03 -0.13165706692E+03  0.21042595896E+03  0.10566000000E+00 0.  1.
         13    1    1    2    0    0 -0.19575151069E+03 -0.14684336315E+03 -0.22546064070E+03  0.33273734223E+03  0.10566000000E+00 0. -1.
         -2    1    1    2    0  502 -0.44838278543E+02 -0.66912276378E+00  0.30377590434E+03  0.30706793875E+03  0.00000000000E+00 0. -1.
         -4    1    1    2    0  501  0.26754532280E+03 -0.14409992388E+02 -0.32301386350E+03  0.41967380625E+03  0.00000000000E+00 0. -1.
</event>
<event>
 7    1  0.5696597E-006  0.1091972E+04  0.7818608E-02  0.9295215E-01
          4   -1    0    0  501    0 -0.00000000000E+00  0.00000000000E+00  0.12100023142E+04  0.12100023142E+04  0.00000000000E+00 0.  1.
          2   -1    0    0  502    0  0.00000000000E+00 -0.00000000000E+00 -0.75220428168E+03  0.75220428168E+03  0.00000000000E+00 0.  1.
    9000010    2    1    2  502    0 -0.26340357625E+03 -0.16703341880E+03  0.20304620392E+03  0.10915200857E+04  0.10261124351E+04 0.  0.
        -13    1    3    3    0    0  0.35752671023E+03 -0.20492433197E+03  0.22408870741E+03  0.46907898089E+03  0.10566000000E+00 0.  1.
         13    1    1    2    0    0 -0.92881190152E+02  0.18680728165E+02  0.43466782253E+03  0.44487302930E+03  0.10566000000E+00 0. -1.
          2    1    1    2  501    0  0.35628476640E+03  0.14835269064E+03 -0.17991599398E+03  0.42581348086E+03  0.00000000000E+00 0.  1.
          4    1    3    3  502    0 -0.62093028648E+03  0.37890913165E+02 -0.21042503492E+02  0.62244110478E+03  0.00000000000E+00 0.  1.
</event>
<event>
 7    1  0.5696597E-006  0.1050412E+04  0.7818608E-02  0.8954616E-01
          3   -1    0    0  501    0  0.00000000000E+00  0.00000000000E+00  0.48826225299E+03  0.48826225299E+03  0.00000000000E+00 0. -1.
         -4   -1    0    0    0  501 -0.00000000000E+00 -0.00000000000E+00 -0.22435785632E+04  0.22435785632E+04  0.00000000000E+00 0. -1.
   -9000010    2    1    2    0  502 -0.37928204832E+03 -0.92839004049E+02 -0.12861326778E+04  0.16565837775E+04  0.96832773073E+03 0.  0.
        -13    1    1    2    0    0  0.35404728587E+03  0.22013973477E+03 -0.69752046919E+03  0.81261663751E+03  0.10566000000E+00 0.  1.
         13    1    3    3    0    0 -0.32431353607E+03  0.39074309143E+03 -0.40323875666E+03  0.64842959465E+03  0.10566000000E+00 0. -1.
          3    1    1    2  502    0  0.25234762444E+02 -0.12730073072E+03  0.22833683680E+03  0.26264040115E+03  0.00000000000E+00 0. -1.
         -4    1    3    3    0  502 -0.54968512247E+02 -0.48358209548E+03 -0.88289392114E+03  0.10081541828E+04  0.00000000000E+00 0. -1.
</event>
<event>
 7    1  0.5696597E-006  0.1083020E+04  0.7818608E-02  0.9242398E-01
          4   -1    0    0  501    0 -0.00000000000E+00  0.00000000000E+00  0.39212391422E+03  0.39212391422E+03  0.00000000000E+00 0.  1.
          2   -1    0    0  502    0  0.00000000000E+00 -0.00000000000E+00 -0.15914514606E+04  0.15914514606E+04  0.00000000000E+00 0.  1.
    9000010    2    1    2  502    0 -0.44230269317E+02 -0.22019560133E+03 -0.62060824515E+03  0.12260490719E+04  0.10332469758E+04 0.  0.
        -13    1    3    3    0    0 -0.46756150618E+03 -0.60832987396E+02 -0.17060827170E+02  0.47181087038E+03  0.10566000000E+00 0.  1.
         13    1    1    2    0    0  0.39716594574E+01 -0.11872878000E+03 -0.51510890214E+02  0.12948235499E+03  0.10566000000E+00 0. -1.
          2    1    1    2  501    0  0.40258609859E+02  0.33892438134E+03 -0.52720841104E+03  0.62804394799E+03  0.00000000000E+00 0.  1.
          4    1    3    3  502    0  0.42333123686E+03 -0.15936261394E+03 -0.60354741798E+03  0.75423820148E+03  0.00000000000E+00 0.  1.
</event>
<event>
 7    1  0.5696597E-006  0.1027433E+04  0.7818608E-02  0.9103381E-01
          1   -1    0    0  501    0  0.00000000000E+00  0.00000000000E+00  0.99370915647E+03  0.99370915647E+03  0.00000000000E+00 0. -1.
         -4   -1    0    0    0  501 -0.00000000000E+00 -0.00000000000E+00 -0.80578889681E+03  0.80578889681E+03  0.00000000000E+00 0. -1.
   -9000010    2    1    2    0  502  0.47704206321E+02 -0.13511455408E+03  0.19897174950E+03  0.10288500816E+04  0.99920523380E+03 0.  0.
        -13    1    1    2    0    0 -0.93352837393E+02  0.22687196471E+03 -0.34386727287E+03  0.42241017168E+03  0.10566000000E+00 0.  1.
         13    1    3    3    0    0  0.39889893091E+03 -0.35267585500E+03  0.28930149444E+03  0.60596698064E+03  0.10566000000E+00 0. -1.
          1    1    1    2  502    0  0.45648631072E+02 -0.91757410638E+02  0.33281578303E+03  0.34823780001E+03  0.00000000000E+00 0. -1.
         -4    1    3    3    0  502 -0.35119472459E+03  0.21756130092E+03 -0.90329744937E+02  0.42288310094E+03  0.00000000000E+00 0. -1.
</event>
<event>
 7    1  0.5696597E-006  0.1103202E+04  0.7818608E-02  0.8902478E-01
          1   -1    0    0  501    0  0.00000000000E+00  0.00000000000E+00  0.99744480515E+03  0.99744480515E+03  0.00000000000E+00 0.  1.
         -4   -1    0    0    0  501 -0.00000000000E+00 -0.00000000000E+00 -0.12349167400E+04  0.12349167400E+04  0.00000000000E+00 0. -1.
   -9000010    2    1    2    0  502 -0.58902616515E+02 -0.47977719688E+03 -0.53313571546E+03  0.12431203529E+04  0.10136364456E+04 0.  0.
        -13    1    1    2    0    0  0.10325251995E+03  0.40621220008E+03 -0.21524011716E+03  0.47116637568E+03  0.10566000000E+00 0.  1.
         13    1    3    3    0    0 -0.26699979830E+03 -0.14754846164E+01 -0.65511582543E+03  0.70743750624E+03  0.10566000000E+00 0. -1.
          1    1    1    2  502    0 -0.44349903430E+02  0.73564996798E+02  0.51090389781E+03  0.51807481649E+03  0.00000000000E+00 0.  1.
         -4    1    3    3    0  502  0.20809718179E+03 -0.47830171226E+03  0.12198010996E+03  0.53568284670E+03  0.00000000000E+00 0. -1.
</event>
<event>
 7    1  0.5696597E-006  0.1739078E+04  0.7818608E-02  0.8332869E-01
          2   -1    0    0  501    0  0.00000000000E+00  0.00000000000E+00  0.22832343268E+04  0.22832343268E+04  0.00000000000E+00 0.  1.
         -4   -1    0    0    0  501 -0.00000000000E+00 -0.00000000000E+00 -0.19985968604E+04  0.19985968604E+04  0.00000000000E+00 0. -1.
   -9000010    2    1    2    0  502  0.11912966362E+04 -0.68985791764E+03 -0.12645495632E+04  0.21496895285E+04  0.10615968393E+04 0.  0.
        -13    1    1    2    0    0 -0.11883794471E+04  0.70273879634E+03  0.13447826684E+04  0.19273110705E+04  0.10566000000E+00 0.  1.
         13    1    3    3    0    0 -0.16068884166E+03 -0.49269275840E+02  0.30670513786E+02  0.17084805225E+03  0.10566000000E+00 0. -1.
          2    1    1    2  502    0 -0.29171891151E+01 -0.12880878703E+02  0.20440436114E+03  0.20483058825E+03  0.00000000000E+00 0.  1.
         -4    1    3    3    0  502  0.13519854779E+04 -0.64058864180E+03 -0.12952200769E+04  0.19788414762E+04  0.00000000000E+00 0. -1.
</event>
<event>
 7    1  0.5696597E-006  0.1342108E+04  0.7818608E-02  0.8603188E-01
          4   -1    0    0  501    0 -0.00000000000E+00  0.00000000000E+00  0.17400373065E+04  0.17400373065E+04  0.00000000000E+00 0.  1.
          2   -1    0    0  502    0  0.00000000000E+00 -0.00000000000E+00 -0.29262618321E+04  0.29262618321E+04  0.00000000000E+00 0. -1.
    9000010    2    1    2  502    0  0.30047414730E+03  0.81276642717E+03  0.13515800829E+04  0.19028508721E+04  0.10213710112E+04 0.  0.
        -13    1    3    3    0    0  0.40603230928E+03  0.22418128380E+03  0.45064489223E+02  0.46599388788E+03  0.10566000000E+00 0.  1.
         13    1    1    2    0    0 -0.32823375179E+03 -0.83553722817E+03 -0.16792028146E+04  0.19040961003E+04  0.10566000000E+00 0. -1.
          2    1    1    2  501    0  0.27759604490E+02  0.22770800996E+02 -0.85860179391E+03  0.85935216619E+03  0.00000000000E+00 0. -1.
          4    1    3    3  502    0 -0.10555816198E+03  0.58858514337E+03  0.13065155937E+04  0.14368569842E+04  0.00000000000E+00 0.  1.
</event>
<event>
 7    1  0.5696597E-006  0.1029573E+04  0.7818608E-02  0.9152466E-01
          1   -1    0    0  501    0  0.00000000000E+00  0.00000000000E+00  0.92923794954E+03  0.92923794954E+03  0.00000000000E+00 0. -1.
         -4   -1    0    0    0  501 -0.00000000000E+00 -0.00000000000E+00 -0.14298757595E+04  0.14298757595E+04  0.00000000000E+00 0. -1.
   -9000010    2    1    2    0  502  0.97197621110E+02 -0.14215744537E+03 -0.64131680927E+03  0.12093679039E+04  0.10107558362E+04 0.  0.
        -13    1    1    2    0    0 -0.11651174819E+03  0.15955408691E+03 -0.48491225889E+03  0.52361474779E+03  0.10566000000E+00 0.  1.
         13    1    3    3    0    0  0.18939929304E+03  0.41478740278E+03 -0.34506284865E+03  0.57182957461E+03  0.10566000000E+00 0. -1.
          1    1    1    2  502    0  0.19314127078E+02 -0.17396641541E+02  0.62559125818E+03  0.62613105733E+03  0.00000000000E+00 0. -1.
         -4    1    3    3    0  502 -0.92201671934E+02 -0.55694484815E+03 -0.29625396062E+03  0.63753832933E+03  0.00000000000E+00 0. -1.
</event>
<event>
 7    1  0.5696597E-006  0.1169048E+04  0.7818608E-02  0.8781957E-01
          2   -1    0    0  502    0  0.00000000000E+00  0.00000000000E+00  0.16578717737E+04  0.16578717737E+04  0.00000000000E+00 0. -1.
          4   -1    0    0  501    0 -0.00000000000E+00 -0.00000000000E+00 -0.13521649017E+04  0.13521649017E+04  0.00000000000E+00 0.  1.
    9000010    2    1    2  502    0 -0.60590371904E+03 -0.78419573758E+02  0.24314839942E+03  0.11962902889E+04  0.99935997768E+03 0.  0.
        -13    1    3    3    0    0  0.80497256753E+01  0.84132878877E+02 -0.33009174298E+03  0.34073994385E+03  0.10566000000E+00 0.  1.
         13    1    1    2    0    0  0.57033268842E+03  0.21046066288E+03 -0.76377232315E+03  0.97617684815E+03  0.10566000000E+00 0. -1.
          2    1    1    2  501    0  0.35571030613E+02 -0.13204108912E+03  0.82633079576E+03  0.83756953828E+03  0.00000000000E+00 0. -1.
          4    1    3    3  502    0 -0.61395344471E+03 -0.16255245264E+03  0.57324014240E+03  0.85555034509E+03  0.00000000000E+00 0.  1.
</event>
<event>
 7    1  0.5696597E-006  0.1528349E+04  0.7818608E-02  0.8488440E-01
         -4   -1    0    0    0  501 -0.00000000000E+00  0.00000000000E+00  0.15813648542E+04  0.15813648542E+04  0.00000000000E+00 0. -1.
          2   -1    0    0  501    0  0.00000000000E+00 -0.00000000000E+00 -0.18106819806E+04  0.18106819806E+04  0.00000000000E+00 0.  1.
   -9000010    2    1    2    0  502  0.91027625521E+03  0.25870501869E+03  0.17644091839E+03  0.15127539132E+04  0.11669455243E+04 0.  0.
        -13    1    1    2    0    0 -0.10083484886E+04 -0.10309446994E+03  0.37227927804E+03  0.10798087869E+04  0.10566000000E+00 0.  1.
         13    1    3    3    0    0  0.85871300508E+03 -0.79337348789E+01 -0.34449911249E+03  0.92527326716E+03  0.10566000000E+00 0. -1.
          2    1    1    2  502    0  0.98072233428E+02 -0.15561054875E+03 -0.77803732289E+03  0.79948413472E+03  0.00000000000E+00 0.  1.
         -4    1    3    3    0  502  0.51563250132E+02  0.26663875357E+03  0.52094003089E+03  0.58748064602E+03  0.00000000000E+00 0. -1.
</event>
<event>
 7    1  0.5696597E-006  0.1056824E+04  0.7818608E-02  0.9027504E-01
         -4   -1    0    0    0  502 -0.00000000000E+00  0.00000000000E+00  0.42577317325E+04  0.42577317325E+04  0.00000000000E+00 0. -1.
         -2   -1    0    0    0  501  0.00000000000E+00 -0.00000000000E+00 -0.11671422603E+03  0.11671422603E+03  0.00000000000E+00 0. -1.
   -9000010    2    1    2    0  501 -0.30967268501E+03 -0.36344441447E+02  0.33500694398E+04  0.35140563270E+04  0.10141047912E+04 0.  0.
        -13    1    1    2    0    0  0.28887990962E+03  0.48215568481E+02  0.78162788902E+03  0.83469665825E+03  0.10566000000E+00 0.  1.
         13    1    3    3    0    0  0.22941824948E+03 -0.32468719478E+03  0.82169085532E+03  0.91281453786E+03  0.10566000000E+00 0. -1.
         -2    1    1    2    0  502  0.20792775388E+02 -0.11871127034E+02  0.93201776540E+01  0.25692973299E+02  0.00000000000E+00 0. -1.
         -4    1    3    3    0  501 -0.53909093449E+03  0.28834275333E+03  0.25283785845E+04  0.26012417891E+04  0.00000000000E+00 0. -1.
</event>
<event>
 7    1  0.5696597E-006  0.9205474E+03  0.7818608E-02  0.9065602E-01
         -4   -1    0    0    0  501 -0.00000000000E+00  0.00000000000E+00  0.21966229327E+04  0.21966229327E+04  0.00000000000E+00 0. -1.
          2   -1    0    0  501    0  0.00000000000E+00 -0.00000000000E+00 -0.47502666135E+03  0.47502666135E+03  0.00000000000E+00 0. -1.
   -9000010    2    1    2    0  502  0.37841683191E+03  0.11491640685E+03  0.29887159279E+03  0.97151797121E+03  0.83553447576E+03 0.  0.
        -13    1    1    2    0    0 -0.36043242132E+03 -0.13758199621E+03  0.15357471121E+04  0.15834644105E+04  0.10566000000E+00 0.  1.
         13    1    3    3    0    0 -0.17429744431E+02 -0.32289265664E+03  0.35878167108E+02  0.32534707274E+03  0.10566000000E+00 0. -1.
          2    1    1    2  502    0 -0.17984410588E+02  0.22665589358E+02 -0.11302243347E+03  0.11666721233E+03  0.00000000000E+00 0. -1.
         -4    1    3    3    0  502  0.39584657634E+03  0.43780906349E+03  0.26299342568E+03  0.64617089847E+03  0.00000000000E+00 0. -1.
</event>
<event>
 7    1  0.5696597E-006  0.1219127E+04  0.7818608E-02  0.9226096E-01
          2   -1    0    0  501    0  0.00000000000E+00  0.00000000000E+00  0.23318898239E+04  0.23318898239E+04  0.00000000000E+00 0. -1.
         -4   -1    0    0    0  501 -0.00000000000E+00 -0.00000000000E+00 -0.63934701584E+03  0.63934701584E+03  0.00000000000E+00 0. -1.
   -9000010    2    1    2    0  502 -0.41459225279E+02 -0.20946794133E+03  0.38502212502E+03  0.12620692088E+04  0.11827852575E+04 0.  0.
        -13    1    1    2    0    0  0.14128261357E+02 -0.87538926251E+02 -0.17540521205E+03  0.19654432313E+03  0.10566000000E+00 0.  1.
         13    1    3    3    0    0 -0.32558348875E+03 -0.59813704753E+03  0.65302131627E+02  0.68413223527E+03  0.10566000000E+00 0. -1.
          2    1    1    2  502    0  0.27330963922E+02  0.29700686758E+03  0.14829258951E+04  0.15126233078E+04  0.00000000000E+00 0. -1.
         -4    1    3    3    0  502  0.28412426347E+03  0.38866910621E+03  0.31971999339E+03  0.57793697354E+03  0.00000000000E+00 0. -1.
</event>
<event>
 7    1  0.5696597E-006  0.1033610E+04  0.7818608E-02  0.9082712E-01
          1   -1    0    0  501    0  0.00000000000E+00  0.00000000000E+00  0.86554683086E+03  0.86554683086E+03  0.00000000000E+00 0. -1.
         -4   -1    0    0    0  501 -0.00000000000E+00 -0.00000000000E+00 -0.31171605402E+04  0.31171605402E+04  0.00000000000E+00 0. -1.
   -9000010    2    1    2    0  502  0.20581106949E+03 -0.25800829965E+03 -0.21064202133E+04  0.23556881911E+04  0.10016657425E+04 0.  0.
        -13    1    1    2    0    0 -0.88577580030E+02  0.22992274498E+03 -0.86386000886E+03  0.89831207407E+03  0.10566000000E+00 0.  1.
         13    1    3    3    0    0  0.58028629532E+03 -0.32516309298E+02 -0.88857650423E+03  0.10617710252E+04  0.10566000000E+00 0. -1.
          1    1    1    2  502    0 -0.11723348946E+03  0.28085554675E+02  0.71866651286E+03  0.72870710586E+03  0.00000000000E+00 0. -1.
         -4    1    3    3    0  502 -0.37447522583E+03 -0.22549199036E+03 -0.12178437091E+04  0.12939171659E+04  0.00000000000E+00 0. -1.
</event>
<event>
 7    1  0.5696597E-006  0.1692200E+04  0.7818608E-02  0.8352977E-01
          2   -1    0    0  501    0  0.00000000000E+00  0.00000000000E+00  0.18622678670E+04  0.18622678670E+04  0.00000000000E+00 0.  1.
         -4   -1    0    0    0  501 -0.00000000000E+00 -0.00000000000E+00 -0.21311902150E+04  0.21311902150E+04  0.00000000000E+00 0. -1.
   -9000010    2    1    2    0  502  0.11373822294E+04 -0.74925919190E+03  0.79183670538E+00  0.16937766719E+04  0.10069017404E+04 0.  0.
        -13    1    1    2    0    0 -0.11273897083E+04  0.75925941985E+03 -0.92508330520E+03  0.16441598321E+04  0.10566000000E+00 0.  1.
         13    1    3    3    0    0  0.66238809745E+03 -0.82052303136E+03 -0.33645104982E+03  0.11068944650E+04  0.10566000000E+00 0. -1.
          2    1    1    2  502    0 -0.99925211254E+01 -0.10000227959E+02  0.65536912048E+03  0.65552157792E+03  0.00000000000E+00 0.  1.
         -4    1    3    3    0  502  0.47499413193E+03  0.71263839460E+02  0.33724288653E+03  0.58688220683E+03  0.00000000000E+00 0. -1.
</event>
<event>
 7    1  0.5696597E-006  0.1069615E+04  0.7818608E-02  0.8976206E-01
          1   -1    0    0  501    0  0.00000000000E+00  0.00000000000E+00  0.18364778092E+04  0.18364778092E+04  0.00000000000E+00 0.  1.
         -4   -1    0    0    0  501 -0.00000000000E+00 -0.00000000000E+00 -0.16132136572E+04  0.16132136572E+04  0.00000000000E+00 0. -1.
   -9000010    2    1    2    0  502 -0.12491290992E+03  0.33219459332E+03 -0.89960532618E+03  0.13981000542E+04  0.10096719942E+04 0.  0.
        -13    1    1    2    0    0  0.97546383270E+02 -0.33902488960E+03 -0.39720885688E+03  0.53125140922E+03  0.10566000000E+00 0.  1.
         13    1    3    3    0    0 -0.46543967119E+03  0.10285395355E+03 -0.82644156821E+02  0.48378000279E+03  0.10566000000E+00 0. -1.
          1    1    1    2  502    0  0.27366526647E+02  0.68302962747E+01  0.15200783351E+04  0.15203400030E+04  0.00000000000E+00 0.  1.
         -4    1    3    3    0  502  0.34052676127E+03  0.22934063977E+03 -0.81696116935E+03  0.91432005142E+03  0.00000000000E+00 0. -1.
</event>
<event>
 7    1  0.5696597E-006  0.1400154E+04  0.7818608E-02  0.8545406E-01
          4   -1    0    0  501    0 -0.00000000000E+00  0.00000000000E+00  0.21218880502E+04  0.21218880502E+04  0.00000000000E+00 0.  1.
          2   -1    0    0  502    0  0.00000000000E+00 -0.00000000000E+00 -0.14838476520E+04  0.14838476520E+04  0.00000000000E+00 0. -1.
    9000010    2    1    2  502    0 -0.33132218846E+03 -0.10422407191E+04  0.10092599291E+04  0.17862111555E+04  0.98787882775E+03 0.  0.
        -13    1    3    3    0    0  0.78686631742E+02 -0.93404377704E+03  0.98760481839E+03  0.13616139879E+04  0.10566000000E+00 0.  1.
         13    1    1    2    0    0  0.12006399735E+03  0.91279928111E+03  0.40420158878E+03  0.10054833796E+04  0.10566000000E+00 0. -1.
          2    1    1    2  501    0  0.21125819111E+03  0.12944143799E+03 -0.77542111965E+03  0.81404116725E+03  0.00000000000E+00 0. -1.
          4    1    3    3  502    0 -0.41000882020E+03 -0.10819694206E+03  0.21655110677E+02  0.42459716760E+03  0.00000000000E+00 0.  1.
</event>
<event>
 7    1  0.5696597E-006  0.1033052E+04  0.7818608E-02  0.9017809E-01
         -4   -1    0    0    0  501 -0.00000000000E+00  0.00000000000E+00  0.14546129142E+04  0.14546129142E+04  0.00000000000E+00 0. -1.
          2   -1    0    0  501    0  0.00000000000E+00 -0.00000000000E+00 -0.89913812084E+03  0.89913812084E+03  0.00000000000E+00 0.  1.
   -9000010    2    1    2    0  502  0.13565312614E+03  0.28419514485E+03 -0.38296589362E+02  0.10286847451E+04  0.97854842758E+03 0.  0.
        -13    1    1    2    0    0 -0.13558017206E+03 -0.30305022615E+03  0.93042624954E+03  0.98788381889E+03  0.10566000000E+00 0.  1.
         13    1    3    3    0    0 -0.42513208895E+03  0.93921875447E+02 -0.30453259224E+02  0.43644704593E+03  0.10566000000E+00 0. -1.
          2    1    1    2  502    0 -0.72954081159E-01  0.18855081301E+02 -0.33665486682E+03  0.33718247102E+03  0.00000000000E+00 0.  1.
         -4    1    3    3    0  502  0.56078521509E+03  0.19027326941E+03 -0.78433301383E+01  0.59223769919E+03  0.00000000000E+00 0. -1.
</event>
<event>
 7    1  0.5696597E-006  0.1186098E+04  0.7818608E-02  0.8759160E-01
          2   -1    0    0  502    0  0.00000000000E+00  0.00000000000E+00  0.32338635471E+03  0.32338635471E+03  0.00000000000E+00 0.  1.
          4   -1    0    0  501    0 -0.00000000000E+00 -0.00000000000E+00 -0.33737930720E+04  0.33737930720E+04  0.00000000000E+00 0.  1.
    9000010    2    1    2  502    0 -0.55261810301E+03  0.32266972399E+03 -0.16942852671E+04  0.20681535032E+04  0.99857589990E+03 0.  0.
        -13    1    3    3    0    0 -0.12632018140E+03 -0.32586548828E+03 -0.25388692473E+03  0.43197648824E+03  0.10566000000E+00 0.  1.
         13    1    1    2    0    0  0.56050489267E+03 -0.30925012879E+03 -0.14229987299E+04  0.15603611035E+04  0.10566000000E+00 0. -1.
          2    1    1    2  501    0 -0.78867896568E+01 -0.13419595202E+02  0.66877279636E+02  0.68664820090E+02  0.00000000000E+00 0.  1.
          4    1    3    3  502    0 -0.42629792162E+03  0.64853521227E+03 -0.14403983424E+04  0.16361770149E+04  0.00000000000E+00 0.  1.
</event>
<event>
 7    1  0.5696597E-006  0.9725856E+03  0.7818608E-02  0.9335260E-01
         -4   -1    0    0    0  501 -0.00000000000E+00  0.00000000000E+00  0.82576797057E+03  0.82576797057E+03  0.00000000000E+00 0. -1.
          2   -1    0    0  501    0  0.00000000000E+00 -0.00000000000E+00 -0.69146440144E+03  0.69146440144E+03  0.00000000000E+00 0. -1.
   -9000010    2    1    2    0  502  0.31393097266E+02 -0.11058105568E+03  0.30359741826E+03  0.10188334923E+04  0.96573112004E+03 0.  0.
        -13    1    1    2    0    0 -0.46461873553E+02  0.10556976672E+03  0.14411483641E+03  0.18458813227E+03  0.10566000000E+00 0.  1.
         13    1    3    3    0    0 -0.60528635353E+02  0.15899204539E+03 -0.30367887299E+03  0.34808483917E+03  0.10566000000E+00 0. -1.
          2    1    1    2  502    0  0.15068776287E+02  0.50112889645E+01 -0.31340868554E+03  0.31381074743E+03  0.00000000000E+00 0. -1.
         -4    1    3    3    0  502  0.91921732619E+02 -0.26957310108E+03  0.60727629125E+03  0.67074865312E+03  0.00000000000E+00 0. -1.
</event>
<event>
 7    1  0.5696597E-006  0.1176121E+04  0.7818608E-02  0.8778606E-01
         -2   -1    0    0    0  501  0.00000000000E+00  0.00000000000E+00  0.62620517939E+03  0.62620517939E+03  0.00000000000E+00 0. -1.
         -4   -1    0    0    0  502 -0.00000000000E+00 -0.00000000000E+00 -0.18028966216E+04  0.18028966216E+04  0.00000000000E+00 0. -1.
   -9000010    2    1    2    0  501  0.47294267787E+03  0.33351039883E+03 -0.64132374196E+03  0.13282809664E+04  0.10090243907E+04 0.  0.
        -13    1    1    2    0    0 -0.53629554201E+03 -0.29845072658E+03 -0.69399296110E+03  0.92645128625E+03  0.10566000000E+00 0.  1.
         13    1    3    3    0    0  0.24474556984E+03  0.61471476957E+03 -0.69796434637E+03  0.96173222981E+03  0.10566000000E+00 0. -1.
         -2    1    1    2    0  502  0.63352864147E+02 -0.35059672255E+02  0.15862526084E+03  0.17436954835E+03  0.00000000000E+00 0. -1.
         -4    1    3    3    0  501  0.22819710802E+03 -0.28120437073E+03  0.56640604411E+02  0.36654873659E+03  0.00000000000E+00 0. -1.
</event>
<event>
 7    1  0.5696597E-006  0.1010858E+04  0.7818608E-02  0.9211312E-01
          2   -1    0    0  502    0  0.00000000000E+00  0.00000000000E+00  0.26845426436E+04  0.26845426436E+04  0.00000000000E+00 0.  1.
          4   -1    0    0  501    0 -0.00000000000E+00 -0.00000000000E+00 -0.23472029393E+03  0.23472029393E+03  0.00000000000E+00 0.  1.
    9000010    2    1    2  502    0  0.15206054752E+03 -0.78129507471E+02  0.94832959794E+03  0.13868205956E+04  0.99735435433E+03 0.  0.
        -13    1    3    3    0    0  0.53956841283E+03 -0.20005308846E+03  0.38531201467E+03  0.69254651118E+03  0.10566000000E+00 0.  1.
         13    1    1    2    0    0 -0.15166934606E+03  0.58662412328E+02  0.41425758369E+03  0.44503283695E+03  0.10566000000E+00 0. -1.
          2    1    1    2  501    0 -0.39120146445E+00  0.19467095143E+02  0.10872351681E+04  0.10874095050E+04  0.00000000000E+00 0.  1.
          4    1    3    3  502    0 -0.38750786531E+03  0.12192358099E+03  0.56301758327E+03  0.69427408446E+03  0.00000000000E+00 0.  1.
</event>
<event>
 7    1  0.5696597E-006  0.1319314E+04  0.7818608E-02  0.8618391E-01
          4   -1    0    0  501    0 -0.00000000000E+00  0.00000000000E+00  0.45599069141E+03  0.45599069141E+03  0.00000000000E+00 0.  1.
          2   -1    0    0  502    0  0.00000000000E+00 -0.00000000000E+00 -0.36345281931E+04  0.36345281931E+04  0.00000000000E+00 0.  1.
    9000010    2    1    2  502    0 -0.19621270222E+03  0.84877776535E+03 -0.17906784804E+04  0.22297136120E+04  0.10030803814E+04 0.  0.
        -13    1    3    3    0    0 -0.58854132557E+03  0.56340901024E+03 -0.13358884745E+04  0.15647391579E+04  0.10566000000E+00 0.  1.
         13    1    1    2    0    0  0.21329666183E+03 -0.82450633902E+03 -0.53141404716E+03  0.10038461385E+04  0.10566000000E+00 0. -1.
          2    1    1    2  501    0 -0.17083959609E+02 -0.24271426323E+02 -0.85644497407E+03  0.85695913405E+03  0.00000000000E+00 0.  1.
          4    1    3    3  502    0  0.39232862335E+03  0.28536875510E+03 -0.45479000590E+03  0.66497445406E+03  0.00000000000E+00 0.  1.
</event>
<event>
 7    1  0.5696597E-006  0.1083643E+04  0.7818608E-02  0.9002509E-01
         -4   -1    0    0    0  501 -0.00000000000E+00  0.00000000000E+00  0.24625335148E+04  0.24625335148E+04  0.00000000000E+00 0. -1.
          1   -1    0    0  501    0  0.00000000000E+00 -0.00000000000E+00 -0.17930422283E+04  0.17930422283E+04  0.00000000000E+00 0.  1.
   -9000010    2    1    2    0  502 -0.13471245383E+03 -0.19654213633E+03  0.10343030125E+04  0.14858414552E+04  0.10397912540E+04 0.  0.
        -13    1    1    2    0    0  0.27016647236E+03  0.15830839106E+03  0.11788196383E+04  0.12196996434E+04  0.10566000000E+00 0.  1.
         13    1    3    3    0    0 -0.58899748784E+03 -0.15381347375E+03  0.63248377941E+03  0.87784529832E+03  0.10566000000E+00 0. -1.
          1    1    1    2  502    0 -0.13545401853E+03  0.38233745270E+02 -0.15436313643E+04  0.15500346445E+04  0.00000000000E+00 0.  1.
         -4    1    3    3    0  502  0.45428503401E+03 -0.42728662572E+02  0.40181923310E+03  0.60799615691E+03  0.00000000000E+00 0. -1.
</event>
<event>
 7    1  0.5696597E-006  0.8471952E+03  0.7818608E-02  0.9254517E-01
         -4   -1    0    0    0  501 -0.00000000000E+00  0.00000000000E+00  0.63880068875E+03  0.63880068875E+03  0.00000000000E+00 0. -1.
          4   -1    0    0  501    0  0.00000000000E+00 -0.00000000000E+00 -0.12411395823E+04  0.12411395823E+04  0.00000000000E+00 0.  1.
   -9000010    2    1    2    0  502 -0.56867089314E+03  0.28278066443E+03 -0.19044716949E+02  0.95467881605E+03  0.71252891288E+03 0.  0.
        -13    1    1    2    0    0  0.22923824165E+03 -0.59798569639E+02 -0.43043346995E+03  0.49132374620E+03  0.10566000000E+00 0.  1.
         13    1    3    3    0    0 -0.90178496747E+02  0.43408272893E+03 -0.75270426168E+02  0.44969503561E+03  0.10566000000E+00 0. -1.
          4    1    1    2  502    0  0.33943265150E+03 -0.22298209480E+03 -0.15286070669E+03  0.43393770884E+03  0.00000000000E+00 0.  1.
         -4    1    3    3    0  502 -0.47849239640E+03 -0.15130206450E+03  0.56225709219E+02  0.50498378044E+03  0.00000000000E+00 0. -1.
</event>
<event>
 7    1  0.5696597E-006  0.9852714E+03  0.7818608E-02  0.9460780E-01
          4   -1    0    0  501    0 -0.00000000000E+00  0.00000000000E+00  0.73093910645E+03  0.73093910645E+03  0.00000000000E+00 0.  1.
          2   -1    0    0  502    0  0.00000000000E+00 -0.00000000000E+00 -0.55615877061E+03  0.55615877061E+03  0.00000000000E+00 0.  1.
    9000010    2    1    2  502    0 -0.51368037767E+02 -0.13711113964E+03  0.50097549272E+02  0.99298100566E+03  0.98084829268E+03 0.  0.
        -13    1    3    3    0    0  0.38096533565E+03 -0.26223556442E+03 -0.16900501632E+03  0.49240713330E+03  0.10566000000E+00 0.  1.
         13    1    1    2    0    0 -0.89961789244E+01  0.69000738707E+02  0.17626657099E+03  0.18950448119E+03  0.10566000000E+00 0. -1.
          2    1    1    2  501    0  0.60364216691E+02  0.68110400933E+02 -0.51583784421E+02  0.10461239022E+03  0.00000000000E+00 0.  1.
          4    1    3    3  502    0 -0.43233337342E+03  0.12512442478E+03  0.21910256559E+03  0.50057387237E+03  0.00000000000E+00 0.  1.
</event>
<event>
 7    1  0.5696597E-006  0.1004304E+04  0.7818608E-02  0.9223033E-01
          2   -1    0    0  501    0  0.00000000000E+00  0.00000000000E+00  0.69495784169E+03  0.69495784169E+03  0.00000000000E+00 0. -1.
         -4   -1    0    0    0  501 -0.00000000000E+00 -0.00000000000E+00 -0.10523608410E+04  0.10523608410E+04  0.00000000000E+00 0. -1.
   -9000010    2    1    2    0  502  0.22718126468E+00 -0.13928976497E+03  0.34782716888E+02  0.10017381813E+04  0.99139692166E+03 0.  0.
        -13    1    1    2    0    0 -0.80482152553E+01  0.16076379092E+03 -0.55669107232E+03  0.57949523846E+03  0.10566000000E+00 0.  1.
         13    1    3    3    0    0  0.15267805623E+03 -0.25518936321E+03  0.45292754320E+03  0.54182614416E+03  0.10566000000E+00 0. -1.
          2    1    1    2  502    0  0.78210339906E+01 -0.21474025945E+02  0.16450535612E+03  0.16608526291E+03  0.00000000000E+00 0. -1.
         -4    1    3    3    0  502 -0.15245087496E+03  0.11589959824E+03 -0.41814482631E+03  0.45991203715E+03  0.00000000000E+00 0. -1.
</event>
<event>
 7    1  0.5696597E-006  0.1018596E+04  0.7818608E-02  0.8978898E-01
          4   -1    0    0  501    0 -0.00000000000E+00  0.00000000000E+00  0.98124225905E+03  0.98124225905E+03  0.00000000000E+00 0.  1.
          2   -1    0    0  502    0  0.00000000000E+00 -0.00000000000E+00 -0.12478149974E+04  0.12478149974E+04  0.00000000000E+00 0. -1.
    9000010    2    1    2  502    0 -0.18689121719E+03 -0.33977891294E+03  0.37167677154E+03  0.10782244873E+04  0.93490447949E+03 0.  0.
        -13    1    3    3    0    0 -0.37551882555E+03  0.18119208053E+03  0.31239394428E+03  0.52099418996E+03  0.10566000000E+00 0.  1.
         13    1    1    2    0    0  0.25568667834E+03  0.32550402854E+03  0.86354325204E+02  0.42283049881E+03  0.10566000000E+00 0. -1.
          2    1    1    2  501    0 -0.68795461145E+02  0.14274884395E+02 -0.72460383507E+03  0.72800227032E+03  0.00000000000E+00 0. -1.
          4    1    3    3  502    0  0.18862760836E+03 -0.52097099347E+03  0.59282827260E+02  0.55723029734E+03  0.00000000000E+00 0.  1.
</event>
<event>
 7    1  0.5696597E-006  0.1127273E+04  0.7818608E-02  0.8828182E-01
         -2   -1    0    0    0  501  0.00000000000E+00  0.00000000000E+00  0.95368412765E+03  0.95368412765E+03  0.00000000000E+00 0.  1.
         -4   -1    0    0    0  502 -0.00000000000E+00 -0.00000000000E+00 -0.19023449507E+04  0.19023449507E+04  0.00000000000E+00 0. -1.
   -9000010    2    1    2    0  501 -0.51254168809E+03 -0.23011584202E+03 -0.14094194517E+04  0.18064443935E+04  0.98037027339E+03 0.  0.
        -13    1    1    2    0    0  0.50575581421E+03  0.21491318105E+03 -0.37730359559E+02  0.55081776496E+03  0.10566000000E+00 0.  1.
         13    1    3    3    0    0  0.16800397724E+03 -0.30700901497E+03 -0.85981093954E+03  0.92830745692E+03  0.10566000000E+00 0. -1.
         -2    1    1    2    0  502  0.67858738762E+01  0.15202660967E+02  0.49848898826E+03  0.49876691991E+03  0.00000000000E+00 0.  1.
         -4    1    3    3    0  501 -0.68054566533E+03  0.76893172952E+02 -0.54960851220E+03  0.87813693654E+03  0.00000000000E+00 0. -1.
</event>
<event>
 7    1  0.5696597E-006  0.1318273E+04  0.7818608E-02  0.8619618E-01
          2   -1    0    0  502    0  0.00000000000E+00  0.00000000000E+00  0.13043277316E+04  0.13043277316E+04  0.00000000000E+00 0. -1.
          4   -1    0    0  501    0 -0.00000000000E+00 -0.00000000000E+00 -0.13487243563E+04  0.13487243563E+04  0.00000000000E+00 0.  1.
    9000010    2    1    2  502    0 -0.64965738467E+03  0.62863364282E+03  0.46658326049E+03  0.14292735961E+04  0.10039363024E+04 0.  0.
        -13    1    3    3    0    0  0.88958431404E+02  0.47734488405E+03 -0.87804673612E+02  0.49343835757E+03  0.10566000000E+00 0.  1.
         13    1    1    2    0    0  0.65414080904E+03 -0.53334151088E+03 -0.64290102625E+03  0.10609783721E+04  0.10566000000E+00 0. -1.
          2    1    1    2  501    0 -0.44834243715E+01 -0.95292131939E+02  0.13192114103E+03  0.16280011964E+03  0.00000000000E+00 0. -1.
          4    1    3    3  502    0 -0.73861581607E+03  0.15128875877E+03  0.55438793410E+03  0.93583523857E+03  0.00000000000E+00 0.  1.
</event>
<event>
 7    1  0.5696597E-006  0.1027590E+04  0.7818608E-02  0.9188366E-01
         -4   -1    0    0    0  501 -0.00000000000E+00  0.00000000000E+00  0.63154122933E+03  0.63154122933E+03  0.00000000000E+00 0. -1.
          2   -1    0    0  501    0  0.00000000000E+00 -0.00000000000E+00 -0.29031002747E+04  0.29031002747E+04  0.00000000000E+00 0.  1.
   -9000010    2    1    2    0  502 -0.25358084417E+03 -0.35982212822E+02  0.80550777904E+02  0.10193633678E+04  0.98336935264E+03 0.  0.
        -13    1    1    2    0    0  0.33914779049E+02 -0.16794767674E+03 -0.30049748123E+02  0.17395296171E+03  0.10566000000E+00 0.  1.
         13    1    3    3    0    0 -0.48561241668E+03 -0.27517625282E+03  0.28672358896E+03  0.62749646770E+03  0.10566000000E+00 0. -1.
          2    1    1    2  502    0  0.21966606512E+03  0.20392988956E+03 -0.23220600752E+04  0.23413251745E+04  0.00000000000E+00 0.  1.
         -4    1    3    3    0  502  0.23203157251E+03  0.23919403999E+03 -0.20617281106E+03  0.39186690014E+03  0.00000000000E+00 0. -1.
</event>
<event>
 7    1  0.5696597E-006  0.9879042E+03  0.7818608E-02  0.9218656E-01
          2   -1    0    0  501    0  0.00000000000E+00  0.00000000000E+00  0.98809482855E+03  0.98809482855E+03  0.00000000000E+00 0. -1.
         -4   -1    0    0    0  501 -0.00000000000E+00 -0.00000000000E+00 -0.73738272035E+03  0.73738272035E+03  0.00000000000E+00 0. -1.
   -9000010    2    1    2    0  502 -0.13497367102E+03 -0.11803921632E+02  0.17958566785E+03  0.99857559774E+03  0.97290543624E+03 0.  0.
        -13    1    1    2    0    0  0.17012860762E+03 -0.31862828104E+02 -0.30280945728E+03  0.34878727260E+03  0.10566000000E+00 0.  1.
         13    1    3    3    0    0  0.30822536901E+02  0.43799543098E+03 -0.90552521892E+02  0.44831885609E+03  0.10566000000E+00 0. -1.
          2    1    1    2  502    0 -0.35154936600E+02  0.43666749735E+02  0.37393589763E+03  0.37811467855E+03  0.00000000000E+00 0. -1.
         -4    1    3    3    0  502 -0.16579620792E+03 -0.44979935261E+03  0.27013818974E+03  0.55025674165E+03  0.00000000000E+00 0. -1.
</event>
<event>
 7    1  0.5696597E-006  0.9995611E+03  0.7818608E-02  0.9299961E-01
          2   -1    0    0  501    0  0.00000000000E+00  0.00000000000E+00  0.48076907134E+03  0.48076907134E+03  0.00000000000E+00 0.  1.
         -4   -1    0    0    0  501 -0.00000000000E+00 -0.00000000000E+00 -0.27114454638E+04  0.27114454638E+04  0.00000000000E+00 0. -1.
   -9000010    2    1    2    0  502 -0.60667085381E+02 -0.10742616875E+03 -0.25380594584E+04  0.27278876210E+04  0.99217144747E+03 0.  0.
        -13    1    1    2    0    0  0.71659227192E+02  0.97018597207E+02 -0.31856524372E+02  0.12474975894E+03  0.10566000000E+00 0.  1.
         13    1    3    3    0    0 -0.26607760543E+03  0.32579674073E+03 -0.17945815875E+04  0.18432210648E+04  0.10566000000E+00 0. -1.
          2    1    1    2  502    0 -0.10992141811E+02  0.10407571544E+02  0.33923959032E+03  0.33957715525E+03  0.00000000000E+00 0.  1.
         -4    1    3    3    0  502  0.20541052005E+03 -0.43322290948E+03 -0.74347787090E+03  0.88466655615E+03  0.00000000000E+00 0. -1.
</event>
<event>
 7    1  0.5696597E-006  0.1252396E+04  0.7818608E-02  0.8679673E-01
          4   -1    0    0  501    0 -0.00000000000E+00  0.00000000000E+00  0.26916569134E+04  0.26916569134E+04  0.00000000000E+00 0.  1.
          2   -1    0    0  502    0  0.00000000000E+00 -0.00000000000E+00 -0.95657433606E+03  0.95657433606E+03  0.00000000000E+00 0. -1.
    9000010    2    1    2  502    0  0.74625202024E+03  0.18192551854E+03  0.52290686804E+03  0.13584417577E+04  0.99093059520E+03 0.  0.
        -13    1    3    3    0    0  0.98996749601E+02  0.47305491873E+03  0.42195641731E+03  0.64158284098E+03  0.10566000000E+00 0.  1.
         13    1    1    2    0    0 -0.75164447392E+03 -0.14533210567E+03  0.16665148034E+04  0.18339472286E+04  0.10566000000E+00 0. -1.
          2    1    1    2  501    0  0.53924536837E+01 -0.36593412870E+02 -0.45433909411E+03  0.45584226313E+03  0.00000000000E+00 0. -1.
          4    1    3    3  502    0  0.64725527064E+03 -0.29112940019E+03  0.10095045073E+03  0.71685891675E+03  0.00000000000E+00 0.  1.
</event>
<event>
 7    1  0.5696597E-006  0.1357453E+04  0.7818608E-02  0.8584231E-01
         -4   -1    0    0    0  501 -0.00000000000E+00  0.00000000000E+00  0.36362322079E+04  0.36362322079E+04  0.00000000000E+00 0. -1.
          1   -1    0    0  501    0  0.00000000000E+00 -0.00000000000E+00 -0.10916242215E+04  0.10916242215E+04  0.00000000000E+00 0.  1.
   -9000010    2    1    2    0  502 -0.25176987742E+03 -0.87810272978E+03  0.14497145840E+04  0.19851731953E+04  0.10023910241E+04 0.  0.
        -13    1    1    2    0    0  0.23420829141E+03  0.88574796755E+03  0.18092863588E+04  0.20280335611E+04  0.10566000000E+00 0.  1.
         13    1    3    3    0    0  0.35747078312E+02 -0.80414815131E+03  0.40889875479E+03  0.90284567103E+03  0.10566000000E+00 0. -1.
          1    1    1    2  502    0  0.17561586005E+02 -0.76452377672E+01 -0.71439295640E+03  0.71464967300E+03  0.00000000000E+00 0.  1.
         -4    1    3    3    0  502 -0.28751695573E+03 -0.73954578474E+02  0.10408158292E+04  0.10823275243E+04  0.00000000000E+00 0. -1.
</event>
<event>
 7    1  0.5696597E-006  0.1020311E+04  0.7818608E-02  0.9250969E-01
          2   -1    0    0  502    0  0.00000000000E+00  0.00000000000E+00  0.77774400630E+03  0.77774400630E+03  0.00000000000E+00 0. -1.
          4   -1    0    0  501    0 -0.00000000000E+00 -0.00000000000E+00 -0.15222871080E+04  0.15222871080E+04  0.00000000000E+00 0.  1.
    9000010    2    1    2  502    0  0.68397477515E+02 -0.13712824589E+03 -0.94798651024E+03  0.13943796191E+04  0.10110062947E+04 0.  0.
        -13    1    3    3    0    0 -0.10005255332E+03 -0.53473885817E+03 -0.73068616247E+03  0.91096566294E+03  0.10566000000E+00 0.  1.
         13    1    1    2    0    0 -0.61823813068E+02  0.12174298465E+03 -0.33769491814E+03  0.36425459102E+03  0.10566000000E+00 0. -1.
          2    1    1    2  501    0 -0.65736644470E+01  0.15385261241E+02  0.54113832664E+03  0.54139690421E+03  0.00000000000E+00 0. -1.
          4    1    3    3  502    0  0.16845003084E+03  0.39761061228E+03 -0.21730034777E+03  0.48341395618E+03  0.00000000000E+00 0.  1.
</event>
<event>
 7    1  0.5696597E-006  0.1019030E+04  0.7818608E-02  0.9247501E-01
         -4   -1    0    0    0  501 -0.00000000000E+00  0.00000000000E+00  0.15454376844E+04  0.15454376844E+04  0.00000000000E+00 0. -1.
          2   -1    0    0  501    0  0.00000000000E+00 -0.00000000000E+00 -0.33685649105E+03  0.33685649105E+03  0.00000000000E+00 0. -1.
   -9000010    2    1    2    0  502  0.75199822273E+01  0.10450143149E+03  0.87759367717E+03  0.13416461359E+04  0.10093892176E+04 0.  0.
        -13    1    1    2    0    0  0.24162504490E+01 -0.14159891441E+03  0.42025196763E+03  0.44347245494E+03  0.10566000000E+00 0.  1.
         13    1    3    3    0    0  0.24199987530E+03 -0.32056673286E+03  0.82457795783E+02  0.41003203425E+03  0.10566000000E+00 0. -1.
          2    1    1    2  502    0 -0.99362326763E+01  0.37097482923E+02 -0.89264451401E+02  0.97175584603E+02  0.00000000000E+00 0. -1.
         -4    1    3    3    0  502 -0.23447989308E+03  0.42506816435E+03  0.79513588139E+03  0.93161410169E+03  0.00000000000E+00 0. -1.
</event>
<event>
 7    1  0.5696597E-006  0.1017706E+04  0.7818608E-02  0.9156017E-01
          4   -1    0    0  501    0 -0.00000000000E+00  0.00000000000E+00  0.93226812284E+03  0.93226812284E+03  0.00000000000E+00 0.  1.
          2   -1    0    0  502    0  0.00000000000E+00 -0.00000000000E+00 -0.44501318323E+03  0.44501318323E+03  0.00000000000E+00 0.  1.
    9000010    2    1    2  502    0  0.12864058276E+03  0.99665048538E+02  0.38704100452E+03  0.10825786019E+04  0.99784476181E+03 0.  0.
        -13    1    3    3    0    0 -0.10315226592E+03  0.25255458262E+03 -0.26100122474E+03  0.37755245682E+03  0.10566000000E+00 0.  1.
         13    1    1    2    0    0 -0.16981957899E+03 -0.11713181383E+03  0.12729822135E+03  0.24241163244E+03  0.10566000000E+00 0. -1.
          2    1    1    2  501    0  0.41178996229E+02  0.17466765296E+02 -0.27084286262E+02  0.52291071730E+02  0.00000000000E+00 0.  1.
          4    1    3    3  502    0  0.23179284869E+03 -0.15288953409E+03  0.64804222926E+03  0.70502614508E+03  0.00000000000E+00 0.  1.
</event>
<event>
 7    1  0.5696597E-006  0.1111834E+04  0.7818608E-02  0.8864974E-01
          2   -1    0    0  501    0  0.00000000000E+00  0.00000000000E+00  0.18850037889E+04  0.18850037889E+04  0.00000000000E+00 0.  1.
         -4   -1    0    0    0  501 -0.00000000000E+00 -0.00000000000E+00 -0.14109503435E+04  0.14109503435E+04  0.00000000000E+00 0. -1.
   -9000010    2    1    2    0  502  0.41417126678E+02  0.50047686751E+03 -0.90273955919E+03  0.14339486625E+04  0.99452379646E+03 0.  0.
        -13    1    1    2    0    0 -0.57542458890E+02 -0.48906110381E+03  0.74206382236E+01  0.49249058353E+03  0.10566000000E+00 0.  1.
         13    1    3    3    0    0 -0.17988246839E+03  0.68680458385E+02 -0.92831387406E+03  0.94807244857E+03  0.10566000000E+00 0. -1.
          2    1    1    2  502    0  0.16125332212E+02 -0.11415763697E+02  0.13693723664E+04  0.13695148864E+04  0.00000000000E+00 0.  1.
         -4    1    3    3    0  502  0.22129959507E+03  0.43179640912E+03  0.25574314867E+02  0.48587621396E+03  0.00000000000E+00 0. -1.
</event>
<event>
 7    1  0.5696597E-006  0.1016922E+04  0.7818608E-02  0.9114846E-01
          2   -1    0    0  502    0  0.00000000000E+00  0.00000000000E+00  0.55044286274E+03  0.55044286274E+03  0.00000000000E+00 0.  1.
          4   -1    0    0  501    0 -0.00000000000E+00 -0.00000000000E+00 -0.97982254048E+03  0.97982254048E+03  0.00000000000E+00 0.  1.
    9000010    2    1    2  502    0 -0.30833245649E+03 -0.36751559097E+02 -0.24714525102E+03  0.10658577608E+04  0.98921808030E+03 0.  0.
        -13    1    3    3    0    0 -0.16901660943E+03  0.47597545875E+03 -0.13521055195E+03  0.52287776403E+03  0.10566000000E+00 0.  1.
         13    1    1    2    0    0  0.22720971090E+03 -0.23739252066E+02 -0.25303732756E+03  0.34090424627E+03  0.10566000000E+00 0. -1.
          2    1    1    2  501    0  0.81122745587E+02  0.60490811163E+02  0.70802900842E+02  0.12350339612E+03  0.00000000000E+00 0.  1.
          4    1    3    3  502    0 -0.13931584706E+03 -0.51272701784E+03 -0.11193469907E+03  0.54297999680E+03  0.00000000000E+00 0.  1.
</event>
<event>
 7    1  0.5696597E-006  0.1162120E+04  0.7818608E-02  0.8786065E-01
         -4   -1    0    0    0  502 -0.00000000000E+00  0.00000000000E+00  0.33771518338E+04  0.33771518338E+04  0.00000000000E+00 0. -1.
         -2   -1    0    0    0  501  0.00000000000E+00 -0.00000000000E+00 -0.63391412216E+03  0.63391412216E+03  0.00000000000E+00 0. -1.
   -9000010    2    1    2    0  501 -0.63661336978E+03 -0.17717830912E+03  0.10121151502E+03  0.11954937645E+04  0.99110687331E+03 0.  0.
        -13    1    1    2    0    0  0.59236763561E+03  0.11595191939E+03  0.26682018327E+04  0.27356252109E+04  0.10566000000E+00 0.  1.
         13    1    3    3    0    0  0.56414872813E+02 -0.11323134087E+03 -0.34587965375E+03  0.36828890897E+03  0.10566000000E+00 0. -1.
         -2    1    1    2    0  502  0.44245734166E+02  0.61226389729E+02 -0.26175636024E+02  0.79946980634E+02  0.00000000000E+00 0. -1.
         -4    1    3    3    0  501 -0.69302824259E+03 -0.63946968255E+02  0.44709116877E+03  0.82720485550E+03  0.00000000000E+00 0. -1.
</event>
<event>
 7    1  0.5696597E-006  0.1028291E+04  0.7818608E-02  0.9177458E-01
          4   -1    0    0  501    0 -0.00000000000E+00  0.00000000000E+00  0.13788767305E+04  0.13788767305E+04  0.00000000000E+00 0.  1.
          2   -1    0    0  502    0  0.00000000000E+00 -0.00000000000E+00 -0.65638958038E+03  0.65638958038E+03  0.00000000000E+00 0.  1.
    9000010    2    1    2  502    0  0.14698561332E+02  0.19207770912E+03  0.10509740435E+04  0.14721455820E+04  0.10126975266E+04 0.  0.
        -13    1    3    3    0    0 -0.41917202263E+03 -0.14099517707E+03  0.26825691493E+03  0.51724907741E+03  0.10566000000E+00 0.  1.
         13    1    1    2    0    0 -0.91030814670E+02 -0.15362164184E+03  0.41552774916E+02  0.18333810931E+03  0.10566000000E+00 0. -1.
          2    1    1    2  501    0  0.76332253338E+02 -0.38456067281E+02 -0.37003966829E+03  0.37978261956E+03  0.00000000000E+00 0.  1.
          4    1    3    3  502    0  0.43387058396E+03  0.33307288618E+03  0.78271712858E+03  0.95489650461E+03  0.00000000000E+00 0.  1.
</event>
<event>
 7    1  0.5696597E-006  0.1025968E+04  0.7818608E-02  0.8988098E-01
         -4   -1    0    0    0  501 -0.00000000000E+00  0.00000000000E+00  0.10861252165E+04  0.10861252165E+04  0.00000000000E+00 0. -1.
          1   -1    0    0  501    0  0.00000000000E+00 -0.00000000000E+00 -0.15037786812E+04  0.15037786812E+04  0.00000000000E+00 0.  1.
   -9000010    2    1    2    0  502  0.22075906098E+03  0.30345769391E+03  0.21595168854E+03  0.10463141299E+04  0.95253188481E+03 0.  0.
        -13    1    1    2    0    0 -0.20807838861E+03 -0.32084007166E+03  0.37450699015E+03  0.53524803991E+03  0.10566000000E+00 0.  1.
         13    1    3    3    0    0 -0.17613403519E+03  0.50180730818E+03  0.27498531339E+03  0.59870753013E+03  0.10566000000E+00 0. -1.
          1    1    1    2  502    0 -0.12680672362E+02  0.17382377751E+02 -0.10081121434E+04  0.10083417279E+04  0.00000000000E+00 0.  1.
         -4    1    3    3    0  502  0.39689309616E+03 -0.19834961427E+03 -0.59033624843E+02  0.44760659973E+03  0.00000000000E+00 0. -1.
</event>
<event>
 7    1  0.5696597E-006  0.9753968E+03  0.7818608E-02  0.9622066E-01
          2   -1    0    0  502    0  0.00000000000E+00  0.00000000000E+00  0.16289706540E+04  0.16289706540E+04  0.00000000000E+00 0.  1.
          4   -1    0    0  501    0 -0.00000000000E+00 -0.00000000000E+00 -0.45779683398E+03  0.45779683398E+03  0.00000000000E+00 0.  1.
    9000010    2    1    2  502    0 -0.12230315058E+02 -0.29567787927E+02  0.30349213548E+03  0.10197463379E+04  0.97301145043E+03 0.  0.
        -13    1    3    3    0    0 -0.21887855659E+03  0.17023034172E+03 -0.26447338905E+03  0.38318712982E+03  0.10566000000E+00 0.  1.
         13    1    1    2    0    0 -0.34795986869E+02 -0.19968411005E+02 -0.94372173237E+02  0.10254567951E+03  0.10566000000E+00 0. -1.
          2    1    1    2  501    0  0.47026301927E+02  0.49536198931E+02  0.96205385782E+03  0.96447547062E+03  0.00000000000E+00 0.  1.
          4    1    3    3  502    0  0.20664824153E+03 -0.19979812965E+03  0.56796552453E+03  0.63655920808E+03  0.00000000000E+00 0.  1.
</event>
<event>
 7    1  0.5696597E-006  0.1100747E+04  0.7818608E-02  0.8853911E-01
         -4   -1    0    0    0  501 -0.00000000000E+00  0.00000000000E+00  0.88754051489E+03  0.88754051489E+03  0.00000000000E+00 0. -1.
          2   -1    0    0  501    0  0.00000000000E+00 -0.00000000000E+00 -0.14057652810E+04  0.14057652810E+04  0.00000000000E+00 0.  1.
   -9000010    2    1    2    0  502  0.39099204592E+03  0.36521179988E+03  0.41070149215E+03  0.11742024619E+04  0.96115621371E+03 0.  0.
        -13    1    1    2    0    0 -0.43749967237E+03 -0.32145570513E+03 -0.89501768610E+03  0.10468029439E+04  0.10566000000E+00 0.  1.
         13    1    3    3    0    0  0.66502842835E+02 -0.32722988778E+03  0.97660457239E+02  0.34790746418E+03  0.10566000000E+00 0. -1.
          2    1    1    2  502    0  0.46507626450E+02 -0.43756094745E+02 -0.33908572147E+02  0.72300390112E+02  0.00000000000E+00 0.  1.
         -4    1    3    3    0  502  0.32448920308E+03  0.69244168766E+03  0.31304103491E+03  0.82629499772E+03  0.00000000000E+00 0. -1.
</event>
<event>
 7    1  0.5696597E-006  0.1171563E+04  0.7818608E-02  0.8807458E-01
          2   -1    0    0  501    0  0.00000000000E+00  0.00000000000E+00  0.13924061581E+04  0.13924061581E+04  0.00000000000E+00 0. -1.
         -4   -1    0    0    0  501 -0.00000000000E+00 -0.00000000000E+00 -0.82053374258E+03  0.82053374258E+03  0.00000000000E+00 0. -1.
   -9000010    2    1    2    0  502 -0.76535475717E+01 -0.53911101600E+03 -0.13658481901E+03  0.11786816092E+04  0.10391995278E+04 0.  0.
        -13    1    1    2    0    0  0.88807216443E+02  0.53813193169E+03  0.30945311007E+03  0.62708367552E+03  0.10566000000E+00 0.  1.
         13    1    3    3    0    0 -0.40571618573E+03 -0.23692180376E+03 -0.39702987433E+03  0.61511811609E+03  0.10566000000E+00 0. -1.
          2    1    1    2  502    0 -0.81153668871E+02  0.97908430436E+00  0.39900412444E+03  0.40717461598E+03  0.00000000000E+00 0. -1.
         -4    1    3    3    0  502  0.39806263816E+03 -0.30218921223E+03  0.26044505532E+03  0.56356349308E+03  0.00000000000E+00 0. -1.
</event>
<event>
 7    1  0.5696597E-006  0.1102806E+04  0.7818608E-02  0.8908347E-01
          4   -1    0    0  501    0 -0.00000000000E+00  0.00000000000E+00  0.17210637461E+04  0.17210637461E+04  0.00000000000E+00 0.  1.
          2   -1    0    0  502    0  0.00000000000E+00 -0.00000000000E+00 -0.90844118009E+03  0.90844118009E+03  0.00000000000E+00 0.  1.
    9000010    2    1    2  502    0 -0.26495624629E+03 -0.33977067094E+03  0.12622301237E+04  0.16775118358E+04  0.10174355766E+04 0.  0.
        -13    1    3    3    0    0 -0.40320325101E+03 -0.96277487923E+02  0.31946841457E+02  0.41576775747E+03  0.10566000000E+00 0.  1.
         13    1    1    2    0    0  0.26504988427E+03  0.32693683865E+03  0.74761102773E+02  0.42746739205E+03  0.10566000000E+00 0. -1.
          2    1    1    2  501    0 -0.93637976850E-01  0.12833832295E+02 -0.52436866055E+03  0.52452569831E+03  0.00000000000E+00 0.  1.
          4    1    3    3  502    0  0.13824700472E+03 -0.24349318302E+03  0.12302832823E+04  0.12617440783E+04  0.00000000000E+00 0.  1.
</event>
<event>
 7    1  0.5696597E-006  0.1156839E+04  0.7818608E-02  0.8823676E-01
          2   -1    0    0  501    0  0.00000000000E+00  0.00000000000E+00  0.17315225789E+04  0.17315225789E+04  0.00000000000E+00 0. -1.
         -4   -1    0    0    0  501 -0.00000000000E+00 -0.00000000000E+00 -0.31966179639E+04  0.31966179639E+04  0.00000000000E+00 0. -1.
   -9000010    2    1    2    0  502 -0.49863952034E+02  0.71714512558E+03 -0.21204929625E+04  0.24538626905E+04  0.10040757715E+04 0.  0.
        -13    1    1    2    0    0  0.43707659805E+03 -0.29031802042E+03 -0.77285338331E+03  0.93414285246E+03  0.10566000000E+00 0.  1.
         13    1    3    3    0    0  0.43408961858E+03  0.31897045968E+03 -0.13937225411E+04  0.14942016208E+04  0.10566000000E+00 0. -1.
          2    1    1    2  502    0 -0.38721264601E+03 -0.42682710516E+03  0.14282509608E+04  0.15401349999E+04  0.00000000000E+00 0. -1.
         -4    1    3    3    0  502 -0.48395357062E+03  0.39817466590E+03 -0.72677042144E+03  0.95966106963E+03  0.00000000000E+00 0. -1.
</event>
<event>
 7    1  0.5696597E-006  0.1133087E+04  0.7818608E-02  0.8863973E-01
         -4   -1    0    0    0  501 -0.00000000000E+00  0.00000000000E+00  0.12581908722E+04  0.12581908722E+04  0.00000000000E+00 0. -1.
          2   -1    0    0  501    0  0.00000000000E+00 -0.00000000000E+00 -0.17308861305E+04  0.17308861305E+04  0.00000000000E+00 0. -1.
   -9000010    2    1    2    0  502  0.40229217756E+03 -0.25280338691E+03  0.82386998736E+03  0.14021361566E+04  0.10302793296E+04 0.  0.
        -13    1    1    2    0    0 -0.46393618245E+03  0.12155028266E+03 -0.27037885488E+03  0.55055970515E+03  0.10566000000E+00 0.  1.
         13    1    3    3    0    0 -0.30762370177E+03 -0.27906170985E+03  0.38986791034E+03  0.56965320895E+03  0.10566000000E+00 0. -1.
          2    1    1    2  502    0  0.61644004892E+02  0.13125310425E+03 -0.10261863908E+04  0.10363811410E+04  0.00000000000E+00 0. -1.
         -4    1    3    3    0  502  0.70991587933E+03  0.26258322939E+02  0.43400207703E+03  0.83248294764E+03  0.00000000000E+00 0. -1.
</event>
<event>
 7    1  0.5696597E-006  0.9986631E+03  0.7818608E-02  0.9440582E-01
          2   -1    0    0  502    0  0.00000000000E+00  0.00000000000E+00  0.60107704800E+03  0.60107704800E+03  0.00000000000E+00 0.  1.
          4   -1    0    0  501    0 -0.00000000000E+00 -0.00000000000E+00 -0.13251264001E+04  0.13251264001E+04  0.00000000000E+00 0.  1.
    9000010    2    1    2  502    0  0.52615311660E+01  0.99917170690E+02 -0.98708622105E+03  0.14058802547E+04  0.99606674375E+03 0.  0.
        -13    1    3    3    0    0 -0.64658984421E+01 -0.45012070779E+03 -0.47133938902E+03  0.65177549067E+03  0.10566000000E+00 0.  1.
         13    1    1    2    0    0 -0.46703588453E+02 -0.54217599568E+02 -0.11600107778E+03  0.13629759531E+03  0.10566000000E+00 0. -1.
          2    1    1    2  501    0  0.41442057287E+02 -0.45699571122E+02  0.37903794675E+03  0.38402559809E+03  0.00000000000E+00 0.  1.
          4    1    3    3  502    0  0.11727429608E+02  0.55003787848E+03 -0.51574683202E+03  0.75410476401E+03  0.00000000000E+00 0.  1.
</event>
<event>
 7    1  0.5696597E-006  0.1330388E+04  0.7818608E-02  0.8609089E-01
         -4   -1    0    0    0  501 -0.00000000000E+00  0.00000000000E+00  0.22378358662E+04  0.22378358662E+04  0.00000000000E+00 0. -1.
          1   -1    0    0  501    0  0.00000000000E+00 -0.00000000000E+00 -0.78407533467E+03  0.78407533467E+03  0.00000000000E+00 0. -1.
   -9000010    2    1    2    0  502 -0.68675684662E+03 -0.53876625284E+03  0.24057824208E+02  0.13319427106E+04  0.10057775916E+04 0.  0.
        -13    1    1    2    0    0  0.69713812851E+03  0.52128788416E+03  0.14237708863E+04  0.16687918313E+04  0.10566000000E+00 0.  1.
         13    1    3    3    0    0 -0.65060294754E+03 -0.57231645935E+03 -0.36465854098E+03  0.94010966789E+03  0.10566000000E+00 0. -1.
          1    1    1    2  502    0 -0.10381281892E+02  0.17478368680E+02  0.59318210394E+01  0.21176658996E+02  0.00000000000E+00 0. -1.
         -4    1    3    3    0  502 -0.36153899084E+02  0.33550206510E+02  0.38871636519E+03  0.39183304269E+03  0.00000000000E+00 0. -1.
</event>
<event>
 7    1  0.5696597E-006  0.1116402E+04  0.7818608E-02  0.8871023E-01
          2   -1    0    0  502    0  0.00000000000E+00  0.00000000000E+00  0.80092533197E+03  0.80092533197E+03  0.00000000000E+00 0.  1.
          4   -1    0    0  501    0 -0.00000000000E+00 -0.00000000000E+00 -0.15882550551E+04  0.15882550551E+04  0.00000000000E+00 0.  1.
    9000010    2    1    2  502    0 -0.39498471774E+03 -0.39971291355E+03 -0.58216822939E+03  0.12929901511E+04  0.10085238436E+04 0.  0.
        -13    1    3    3    0    0 -0.21032404228E+03  0.17410837309E+03  0.17565316671E+03  0.32465978266E+03  0.10566000000E+00 0.  1.
         13    1    1    2    0    0  0.40443784255E+03  0.22542877923E+03 -0.54440576372E+03  0.71467877381E+03  0.10566000000E+00 0. -1.
          2    1    1    2  501    0 -0.94531248080E+01  0.17428413432E+03  0.33924426998E+03  0.38151146216E+03  0.00000000000E+00 0.  1.
          4    1    3    3  502    0 -0.18466067546E+03 -0.57382128664E+03 -0.75782139610E+03  0.96833036844E+03  0.00000000000E+00 0.  1.
</event>
<event>
 7    1  0.5696597E-006  0.1090606E+04  0.7818608E-02  0.9123137E-01
         -4   -1    0    0    0  501 -0.00000000000E+00  0.00000000000E+00  0.20491309482E+04  0.20491309482E+04  0.00000000000E+00 0. -1.
          2   -1    0    0  501    0  0.00000000000E+00 -0.00000000000E+00 -0.36676777991E+03  0.36676777991E+03  0.00000000000E+00 0. -1.
   -9000010    2    1    2    0  502 -0.12857895280E+02 -0.27757803905E+03  0.10728477934E+04  0.14977578148E+04  0.10075024519E+04 0.  0.
        -13    1    1    2    0    0  0.10603311159E+02 -0.18467250578E+03  0.32898186119E+03  0.37741944936E+03  0.10566000000E+00 0.  1.
         13    1    3    3    0    0 -0.27589935810E+03  0.29488984633E+03  0.31446086637E+03  0.51182626438E+03  0.10566000000E+00 0. -1.
          2    1    1    2  502    0  0.22545841207E+01  0.46225054482E+03  0.28053351375E+03  0.54072146404E+03  0.00000000000E+00 0. -1.
         -4    1    3    3    0  502  0.26304146282E+03 -0.57246788537E+03  0.75838692704E+03  0.98593155038E+03  0.00000000000E+00 0. -1.
</event>
<event>
 7    1  0.5696597E-006  0.1009620E+04  0.7818608E-02  0.9170821E-01
          4   -1    0    0  501    0 -0.00000000000E+00  0.00000000000E+00  0.45585174175E+04  0.45585174175E+04  0.00000000000E+00 0.  1.
          2   -1    0    0  502    0  0.00000000000E+00 -0.00000000000E+00 -0.61958455939E+03  0.61958455939E+03  0.00000000000E+00 0. -1.
    9000010    2    1    2  502    0  0.18264565176E+03 -0.63934675696E+02  0.37822475751E+04  0.39146860017E+04  0.99092012586E+03 0.  0.
        -13    1    3    3    0    0  0.25712961359E+03 -0.14128764359E+03  0.26364320630E+03  0.39444338986E+03  0.10566000000E+00 0.  1.
         13    1    1    2    0    0 -0.17761149627E+03  0.76730342677E+02  0.69678166627E+03  0.72314458493E+03  0.10566000000E+00 0. -1.
          2    1    1    2  501    0 -0.50341554926E+01 -0.12795666981E+02 -0.54009638330E+03  0.54027139020E+03  0.00000000000E+00 0. -1.
          4    1    3    3  502    0 -0.74483961821E+02  0.77352967890E+02  0.35186043688E+04  0.35202426119E+04  0.00000000000E+00 0.  1.
</event>
<event>
 7    1  0.5696597E-006  0.1216106E+04  0.7818608E-02  0.9017588E-01
          4   -1    0    0  502    0  0.00000000000E+00  0.00000000000E+00  0.14497630893E+04  0.14497630893E+04  0.00000000000E+00 0.  1.
          4   -1    0    0  501    0 -0.00000000000E+00 -0.00000000000E+00 -0.13041909318E+04  0.13041909318E+04  0.00000000000E+00 0.  1.
    9000010    2    1    2  502    0 -0.69355276421E+03 -0.21012603291E+03 -0.25118988651E+03  0.12797491157E+04  0.10244476822E+04 0.  0.
        -13    1    3    3    0    0 -0.31445811123E+02 -0.36393299520E+03 -0.44231475919E+03  0.57365357263E+03  0.10566000000E+00 0.  1.
         13    1    1    2    0    0  0.14758209621E+03 -0.13960777807E+03 -0.39899813907E+03  0.44773913495E+03  0.10566000000E+00 0. -1.
          4    1    1    2  501    0  0.54597066800E+03  0.34973381098E+03  0.79576018314E+03  0.10264657705E+04  0.00000000000E+00 0.  1.
          4    1    3    3  502    0 -0.66210695309E+03  0.15380696228E+03  0.19112487268E+03  0.70609554306E+03  0.00000000000E+00 0.  1.
</event>
<event>
 7    1  0.5696597E-006  0.9622502E+03  0.7818608E-02  0.9257272E-01
         -4   -1    0    0    0  501 -0.00000000000E+00  0.00000000000E+00  0.10832430307E+04  0.10832430307E+04  0.00000000000E+00 0. -1.
          1   -1    0    0  501    0  0.00000000000E+00 -0.00000000000E+00 -0.73334269575E+03  0.73334269575E+03  0.00000000000E+00 0. -1.
   -9000010    2    1    2    0  502 -0.12190511585E+03  0.44014514718E+02  0.48050497923E+03  0.10714532541E+04  0.94885663085E+03 0.  0.
        -13    1    1    2    0    0  0.17246291997E+02 -0.16735933027E+03  0.26716545887E+03  0.31572768899E+03  0.10566000000E+00 0.  1.
         13    1    3    3    0    0 -0.35872852996E+03  0.37785335488E+03  0.14124725761E+03  0.53982415187E+03  0.10566000000E+00 0. -1.
          1    1    1    2  502    0  0.10465882385E+03  0.12334481556E+03 -0.39777010319E+03  0.42940478331E+03  0.00000000000E+00 0. -1.
         -4    1    3    3    0  502  0.23682341411E+03 -0.33383884016E+03  0.33925772162E+03  0.53162910224E+03  0.00000000000E+00 0. -1.
</event>
<event>
 7    1  0.5696597E-006  0.1217479E+04  0.7818608E-02  0.8721039E-01
          4   -1    0    0  501    0 -0.00000000000E+00  0.00000000000E+00  0.99198554386E+03  0.99198554386E+03  0.00000000000E+00 0.  1.
          2   -1    0    0  502    0  0.00000000000E+00 -0.00000000000E+00 -0.16049979298E+04  0.16049979298E+04  0.00000000000E+00 0.  1.
    9000010    2    1    2  502    0  0.66722852121E+03  0.46910080150E+01 -0.85944137224E+03  0.14765981416E+04  0.99824180161E+03 0.  0.
        -13    1    3    3    0    0  0.92426640782E+03  0.74118219196E+02 -0.59733438013E+03  0.11029824459E+04  0.10566000000E+00 0.  1.
         13    1    1    2    0    0 -0.70156028766E+03  0.34174577440E+01  0.50182160584E+03  0.86256794021E+03  0.10566000000E+00 0. -1.
          2    1    1    2  501    0  0.34331766450E+02 -0.81084657590E+01 -0.25539261954E+03  0.25781739181E+03  0.00000000000E+00 0.  1.
          4    1    3    3  502    0 -0.25703788662E+03 -0.69427211181E+02 -0.26210699212E+03  0.37361569577E+03  0.00000000000E+00 0.  1.
</event>
<event>
 7    1  0.5696597E-006  0.1221362E+04  0.7818608E-02  0.8729746E-01
         -4   -1    0    0    0  501 -0.00000000000E+00  0.00000000000E+00  0.31563978857E+04  0.31563978857E+04  0.00000000000E+00 0. -1.
          1   -1    0    0  501    0  0.00000000000E+00 -0.00000000000E+00 -0.75612760771E+03  0.75612760771E+03  0.00000000000E+00 0.  1.
   -9000010    2    1    2    0  502  0.43890415447E+02 -0.64999548377E+03  0.20069307230E+04  0.23455809530E+04  0.10244796644E+04 0.  0.
        -13    1    1    2    0    0  0.48373630506E+02  0.67519132719E+03  0.85780884691E+03  0.10927302345E+04  0.10566000000E+00 0.  1.
         13    1    3    3    0    0 -0.48102473994E+03 -0.40952219270E+03  0.94240684455E+03  0.11345589004E+04  0.10566000000E+00 0. -1.
          1    1    1    2  502    0 -0.92264045954E+02 -0.25195843419E+02 -0.46446929194E+03  0.47421430583E+03  0.00000000000E+00 0.  1.
         -4    1    3    3    0  502  0.52491515539E+03 -0.24047329107E+03  0.10645238784E+04  0.12110220526E+04  0.00000000000E+00 0. -1.
</event>
<event>
 7    1  0.5696597E-006  0.1004997E+04  0.7818608E-02  0.9239710E-01
          2   -1    0    0  502    0  0.00000000000E+00  0.00000000000E+00  0.11370859905E+04  0.11370859905E+04  0.00000000000E+00 0. -1.
          4   -1    0    0  501    0 -0.00000000000E+00 -0.00000000000E+00 -0.74887663216E+03  0.74887663216E+03  0.00000000000E+00 0.  1.
    9000010    2    1    2  502    0  0.42845854363E+01 -0.13106036948E+03  0.14311609890E+03  0.10124883291E+04  0.99370781455E+03 0.  0.
        -13    1    3    3    0    0  0.39283848864E+03  0.22106384492E+03  0.18323008097E+03  0.48658460254E+03  0.10566000000E+00 0.  1.
         13    1    1    2    0    0  0.85532022989E+01  0.15058078575E+03 -0.29582353644E+03  0.33205316771E+03  0.10566000000E+00 0. -1.
          2    1    1    2  501    0 -0.12837787735E+02 -0.19520416276E+02  0.54091679592E+03  0.54142112588E+03  0.00000000000E+00 0. -1.
          4    1    3    3  502    0 -0.38855390321E+03 -0.35212421440E+03 -0.40113982075E+02  0.52590372657E+03  0.00000000000E+00 0.  1.
</event>
<event>
 7    1  0.5696597E-006  0.1509980E+04  0.7818608E-02  0.8468552E-01
         -4   -1    0    0    0  501 -0.00000000000E+00  0.00000000000E+00  0.97664080764E+03  0.97664080764E+03  0.00000000000E+00 0. -1.
          2   -1    0    0  501    0  0.00000000000E+00 -0.00000000000E+00 -0.24743239030E+04  0.24743239030E+04  0.00000000000E+00 0.  1.
   -9000010    2    1    2    0  502 -0.10486592004E+04  0.38222153328E+03 -0.15851651411E+03  0.15150139206E+04  0.10121068497E+04 0.  0.
        -13    1    1    2    0    0  0.11350530193E+04 -0.14951355274E+03 -0.11600135321E+04  0.16298254707E+04  0.10566000000E+00 0.  1.
         13    1    3    3    0    0 -0.22750527396E+03 -0.33916043490E+03  0.13093413807E+02  0.40860726735E+03  0.10566000000E+00 0. -1.
          2    1    1    2  502    0 -0.86393818893E+02 -0.23270798054E+03 -0.17915304920E+03  0.30612531941E+03  0.00000000000E+00 0.  1.
         -4    1    3    3    0  502 -0.82115392645E+03  0.72138196818E+03 -0.17160992791E+03  0.11064066532E+04  0.00000000000E+00 0. -1.
</event>
<event>
 7    1  0.5696597E-006  0.1011550E+04  0.7818608E-02  0.9514068E-01
          1   -1    0    0  501    0  0.00000000000E+00  0.00000000000E+00  0.23471514910E+03  0.23471514910E+03  0.00000000000E+00 0. -1.
         -4   -1    0    0    0  501 -0.00000000000E+00 -0.00000000000E+00 -0.27688835249E+04  0.27688835249E+04  0.00000000000E+00 0. -1.
   -9000010    2    1    2    0  502 -0.45082323376E+02 -0.22021644573E+03 -0.24087233475E+04  0.26163595022E+04  0.99642419741E+03 0.  0.
        -13    1    1    2    0    0  0.49966359456E+00  0.52953486189E+02 -0.19396837903E+03  0.20106731359E+03  0.10566000000E+00 0.  1.
         13    1    3    3    0    0  0.24264512854E+03 -0.30311282846E+03 -0.31126123778E+03  0.49763200710E+03  0.10566000000E+00 0. -1.
          1    1    1    2  502    0  0.44582659781E+02  0.16726295954E+03  0.68523350746E+02  0.18617185820E+03  0.00000000000E+00 0. -1.
         -4    1    3    3    0  502 -0.28772745192E+03  0.82896382730E+02 -0.20974621097E+04  0.21187274951E+04  0.00000000000E+00 0. -1.
</event>
<event>
 7    1  0.5696597E-006  0.1446778E+04  0.7818608E-02  0.8517183E-01
          4   -1    0    0  501    0 -0.00000000000E+00  0.00000000000E+00  0.19074867393E+04  0.19074867393E+04  0.00000000000E+00 0.  1.
          2   -1    0    0  502    0  0.00000000000E+00 -0.00000000000E+00 -0.14739915871E+04  0.14739915871E+04  0.00000000000E+00 0. -1.
    9000010    2    1    2  502    0 -0.91495501678E+03  0.56919922518E+03  0.98830724837E+03  0.17854933837E+04  0.10247462931E+04 0.  0.
        -13    1    3    3    0    0 -0.40511332698E+02  0.54211965975E+03  0.65031426514E+03  0.84761049319E+03  0.10566000000E+00 0.  1.
         13    1    1    2    0    0  0.90378001463E+03 -0.34068386605E+03  0.31751738452E+02  0.96638087496E+03  0.10566000000E+00 0. -1.
          2    1    1    2  501    0  0.11175002151E+02 -0.22851535913E+03 -0.58656383467E+03  0.62960406779E+03  0.00000000000E+00 0. -1.
          4    1    3    3  502    0 -0.87444368409E+03  0.27079565430E+02  0.33799298323E+03  0.93788289046E+03  0.00000000000E+00 0.  1.
</event>
<event>
 7    1  0.5696597E-006  0.1145217E+04  0.7818608E-02  0.8817046E-01
         -4   -1    0    0    0  502 -0.00000000000E+00  0.00000000000E+00  0.34026458644E+04  0.34026458644E+04  0.00000000000E+00 0. -1.
         -2   -1    0    0    0  501  0.00000000000E+00 -0.00000000000E+00 -0.31742678173E+03  0.31742678173E+03  0.00000000000E+00 0.  1.
   -9000010    2    1    2    0  501 -0.45717711091E+03 -0.40496973388E+03  0.24781158119E+04  0.27415812248E+04  0.10010985162E+04 0.  0.
        -13    1    1    2    0    0  0.27511302518E+03  0.44768167269E+03  0.59096693539E+03  0.79078947045E+03  0.10566000000E+00 0.  1.
         13    1    3    3    0    0 -0.59948337021E+03 -0.42577860496E+02  0.70581557451E+03  0.92702147858E+03  0.10566000000E+00 0. -1.
         -2    1    1    2    0  502  0.18206408573E+03 -0.42711938812E+02  0.16136335392E+02  0.18770195084E+03  0.00000000000E+00 0.  1.
         -4    1    3    3    0  501  0.14230625930E+03 -0.36239187338E+03  0.17723002373E+04  0.18145597462E+04  0.00000000000E+00 0. -1.
</event>
<event>
 7    1  0.5696597E-006  0.1042161E+04  0.7818608E-02  0.9081648E-01
          2   -1    0    0  502    0  0.00000000000E+00  0.00000000000E+00  0.88561293129E+03  0.88561293129E+03  0.00000000000E+00 0. -1.
          4   -1    0    0  501    0 -0.00000000000E+00 -0.00000000000E+00 -0.21045768632E+04  0.21045768632E+04  0.00000000000E+00 0.  1.
    9000010    2    1    2  502    0  0.17126520276E+03 -0.17259874432E+03 -0.14704986067E+04  0.18014391488E+04  0.10117780184E+04 0.  0.
        -13    1    3    3    0    0 -0.30876470683E+03 -0.59314059518E+02 -0.11967182740E+04  0.12373311765E+04  0.10566000000E+00 0.  1.
         13    1    1    2    0    0 -0.19032481689E+03  0.16408215590E+03 -0.43474951394E+03  0.50214902255E+03  0.10566000000E+00 0. -1.
          2    1    1    2  501    0  0.19059614135E+02  0.85165884203E+01  0.68628418872E+03  0.68660162311E+03  0.00000000000E+00 0. -1.
          4    1    3    3  502    0  0.48002990959E+03 -0.11328468480E+03 -0.27378033273E+03  0.56410797238E+03  0.00000000000E+00 0.  1.
</event>
<event>
 7    1  0.5696597E-006  0.1111861E+04  0.7818608E-02  0.8890888E-01
          2   -1    0    0  501    0  0.00000000000E+00  0.00000000000E+00  0.23813797823E+04  0.23813797823E+04  0.00000000000E+00 0. -1.
         -4   -1    0    0    0  501 -0.00000000000E+00 -0.00000000000E+00 -0.11295533654E+04  0.11295533654E+04  0.00000000000E+00 0. -1.
   -9000010    2    1    2    0  502 -0.27347134811E+03  0.35954254286E+03 -0.44902746306E+03  0.12011563765E+04  0.10183779062E+04 0.  0.
        -13    1    1    2    0    0  0.24013652713E+03 -0.37383470424E+03 -0.14208373020E+03  0.46648229903E+03  0.10566000000E+00 0.  1.
         13    1    3    3    0    0 -0.28796918674E+03  0.36262368311E+02 -0.72177149121E+03  0.77794299827E+03  0.10566000000E+00 0. -1.
          2    1    1    2  502    0  0.33334820981E+02  0.14292161372E+02  0.18429376102E+04  0.18432944722E+04  0.00000000000E+00 0. -1.
         -4    1    3    3    0  502  0.14497838626E+02  0.32328017455E+03  0.27274402815E+03  0.42321337818E+03  0.00000000000E+00 0. -1.
</event>
<event>
 7    1  0.5696597E-006  0.1039162E+04  0.7818608E-02  0.9336227E-01
          2   -1    0    0  502    0  0.00000000000E+00  0.00000000000E+00  0.71482206039E+03  0.71482206039E+03  0.00000000000E+00 0.  1.
          4   -1    0    0  501    0 -0.00000000000E+00 -0.00000000000E+00 -0.22364871988E+04  0.22364871988E+04  0.00000000000E+00 0.  1.
    9000010    2    1    2  502    0 -0.26715671072E+03  0.16023779130E+03 -0.16229106576E+04  0.19290602754E+04  0.99518123248E+03 0.  0.
        -13    1    3    3    0    0  0.12703513177E+02 -0.34745474661E+03 -0.22090920185E+03  0.41193090053E+03  0.10566000000E+00 0.  1.
         13    1    1    2    0    0 -0.23899962619E+02 -0.91072966984E+02 -0.41502080899E+03  0.42556759344E+03  0.10566000000E+00 0. -1.
          2    1    1    2  501    0  0.29105667334E+03 -0.69164824318E+02  0.51626632819E+03  0.59668139040E+03  0.00000000000E+00 0.  1.
          4    1    3    3  502    0 -0.27986022390E+03  0.50769253791E+03 -0.14020014558E+04  0.15171293748E+04  0.00000000000E+00 0.  1.
</event>
<event>
 7    1  0.5696597E-006  0.1098570E+04  0.7818608E-02  0.8896888E-01
          2   -1    0    0  501    0  0.00000000000E+00  0.00000000000E+00  0.14381393977E+04  0.14381393977E+04  0.00000000000E+00 0. -1.
         -4   -1    0    0    0  501 -0.00000000000E+00 -0.00000000000E+00 -0.28843846402E+04  0.28843846402E+04  0.00000000000E+00 0. -1.
   -9000010    2    1    2    0  502 -0.47729159396E+03  0.33138120060E+02 -0.26679287366E+04  0.28896281520E+04  0.10015995769E+04 0.  0.
        -13    1    1    2    0    0  0.31248154571E+03 -0.24213511638E+03  0.37320689187E+03  0.54365202685E+03  0.10566000000E+00 0.  1.
         13    1    3    3    0    0  0.53886846513E+02 -0.30109475554E+03 -0.26059789777E+03  0.40183718037E+03  0.10566000000E+00 0. -1.
          2    1    1    2  502    0  0.16481004825E+03  0.20899699632E+03  0.84847660219E+03  0.88924385909E+03  0.00000000000E+00 0. -1.
         -4    1    3    3    0  502 -0.53117844047E+03  0.33423287560E+03 -0.24073308389E+04  0.24877909716E+04  0.00000000000E+00 0. -1.
</event>
<event>
 7    1  0.5696597E-006  0.1028943E+04  0.7818608E-02  0.9116236E-01
          2   -1    0    0  502    0  0.00000000000E+00  0.00000000000E+00  0.59992356155E+03  0.59992356155E+03  0.00000000000E+00 0. -1.
          4   -1    0    0  501    0 -0.00000000000E+00 -0.00000000000E+00 -0.10647835480E+04  0.10647835480E+04  0.00000000000E+00 0.  1.
    9000010    2    1    2  502    0 -0.11031293199E+03  0.19088391035E+03 -0.71565574990E+03  0.12523028794E+04  0.10037398762E+04 0.  0.
        -13    1    3    3    0    0 -0.33784273505E+03  0.31240326161E+03  0.32142359588E+02  0.46126635899E+03  0.10566000000E+00 0.  1.
         13    1    1    2    0    0  0.14738454772E+03 -0.17824499056E+03  0.92104967205E+02  0.24895143646E+03  0.10566000000E+00 0. -1.
          2    1    1    2  501    0 -0.37071615733E+02 -0.12638919788E+02  0.15869079621E+03  0.16345279376E+03  0.00000000000E+00 0. -1.
          4    1    3    3  502    0  0.22752980306E+03 -0.12151935126E+03 -0.74779810949E+03  0.79103652037E+03  0.00000000000E+00 0.  1.
</event>
<event>
 7    1  0.5696597E-006  0.1052150E+04  0.7818608E-02  0.9136590E-01
          1   -1    0    0  501    0  0.00000000000E+00  0.00000000000E+00  0.14395794278E+04  0.14395794278E+04  0.00000000000E+00 0. -1.
         -4   -1    0    0    0  501 -0.00000000000E+00 -0.00000000000E+00 -0.16456244528E+04  0.16456244528E+04  0.00000000000E+00 0. -1.
   -9000010    2    1    2    0  502  0.19245527848E+03 -0.46540985583E+03 -0.11326356770E+04  0.15901284060E+04  0.99599166792E+03 0.  0.
        -13    1    1    2    0    0  0.81139517403E+01  0.19522359364E+03 -0.22344275733E+03  0.29682446782E+03  0.10566000000E+00 0.  1.
         13    1    3    3    0    0 -0.68975291022E+01 -0.68794496445E+03 -0.39273835918E+03  0.79218639218E+03  0.10566000000E+00 0. -1.
          1    1    1    2  502    0 -0.20056923022E+03  0.27018626219E+03  0.11500334094E+04  0.11982510067E+04  0.00000000000E+00 0. -1.
         -4    1    3    3    0  502  0.19935280759E+03  0.22253510861E+03 -0.73989731785E+03  0.79794201382E+03  0.00000000000E+00 0. -1.
</event>
<event>
 7    1  0.5696597E-006  0.1141132E+04  0.7818608E-02  0.8827572E-01
         -4   -1    0    0    0  501 -0.00000000000E+00  0.00000000000E+00  0.25433944694E+04  0.25433944694E+04  0.00000000000E+00 0. -1.
          2   -1    0    0  501    0  0.00000000000E+00 -0.00000000000E+00 -0.14979113892E+04  0.14979113892E+04  0.00000000000E+00 0. -1.
   -9000010    2    1    2    0  502 -0.46635543989E+03 -0.33340231956E+03  0.48781821240E+03  0.12568142869E+04  0.10064646246E+04 0.  0.
        -13    1    1    2    0    0  0.35400941539E+03  0.40151817017E+03  0.16240757233E+04  0.17100179746E+04  0.10566000000E+00 0.  1.
         13    1    3    3    0    0  0.49016047371E+02 -0.17782608499E+03  0.66496568506E+03  0.69007540376E+03  0.10566000000E+00 0. -1.
          2    1    1    2  502    0  0.11234602450E+03 -0.68115850614E+02 -0.10664108555E+04  0.10744735972E+04  0.00000000000E+00 0. -1.
         -4    1    3    3    0  502 -0.51537148726E+03 -0.15557623457E+03 -0.17714747266E+03  0.56673888318E+03  0.00000000000E+00 0. -1.
</event>
<event>
 7    1  0.5696597E-006  0.9917917E+03  0.7818608E-02  0.9090458E-01
          1   -1    0    0  501    0  0.00000000000E+00  0.00000000000E+00  0.93280406066E+03  0.93280406066E+03  0.00000000000E+00 0. -1.
         -4   -1    0    0    0  501 -0.00000000000E+00 -0.00000000000E+00 -0.65460562186E+03  0.65460562186E+03  0.00000000000E+00 0. -1.
   -9000010    2    1    2    0  502 -0.18781346767E+03  0.18998150671E+03 -0.84823726826E+02  0.99190963858E+03  0.95148452165E+03 0.  0.
        -13    1    1    2    0    0  0.15351290035E+03 -0.24222757008E+03  0.69069107840E+02  0.29497620091E+03  0.10566000000E+00 0.  1.
         13    1    3    3    0    0  0.10623104229E+03  0.52422092202E+03 -0.10982947423E+03  0.54603583582E+03  0.10566000000E+00 0. -1.
          1    1    1    2  502    0  0.34300567317E+02  0.52246063367E+02  0.29395305779E+03  0.30052384304E+03  0.00000000000E+00 0. -1.
         -4    1    3    3    0  502 -0.29404450996E+03 -0.33423941530E+03  0.25005747404E+02  0.44587380275E+03  0.00000000000E+00 0. -1.
</event>
<event>
 7    1  0.5696597E-006  0.1023933E+04  0.7818608E-02  0.9101560E-01
         -4   -1    0    0    0  501 -0.00000000000E+00  0.00000000000E+00  0.43074306404E+03  0.43074306404E+03  0.00000000000E+00 0. -1.
          2   -1    0    0  501    0  0.00000000000E+00 -0.00000000000E+00 -0.11810624906E+04  0.11810624906E+04  0.00000000000E+00 0. -1.
   -9000010    2    1    2    0  502  0.15587799698E+03  0.16776988772E+03 -0.77819786101E+03  0.12834467646E+04  0.99458483881E+03 0.  0.
        -13    1    1    2    0    0 -0.14577339342E+03 -0.19653439474E+03  0.88739071207E+02  0.26028884814E+03  0.10566000000E+00 0.  1.
         13    1    3    3    0    0  0.19091579700E+03 -0.40181100589E+03 -0.40490962560E+03  0.60154197033E+03  0.10566000000E+00 0. -1.
          2    1    1    2  502    0 -0.10104603560E+02  0.28764507018E+02 -0.60860636750E+02  0.68069941844E+02  0.00000000000E+00 0. -1.
         -4    1    3    3    0  502 -0.35037800023E+02  0.56958089361E+03 -0.37328823541E+03  0.68190479430E+03  0.00000000000E+00 0. -1.
</event>
<event>
 6    1  0.5696597E-006  0.8494712E+03  0.7818608E-02  0.9065481E-01
          4   -1    0    0  501    0 -0.00000000000E+00  0.00000000000E+00  0.63905273711E+03  0.63905273711E+03  0.00000000000E+00 0.  1.
          2   -1    0    0  502    0  0.00000000000E+00 -0.00000000000E+00 -0.80337211874E+03  0.80337211874E+03  0.00000000000E+00 0.  1.
        -13    1    1    2    0    0  0.39814216743E+03 -0.40926408734E+03 -0.27703810590E+03  0.63463722075E+03  0.10566000000E+00 0.  1.
         13    1    1    2    0    0 -0.42765817135E+03  0.24538861394E+03  0.42251454309E+02  0.49486592116E+03  0.10566000000E+00 0. -1.
          2    1    1    2  501    0  0.11096808239E+02  0.12126965487E+02 -0.89888854732E+02  0.91379476088E+02  0.00000000000E+00 0.  1.
          4    1    1    2  502    0  0.18419195677E+02  0.15174850791E+03  0.16035612470E+03  0.22154223785E+03  0.00000000000E+00 0.  1.
</event>
<event>
 6    1  0.5696597E-006  0.3087266E+03  0.7818608E-02  0.1012654E+00
          2   -1    0    0  501    0  0.00000000000E+00  0.00000000000E+00  0.78507110414E+02  0.78507110414E+02  0.00000000000E+00 0.  1.
         -4   -1    0    0    0  501 -0.00000000000E+00 -0.00000000000E+00 -0.22214798124E+04  0.22214798124E+04  0.00000000000E+00 0. -1.
        -13    1    1    2    0    0  0.88147896421E+02  0.16750916277E+03 -0.28963848304E+03  0.34600553937E+03  0.10566000000E+00 0.  1.
         13    1    1    2    0    0 -0.67230480228E+02 -0.36800522251E+02 -0.91885808267E+02  0.11965462312E+03  0.10566000000E+00 0. -1.
          2    1    1    2  502    0 -0.95637021590E+02  0.14864520970E+03 -0.10753287083E+04  0.10897585371E+04  0.00000000000E+00 0.  1.
         -4    1    1    2    0  502  0.74719605398E+02 -0.27935385021E+03 -0.68611970245E+03  0.74456822330E+03  0.00000000000E+00 0. -1.
</event>
<event>
 7    1  0.5696597E-006  0.1238877E+04  0.7818608E-02  0.8697406E-01
          1   -1    0    0  501    0  0.00000000000E+00  0.00000000000E+00  0.15695861661E+04  0.15695861661E+04  0.00000000000E+00 0.  1.
         -4   -1    0    0    0  501 -0.00000000000E+00 -0.00000000000E+00 -0.10712714415E+04  0.10712714415E+04  0.00000000000E+00 0. -1.
   -9000010    2    1    2    0  502  0.33790616638E+03  0.64880328280E+03 -0.10268511245E+02  0.12382928027E+04  0.99906823882E+03 0.  0.
        -13    1    1    2    0    0 -0.35192691114E+03 -0.64316677643E+03 -0.14621457677E+03  0.74759264758E+03  0.10566000000E+00 0.  1.
         13    1    3    3    0    0  0.49006556014E+01 -0.23113904521E+03  0.16134341502E+03  0.28192371908E+03  0.10566000000E+00 0. -1.
          1    1    1    2  502    0  0.14020744761E+02 -0.56365063723E+01  0.65479781257E+03  0.65497215730E+03  0.00000000000E+00 0.  1.
         -4    1    3    3    0  502  0.33300551078E+03  0.87994232801E+03 -0.17161192627E+03  0.95636908361E+03  0.00000000000E+00 0. -1.
</event>
<event>
 7    1  0.5696597E-006  0.1057006E+04  0.7818608E-02  0.8977572E-01
          2   -1    0    0  501    0  0.00000000000E+00  0.00000000000E+00  0.46956099936E+03  0.46956099936E+03  0.00000000000E+00 0. -1.
         -4   -1    0    0    0  501 -0.00000000000E+00 -0.00000000000E+00 -0.32092511667E+04  0.32092511667E+04  0.00000000000E+00 0. -1.
   -9000010    2    1    2    0  502 -0.15683032521E+03 -0.32524135510E+03 -0.27965564744E+04  0.29893168921E+04  0.99242615675E+03 0.  0.
        -13    1    1    2    0    0  0.16671123475E+03  0.32678647267E+03 -0.20982194749E+03  0.42261956334E+03  0.10566000000E+00 0.  1.
         13    1    3    3    0    0 -0.38348501359E+03 -0.35390256522E+03 -0.66378852727E+03  0.84434767804E+03  0.10566000000E+00 0. -1.
          2    1    1    2  502    0 -0.98809095389E+01 -0.15451175651E+01  0.26668825461E+03  0.26687571061E+03  0.00000000000E+00 0. -1.
         -4    1    3    3    0  502  0.22665468838E+03  0.28661210111E+02 -0.21327679472E+04  0.21449692140E+04  0.00000000000E+00 0. -1.
</event>
<event>
 7    1  0.5696597E-006  0.1051056E+04  0.7818608E-02  0.9470180E-01
         -4   -1    0    0    0  501 -0.00000000000E+00  0.00000000000E+00  0.21344640514E+04  0.21344640514E+04  0.00000000000E+00 0. -1.
          2   -1    0    0  501    0  0.00000000000E+00 -0.00000000000E+00 -0.29138947445E+03  0.29138947445E+03  0.00000000000E+00 0. -1.
   -9000010    2    1    2    0  502  0.72336314453E+02 -0.28890867948E+03  0.83533144664E+03  0.13413381041E+04  0.10063341971E+04 0.  0.
        -13    1    1    2    0    0 -0.51246767711E+02 -0.20996952192E+02  0.40475787171E+02  0.68595945313E+02  0.10566000000E+00 0.  1.
         13    1    3    3    0    0  0.19972455992E+03  0.31935810060E+03  0.12351121425E+03  0.39640197712E+03  0.10566000000E+00 0. -1.
          2    1    1    2  502    0 -0.21089546742E+02  0.30990563167E+03  0.96726734318E+03  0.10159194765E+04  0.00000000000E+00 0. -1.
         -4    1    3    3    0  502 -0.12738824547E+03 -0.60826678007E+03  0.71182023239E+03  0.94493612698E+03  0.00000000000E+00 0. -1.
</event>
<event>
 7    1  0.5696597E-006  0.1024596E+04  0.7818608E-02  0.9170018E-01
         -4   -1    0    0    0  501 -0.00000000000E+00  0.00000000000E+00  0.14567139711E+04  0.14567139711E+04  0.00000000000E+00 0. -1.
          1   -1    0    0  501    0  0.00000000000E+00 -0.00000000000E+00 -0.70997987345E+03  0.70997987345E+03  0.00000000000E+00 0.  1.
   -9000010    2    1    2    0  502  0.13901539564E+03  0.11594775287E+03  0.61604235097E+03  0.11948279937E+04  0.10076391193E+04 0.  0.
        -13    1    1    2    0    0 -0.13654585677E+03 -0.12614985016E+03  0.53553683611E+03  0.56688470582E+03  0.10566000000E+00 0.  1.
         13    1    3    3    0    0  0.14240014197E+03 -0.15221635129E+02 -0.26652281619E+03  0.30256226025E+03  0.10566000000E+00 0. -1.
          1    1    1    2  502    0 -0.24695388706E+01  0.10202097294E+02 -0.40484508940E+03  0.40498114503E+03  0.00000000000E+00 0.  1.
         -4    1    3    3    0  502 -0.33847463311E+01  0.13116938800E+03  0.88256516716E+03  0.89226573348E+03  0.00000000000E+00 0. -1.
</event>
<event>
 7    1  0.5696597E-006  0.1015963E+04  0.7818608E-02  0.9234163E-01
          5   -1    0    0  501    0  0.00000000000E+00  0.00000000000E+00  0.19191742562E+03  0.19191742562E+03  0.00000000000E+00 0. -1.
         -4   -1    0    0    0  501 -0.00000000000E+00 -0.00000000000E+00 -0.22165957470E+04  0.22165957470E+04  0.00000000000E+00 0. -1.
   -9000010    2    1    2    0  502 -0.14639582226E+03  0.75096129631E+02 -0.14181610049E+04  0.17459587596E+04  0.10050473566E+04 0.  0.
        -13    1    1    2    0    0  0.12679348205E+03 -0.75756732667E+02 -0.62090419866E+03  0.63823013460E+03  0.10566000000E+00 0.  1.
         13    1    3    3    0    0  0.38605669927E+03  0.22484016045E+03 -0.80137659075E+03  0.91749513577E+03  0.10566000000E+00 0. -1.
          5    1    1    2  502    0  0.19602340219E+02  0.66060303623E+00  0.14386882227E+02  0.24324278378E+02  0.00000000000E+00 0. -1.
         -4    1    3    3    0  502 -0.53245252153E+03 -0.14974403082E+03 -0.61678441416E+03  0.82846362383E+03  0.00000000000E+00 0. -1.
</event>
<event>
 7    1  0.5696597E-006  0.8372687E+03  0.7818608E-02  0.9602295E-01
          4   -1    0    0  501    0 -0.00000000000E+00  0.00000000000E+00  0.94253505712E+03  0.94253505712E+03  0.00000000000E+00 0.  1.
          2   -1    0    0  502    0  0.00000000000E+00 -0.00000000000E+00 -0.17298528771E+04  0.17298528771E+04  0.00000000000E+00 0. -1.
    9000010    2    1    2  502    0 -0.15527990637E+03  0.47457879089E+02  0.68657617137E+03  0.10908016006E+04  0.83192379049E+03 0.  0.
        -13    1    3    3    0    0 -0.11305553969E+03 -0.21177398150E+03  0.77683140588E+03  0.81307860544E+03  0.10566000000E+00 0.  1.
         13    1    1    2    0    0  0.65337458961E+02 -0.18984082235E+02  0.30268184857E+02  0.74468470512E+02  0.10566000000E+00 0. -1.
          2    1    1    2  501    0  0.89942447412E+02 -0.28473796854E+02 -0.15041621763E+04  0.15071178631E+04  0.00000000000E+00 0. -1.
          4    1    3    3  502    0 -0.42224366680E+02  0.25923186059E+03 -0.90255234511E+02  0.27772299517E+03  0.00000000000E+00 0.  1.
</event>
<event>
 7    1  0.5696597E-006  0.1423484E+04  0.7818608E-02  0.8927794E-01
         -4   -1    0    0    0  502 -0.00000000000E+00  0.00000000000E+00  0.18246315447E+04  0.18246315447E+04  0.00000000000E+00 0. -1.
         -2   -1    0    0    0  501  0.00000000000E+00 -0.00000000000E+00 -0.14396226820E+04  0.14396226820E+04  0.00000000000E+00 0. -1.
   -9000010    2    1    2    0  501 -0.10627240559E+04 -0.30902477520E+03  0.80544543148E+03  0.16952177723E+04  0.10000711084E+04 0.  0.
        -13    1    1    2    0    0  0.77581831603E+02  0.16528280233E+03  0.29229617376E+03  0.34463663430E+03  0.10566000000E+00 0.  1.
         13    1    3    3    0    0 -0.10345821328E+04 -0.65706750920E+02  0.95393513695E+03  0.14087831002E+04  0.10566000000E+00 0. -1.
         -2    1    1    2    0  502  0.98514222434E+03  0.14374197287E+03 -0.71273274254E+03  0.12243998200E+04  0.00000000000E+00 0. -1.
         -4    1    3    3    0  501 -0.28141923094E+02 -0.24331802428E+03 -0.14848970548E+03  0.28643467215E+03  0.00000000000E+00 0. -1.
</event>
<event>
 7    1  0.5696597E-006  0.9995687E+03  0.7818608E-02  0.9222131E-01
          4   -1    0    0  501    0 -0.00000000000E+00  0.00000000000E+00  0.68605063344E+03  0.68605063344E+03  0.00000000000E+00 0.  1.
          2   -1    0    0  502    0  0.00000000000E+00 -0.00000000000E+00 -0.11018154401E+04  0.11018154401E+04  0.00000000000E+00 0.  1.
    9000010    2    1    2  502    0 -0.85987994359E+02  0.16881563082E+03 -0.66448823688E+03  0.12041138831E+04  0.98613030279E+03 0.  0.
        -13    1    3    3    0    0 -0.46163714629E+03  0.20047068555E+03 -0.81475829626E+02  0.50983886923E+03  0.10566000000E+00 0.  1.
         13    1    1    2    0    0  0.88670151124E+02 -0.13668196492E+03  0.39851306664E+03  0.43053110304E+03  0.10566000000E+00 0. -1.
          2    1    1    2  501    0 -0.26821567651E+01 -0.32133665903E+02 -0.14978963642E+03  0.15322108742E+03  0.00000000000E+00 0.  1.
          4    1    3    3  502    0  0.37564915193E+03 -0.31655054729E+02 -0.58301240725E+03  0.69427501385E+03  0.00000000000E+00 0.  1.
</event>
<event>
 7    1  0.5696597E-006  0.1182112E+04  0.7818608E-02  0.8853325E-01
         -4   -1    0    0    0  501 -0.00000000000E+00  0.00000000000E+00  0.21531846851E+04  0.21531846851E+04  0.00000000000E+00 0. -1.
          2   -1    0    0  501    0  0.00000000000E+00 -0.00000000000E+00 -0.16681888806E+04  0.16681888806E+04  0.00000000000E+00 0. -1.
   -9000010    2    1    2    0  502  0.13691459430E+03  0.12077315369E+03  0.33993721302E+03  0.11043922763E+04  0.10347913946E+04 0.  0.
        -13    1    1    2    0    0  0.39036927666E+03  0.19016651449E+03  0.13213910218E+04  0.13909082353E+04  0.10566000000E+00 0.  1.
         13    1    3    3    0    0  0.30319068915E+03 -0.24835409958E+02  0.65345816757E+03  0.72079746081E+03  0.10566000000E+00 0. -1.
          2    1    1    2  502    0 -0.52728387096E+03 -0.31093966818E+03 -0.11763324304E+04  0.13260730540E+04  0.00000000000E+00 0. -1.
         -4    1    3    3    0  502 -0.16627609486E+03  0.14560856365E+03 -0.31352095455E+03  0.38359481549E+03  0.00000000000E+00 0. -1.
</event>
<event>
 7    1  0.5696597E-006  0.1009604E+04  0.7818608E-02  0.9368777E-01
          2   -1    0    0  502    0  0.00000000000E+00  0.00000000000E+00  0.10176866051E+04  0.10176866051E+04  0.00000000000E+00 0.  1.
          4   -1    0    0  501    0 -0.00000000000E+00 -0.00000000000E+00 -0.63284495519E+03  0.63284495519E+03  0.00000000000E+00 0.  1.
    9000010    2    1    2  502    0  0.43251621208E+02 -0.53603582648E+02 -0.10467861948E+03  0.10132831972E+04  0.10055054339E+04 0.  0.
        -13    1    3    3    0    0 -0.10447125344E+03 -0.44879700557E+03  0.19024216434E+03  0.49852290546E+03  0.10566000000E+00 0.  1.
         13    1    1    2    0    0 -0.84708032790E+02  0.37853442135E+02 -0.43439470846E+02  0.10244673100E+03  0.10566000000E+00 0. -1.
          2    1    1    2  501    0  0.41456411582E+02  0.15750140514E+02  0.53295974024E+03  0.53480163211E+03  0.00000000000E+00 0.  1.
          4    1    3    3  502    0  0.14772287465E+03  0.39519342292E+03 -0.29492078383E+03  0.51476029174E+03  0.00000000000E+00 0.  1.
</event>
<event>
 7    1  0.5696597E-006  0.9181981E+03  0.7818608E-02  0.9266239E-01
         -4   -1    0    0    0  501 -0.00000000000E+00  0.00000000000E+00  0.12696787596E+04  0.12696787596E+04  0.00000000000E+00 0. -1.
          2   -1    0    0  501    0  0.00000000000E+00 -0.00000000000E+00 -0.21146970070E+04  0.21146970070E+04  0.00000000000E+00 0. -1.
   -9000010    2    1    2    0  502  0.65830084017E+02  0.13839440362E+03  0.97851756501E+03  0.13388092921E+04  0.90079247589E+03 0.  0.
        -13    1    1    2    0    0 -0.22327005317E+02 -0.19086662961E+03  0.26754106400E+02  0.19402154220E+03  0.10566000000E+00 0.  1.
         13    1    3    3    0    0  0.47569086952E+03 -0.13098885010E+02  0.53979111854E+03  0.71960256180E+03  0.10566000000E+00 0. -1.
          2    1    1    2  502    0 -0.43503078700E+02  0.52472225988E+02 -0.18502899189E+04  0.18515449323E+04  0.00000000000E+00 0. -1.
         -4    1    3    3    0  502 -0.40986078551E+03  0.15149328863E+03  0.43872644647E+03  0.61920673028E+03  0.00000000000E+00 0. -1.
</event>
<event>
 7    1  0.5696597E-006  0.9603233E+03  0.7818608E-02  0.9423687E-01
          2   -1    0    0  501    0  0.00000000000E+00  0.00000000000E+00  0.11120538937E+04  0.11120538937E+04  0.00000000000E+00 0. -1.
         -4   -1    0    0    0  501 -0.00000000000E+00 -0.00000000000E+00 -0.27550240844E+04  0.27550240844E+04  0.00000000000E+00 0. -1.
   -9000010    2    1    2    0  502  0.69424330892E+02  0.31597267234E+02 -0.26486060692E+04  0.28170435323E+04  0.95645283607E+03 0.  0.
        -13    1    1    2    0    0 -0.95412386632E+02 -0.29241782715E+02  0.91085133660E+02  0.13511150253E+03  0.10566000000E+00 0.  1.
         13    1    3    3    0    0 -0.12905847285E+03  0.40019182554E+03 -0.64350386455E+03  0.76870463866E+03  0.10566000000E+00 0. -1.
          2    1    1    2  502    0  0.25988055741E+02 -0.23554845190E+01  0.91455074486E+03  0.91492294335E+03  0.00000000000E+00 0. -1.
         -4    1    3    3    0  502  0.19848280374E+03 -0.36859455831E+03 -0.20051022047E+04  0.20483388936E+04  0.00000000000E+00 0. -1.
</event>
<event>
 7    1  0.5696597E-006  0.8608724E+03  0.7818608E-02  0.9184834E-01
         -4   -1    0    0    0  501 -0.00000000000E+00  0.00000000000E+00  0.29772532707E+03  0.29772532707E+03  0.00000000000E+00 0. -1.
          2   -1    0    0  501    0  0.00000000000E+00 -0.00000000000E+00 -0.23113928227E+04  0.23113928227E+04  0.00000000000E+00 0.  1.
   -9000010    2    1    2    0  502  0.25359358897E+03  0.14942589800E+03 -0.12017892408E+04  0.14780922634E+04  0.80859232776E+03 0.  0.
        -13    1    1    2    0    0 -0.24858223492E+03 -0.15988935597E+03  0.22637879346E+02  0.29642911196E+03  0.10566000000E+00 0.  1.
         13    1    3    3    0    0  0.32760446261E+03 -0.92287686427E+02 -0.11040473717E+03  0.35781408320E+03  0.10566000000E+00 0. -1.
          2    1    1    2  502    0 -0.50113540502E+01  0.10463457970E+02 -0.83451613418E+03  0.83459677439E+03  0.00000000000E+00 0.  1.
         -4    1    3    3    0  502 -0.74010873635E+02  0.24171358443E+03 -0.10913845036E+04  0.11202781802E+04  0.00000000000E+00 0. -1.
</event>
<event>
 7    1  0.5696597E-006  0.1014279E+04  0.7818608E-02  0.9384330E-01
          4   -1    0    0  501    0 -0.00000000000E+00  0.00000000000E+00  0.90463616144E+03  0.90463616144E+03  0.00000000000E+00 0.  1.
          2   -1    0    0  502    0  0.00000000000E+00 -0.00000000000E+00 -0.74677746018E+03  0.74677746018E+03  0.00000000000E+00 0.  1.
    9000010    2    1    2  502    0 -0.84059887594E+01 -0.16417157595E+03  0.27166465400E+03  0.10463555401E+04  0.99701317198E+03 0.  0.
        -13    1    3    3    0    0  0.29074721457E+03 -0.24523882846E+03 -0.23883701012E+03  0.44913155571E+03  0.10566000000E+00 0.  1.
         13    1    1    2    0    0  0.84236504947E+02 -0.76773130162E+01  0.21240791361E+03  0.22863040661E+03  0.10566000000E+00 0. -1.
          2    1    1    2  501    0 -0.75830516188E+02  0.17184888897E+03 -0.32621386634E+03  0.37642767489E+03  0.00000000000E+00 0.  1.
          4    1    3    3  502    0 -0.29915320333E+03  0.81067252506E+02  0.51050166411E+03  0.59722398441E+03  0.00000000000E+00 0.  1.
</event>
<event>
 7    1  0.5696597E-006  0.1019999E+04  0.7818608E-02  0.9149703E-01
          4   -1    0    0  501    0 -0.00000000000E+00  0.00000000000E+00  0.33504467809E+04  0.33504467809E+04  0.00000000000E+00 0.  1.
          2   -1    0    0  502    0  0.00000000000E+00 -0.00000000000E+00 -0.29703732029E+03  0.29703732029E+03  0.00000000000E+00 0. -1.
    9000010    2    1    2  502    0 -0.72215317518E+02  0.25039257660E+03  0.20098500095E+04  0.22597144918E+04  0.99945036354E+03 0.  0.
        -13    1    3    3    0    0  0.44077456490E+03  0.57891867341E+02  0.12195844228E+04  0.12980831487E+04  0.10566000000E+00 0.  1.
         13    1    1    2    0    0  0.12638577062E+03 -0.15646615000E+03  0.11892614466E+04  0.12061499984E+04  0.10566000000E+00 0. -1.
          2    1    1    2  501    0 -0.54170453105E+02 -0.93926426597E+02 -0.14570199551E+03  0.18161961100E+03  0.00000000000E+00 0. -1.
          4    1    3    3  502    0 -0.51298988242E+03  0.19250070926E+03  0.79026558672E+03  0.96163134313E+03  0.00000000000E+00 0.  1.
</event>
<event>
 7    1  0.5696597E-006  0.1138504E+04  0.7818608E-02  0.8832630E-01
          2   -1    0    0  502    0  0.00000000000E+00  0.00000000000E+00  0.21083653798E+04  0.21083653798E+04  0.00000000000E+00 0. -1.
          4   -1    0    0  501    0 -0.00000000000E+00 -0.00000000000E+00 -0.41813243078E+03  0.41813243078E+03  0.00000000000E+00 0.  1.
    9000010    2    1    2  502    0  0.46654704696E+03 -0.22514192463E+03  0.96966575814E+03  0.14912314439E+04  0.10075537224E+04 0.  0.
        -13    1    3    3    0    0  0.75540086003E+03 -0.87557843526E+02  0.45787833112E+03  0.88766514664E+03  0.10566000000E+00 0.  1.
         13    1    1    2    0    0 -0.48823068882E+03  0.21790968393E+03  0.29802268187E+03  0.61210404829E+03  0.10566000000E+00 0. -1.
          2    1    1    2  501    0  0.21683641863E+02  0.72322407027E+01  0.42254450904E+03  0.42316231845E+03  0.00000000000E+00 0. -1.
          4    1    3    3  502    0 -0.28885381307E+03 -0.13758408110E+03  0.51178742701E+03  0.60356629723E+03  0.00000000000E+00 0.  1.
</event>
<event>
 7    1  0.5696597E-006  0.1006091E+04  0.7818608E-02  0.9110150E-01
          2   -1    0    0  502    0  0.00000000000E+00  0.00000000000E+00  0.26435292053E+03  0.26435292053E+03  0.00000000000E+00 0.  1.
          4   -1    0    0  501    0 -0.00000000000E+00 -0.00000000000E+00 -0.18759393191E+04  0.18759393191E+04  0.00000000000E+00 0.  1.
    9000010    2    1    2  502    0 -0.14412497880E+03 -0.20957502041E+03 -0.94096778191E+03  0.13787053025E+04  0.97504576604E+03 0.  0.
        -13    1    3    3    0    0 -0.11680559391E+03 -0.23203045754E+03 -0.11437414958E+04  0.11728709650E+04  0.10566000000E+00 0.  1.
         13    1    1    2    0    0  0.21631095033E+03  0.12574493415E+03 -0.45589728526E+03  0.52004284589E+03  0.10566000000E+00 0. -1.
          2    1    1    2  501    0 -0.72185971525E+02  0.83830086254E+02 -0.21472133141E+03  0.24154409123E+03  0.00000000000E+00 0.  1.
          4    1    3    3  502    0 -0.27319384887E+02  0.22455437134E+02  0.20277371393E+03  0.20583433754E+03  0.00000000000E+00 0.  1.
</event>
<event>
 7    1  0.5696597E-006  0.9916627E+03  0.7818608E-02  0.9436281E-01
         -4   -1    0    0    0  501 -0.00000000000E+00  0.00000000000E+00  0.82602627299E+03  0.82602627299E+03  0.00000000000E+00 0. -1.
          5   -1    0    0  501    0  0.00000000000E+00 -0.00000000000E+00 -0.47043992624E+03  0.47043992624E+03  0.00000000000E+00 0. -1.
   -9000010    2    1    2    0  502  0.28194279183E+02 -0.89360193734E+02  0.41895826380E+03  0.10780190658E+04  0.98884726722E+03 0.  0.
        -13    1    1    2    0    0 -0.32209994748E+02  0.66286174034E+02  0.58656815722E+02  0.94191155766E+02  0.10566000000E+00 0.  1.
         13    1    3    3    0    0 -0.38722548627E+03 -0.26840154720E+03  0.41157147553E+03  0.62559895971E+03  0.10566000000E+00 0. -1.
          5    1    1    2  502    0  0.40157155656E+01  0.23074019699E+02 -0.12202873277E+03  0.12425597764E+03  0.00000000000E+00 0. -1.
         -4    1    3    3    0  502  0.41541976546E+03  0.17904135346E+03  0.73867882708E+01  0.45242010612E+03  0.00000000000E+00 0. -1.
</event>
<event>
 7    1  0.5696597E-006  0.1022472E+04  0.7818608E-02  0.9262853E-01
         -4   -1    0    0    0  501 -0.00000000000E+00  0.00000000000E+00  0.11078514230E+04  0.11078514230E+04  0.00000000000E+00 0. -1.
          2   -1    0    0  501    0  0.00000000000E+00 -0.00000000000E+00 -0.70267592675E+03  0.70267592675E+03  0.00000000000E+00 0. -1.
   -9000010    2    1    2    0  502 -0.56588666082E+02  0.11677645951E+03  0.80619837103E+03  0.13019996500E+04  0.10141046576E+04 0.  0.
        -13    1    1    2    0    0  0.67008662256E+02 -0.11245174478E+03 -0.26155208526E+02  0.13349030608E+03  0.10566000000E+00 0.  1.
         13    1    3    3    0    0  0.32943764167E+03  0.34890800950E+01  0.83601583378E+03  0.89858990587E+03  0.10566000000E+00 0. -1.
          2    1    1    2  502    0 -0.10419996174E+02 -0.43247147306E+01 -0.37486766621E+03  0.37503739367E+03  0.00000000000E+00 0. -1.
         -4    1    3    3    0  502 -0.38602630775E+03  0.11328737941E+03 -0.29817462750E+02  0.40340974418E+03  0.00000000000E+00 0. -1.
</event>
<event>
 7    1  0.5696597E-006  0.1234999E+04  0.7818608E-02  0.8876924E-01
         -4   -1    0    0    0  501 -0.00000000000E+00  0.00000000000E+00  0.48076282253E+03  0.48076282253E+03  0.00000000000E+00 0. -1.
          2   -1    0    0  501    0  0.00000000000E+00 -0.00000000000E+00 -0.28551469723E+04  0.28551469723E+04  0.00000000000E+00 0. -1.
   -9000010    2    1    2    0  502 -0.58415725515E+03  0.90540650877E+02 -0.12312058431E+04  0.16966472483E+04  0.10066313868E+04 0.  0.
        -13    1    1    2    0    0 -0.13877845902E+03  0.31595301801E+03 -0.35561556739E+03  0.49552821637E+03  0.10566000000E+00 0.  1.
         13    1    3    3    0    0  0.41204862547E+02  0.22644923107E+03 -0.98406532222E+03  0.10106243934E+04  0.10566000000E+00 0. -1.
          2    1    1    2  502    0  0.72293571417E+03 -0.40649366889E+03 -0.78756273934E+03  0.11437343302E+04  0.00000000000E+00 0. -1.
         -4    1    3    3    0  502 -0.62536211770E+03 -0.13590858020E+03 -0.24714052087E+03  0.68602285492E+03  0.00000000000E+00 0. -1.
</event>
<event>
 7    1  0.5696597E-006  0.1147867E+04  0.7818608E-02  0.8780776E-01
          2   -1    0    0  502    0  0.00000000000E+00  0.00000000000E+00  0.17768715710E+04  0.17768715710E+04  0.00000000000E+00 0. -1.
          4   -1    0    0  501    0 -0.00000000000E+00 -0.00000000000E+00 -0.88771710508E+03  0.88771710508E+03  0.00000000000E+00 0.  1.
    9000010    2    1    2  502    0  0.63080813082E+03  0.14206540777E+03 -0.34268266396E+03  0.11993228620E+04  0.95018021508E+03 0.  0.
        -13    1    3    3    0    0  0.82905414960E+03  0.48423673417E+02 -0.46135956254E+03  0.95001489053E+03  0.10566000000E+00 0.  1.
         13    1    1    2    0    0 -0.62170785783E+03 -0.14655631031E+03  0.75767400833E+03  0.99099411029E+03  0.10566000000E+00 0. -1.
          2    1    1    2  501    0 -0.91002729840E+01  0.44909025371E+01  0.47416312154E+03  0.47427170377E+03  0.00000000000E+00 0. -1.
          4    1    3    3  502    0 -0.19824601878E+03  0.93641734354E+02  0.11867689858E+03  0.24930797146E+03  0.00000000000E+00 0.  1.
</event>
<event>
 7    1  0.5696597E-006  0.1145164E+04  0.7818608E-02  0.8808952E-01
          2   -1    0    0  502    0  0.00000000000E+00  0.00000000000E+00  0.23300813006E+04  0.23300813006E+04  0.00000000000E+00 0.  1.
          4   -1    0    0  501    0 -0.00000000000E+00 -0.00000000000E+00 -0.50327100942E+03  0.50327100942E+03  0.00000000000E+00 0.  1.
    9000010    2    1    2  502    0 -0.56279406188E+03  0.13563518791E+03  0.33749749352E+03  0.11954694027E+04  0.99000427994E+03 0.  0.
        -13    1    3    3    0    0  0.24800337361E+03  0.19232377350E+03 -0.40040443302E+01  0.31386326754E+03  0.10566000000E+00 0.  1.
         13    1    1    2    0    0  0.55788393748E+03 -0.12119924638E+03  0.10245578558E+04  0.11728778948E+04  0.10566000000E+00 0. -1.
          2    1    1    2  501    0  0.49101243944E+01 -0.14435941530E+02  0.46475494182E+03  0.46500501253E+03  0.00000000000E+00 0.  1.
          4    1    3    3  502    0 -0.81079743549E+03 -0.56688585592E+02  0.34150153785E+03  0.88160613512E+03  0.00000000000E+00 0.  1.
</event>
<event>
 7    1  0.5696597E-006  0.1385421E+04  0.7818608E-02  0.8736167E-01
         -4   -1    0    0    0  501 -0.00000000000E+00  0.00000000000E+00  0.13991027870E+04  0.13991027870E+04  0.00000000000E+00 0. -1.
          1   -1    0    0  501    0  0.00000000000E+00 -0.00000000000E+00 -0.17445159240E+04  0.17445159240E+04  0.00000000000E+00 0. -1.
   -9000010    2    1    2    0  502  0.89563159947E+03  0.31172694012E+03 -0.26516377428E+03  0.14248361829E+04  0.10298139025E+04 0.  0.
        -13    1    1    2    0    0  0.45951030466E+02 -0.44081215147E+03  0.44905931924E+03  0.63093671112E+03  0.10566000000E+00 0.  1.
         13    1    3    3    0    0  0.90398056270E+03 -0.12807600061E+03 -0.35066350671E+01  0.91301512985E+03  0.10566000000E+00 0. -1.
          1    1    1    2  502    0 -0.94158262994E+03  0.12908521135E+03 -0.52930868187E+03  0.10878458170E+04  0.00000000000E+00 0. -1.
         -4    1    3    3    0  502 -0.83489632340E+01  0.43980294073E+03 -0.26165713921E+03  0.51182105307E+03  0.00000000000E+00 0. -1.
</event>
<event>
 7    1  0.5696597E-006  0.1135644E+04  0.7818608E-02  0.8837690E-01
         -4   -1    0    0    0  501 -0.00000000000E+00  0.00000000000E+00  0.24352345368E+04  0.24352345368E+04  0.00000000000E+00 0. -1.
          2   -1    0    0  501    0  0.00000000000E+00 -0.00000000000E+00 -0.65745857994E+03  0.65745857994E+03  0.00000000000E+00 0. -1.
   -9000010    2    1    2    0  502 -0.27292684145E+03 -0.45306649360E+03  0.17955422857E+03  0.11525006293E+04  0.10080970544E+04 0.  0.
        -13    1    1    2    0    0  0.41520016253E+03  0.32155936644E+03  0.16565990144E+04  0.17378469170E+04  0.10566000000E+00 0.  1.
         13    1    3    3    0    0 -0.60645196335E+03 -0.48879677137E+03  0.23259326175E+03  0.81289968885E+03  0.10566000000E+00 0. -1.
          2    1    1    2  502    0 -0.14227332108E+03  0.13150712716E+03 -0.58377286087E+02  0.20234557054E+03  0.00000000000E+00 0. -1.
         -4    1    3    3    0  502  0.33352512191E+03  0.35730277771E+02 -0.53039033180E+02  0.33960094042E+03  0.00000000000E+00 0. -1.
</event>
<event>
 7    1  0.5696597E-006  0.1038745E+04  0.7818608E-02  0.9224254E-01
         -4   -1    0    0    0  501 -0.00000000000E+00  0.00000000000E+00  0.10728674916E+04  0.10728674916E+04  0.00000000000E+00 0. -1.
          2   -1    0    0  501    0  0.00000000000E+00 -0.00000000000E+00 -0.45221667961E+04  0.45221667961E+04  0.00000000000E+00 0. -1.
   -9000010    2    1    2    0  502  0.16155141608E+03  0.30554540672E+03 -0.11284643497E+04  0.15351741507E+04  0.98176933589E+03 0.  0.
        -13    1    1    2    0    0 -0.14028639674E+03  0.34110237177E+02  0.85436337385E+03  0.86647594723E+03  0.10566000000E+00 0.  1.
         13    1    3    3    0    0 -0.31903768152E+02 -0.34588328029E+03 -0.50518275319E+03  0.61307643837E+03  0.10566000000E+00 0. -1.
          2    1    1    2  502    0 -0.21265019340E+02 -0.33965564390E+03 -0.31751983286E+04  0.31933841897E+04  0.00000000000E+00 0. -1.
         -4    1    3    3    0  502  0.19345518423E+03  0.65142868701E+03 -0.62328159651E+03  0.92209771235E+03  0.00000000000E+00 0. -1.
</event>
<event>
 7    1  0.5696597E-006  0.1055338E+04  0.7818608E-02  0.8913672E-01
          2   -1    0    0  501    0  0.00000000000E+00  0.00000000000E+00  0.11901190080E+04  0.11901190080E+04  0.00000000000E+00 0.  1.
         -4   -1    0    0    0  501 -0.00000000000E+00 -0.00000000000E+00 -0.27671434223E+04  0.27671434223E+04  0.00000000000E+00 0. -1.
   -9000010    2    1    2    0  502  0.40366517475E+03 -0.23252392720E+03 -0.19441642869E+04  0.22101994391E+04  0.94244036198E+03 0.  0.
        -13    1    1    2    0    0 -0.41185629855E+03  0.24780165327E+03 -0.60616336416E+03  0.77360539374E+03  0.10566000000E+00 0.  1.
         13    1    3    3    0    0  0.60156375264E+03  0.14889780709E+03 -0.10827388763E+04  0.12475467890E+04  0.10566000000E+00 0. -1.
          2    1    1    2  502    0  0.81911238026E+01 -0.15277726068E+02  0.97330323678E+03  0.97345759751E+03  0.00000000000E+00 0.  1.
         -4    1    3    3    0  502 -0.19789857789E+03 -0.38142173429E+03 -0.86142541065E+03  0.96265265005E+03  0.00000000000E+00 0. -1.
</event>
<event>
 7    1  0.5696597E-006  0.1259816E+04  0.7818608E-02  0.8713027E-01
         -4   -1    0    0    0  501 -0.00000000000E+00  0.00000000000E+00  0.20087145024E+04  0.20087145024E+04  0.00000000000E+00 0. -1.
          2   -1    0    0  501    0  0.00000000000E+00 -0.00000000000E+00 -0.15654233144E+04  0.15654233144E+04  0.00000000000E+00 0. -1.
   -9000010    2    1    2    0  502  0.52719526907E+03  0.32545314135E+03  0.20886159514E+03  0.12611945938E+04  0.10784869209E+04 0.  0.
        -13    1    1    2    0    0 -0.47615837461E+03 -0.45439239310E+03  0.11832800723E+04  0.13540129192E+04  0.10566000000E+00 0.  1.
         13    1    3    3    0    0 -0.14547351137E+03 -0.24648273520E+03  0.24609465012E+03  0.37746373236E+03  0.10566000000E+00 0. -1.
          2    1    1    2  502    0 -0.51036894453E+02  0.12893925175E+03 -0.94885047941E+03  0.95893030378E+03  0.00000000000E+00 0. -1.
         -4    1    3    3    0  502  0.67266878044E+03  0.57193587655E+03 -0.37233054983E+02  0.88373086143E+03  0.00000000000E+00 0. -1.
</event>
<event>
 7    1  0.5696597E-006  0.1058898E+04  0.7818608E-02  0.9090329E-01
          4   -1    0    0  501    0 -0.00000000000E+00  0.00000000000E+00  0.26543534666E+04  0.26543534666E+04  0.00000000000E+00 0.  1.
          2   -1    0    0  502    0  0.00000000000E+00 -0.00000000000E+00 -0.30538647057E+03  0.30538647057E+03  0.00000000000E+00 0.  1.
    9000010    2    1    2  502    0 -0.40677125243E+03 -0.13936155912E+03  0.19363680507E+04  0.22289597215E+04  0.10167869572E+04 0.  0.
        -13    1    3    3    0    0 -0.53740816968E+03 -0.42468333472E+03  0.17098414584E+04  0.18419341192E+04  0.10566000000E+00 0.  1.
         13    1    1    2    0    0  0.12298494834E+03  0.19445248037E+03  0.37403564655E+03  0.43913521915E+03  0.10566000000E+00 0. -1.
          2    1    1    2  501    0  0.28378630409E+03 -0.55090921251E+02  0.38563298794E+02  0.29164499654E+03  0.00000000000E+00 0.  1.
          4    1    3    3  502    0  0.13063691726E+03  0.28532177560E+03  0.22652659233E+03  0.38702560227E+03  0.00000000000E+00 0.  1.
</event>
<event>
 7    1  0.5696597E-006  0.1370359E+04  0.7818608E-02  0.8626462E-01
          2   -1    0    0  501    0  0.00000000000E+00  0.00000000000E+00  0.27353039367E+04  0.27353039367E+04  0.00000000000E+00 0. -1.
         -4   -1    0    0    0  501 -0.00000000000E+00 -0.00000000000E+00 -0.89494338816E+03  0.89494338816E+03  0.00000000000E+00 0. -1.
   -9000010    2    1    2    0  502  0.50447421677E+03 -0.35743823247E+03  0.45330066885E+03  0.12953914962E+04  0.10441749406E+04 0.  0.
        -13    1    1    2    0    0  0.63431355245E+03  0.37720795874E+03  0.58698593990E+03  0.94296979366E+03  0.10566000000E+00 0.  1.
         13    1    3    3    0    0 -0.25951531548E+03 -0.36033888683E+03  0.22620873192E+03  0.49836002437E+03  0.10566000000E+00 0. -1.
          2    1    1    2  502    0 -0.11387877692E+04 -0.19769726277E+02  0.80007393976E+03  0.13918860350E+04  0.00000000000E+00 0. -1.
         -4    1    3    3    0  502  0.76398953225E+03  0.29006543672E+01  0.22709193693E+03  0.79703147178E+03  0.00000000000E+00 0. -1.
</event>
<event>
 7    1  0.5696597E-006  0.1092574E+04  0.7818608E-02  0.9135680E-01
         -4   -1    0    0    0  502 -0.00000000000E+00  0.00000000000E+00  0.26780565085E+04  0.26780565085E+04  0.00000000000E+00 0. -1.
         -2   -1    0    0    0  501  0.00000000000E+00 -0.00000000000E+00 -0.25675024829E+03  0.25675024829E+03  0.00000000000E+00 0. -1.
   -9000010    2    1    2    0  501  0.16587510019E+03 -0.28075760695E+03  0.16707901062E+04  0.19883837427E+04  0.10275168840E+04 0.  0.
        -13    1    1    2    0    0 -0.13296361360E+03 -0.11396472022E+03  0.17329317580E+03  0.24636926744E+03  0.10566000000E+00 0.  1.
         13    1    3    3    0    0  0.35442636067E+03  0.35513020619E+02  0.92921140374E+02  0.36812167725E+03  0.10566000000E+00 0. -1.
         -2    1    1    2    0  502 -0.32911486583E+02  0.39472232717E+03  0.57722297825E+03  0.70005374660E+03  0.00000000000E+00 0. -1.
         -4    1    3    3    0  501 -0.18855126048E+03 -0.31627062757E+03  0.15778689658E+04  0.16202620655E+04  0.00000000000E+00 0. -1.
</event>
<event>
 7    1  0.5696597E-006  0.9571668E+03  0.7818608E-02  0.9035445E-01
          2   -1    0    0  501    0  0.00000000000E+00  0.00000000000E+00  0.14660607578E+04  0.14660607578E+04  0.00000000000E+00 0. -1.
         -4   -1    0    0    0  501 -0.00000000000E+00 -0.00000000000E+00 -0.11957475339E+04  0.11957475339E+04  0.00000000000E+00 0. -1.
   -9000010    2    1    2    0  502 -0.12359849676E+03  0.33618639601E+03 -0.62296529026E+03  0.11323335529E+04  0.87509750362E+03 0.  0.
        -13    1    1    2    0    0  0.97068746457E+02 -0.39157459151E+03 -0.18896550641E+03  0.44548959138E+03  0.10566000000E+00 0.  1.
         13    1    3    3    0    0  0.12786791016E+03  0.35171509727E+03  0.82504986512E+02  0.38322421121E+03  0.10566000000E+00 0. -1.
          2    1    1    2  502    0  0.26529750307E+02  0.55388195496E+02  0.10822440206E+04  0.10839851475E+04  0.00000000000E+00 0. -1.
         -4    1    3    3    0  502 -0.25146640692E+03 -0.15528701253E+02 -0.70547027677E+03  0.74910934167E+03  0.00000000000E+00 0. -1.
</event>
<event>
 7    1  0.5696597E-006  0.1055529E+04  0.7818608E-02  0.9003082E-01
          1   -1    0    0  501    0  0.00000000000E+00  0.00000000000E+00  0.66441927790E+03  0.66441927790E+03  0.00000000000E+00 0. -1.
         -4   -1    0    0    0  501 -0.00000000000E+00 -0.00000000000E+00 -0.10861010677E+04  0.10861010677E+04  0.00000000000E+00 0. -1.
   -9000010    2    1    2    0  502  0.30043922409E+03  0.28146287217E+03  0.59235828567E+02  0.10856401221E+04  0.10028063200E+04 0.  0.
        -13    1    1    2    0    0 -0.16340921101E+03 -0.27735442693E+03 -0.34381867107E+03  0.47099823580E+03  0.10566000000E+00 0.  1.
         13    1    3    3    0    0  0.64689148207E+03  0.97650576618E+02  0.17406650630E+03  0.67698108132E+03  0.10566000000E+00 0. -1.
          1    1    1    2  502    0 -0.13703001308E+03 -0.41084452332E+01 -0.13709894730E+03  0.19388198770E+03  0.00000000000E+00 0. -1.
         -4    1    3    3    0  502 -0.34645225798E+03  0.18381229555E+03 -0.11483067774E+03  0.40865904077E+03  0.00000000000E+00 0. -1.
</event>
<event>
 7    1  0.5696597E-006  0.1152010E+04  0.7818608E-02  0.8803607E-01
         -2   -1    0    0    0  501  0.00000000000E+00  0.00000000000E+00  0.31686369268E+03  0.31686369268E+03  0.00000000000E+00 0. -1.
         -4   -1    0    0    0  502 -0.00000000000E+00 -0.00000000000E+00 -0.29937243273E+04  0.29937243273E+04  0.00000000000E+00 0. -1.
   -9000010    2    1    2    0  501 -0.49741578867E+03  0.27667126971E+03 -0.12812037171E+04  0.17199259176E+04  0.99633967060E+03 0.  0.
        -13    1    1    2    0    0  0.51093138715E+03 -0.27589052464E+03 -0.14355480477E+04  0.15485363000E+04  0.10566000000E+00 0.  1.
         13    1    3    3    0    0  0.83975002587E+01  0.40478284826E+03 -0.10924313961E+04  0.11650433634E+04  0.10566000000E+00 0. -1.
         -2    1    1    2    0  502 -0.13515598481E+02 -0.78074507944E+00  0.39891130115E+02  0.42125802390E+02  0.00000000000E+00 0. -1.
         -4    1    3    3    0  501 -0.50581328893E+03 -0.12811157854E+03 -0.18877232094E+03  0.55488255421E+03  0.00000000000E+00 0. -1.
</event>
<event>
 6    1  0.5696597E-006  0.2114493E+04  0.7818608E-02  0.8338519E-01
         -4   -1    0    0    0  501 -0.00000000000E+00  0.00000000000E+00  0.37432784429E+04  0.37432784429E+04  0.00000000000E+00 0. -1.
          4   -1    0    0  501    0  0.00000000000E+00 -0.00000000000E+00 -0.65368964215E+03  0.65368964215E+03  0.00000000000E+00 0.  1.
        -13    1    1    2    0    0 -0.56757786958E+03 -0.48414198706E+03  0.16805922888E+04  0.18387301472E+04  0.10566000000E+00 0.  1.
         13    1    1    2    0    0  0.58159150565E+03  0.40654528065E+03  0.19147729404E+04  0.20420291793E+04  0.10566000000E+00 0. -1.
          4    1    1    2  502    0 -0.77200840276E+01  0.70974514950E+01 -0.74084881900E+01  0.12839751258E+02  0.00000000000E+00 0. -1.
         -4    1    1    2    0  502 -0.62935520481E+01  0.70499254911E+02 -0.49836794023E+03  0.50336900737E+03  0.00000000000E+00 0.  1.
</event>
<event>
 7    1  0.5696597E-006  0.1067232E+04  0.7818608E-02  0.8955840E-01
          4   -1    0    0  501    0 -0.00000000000E+00  0.00000000000E+00  0.21078837922E+04  0.21078837922E+04  0.00000000000E+00 0.  1.
          2   -1    0    0  502    0  0.00000000000E+00 -0.00000000000E+00 -0.78774307639E+03  0.78774307639E+03  0.00000000000E+00 0.  1.
    9000010    2    1    2  502    0 -0.35499026309E+03 -0.13001199706E+03  0.13404070902E+04  0.17115653055E+04  0.99490875019E+03 0.  0.
        -13    1    3    3    0    0 -0.33490391540E+03 -0.20715874062E+03  0.14904846547E+04  0.15416289740E+04  0.10566000000E+00 0.  1.
         13    1    1    2    0    0  0.36846608947E+03  0.12493439696E+03  0.51675483606E+03  0.64684730377E+03  0.10566000000E+00 0. -1.
          2    1    1    2  501    0 -0.13475826385E+02  0.50776001006E+01 -0.53702121047E+03  0.53721425931E+03  0.00000000000E+00 0.  1.
          4    1    3    3  502    0 -0.20086347687E+02  0.77146743557E+02 -0.15007756449E+03  0.16993633151E+03  0.00000000000E+00 0.  1.
</event>
<event>
 7    1  0.5696597E-006  0.1152017E+04  0.7818608E-02  0.9035796E-01
         -4   -1    0    0    0  501 -0.00000000000E+00  0.00000000000E+00  0.17957630972E+04  0.17957630972E+04  0.00000000000E+00 0. -1.
          1   -1    0    0  501    0  0.00000000000E+00 -0.00000000000E+00 -0.99289427417E+03  0.99289427417E+03  0.00000000000E+00 0. -1.
   -9000010    2    1    2    0  502 -0.26038436102E+03  0.69502316096E+03  0.10737390164E+04  0.16442458589E+04  0.99988587317E+03 0.  0.
        -13    1    1    2    0    0  0.16922071536E+03 -0.14385844946E+03  0.28164500023E+03  0.35868484957E+03  0.10566000000E+00 0.  1.
         13    1    3    3    0    0 -0.21289231431E+03 -0.23145975758E+03  0.22296942548E+03  0.38550244193E+03  0.10566000000E+00 0. -1.
          1    1    1    2  502    0  0.91163645657E+02 -0.55116471150E+03 -0.55251519367E+03  0.78572666286E+03  0.00000000000E+00 0. -1.
         -4    1    3    3    0  502 -0.47492046705E+02  0.92648291855E+03  0.85076959096E+03  0.12587434170E+04  0.00000000000E+00 0. -1.
</event>
<event>
 7    1  0.5696597E-006  0.1336224E+04  0.7818608E-02  0.8915910E-01
          1   -1    0    0  501    0  0.00000000000E+00  0.00000000000E+00  0.17684608189E+04  0.17684608189E+04  0.00000000000E+00 0.  1.
         -4   -1    0    0    0  501 -0.00000000000E+00 -0.00000000000E+00 -0.87471053979E+03  0.87471053979E+03  0.00000000000E+00 0. -1.
   -9000010    2    1    2    0  502 -0.77134893625E+03  0.61314158239E+02  0.23033060498E+03  0.12828593876E+04  0.99696409832E+03 0.  0.
        -13    1    1    2    0    0 -0.15546671013E+03  0.17195618297E+03  0.13353496583E+03  0.26752649417E+03  0.10566000000E+00 0.  1.
         13    1    3    3    0    0  0.35445450746E+02  0.38735597097E+03  0.31494011988E+02  0.39024724493E+03  0.10566000000E+00 0. -1.
          1    1    1    2  502    0  0.92681564639E+03 -0.23327034121E+03  0.52988470831E+03  0.10927854769E+04  0.00000000000E+00 0.  1.
         -4    1    3    3    0  502 -0.80679438700E+03 -0.32604181273E+03  0.19883659299E+03  0.89261214268E+03  0.00000000000E+00 0. -1.
</event>
<event>
 7    1  0.5696597E-006  0.1280116E+04  0.7818608E-02  0.8868032E-01
          4   -1    0    0  501    0  0.00000000000E+00  0.00000000000E+00  0.20010196332E+04  0.20010196332E+04  0.00000000000E+00 0.  1.
         -4   -1    0    0    0  501 -0.00000000000E+00 -0.00000000000E+00 -0.85412949405E+03  0.85412949405E+03  0.00000000000E+00 0. -1.
   -9000010    2    1    2    0  502 -0.16128334554E+03 -0.55183224655E+03  0.13634448817E+02  0.11659052058E+04  0.10142080186E+04 0.  0.
        -13    1    1    2    0    0  0.14893387335E+03 -0.28499459532E+03  0.58134283892E+02  0.32677641304E+03  0.10566000000E+00 0.  1.
         13    1    3    3    0    0 -0.49720324119E+03 -0.56721813762E+03  0.20146943053E+03  0.78072877576E+03  0.10566000000E+00 0. -1.
          4    1    1    2  502    0  0.12349472192E+02  0.83682684187E+03  0.10751214064E+04  0.13624675083E+04  0.00000000000E+00 0.  1.
         -4    1    3    3    0  502  0.33591989565E+03  0.15385891070E+02 -0.18783498172E+03  0.38517643009E+03  0.00000000000E+00 0. -1.
</event>
<event>
 7    1  0.5696597E-006  0.1050606E+04  0.7818608E-02  0.9104306E-01
          2   -1    0    0  501    0  0.00000000000E+00  0.00000000000E+00  0.22586892396E+04  0.22586892396E+04  0.00000000000E+00 0. -1.
         -4   -1    0    0    0  501 -0.00000000000E+00 -0.00000000000E+00 -0.14947168129E+04  0.14947168129E+04  0.00000000000E+00 0. -1.
   -9000010    2    1    2    0  502 -0.19391899079E+03  0.99308631794E+02 -0.52801950195E+03  0.11748901613E+04  0.10266915395E+04 0.  0.
        -13    1    1    2    0    0  0.21078016409E+03 -0.73720345148E+02 -0.62375679788E+03  0.66252209090E+03  0.10566000000E+00 0.  1.
         13    1    3    3    0    0  0.29597580366E+03 -0.11829540237E+03 -0.55297487376E+03  0.63826068401E+03  0.10566000000E+00 0. -1.
          2    1    1    2  502    0 -0.16861173306E+02 -0.25588286645E+02  0.19157487266E+04  0.19159938003E+04  0.00000000000E+00 0. -1.
         -4    1    3    3    0  502 -0.48989479445E+03  0.21760403416E+03  0.24955371812E+02  0.53662947728E+03  0.00000000000E+00 0. -1.
</event>
<event>
 6    1  0.5696597E-006  0.7989945E+03  0.7818608E-02  0.9076311E-01
         -4   -1    0    0    0  501 -0.00000000000E+00  0.00000000000E+00  0.20427483880E+04  0.20427483880E+04  0.00000000000E+00 0. -1.
          1   -1    0    0  501    0  0.00000000000E+00 -0.00000000000E+00 -0.10243481367E+04  0.10243481367E+04  0.00000000000E+00 0.  1.
        -13    1    1    2    0    0 -0.46009743249E+03 -0.31478227664E+03  0.69581898590E+03  0.89159497609E+03  0.10566000000E+00 0.  1.
         13    1    1    2    0    0  0.41577979895E+03  0.10133782074E+03  0.10418077311E+04  0.11262795190E+04  0.10566000000E+00 0. -1.
          1    1    1    2  502    0 -0.99295688645E+01 -0.21585554251E+02 -0.79579657855E+03  0.79615119602E+03  0.00000000000E+00 0.  1.
         -4    1    1    2    0  502  0.54247202410E+02  0.23503001016E+03  0.76570112773E+02  0.25307083359E+03  0.00000000000E+00 0. -1.
</event>
<event>
 7    1  0.5696597E-006  0.1070011E+04  0.7818608E-02  0.8950333E-01
         -4   -1    0    0    0  502 -0.00000000000E+00  0.00000000000E+00  0.53387403825E+03  0.53387403825E+03  0.00000000000E+00 0. -1.
         -2   -1    0    0    0  501  0.00000000000E+00 -0.00000000000E+00 -0.19126034431E+04  0.19126034431E+04  0.00000000000E+00 0. -1.
   -9000010    2    1    2    0  501 -0.16073914288E+03 -0.92887640694E+01 -0.11245722627E+04  0.15105994243E+04  0.99565279775E+03 0.  0.
        -13    1    1    2    0    0  0.41516474620E+03  0.38312829144E+02  0.16195864095E+03  0.44728095410E+03  0.10566000000E+00 0.  1.
         13    1    3    3    0    0 -0.88181744748E+02 -0.18871547216E+03 -0.12582527962E+04  0.12753782419E+04  0.10566000000E+00 0. -1.
         -2    1    1    2    0  502 -0.25442560332E+03 -0.29024065075E+02 -0.41611578314E+03  0.48859710289E+03  0.00000000000E+00 0. -1.
         -4    1    3    3    0  501 -0.72557398131E+02  0.17942670809E+03  0.13368053359E+03  0.23522118242E+03  0.00000000000E+00 0. -1.
</event>
<event>
 7    1  0.5696597E-006  0.1025196E+04  0.7818608E-02  0.9431788E-01
          4   -1    0    0  501    0 -0.00000000000E+00  0.00000000000E+00  0.36004608781E+03  0.36004608781E+03  0.00000000000E+00 0.  1.
          2   -1    0    0  502    0  0.00000000000E+00 -0.00000000000E+00 -0.16846044649E+04  0.16846044649E+04  0.00000000000E+00 0.  1.
    9000010    2    1    2  502    0  0.14797854219E+03  0.23058556551E+03 -0.64982713466E+03  0.12146441439E+04  0.98894779412E+03 0.  0.
        -13    1    3    3    0    0  0.20320130636E+03 -0.33950420697E+03 -0.46988550308E+03  0.61428517370E+03  0.10566000000E+00 0.  1.
         13    1    1    2    0    0  0.50455557844E+02 -0.46640363702E+02  0.30107168531E+02  0.75016928787E+02  0.10566000000E+00 0. -1.
          2    1    1    2  501    0 -0.19843410003E+03 -0.18394520181E+03 -0.70483841093E+03  0.75498947996E+03  0.00000000000E+00 0.  1.
          4    1    3    3  502    0 -0.55222764173E+02  0.57008977248E+03 -0.17994163158E+03  0.60035897024E+03  0.00000000000E+00 0.  1.
</event>
<event>
 7    1  0.5696597E-006  0.1126395E+04  0.7818608E-02  0.8849799E-01
         -4   -1    0    0    0  501 -0.00000000000E+00  0.00000000000E+00  0.18056608686E+04  0.18056608686E+04  0.00000000000E+00 0. -1.
          2   -1    0    0  501    0  0.00000000000E+00 -0.00000000000E+00 -0.38651843658E+03  0.38651843658E+03  0.00000000000E+00 0.  1.
   -9000010    2    1    2    0  502  0.44137257057E+03  0.27773905714E+03  0.10273702414E+04  0.15286437700E+04  0.10046459240E+04 0.  0.
        -13    1    1    2    0    0 -0.42236312092E+03 -0.27407867190E+03  0.39945471354E+03  0.64270817922E+03  0.10566000000E+00 0.  1.
         13    1    3    3    0    0  0.36355568874E+03  0.17822306919E+03 -0.81154981008E+02  0.41294351105E+03  0.10566000000E+00 0. -1.
          2    1    1    2  502    0 -0.19009449652E+02 -0.36603852398E+01 -0.76825230025E+01  0.20827355950E+02  0.00000000000E+00 0.  1.
         -4    1    3    3    0  502  0.77816881832E+02  0.99515987947E+02  0.11085252224E+04  0.11157002589E+04  0.00000000000E+00 0. -1.
</event>
<event>
 7    1  0.5696597E-006  0.1057060E+04  0.7818608E-02  0.9224362E-01
          2   -1    0    0  502    0  0.00000000000E+00  0.00000000000E+00  0.54501998269E+03  0.54501998269E+03  0.00000000000E+00 0. -1.
          4   -1    0    0  501    0 -0.00000000000E+00 -0.00000000000E+00 -0.30627131998E+04  0.30627131998E+04  0.00000000000E+00 0.  1.
    9000010    2    1    2  502    0  0.30436099855E+02 -0.39523462549E+03 -0.25599590408E+04  0.27763500434E+04  0.99879552858E+03 0.  0.
        -13    1    3    3    0    0  0.19810389048E+03  0.22233117555E+03 -0.28166520872E+03  0.40989218584E+03  0.10566000000E+00 0.  1.
         13    1    1    2    0    0  0.11102293619E+03  0.80168284548E+02 -0.30948370671E+03  0.33842757289E+03  0.10566000000E+00 0. -1.
          2    1    1    2  501    0 -0.14145903605E+03  0.31506634094E+03  0.35174953039E+03  0.49295556615E+03  0.00000000000E+00 0. -1.
          4    1    3    3  502    0 -0.16766779063E+03 -0.61756580104E+03 -0.22782938320E+04  0.23664578576E+04  0.00000000000E+00 0.  1.
</event>
<event>
 7    1  0.5696597E-006  0.1066496E+04  0.7818608E-02  0.9013315E-01
         -4   -1    0    0    0  501  0.00000000000E+00  0.00000000000E+00  0.57875533454E+03  0.57875533454E+03  0.00000000000E+00 0.  1.
         -4   -1    0    0    0  502 -0.00000000000E+00 -0.00000000000E+00 -0.24242966969E+04  0.24242966969E+04  0.00000000000E+00 0. -1.
   -9000010    2    1    2    0  501  0.10457235159E+03 -0.22961822468E+03 -0.83796988643E+03  0.13412279009E+04  0.10163851857E+04 0.  0.
        -13    1    1    2    0    0  0.23353747487E+03  0.19840298649E+03 -0.12222663806E+04  0.12600946844E+04  0.10566000000E+00 0.  1.
         13    1    3    3    0    0 -0.51675855419E+02 -0.15809957852E+03  0.21640532485E+03  0.27294165411E+03  0.10566000000E+00 0. -1.
         -4    1    3    3    0  501  0.15624820700E+03 -0.71518646168E+02 -0.10543752113E+04  0.10682862468E+04  0.00000000000E+00 0. -1.
         -4    1    1    2    0  502 -0.33810982646E+03  0.31215238196E+02  0.21469490467E+03  0.40172944619E+03  0.00000000000E+00 0.  1.
</event>
<event>
 7    1  0.5696597E-006  0.1310688E+04  0.7818608E-02  0.8634609E-01
         -4   -1    0    0    0  501 -0.00000000000E+00  0.00000000000E+00  0.18117870473E+04  0.18117870473E+04  0.00000000000E+00 0. -1.
          4   -1    0    0  501    0  0.00000000000E+00 -0.00000000000E+00 -0.29756384541E+04  0.29756384541E+04  0.00000000000E+00 0.  1.
   -9000010    2    1    2    0  502 -0.85565170918E+03  0.28853507829E+03  0.93269037737E+03  0.16556065816E+04  0.10274869704E+04 0.  0.
        -13    1    1    2    0    0  0.68366974754E+03 -0.30377370027E+03  0.24247914944E+03  0.78643431624E+03  0.10566000000E+00 0.  1.
         13    1    3    3    0    0  0.16752361384E+03  0.27559574532E+03  0.10398691721E+03  0.33886644294E+03  0.10566000000E+00 0. -1.
          4    1    1    2  502    0  0.17198196164E+03  0.15238621984E+02 -0.23390209336E+04  0.23453846036E+04  0.00000000000E+00 0.  1.
         -4    1    3    3    0  502 -0.10231753230E+04  0.12939332966E+02  0.82870346016E+03  0.13167401387E+04  0.00000000000E+00 0. -1.
</event>
<event>
 7    1  0.5696597E-006  0.9961631E+03  0.7818608E-02  0.9433255E-01
         -4   -1    0    0    0  501 -0.00000000000E+00  0.00000000000E+00  0.56639336185E+03  0.56639336185E+03  0.00000000000E+00 0. -1.
          2   -1    0    0  501    0  0.00000000000E+00 -0.00000000000E+00 -0.95576139862E+03  0.95576139862E+03  0.00000000000E+00 0. -1.
   -9000010    2    1    2    0  502  0.81964900181E+02  0.20205899798E+02 -0.16052297797E+03  0.10097950954E+04  0.99337404087E+03 0.  0.
        -13    1    1    2    0    0 -0.72962121173E+02 -0.14179968573E+02  0.13192742395E+03  0.15142456534E+03  0.10566000000E+00 0.  1.
         13    1    3    3    0    0 -0.42418083055E+03 -0.71047262858E+02 -0.23503272612E+03  0.49011986705E+03  0.10566000000E+00 0. -1.
          2    1    1    2  502    0 -0.90027790080E+01 -0.60259312252E+01 -0.36077248275E+03  0.36093509969E+03  0.00000000000E+00 0. -1.
         -4    1    3    3    0  502  0.50614573073E+03  0.91253162657E+02  0.74509748153E+02  0.51967522839E+03  0.00000000000E+00 0. -1.
</event>
<event>
 7    1  0.5696597E-006  0.1142120E+04  0.7818608E-02  0.8820111E-01
         -4   -1    0    0    0  501 -0.00000000000E+00  0.00000000000E+00  0.14858824921E+04  0.14858824921E+04  0.00000000000E+00 0. -1.
          1   -1    0    0  501    0  0.00000000000E+00 -0.00000000000E+00 -0.94295288161E+03  0.94295288161E+03  0.00000000000E+00 0.  1.
   -9000010    2    1    2    0  502 -0.25256721144E+03  0.66230207810E+03  0.65949739299E+03  0.13911999621E+04  0.99903267422E+03 0.  0.
        -13    1    1    2    0    0  0.28858188810E+03 -0.40477842846E+03  0.27460584107E+03  0.56792029494E+03  0.10566000000E+00 0.  1.
         13    1    3    3    0    0 -0.18097774474E+03 -0.22035418448E+03 -0.31541070083E+01  0.28516463712E+03  0.10566000000E+00 0. -1.
          1    1    1    2  502    0 -0.36014676663E+02 -0.25752364964E+03 -0.39117362359E+03  0.46971511669E+03  0.00000000000E+00 0.  1.
         -4    1    3    3    0  502 -0.71589466699E+02  0.88265626257E+03  0.66265150000E+03  0.11060353250E+04  0.00000000000E+00 0. -1.
</event>
<event>
 7    1  0.5696597E-006  0.1087361E+04  0.7818608E-02  0.8914653E-01
         -4   -1    0    0    0  501 -0.00000000000E+00  0.00000000000E+00  0.21418967732E+04  0.21418967732E+04  0.00000000000E+00 0. -1.
          2   -1    0    0  501    0  0.00000000000E+00 -0.00000000000E+00 -0.10891357034E+04  0.10891357034E+04  0.00000000000E+00 0.  1.
   -9000010    2    1    2    0  502 -0.23627089389E+03  0.35560539951E+03  0.10303821636E+04  0.14964386432E+04  0.99767834214E+03 0.  0.
        -13    1    1    2    0    0  0.27196514213E+03 -0.33824164627E+03  0.82435843759E+03  0.93163259635E+03  0.10566000000E+00 0.  1.
         13    1    3    3    0    0  0.23004090679E+03  0.63787560369E+01  0.85881820149E+03  0.88911654000E+03  0.10566000000E+00 0. -1.
          2    1    1    2  502    0 -0.35694248239E+02 -0.17363753238E+02 -0.80197953146E+03  0.80296123702E+03  0.00000000000E+00 0.  1.
         -4    1    3    3    0  502 -0.46631180069E+03  0.34922664347E+03  0.17156396213E+03  0.60732210323E+03  0.00000000000E+00 0. -1.
</event>
<event>
 7    1  0.5696597E-006  0.9775807E+03  0.7818608E-02  0.9337732E-01
          2   -1    0    0  502    0  0.00000000000E+00  0.00000000000E+00  0.15108873574E+04  0.15108873574E+04  0.00000000000E+00 0. -1.
          4   -1    0    0  501    0 -0.00000000000E+00 -0.00000000000E+00 -0.62636560179E+03  0.62636560179E+03  0.00000000000E+00 0.  1.
    9000010    2    1    2  502    0  0.28169502912E+01 -0.10292521387E+03 -0.21644160768E+03  0.10002329820E+04  0.97109088862E+03 0.  0.
        -13    1    3    3    0    0  0.83345185359E+02 -0.51795850192E+03 -0.23977002352E+03  0.57681635291E+03  0.10566000000E+00 0.  1.
         13    1    1    2    0    0 -0.38011262375E+01  0.11701367226E+03  0.17266473469E+03  0.20861392530E+03  0.10566000000E+00 0. -1.
          2    1    1    2  501    0  0.98417594627E+00 -0.14088458394E+02  0.92829862863E+03  0.92840605188E+03  0.00000000000E+00 0. -1.
          4    1    3    3  502    0 -0.80528235068E+02  0.41503328806E+03  0.23328415843E+02  0.42341662913E+03  0.00000000000E+00 0.  1.
</event>
<event>
 7    1  0.5696597E-006  0.1019764E+04  0.7818608E-02  0.9161243E-01
         -4   -1    0    0    0  501 -0.00000000000E+00  0.00000000000E+00  0.16405487879E+04  0.16405487879E+04  0.00000000000E+00 0. -1.
          1   -1    0    0  501    0  0.00000000000E+00 -0.00000000000E+00 -0.42302669235E+03  0.42302669235E+03  0.00000000000E+00 0.  1.
   -9000010    2    1    2    0  502 -0.69131980139E+02 -0.15315610786E+03  0.12195548544E+04  0.15866638136E+04  0.10009755194E+04 0.  0.
        -13    1    1    2    0    0  0.77874320344E+02  0.18543111373E+03  0.19317244362E+03  0.27886324936E+03  0.10566000000E+00 0.  1.
         13    1    3    3    0    0 -0.64379227410E+00 -0.40542400494E+03  0.12586702334E+04  0.13223538883E+04  0.10566000000E+00 0. -1.
          1    1    1    2  502    0 -0.87423402047E+01 -0.32275005877E+02 -0.19520520248E+03  0.19804841729E+03  0.00000000000E+00 0.  1.
         -4    1    3    3    0  502 -0.68488187865E+02  0.25226789709E+03 -0.39115378943E+02  0.26430992537E+03  0.00000000000E+00 0. -1.
</event>
<event>
 7    1  0.5696597E-006  0.1011494E+04  0.7818608E-02  0.9078772E-01
          1   -1    0    0  501    0  0.00000000000E+00  0.00000000000E+00  0.54894362368E+03  0.54894362368E+03  0.00000000000E+00 0.  1.
         -4   -1    0    0    0  501 -0.00000000000E+00 -0.00000000000E+00 -0.24968193211E+04  0.24968193211E+04  0.00000000000E+00 0. -1.
   -9000010    2    1    2    0  502 -0.16573055731E+03  0.20755763072E+03 -0.16463128111E+04  0.19307079423E+04  0.97300590900E+03 0.  0.
        -13    1    1    2    0    0  0.16388129664E+03 -0.22515726137E+03 -0.68072204316E+03  0.73548309494E+03  0.10566000000E+00 0.  1.
         13    1    3    3    0    0 -0.51108039792E+03 -0.62895844664E+02 -0.56843134906E+03  0.76698974580E+03  0.10566000000E+00 0. -1.
          1    1    1    2  502    0  0.18492606694E+01  0.17599630652E+02  0.37915915683E+03  0.37957190751E+03  0.00000000000E+00 0.  1.
         -4    1    3    3    0  502  0.34534984061E+03  0.27045347538E+03 -0.10778814620E+04  0.11637181965E+04  0.00000000000E+00 0. -1.
</event>
<event>
 7    1  0.5696597E-006  0.1073035E+04  0.7818608E-02  0.9241110E-01
         -2   -1    0    0    0  501  0.00000000000E+00  0.00000000000E+00  0.34438593594E+03  0.34438593594E+03  0.00000000000E+00 0. -1.
         -4   -1    0    0    0  502 -0.00000000000E+00 -0.00000000000E+00 -0.24633617294E+04  0.24633617294E+04  0.00000000000E+00 0. -1.
   -9000010    2    1    2    0  501 -0.12395376231E+03  0.12940382593E+02 -0.15688097454E+04  0.19007981431E+04  0.10659913578E+04 0.  0.
        -13    1    1    2    0    0  0.12061149799E+03 -0.22551070583E+02 -0.72324103388E+03  0.73357568695E+03  0.10566000000E+00 0.  1.
         13    1    3    3    0    0  0.41880214016E+03 -0.21604718789E+03 -0.55316099176E+03  0.72667648508E+03  0.10566000000E+00 0. -1.
         -2    1    1    2    0  502  0.33422643225E+01  0.96106879895E+01  0.17307498580E+03  0.17337383530E+03  0.00000000000E+00 0. -1.
         -4    1    3    3    0  501 -0.54275590247E+03  0.22898757048E+03 -0.10156487536E+04  0.11741216580E+04  0.00000000000E+00 0. -1.
</event>
<event>
 7    1  0.5696597E-006  0.1088733E+04  0.7818608E-02  0.9035386E-01
          4   -1    0    0  501    0 -0.00000000000E+00  0.00000000000E+00  0.98780127222E+03  0.98780127222E+03  0.00000000000E+00 0.  1.
          2   -1    0    0  502    0  0.00000000000E+00 -0.00000000000E+00 -0.24844250596E+04  0.24844250596E+04  0.00000000000E+00 0.  1.
    9000010    2    1    2  502    0  0.24482174032E+03  0.26987240669E+02 -0.23063803480E+03  0.11066184213E+04  0.10539186077E+04 0.  0.
        -13    1    3    3    0    0 -0.16599723092E+03 -0.15839479889E+03  0.32081012771E+03  0.39441493658E+03  0.10566000000E+00 0.  1.
         13    1    1    2    0    0 -0.13432760404E+03  0.22676372222E+03  0.50685920253E+03  0.57128972797E+03  0.10566000000E+00 0. -1.
          2    1    1    2  501    0 -0.11049413628E+03 -0.25375096289E+03 -0.17728449551E+04  0.17943181825E+04  0.00000000000E+00 0.  1.
          4    1    3    3  502    0  0.41081897124E+03  0.18538203956E+03 -0.55144816251E+03  0.71220348473E+03  0.00000000000E+00 0.  1.
</event>
<event>
 7    1  0.5696597E-006  0.1012789E+04  0.7818608E-02  0.9477659E-01
         -4   -1    0    0    0  501 -0.00000000000E+00  0.00000000000E+00  0.16024679715E+04  0.16024679715E+04  0.00000000000E+00 0. -1.
          5   -1    0    0  501    0  0.00000000000E+00 -0.00000000000E+00 -0.74779153711E+03  0.74779153711E+03  0.00000000000E+00 0. -1.
   -9000010    2    1    2    0  502 -0.33633755590E+03 -0.14974541431E+03  0.11079823401E+04  0.15127286397E+04  0.96186092071E+03 0.  0.
        -13    1    1    2    0    0  0.38360032710E+02  0.46435536816E+02  0.24252843344E+03  0.24989558496E+03  0.10566000000E+00 0.  1.
         13    1    3    3    0    0 -0.66789803828E+03 -0.16551627115E+03  0.64568149705E+03  0.94360374753E+03  0.10566000000E+00 0. -1.
          5    1    1    2  502    0  0.29797752319E+03  0.10330987749E+03 -0.49583433913E+03  0.58763528398E+03  0.00000000000E+00 0. -1.
         -4    1    3    3    0  502  0.33156048238E+03  0.15770856835E+02  0.46230084306E+03  0.56912489218E+03  0.00000000000E+00 0. -1.
</event>
<event>
 7    1  0.5696597E-006  0.1050931E+04  0.7818608E-02  0.9041004E-01
          2   -1    0    0  502    0  0.00000000000E+00  0.00000000000E+00  0.34888462165E+03  0.34888462165E+03  0.00000000000E+00 0.  1.
          4   -1    0    0  501    0 -0.00000000000E+00 -0.00000000000E+00 -0.15907278438E+04  0.15907278438E+04  0.00000000000E+00 0.  1.
    9000010    2    1    2  502    0  0.13432723433E+03 -0.30604607608E+03 -0.64920859690E+03  0.12472159821E+04  0.10111220981E+04 0.  0.
        -13    1    3    3    0    0 -0.29634400440E+03  0.79120159550E+01  0.11291593898E+03  0.31722608560E+03  0.10566000000E+00 0.  1.
         13    1    1    2    0    0 -0.11924417661E+03  0.25473356864E+03 -0.56734215216E+03  0.63323415371E+03  0.10566000000E+00 0. -1.
          2    1    1    2  501    0 -0.15083057714E+02  0.51312507440E+02 -0.25292473086E+02  0.59162329607E+02  0.00000000000E+00 0.  1.
          4    1    3    3  502    0  0.43067123873E+03 -0.31395809204E+03 -0.76212453588E+03  0.92998989652E+03  0.00000000000E+00 0.  1.
</event>
<event>
 7    1  0.5696597E-006  0.9927711E+03  0.7818608E-02  0.9240477E-01
          2   -1    0    0  501    0  0.00000000000E+00  0.00000000000E+00  0.15741792073E+04  0.15741792073E+04  0.00000000000E+00 0. -1.
         -4   -1    0    0    0  501 -0.00000000000E+00 -0.00000000000E+00 -0.34292560954E+03  0.34292560954E+03  0.00000000000E+00 0. -1.
   -9000010    2    1    2    0  502  0.51831722298E+02  0.10424602615E+03  0.11185615858E+04  0.14920418550E+04  0.98053817596E+03 0.  0.
        -13    1    1    2    0    0 -0.15225420693E+03 -0.42142495536E+02 -0.96304807013E+02  0.18501881114E+03  0.10566000000E+00 0.  1.
         13    1    3    3    0    0 -0.27898703355E+03 -0.27926602971E+03  0.19863274196E+03  0.44190299567E+03  0.10566000000E+00 0. -1.
          2    1    1    2  502    0  0.10042248463E+03 -0.62103530609E+02  0.20899681900E+03  0.24004415070E+03  0.00000000000E+00 0. -1.
         -4    1    3    3    0  502  0.33081875584E+03  0.38351205586E+03  0.91992884382E+03  0.10501388593E+04  0.00000000000E+00 0. -1.
</event>
<event>
 7    1  0.5696597E-006  0.1078558E+04  0.7818608E-02  0.8935174E-01
          2   -1    0    0  502    0  0.00000000000E+00  0.00000000000E+00  0.19028936702E+04  0.19028936702E+04  0.00000000000E+00 0. -1.
          4   -1    0    0  501    0 -0.00000000000E+00 -0.00000000000E+00 -0.20326792205E+04  0.20326792205E+04  0.00000000000E+00 0.  1.
    9000010    2    1    2  502    0  0.38110139817E+02  0.39931646165E+03 -0.11905725763E+04  0.16049417088E+04  0.99873360311E+03 0.  0.
        -13    1    3    3    0    0  0.16176168160E+03  0.69381071955E+03 -0.59118599466E+03  0.92576511473E+03  0.10566000000E+00 0.  1.
         13    1    1    2    0    0 -0.17457485333E+02 -0.40890591318E+03 -0.56887783090E+03  0.70080725402E+03  0.10566000000E+00 0. -1.
          2    1    1    2  501    0 -0.20652654484E+02  0.95894515264E+01  0.16296648570E+04  0.16298239278E+04  0.00000000000E+00 0. -1.
          4    1    3    3  502    0 -0.12365154178E+03 -0.29449425790E+03 -0.59938658166E+03  0.67917659412E+03  0.00000000000E+00 0.  1.
</event>
<event>
 7    1  0.5696597E-006  0.1982149E+04  0.7818608E-02  0.8396438E-01
          4   -1    0    0  501    0 -0.00000000000E+00  0.00000000000E+00  0.28194006127E+04  0.28194006127E+04  0.00000000000E+00 0.  1.
          2   -1    0    0  502    0  0.00000000000E+00 -0.00000000000E+00 -0.19766859024E+04  0.19766859024E+04  0.00000000000E+00 0. -1.
    9000010    2    1    2  502    0 -0.71338771198E+03  0.10498687062E+04  0.84410339579E+03  0.18188629761E+04  0.99227297414E+03 0.  0.
        -13    1    3    3    0    0 -0.12370769606E+03  0.93236091896E+03  0.76508818077E+03  0.12124192397E+04  0.10566000000E+00 0.  1.
         13    1    1    2    0    0 -0.45201711335E+03  0.52223620210E+03  0.61570149007E+03  0.92527750302E+03  0.10566000000E+00 0. -1.
          2    1    1    2  501    0  0.11654048253E+04 -0.15721049083E+04 -0.61709017556E+03  0.20519460359E+04  0.00000000000E+00 0. -1.
          4    1    3    3  502    0 -0.58968001592E+03  0.11750778725E+03  0.79015215019E+02  0.60644373642E+03  0.00000000000E+00 0.  1.
</event>
<event>
 7    1  0.5696597E-006  0.1106296E+04  0.7818608E-02  0.9170262E-01
          2   -1    0    0  501    0  0.00000000000E+00  0.00000000000E+00  0.35432026891E+04  0.35432026891E+04  0.00000000000E+00 0.  1.
         -4   -1    0    0    0  501 -0.00000000000E+00 -0.00000000000E+00 -0.13971899778E+04  0.13971899778E+04  0.00000000000E+00 0. -1.
   -9000010    2    1    2    0  502  0.35852278987E+03  0.79785475767E+02 -0.65736523123E+03  0.12735776529E+04  0.10271157081E+04 0.  0.
        -13    1    1    2    0    0  0.49136969185E+02 -0.13889638164E+03 -0.40558800220E+03  0.43151858045E+03  0.10566000000E+00 0.  1.
         13    1    3    3    0    0  0.51076692699E+03 -0.34763951975E+03 -0.25956091730E+03  0.67015518379E+03  0.10566000000E+00 0. -1.
          2    1    1    2  502    0 -0.40765975905E+03  0.59110905874E+02  0.32089659447E+04  0.32352964335E+04  0.00000000000E+00 0.  1.
         -4    1    3    3    0  502 -0.15224413712E+03  0.42742499552E+03 -0.39780431393E+03  0.60342246914E+03  0.00000000000E+00 0. -1.
</event>
<event>
 7    1  0.5696597E-006  0.1132326E+04  0.7818608E-02  0.8851932E-01
         -4   -1    0    0    0  501 -0.00000000000E+00  0.00000000000E+00  0.17312967486E+04  0.17312967486E+04  0.00000000000E+00 0. -1.
          4   -1    0    0  501    0  0.00000000000E+00 -0.00000000000E+00 -0.75064884182E+03  0.75064884182E+03  0.00000000000E+00 0.  1.
   -9000010    2    1    2    0  502 -0.45346246664E+03  0.37751138479E+03  0.88274768891E+03  0.14705766749E+04  0.10174523184E+04 0.  0.
        -13    1    1    2    0    0  0.86268088457E+02 -0.48861940789E+03  0.29789348662E+03  0.57873279619E+03  0.10566000000E+00 0.  1.
         13    1    3    3    0    0  0.19139220658E+03  0.41871086897E+03  0.12970496084E+03  0.47830236938E+03  0.10566000000E+00 0. -1.
          4    1    1    2  502    0  0.36719437818E+03  0.11110802310E+03 -0.19999326879E+03  0.43263611930E+03  0.00000000000E+00 0.  1.
         -4    1    3    3    0  502 -0.64485467321E+03 -0.41199484171E+02  0.75304272806E+03  0.99227430550E+03  0.00000000000E+00 0. -1.
</event>
<event>
 7    1  0.5696597E-006  0.1022580E+04  0.7818608E-02  0.9209958E-01
         -4   -1    0    0    0  501 -0.00000000000E+00  0.00000000000E+00  0.52430050975E+03  0.52430050975E+03  0.00000000000E+00 0. -1.
          2   -1    0    0  501    0  0.00000000000E+00 -0.00000000000E+00 -0.19090307746E+04  0.19090307746E+04  0.00000000000E+00 0. -1.
   -9000010    2    1    2    0  502  0.33990683018E+01  0.27551061574E+03 -0.90745082953E+02  0.10334949590E+04  0.99194733084E+03 0.  0.
        -13    1    1    2    0    0 -0.14383638018E+03 -0.69882424797E+02 -0.12052404930E+03  0.20024613650E+03  0.10566000000E+00 0.  1.
         13    1    3    3    0    0 -0.20550254191E+03  0.14621209703E+03 -0.49780063315E+03  0.55804547627E+03  0.10566000000E+00 0. -1.
          2    1    1    2  502    0  0.14043731187E+03 -0.20562819094E+03 -0.11734611326E+04  0.11995901888E+04  0.00000000000E+00 0. -1.
         -4    1    3    3    0  502  0.20890161021E+03  0.12929851871E+03  0.40705555020E+03  0.47544948274E+03  0.00000000000E+00 0. -1.
</event>
<event>
 7    1  0.5696597E-006  0.1048953E+04  0.7818608E-02  0.9000980E-01
          2   -1    0    0  501    0  0.00000000000E+00  0.00000000000E+00  0.56425127715E+03  0.56425127715E+03  0.00000000000E+00 0. -1.
         -4   -1    0    0    0  501 -0.00000000000E+00 -0.00000000000E+00 -0.20459497477E+04  0.20459497477E+04  0.00000000000E+00 0. -1.
   -9000010    2    1    2    0  502 -0.97635058760E+02 -0.31587734551E+03 -0.55377360162E+03  0.11839257614E+04  0.99282622073E+03 0.  0.
        -13    1    1    2    0    0  0.11499804196E+03  0.31907212771E+03 -0.11523150120E+04  0.12011916876E+04  0.10566000000E+00 0.  1.
         13    1    3    3    0    0  0.31588548476E+03 -0.49818782988E+03 -0.36825607486E+03  0.69540441554E+03  0.10566000000E+00 0. -1.
          2    1    1    2  502    0 -0.17362983196E+02 -0.31947822012E+01  0.22439014305E+03  0.22508357585E+03  0.00000000000E+00 0. -1.
         -4    1    3    3    0  502 -0.41352054352E+03  0.18231048437E+03 -0.18551752676E+03  0.48852134586E+03  0.00000000000E+00 0. -1.
</event>
<event>
 7    1  0.5696597E-006  0.1242860E+04  0.7818608E-02  0.8694581E-01
          4   -1    0    0  501    0 -0.00000000000E+00  0.00000000000E+00  0.17575481391E+04  0.17575481391E+04  0.00000000000E+00 0.  1.
          2   -1    0    0  502    0  0.00000000000E+00 -0.00000000000E+00 -0.16253069845E+04  0.16253069845E+04  0.00000000000E+00 0.  1.
    9000010    2    1    2  502    0  0.50145313629E+03 -0.86492473734E+02 -0.96331851912E+02  0.11284619313E+04  0.10026017698E+04 0.  0.
        -13    1    3    3    0    0 -0.15975273479E+03  0.78895174141E+02 -0.35679887508E+03  0.39881177665E+03  0.10566000000E+00 0.  1.
         13    1    1    2    0    0 -0.18372613488E+03  0.11335516119E+04  0.13307984178E+03  0.11560297595E+04  0.10566000000E+00 0. -1.
          2    1    1    2  501    0 -0.31772700141E+03 -0.10470591381E+04  0.95493164724E+02  0.10983634329E+04  0.00000000000E+00 0.  1.
          4    1    3    3  502    0  0.66120587108E+03 -0.16538764787E+03  0.26046702316E+03  0.72965015465E+03  0.00000000000E+00 0.  1.
</event>
<event>
 7    1  0.5696597E-006  0.1170029E+04  0.7818608E-02  0.8791343E-01
          1   -1    0    0  501    0  0.00000000000E+00  0.00000000000E+00  0.10630558332E+04  0.10630558332E+04  0.00000000000E+00 0. -1.
         -4   -1    0    0    0  501 -0.00000000000E+00 -0.00000000000E+00 -0.29284353711E+04  0.29284353711E+04  0.00000000000E+00 0. -1.
   -9000010    2    1    2    0  502 -0.54313043864E+03  0.20080838111E+03 -0.24994317393E+04  0.27592362682E+04  0.10153379167E+04 0.  0.
        -13    1    1    2    0    0  0.51479365087E+03 -0.29284362338E+03  0.13435198293E+01  0.59225983060E+03  0.10566000000E+00 0.  1.
         13    1    3    3    0    0 -0.64897978987E+03 -0.24723269207E+03 -0.17056232262E+04  0.18415888174E+04  0.10566000000E+00 0. -1.
          1    1    1    2  502    0  0.28336787768E+02  0.92035242273E+02  0.63270868153E+03  0.63999510549E+03  0.00000000000E+00 0. -1.
         -4    1    3    3    0  502  0.10584935123E+03  0.44804107318E+03 -0.79380851315E+03  0.91764745080E+03  0.00000000000E+00 0. -1.
</event>
<event>
 7    1  0.5696597E-006  0.1073182E+04  0.7818608E-02  0.9212529E-01
         -4   -1    0    0    0  501 -0.00000000000E+00  0.00000000000E+00  0.27259510112E+04  0.27259510112E+04  0.00000000000E+00 0. -1.
          1   -1    0    0  501    0  0.00000000000E+00 -0.00000000000E+00 -0.83159780634E+03  0.83159780634E+03  0.00000000000E+00 0.  1.
   -9000010    2    1    2    0  502  0.16665795824E+03 -0.27340792538E+03  0.24368761038E+04  0.26527752775E+04  0.99816068793E+03 0.  0.
        -13    1    1    2    0    0 -0.77809691129E+02 -0.11272963447E+03  0.86033437403E+02  0.16175315155E+03  0.10566000000E+00 0.  1.
         13    1    3    3    0    0  0.43893921883E+02 -0.23027607440E+03  0.23170069652E+02  0.23556445002E+03  0.10566000000E+00 0. -1.
          1    1    1    2  502    0 -0.88848267110E+02  0.38613755985E+03 -0.62855633637E+03  0.74302038847E+03  0.00000000000E+00 0.  1.
         -4    1    3    3    0  502  0.12276403636E+03 -0.43131850976E+02  0.24137060342E+04  0.24172108275E+04  0.00000000000E+00 0. -1.
</event>
<event>
 7    1  0.5696597E-006  0.1006713E+04  0.7818608E-02  0.9367159E-01
         -4   -1    0    0    0  501 -0.00000000000E+00  0.00000000000E+00  0.15335517216E+04  0.15335517216E+04  0.00000000000E+00 0. -1.
          2   -1    0    0  501    0  0.00000000000E+00 -0.00000000000E+00 -0.10186714859E+04  0.10186714859E+04  0.00000000000E+00 0. -1.
   -9000010    2    1    2    0  502  0.79076465526E+02  0.37322508091E+02  0.13382976003E+04  0.16744112446E+04  0.10024801704E+04 0.  0.
        -13    1    1    2    0    0 -0.81923754980E+02 -0.47460856082E+02 -0.55346595678E+02  0.10966900796E+03  0.10566000000E+00 0.  1.
         13    1    3    3    0    0  0.25652821804E+03  0.31325153006E+03  0.13439320204E+03  0.42660847584E+03  0.10566000000E+00 0. -1.
          2    1    1    2  502    0  0.28472894547E+01  0.10138347992E+02 -0.76807076888E+03  0.76814295490E+03  0.00000000000E+00 0. -1.
         -4    1    3    3    0  502 -0.17745175251E+03 -0.27592902197E+03  0.12039043982E+04  0.12478027688E+04  0.00000000000E+00 0. -1.
</event>
<event>
 7    1  0.5696597E-006  0.1042827E+04  0.7818608E-02  0.9127780E-01
         -4   -1    0    0    0  501 -0.00000000000E+00  0.00000000000E+00  0.19757417260E+04  0.19757417260E+04  0.00000000000E+00 0. -1.
          1   -1    0    0  501    0  0.00000000000E+00 -0.00000000000E+00 -0.66999665459E+03  0.66999665459E+03  0.00000000000E+00 0. -1.
   -9000010    2    1    2    0  502  0.17826882718E+03  0.14177378022E+03  0.10506516808E+04  0.14832656593E+04  0.10219239121E+04 0.  0.
        -13    1    1    2    0    0 -0.12538084485E+03 -0.16445971774E+03  0.69177012505E+03  0.72202027124E+03  0.10566000000E+00 0.  1.
         13    1    3    3    0    0 -0.15612700313E+03 -0.38776075572E+03  0.36886842466E+03  0.55749257453E+03  0.10566000000E+00 0. -1.
          1    1    1    2  502    0 -0.52887982327E+02  0.22685937519E+02 -0.43667673440E+03  0.44045245010E+03  0.00000000000E+00 0. -1.
         -4    1    3    3    0  502  0.33439583031E+03  0.52953453593E+03  0.68178325613E+03  0.92577308473E+03  0.00000000000E+00 0. -1.
</event>
<event>
 7    1  0.5696597E-006  0.1040459E+04  0.7818608E-02  0.9108541E-01
         -4   -1    0    0    0  501 -0.00000000000E+00  0.00000000000E+00  0.36259656624E+03  0.36259656624E+03  0.00000000000E+00 0. -1.
          1   -1    0    0  501    0  0.00000000000E+00 -0.00000000000E+00 -0.32776408542E+04  0.32776408542E+04  0.00000000000E+00 0. -1.
   -9000010    2    1    2    0  502  0.59007642416E+02 -0.26519782129E+03 -0.81559011262E+03  0.13306505698E+04  0.10156928280E+04 0.  0.
        -13    1    1    2    0    0 -0.25853378177E+02  0.21928137375E+03 -0.11747887015E+02  0.22111250994E+03  0.10566000000E+00 0.  1.
         13    1    3    3    0    0  0.38327829193E+03 -0.19203563325E+03  0.22251097680E+02  0.42927270588E+03  0.10566000000E+00 0. -1.
          1    1    1    2  502    0 -0.33154264240E+02  0.45916447540E+02 -0.20877062883E+04  0.20884743407E+04  0.00000000000E+00 0. -1.
         -4    1    3    3    0  502 -0.32427064952E+03 -0.73162188046E+02 -0.83784121030E+03  0.90137786393E+03  0.00000000000E+00 0. -1.
</event>
<event>
 7    1  0.5696597E-006  0.1137607E+04  0.7818608E-02  0.8820229E-01
         -4   -1    0    0    0  501 -0.00000000000E+00  0.00000000000E+00  0.12665712009E+04  0.12665712009E+04  0.00000000000E+00 0. -1.
          2   -1    0    0  501    0  0.00000000000E+00 -0.00000000000E+00 -0.73157928300E+03  0.73157928300E+03  0.00000000000E+00 0. -1.
   -9000010    2    1    2    0  502 -0.49254276567E+03  0.64306003108E+01  0.46757680551E+03  0.12008295472E+04  0.99031500226E+03 0.  0.
        -13    1    1    2    0    0  0.59964258094E+03  0.42204046032E+02  0.18704126174E+03  0.62955289780E+03  0.10566000000E+00 0.  1.
         13    1    3    3    0    0 -0.75012291187E+03  0.52685625045E+01  0.55023769466E+03  0.93030837492E+03  0.10566000000E+00 0. -1.
          2    1    1    2  502    0 -0.10709981527E+03 -0.48634646342E+02 -0.11962614939E+03  0.16776803889E+03  0.00000000000E+00 0. -1.
         -4    1    3    3    0  502  0.25758014620E+03  0.11620378063E+01 -0.82660889146E+02  0.27052117226E+03  0.00000000000E+00 0. -1.
</event>
<event>
 7    1  0.5696597E-006  0.9976086E+03  0.7818608E-02  0.9268492E-01
         -4   -1    0    0    0  501 -0.00000000000E+00  0.00000000000E+00  0.42901751109E+03  0.42901751109E+03  0.00000000000E+00 0. -1.
          2   -1    0    0  501    0  0.00000000000E+00 -0.00000000000E+00 -0.14255874112E+04  0.14255874112E+04  0.00000000000E+00 0.  1.
   -9000010    2    1    2    0  502  0.60126639941E+02 -0.38078824311E+03 -0.50462884706E+03  0.11404568802E+04  0.94729970095E+03 0.  0.
        -13    1    1    2    0    0  0.81797795826E+02  0.11058292197E+03 -0.27767217903E+01  0.13757610032E+03  0.10566000000E+00 0.  1.
         13    1    3    3    0    0 -0.90202610559E+02 -0.23659267715E+03 -0.76569267561E+03  0.80647249828E+03  0.10566000000E+00 0. -1.
          2    1    1    2  502    0 -0.14192443577E+03  0.27020532114E+03 -0.48916433122E+03  0.57657194172E+03  0.00000000000E+00 0.  1.
         -4    1    3    3    0  502  0.15032925050E+03 -0.14419556596E+03  0.26106382855E+03  0.33398438193E+03  0.00000000000E+00 0. -1.
</event>
<event>
 7    1  0.5696597E-006  0.1045874E+04  0.7818608E-02  0.9067187E-01
          4   -1    0    0  501    0 -0.00000000000E+00  0.00000000000E+00  0.15579439653E+04  0.15579439653E+04  0.00000000000E+00 0.  1.
          2   -1    0    0  502    0  0.00000000000E+00 -0.00000000000E+00 -0.84988075456E+03  0.84988075456E+03  0.00000000000E+00 0.  1.
    9000010    2    1    2  502    0  0.94246462474E+02 -0.27889969157E+03 -0.28198112075E+03  0.10915556903E+04  0.10125774237E+04 0.  0.
        -13    1    3    3    0    0 -0.72398443999E+02  0.27374732339E+03  0.19412565639E+03  0.34331314189E+03  0.10566000000E+00 0.  1.
         13    1    1    2    0    0 -0.13192869868E+03  0.22546025687E+03  0.11310584338E+04  0.11608319003E+04  0.10566000000E+00 0. -1.
          2    1    1    2  501    0  0.37682236205E+02  0.53439434700E+02 -0.14101410230E+03  0.15543712927E+03  0.00000000000E+00 0.  1.
          4    1    3    3  502    0  0.16664490647E+03 -0.55264701496E+03 -0.47610677714E+03  0.74824254840E+03  0.00000000000E+00 0.  1.
</event>
<event>
 7    1  0.5696597E-006  0.9955385E+03  0.7818608E-02  0.9202587E-01
         -4   -1    0    0    0  502 -0.00000000000E+00  0.00000000000E+00  0.22095867959E+04  0.22095867959E+04  0.00000000000E+00 0. -1.
         -2   -1    0    0    0  501  0.00000000000E+00 -0.00000000000E+00 -0.47027012024E+03  0.47027012024E+03  0.00000000000E+00 0.  1.
   -9000010    2    1    2    0  501  0.17220915120E+03 -0.63030724577E+02  0.16921851866E+04  0.19637769953E+04  0.97943887886E+03 0.  0.
        -13    1    1    2    0    0 -0.17067028572E+03  0.49140807465E+02  0.36077691538E+03  0.40212331345E+03  0.10566000000E+00 0.  1.
         13    1    3    3    0    0  0.61431891945E+02 -0.39910849084E+03  0.24140791806E+03  0.47046706460E+03  0.10566000000E+00 0. -1.
         -2    1    1    2    0  502 -0.15388654807E+01  0.13889917112E+02 -0.31364542631E+03  0.31395660743E+03  0.00000000000E+00 0.  1.
         -4    1    3    3    0  501  0.11077725926E+03  0.33607776626E+03  0.14507772685E+04  0.14933099307E+04  0.00000000000E+00 0. -1.
</event>
<event>
 7    1  0.5696597E-006  0.1033162E+04  0.7818608E-02  0.9038781E-01
         -4   -1    0    0    0  501 -0.00000000000E+00  0.00000000000E+00  0.16837806120E+04  0.16837806120E+04  0.00000000000E+00 0. -1.
          2   -1    0    0  501    0  0.00000000000E+00 -0.00000000000E+00 -0.43270736099E+03  0.43270736099E+03  0.00000000000E+00 0. -1.
   -9000010    2    1    2    0  502  0.32340789406E+03 -0.60361360582E+02  0.36167974488E+03  0.11017739145E+04  0.98734865220E+03 0.  0.
        -13    1    1    2    0    0 -0.30032703986E+03  0.37541800570E+02  0.92097171289E+03  0.96943005151E+03  0.10566000000E+00 0.  1.
         13    1    3    3    0    0 -0.22226992396E+03  0.13318013661E+03  0.44686660639E+03  0.51655652445E+03  0.10566000000E+00 0. -1.
          2    1    1    2  502    0 -0.23080854202E+02  0.22819560012E+02 -0.31578206739E+02  0.45284007007E+02  0.00000000000E+00 0. -1.
         -4    1    3    3    0  502  0.54567781803E+03 -0.19354149719E+03 -0.85186861509E+02  0.58521739003E+03  0.00000000000E+00 0. -1.
</event>
<event>
 7    1  0.5696597E-006  0.1018574E+04  0.7818608E-02  0.9209260E-01
          1   -1    0    0  501    0  0.00000000000E+00  0.00000000000E+00  0.11801594071E+04  0.11801594071E+04  0.00000000000E+00 0. -1.
         -4   -1    0    0    0  501 -0.00000000000E+00 -0.00000000000E+00 -0.23321541576E+04  0.23321541576E+04  0.00000000000E+00 0. -1.
   -9000010    2    1    2    0  502  0.10659737838E+03  0.54175313837E+02 -0.18117615360E+04  0.20755592762E+04  0.10055687346E+04 0.  0.
        -13    1    1    2    0    0 -0.47684051975E+02 -0.16717108465E+03 -0.36490051596E+03  0.40419344140E+03  0.10566000000E+00 0.  1.
         13    1    3    3    0    0  0.54773653742E+03 -0.65636361339E+02 -0.10804648349E+04  0.12131478545E+04  0.10566000000E+00 0. -1.
          1    1    1    2  502    0 -0.58913326402E+02  0.11299577081E+03  0.10246673015E+04  0.10325608471E+04  0.00000000000E+00 0. -1.
         -4    1    3    3    0  502 -0.44113915905E+03  0.11981167518E+03 -0.73129670117E+03  0.86241142171E+03  0.00000000000E+00 0. -1.
</event>
<event>
 7    1  0.5696597E-006  0.1181963E+04  0.7818608E-02  0.8974420E-01
         -4   -1    0    0    0  501 -0.00000000000E+00  0.00000000000E+00  0.14944334110E+04  0.14944334110E+04  0.00000000000E+00 0. -1.
          2   -1    0    0  501    0  0.00000000000E+00 -0.00000000000E+00 -0.18511830370E+04  0.18511830370E+04  0.00000000000E+00 0.  1.
   -9000010    2    1    2    0  502  0.28245088254E+03 -0.62390344251E+02  0.94499850167E+03  0.15179834724E+04  0.11522068383E+04 0.  0.
        -13    1    1    2    0    0 -0.25887206199E+03 -0.29933942360E+02  0.19648693963E+03  0.32637082282E+03  0.10566000000E+00 0.  1.
         13    1    3    3    0    0  0.51823502258E+03 -0.43900217146E+03  0.31911774455E+03  0.75041761122E+03  0.10566000000E+00 0. -1.
          2    1    1    2  502    0 -0.23578820556E+02  0.92324286611E+02 -0.14982350673E+04  0.15012621528E+04  0.00000000000E+00 0.  1.
         -4    1    3    3    0  502 -0.23578414004E+03  0.37661182721E+03  0.62588075713E+03  0.76756586117E+03  0.00000000000E+00 0. -1.
</event>
<event>
 7    1  0.5696597E-006  0.1004378E+04  0.7818608E-02  0.9506502E-01
         -4   -1    0    0    0  501 -0.00000000000E+00  0.00000000000E+00  0.68332117217E+03  0.68332117217E+03  0.00000000000E+00 0. -1.
          2   -1    0    0  501    0  0.00000000000E+00 -0.00000000000E+00 -0.93323235092E+03  0.93323235092E+03  0.00000000000E+00 0. -1.
   -9000010    2    1    2    0  502  0.78265110516E+01  0.81931531834E+02  0.86983952365E+02  0.10099618772E+04  0.10028373523E+04 0.  0.
        -13    1    1    2    0    0  0.46868575434E+01 -0.55090977233E+02  0.12869051005E+03  0.14006513109E+03  0.10566000000E+00 0.  1.
         13    1    3    3    0    0 -0.14373932651E+03  0.48443062463E+03  0.23208373797E+03  0.55605476049E+03  0.10566000000E+00 0. -1.
          2    1    1    2  502    0 -0.12513368595E+02 -0.26840554601E+02 -0.46558564116E+03  0.46652651481E+03  0.00000000000E+00 0. -1.
         -4    1    3    3    0  502  0.15156583756E+03 -0.40249909280E+03 -0.14509978560E+03  0.45390711671E+03  0.00000000000E+00 0. -1.
</event>
<event>
 7    1  0.5696597E-006  0.1007775E+04  0.7818608E-02  0.9239014E-01
          2   -1    0    0  501    0  0.00000000000E+00  0.00000000000E+00  0.16610452252E+04  0.16610452252E+04  0.00000000000E+00 0. -1.
         -4   -1    0    0    0  501 -0.00000000000E+00 -0.00000000000E+00 -0.31743464100E+03  0.31743464100E+03  0.00000000000E+00 0. -1.
   -9000010    2    1    2    0  502 -0.72002097666E+02  0.13914809990E+03  0.80056182321E+03  0.12879231504E+04  0.99664452677E+03 0.  0.
        -13    1    1    2    0    0  0.79821542797E+02 -0.12567705529E+03  0.16079414144E+01  0.14889189890E+03  0.10566000000E+00 0.  1.
         13    1    3    3    0    0 -0.19566636792E+03  0.46368871977E+03  0.11032020081E+03  0.51523112702E+03  0.10566000000E+00 0. -1.
          2    1    1    2  502    0 -0.78194451315E+01 -0.13471044619E+02  0.54144081961E+03  0.54166481693E+03  0.00000000000E+00 0. -1.
         -4    1    3    3    0  502  0.12366427026E+03 -0.32454061986E+03  0.69024162240E+03  0.77269202337E+03  0.00000000000E+00 0. -1.
</event>
<event>
 7    1  0.5696597E-006  0.1017962E+04  0.7818608E-02  0.9462634E-01
          4   -1    0    0  501    0 -0.00000000000E+00  0.00000000000E+00  0.68777416556E+03  0.68777416556E+03  0.00000000000E+00 0.  1.
          2   -1    0    0  502    0  0.00000000000E+00 -0.00000000000E+00 -0.22673715848E+04  0.22673715848E+04  0.00000000000E+00 0.  1.
    9000010    2    1    2  502    0  0.17500501203E+03  0.13647077909E+02  0.77734636394E+02  0.10190904850E+04  0.10008445164E+04 0.  0.
        -13    1    3    3    0    0 -0.34513769456E+03  0.23753743366E+03 -0.89902331933E+02  0.42851662867E+03  0.10566000000E+00 0.  1.
         13    1    1    2    0    0 -0.51998701547E+01  0.62450671288E+02  0.12722592512E+03  0.14182232610E+03  0.10566000000E+00 0. -1.
          2    1    1    2  501    0 -0.16980514188E+03 -0.76097749197E+02 -0.17845579807E+04  0.17942329392E+04  0.00000000000E+00 0.  1.
          4    1    3    3  502    0  0.52014270660E+03 -0.22389035575E+03  0.16763696833E+03  0.59057385632E+03  0.00000000000E+00 0.  1.
</event>
<event>
 7    1  0.5696597E-006  0.8941862E+03  0.7818608E-02  0.9255969E-01
         -4   -1    0    0    0  501 -0.00000000000E+00  0.00000000000E+00  0.37354092961E+03  0.37354092961E+03  0.00000000000E+00 0. -1.
          2   -1    0    0  501    0  0.00000000000E+00 -0.00000000000E+00 -0.14493202773E+04  0.14493202773E+04  0.00000000000E+00 0. -1.
   -9000010    2    1    2    0  502  0.41380571764E+02 -0.17563341307E+03 -0.67165503774E+03  0.11149440451E+04  0.87144723672E+03 0.  0.
        -13    1    1    2    0    0 -0.53330465298E+02  0.19470674751E+03  0.84445997552E+02  0.21882868579E+03  0.10566000000E+00 0.  1.
         13    1    3    3    0    0 -0.16947874218E+03  0.18737348209E+03  0.70484242917E+02  0.26229736085E+03  0.10566000000E+00 0. -1.
          2    1    1    2  502    0  0.11949893534E+02 -0.19073334447E+02 -0.48857030753E+03  0.48908847609E+03  0.00000000000E+00 0. -1.
         -4    1    3    3    0  502  0.21085931395E+03 -0.36300689516E+03 -0.74213928066E+03  0.85264668421E+03  0.00000000000E+00 0. -1.
</event>
<event>
 7    1  0.5696597E-006  0.1032811E+04  0.7818608E-02  0.9081142E-01
          2   -1    0    0  501    0  0.00000000000E+00  0.00000000000E+00  0.14991490614E+04  0.14991490614E+04  0.00000000000E+00 0. -1.
         -4   -1    0    0    0  501 -0.00000000000E+00 -0.00000000000E+00 -0.19088511823E+04  0.19088511823E+04  0.00000000000E+00 0. -1.
   -9000010    2    1    2    0  502  0.18557198149E+03 -0.12420225125E+03 -0.96351129983E+03  0.14066906168E+04  0.10002806141E+04 0.  0.
        -13    1    1    2    0    0 -0.18278577544E+03  0.18664329884E+03 -0.69937209674E+03  0.74657062732E+03  0.10566000000E+00 0.  1.
         13    1    3    3    0    0 -0.22396279349E+03  0.33248279949E+03 -0.28415530228E+03  0.49137398364E+03  0.10566000000E+00 0. -1.
          2    1    1    2  502    0 -0.27862060529E+01 -0.62441047586E+02  0.12531812757E+04  0.12547389996E+04  0.00000000000E+00 0. -1.
         -4    1    3    3    0  502  0.40953477498E+03 -0.45668505074E+03 -0.67935599755E+03  0.91531663314E+03  0.00000000000E+00 0. -1.
</event>
<event>
 7    1  0.5696597E-006  0.1056304E+04  0.7818608E-02  0.9003157E-01
         -4   -1    0    0    0  502 -0.00000000000E+00  0.00000000000E+00  0.14450206702E+04  0.14450206702E+04  0.00000000000E+00 0. -1.
         -2   -1    0    0    0  501  0.00000000000E+00 -0.00000000000E+00 -0.10192366072E+04  0.10192366072E+04  0.00000000000E+00 0. -1.
   -9000010    2    1    2    0  501 -0.28353199882E+03 -0.23280106839E+03  0.15282930137E+03  0.10796964254E+04  0.10038928448E+04 0.  0.
        -13    1    1    2    0    0  0.21521229043E+03  0.24520710623E+03  0.79425714024E+03  0.85865433726E+03  0.10566000000E+00 0.  1.
         13    1    3    3    0    0 -0.16330891722E+03 -0.60451293468E+03 -0.69771151550E+02  0.63005850156E+03  0.10566000000E+00 0. -1.
         -2    1    1    2    0  502  0.68319708385E+02 -0.12406037840E+02 -0.52130237866E+03  0.52590651482E+03  0.00000000000E+00 0. -1.
         -4    1    3    3    0  501 -0.12022308159E+03  0.37171186629E+03  0.22260045292E+03  0.44963792381E+03  0.00000000000E+00 0. -1.
</event>
<event>
 7    1  0.5696597E-006  0.1210616E+04  0.7818608E-02  0.8730752E-01
          4   -1    0    0  501    0 -0.00000000000E+00  0.00000000000E+00  0.15996485040E+04  0.15996485040E+04  0.00000000000E+00 0.  1.
          2   -1    0    0  502    0  0.00000000000E+00 -0.00000000000E+00 -0.25648011215E+04  0.25648011215E+04  0.00000000000E+00 0.  1.
    9000010    2    1    2  502    0 -0.64369310442E+03 -0.33433097680E+03 -0.91657689204E+03  0.15393477199E+04  0.10016786855E+04 0.  0.
        -13    1    3    3    0    0 -0.19697792275E+03 -0.11146789792E+02  0.20811974713E+03  0.28677237189E+03  0.10566000000E+00 0.  1.
         13    1    1    2    0    0  0.68259375725E+03 -0.28271311295E+02  0.11690509489E+04  0.13540360544E+04  0.10566000000E+00 0. -1.
          2    1    1    2  501    0 -0.38900652835E+02  0.36260228809E+03 -0.12176266743E+04  0.12710658512E+04  0.00000000000E+00 0.  1.
          4    1    3    3  502    0 -0.44671518167E+03 -0.32318418701E+03 -0.11246966392E+04  0.12525753480E+04  0.00000000000E+00 0.  1.
</event>
<event>
 7    1  0.5696597E-006  0.1055171E+04  0.7818608E-02  0.8992831E-01
          4   -1    0    0  501    0 -0.00000000000E+00  0.00000000000E+00  0.26479058964E+03  0.26479058964E+03  0.00000000000E+00 0.  1.
          2   -1    0    0  502    0  0.00000000000E+00 -0.00000000000E+00 -0.20754328286E+04  0.20754328286E+04  0.00000000000E+00 0. -1.
    9000010    2    1    2  502    0  0.37150584572E+02 -0.33134673456E+03 -0.14179815062E+04  0.17655240828E+04  0.99761360790E+03 0.  0.
        -13    1    3    3    0    0  0.39972818428E+03 -0.25357184605E+03 -0.12885657953E+04  0.13727647732E+04  0.10566000000E+00 0.  1.
         13    1    1    2    0    0 -0.27746536040E+02  0.34478526454E+03 -0.23963923229E+03  0.42080128531E+03  0.10566000000E+00 0. -1.
          2    1    1    2  501    0 -0.94040485317E+01 -0.13438529982E+02 -0.15302150055E+03  0.15389805017E+03  0.00000000000E+00 0. -1.
          4    1    3    3  502    0 -0.36257759971E+03 -0.77774888505E+02 -0.12941571085E+03  0.39275930964E+03  0.00000000000E+00 0.  1.
</event>
<event>
 7    1  0.5696597E-006  0.1046898E+04  0.7818608E-02  0.9039562E-01
         -4   -1    0    0    0  501 -0.00000000000E+00  0.00000000000E+00  0.19685331373E+04  0.19685331373E+04  0.00000000000E+00 0. -1.
          1   -1    0    0  501    0  0.00000000000E+00 -0.00000000000E+00 -0.73558671221E+03  0.73558671221E+03  0.00000000000E+00 0.  1.
   -9000010    2    1    2    0  502  0.16840958465E+03  0.20668871731E+03  0.11131937567E+04  0.15235804340E+04  0.10054924091E+04 0.  0.
        -13    1    1    2    0    0 -0.24589600219E+03 -0.16707159016E+03  0.61214583297E+03  0.68051472587E+03  0.10566000000E+00 0.  1.
         13    1    3    3    0    0  0.87793126607E+02 -0.36117123279E+03  0.77044900209E+03  0.85542034606E+03  0.10566000000E+00 0. -1.
          1    1    1    2  502    0  0.77486417538E+02 -0.39617127149E+02 -0.49239316465E+03  0.50002468965E+03  0.00000000000E+00 0.  1.
         -4    1    3    3    0  502  0.80616458043E+02  0.56785995010E+03  0.34274475465E+03  0.66816008791E+03  0.00000000000E+00 0. -1.
</event>
<event>
 7    1  0.5696597E-006  0.1077924E+04  0.7818608E-02  0.8908533E-01
          2   -1    0    0  502    0  0.00000000000E+00  0.00000000000E+00  0.12609553625E+04  0.12609553625E+04  0.00000000000E+00 0.  1.
          4   -1    0    0  501    0 -0.00000000000E+00 -0.00000000000E+00 -0.15095496392E+04  0.15095496392E+04  0.00000000000E+00 0.  1.
    9000010    2    1    2  502    0 -0.43214591631E+03  0.16852601410E+03 -0.40475682165E+03  0.11548385181E+04  0.97707359384E+03 0.  0.
        -13    1    3    3    0    0 -0.16388758941E+03 -0.30952442878E+03 -0.48769514274E+03  0.60042574677E+03  0.10566000000E+00 0.  1.
         13    1    1    2    0    0  0.42741455480E+03 -0.15206531771E+03 -0.65914751113E+03  0.80017655246E+03  0.10566000000E+00 0. -1.
          2    1    1    2  501    0  0.47313615117E+01 -0.16460696392E+02  0.81531005602E+03  0.81548993112E+03  0.00000000000E+00 0.  1.
          4    1    3    3  502    0 -0.26825832691E+03  0.47805044288E+03  0.82938321092E+02  0.55441277132E+03  0.00000000000E+00 0.  1.
</event>
<event>
 7    1  0.5696597E-006  0.1046999E+04  0.7818608E-02  0.9038010E-01
          2   -1    0    0  502    0  0.00000000000E+00  0.00000000000E+00  0.73712639705E+03  0.73712639705E+03  0.00000000000E+00 0.  1.
          4   -1    0    0  501    0 -0.00000000000E+00 -0.00000000000E+00 -0.23489386695E+04  0.23489386695E+04  0.00000000000E+00 0.  1.
    9000010    2    1    2  502    0 -0.57698539583E+02  0.46937240534E+03 -0.17970709593E+04  0.21126557771E+04  0.10050924452E+04 0.  0.
        -13    1    3    3    0    0  0.17796646792E+03  0.42677558031E+03 -0.18145464220E+04  0.18725352302E+04  0.10566000000E+00 0.  1.
         13    1    1    2    0    0  0.87064758416E+02 -0.23216782115E+03 -0.32568033921E+03  0.40932855244E+03  0.10566000000E+00 0. -1.
          2    1    1    2  501    0 -0.29366218834E+02 -0.23720458419E+03  0.51093902604E+03  0.56408073704E+03  0.00000000000E+00 0.  1.
          4    1    3    3  502    0 -0.23566500751E+03  0.42596825030E+02  0.17475462624E+02  0.24012054693E+03  0.00000000000E+00 0.  1.
</event>
<event>
 7    1  0.5696597E-006  0.1018702E+04  0.7818608E-02  0.9094142E-01
          2   -1    0    0  502    0  0.00000000000E+00  0.00000000000E+00  0.12574656054E+04  0.12574656054E+04  0.00000000000E+00 0. -1.
          4   -1    0    0  501    0 -0.00000000000E+00 -0.00000000000E+00 -0.76789150245E+03  0.76789150245E+03  0.00000000000E+00 0.  1.
    9000010    2    1    2  502    0  0.24323601978E+03  0.35164428512E+02 -0.31599960211E+03  0.10645300228E+04  0.98639146514E+03 0.  0.
        -13    1    3    3    0    0  0.20316517086E+03  0.44514156108E+03 -0.41416807095E+03  0.64106341200E+03  0.10566000000E+00 0.  1.
         13    1    1    2    0    0 -0.25481045142E+03 -0.50407559322E+02  0.14018447471E+03  0.29516264381E+03  0.10566000000E+00 0. -1.
          2    1    1    2  501    0  0.11574431635E+02  0.15243130810E+02  0.66538923036E+03  0.66566444128E+03  0.00000000000E+00 0. -1.
          4    1    3    3  502    0  0.40070848922E+02 -0.40997713257E+03  0.98168468834E+02  0.42346661077E+03  0.00000000000E+00 0.  1.
</event>
<event>
 7    1  0.5696597E-006  0.1027270E+04  0.7818608E-02  0.9055800E-01
          2   -1    0    0  501    0  0.00000000000E+00  0.00000000000E+00  0.33469253606E+03  0.33469253606E+03  0.00000000000E+00 0. -1.
         -4   -1    0    0    0  501 -0.00000000000E+00 -0.00000000000E+00 -0.27290454190E+04  0.27290454190E+04  0.00000000000E+00 0. -1.
   -9000010    2    1    2    0  502  0.86708248553E+02  0.26872008207E+03 -0.90669048041E+03  0.13687598107E+04  0.98574184711E+03 0.  0.
        -13    1    1    2    0    0 -0.97354787908E+02 -0.27266341652E+03 -0.15777923673E+04  0.16041359228E+04  0.10566000000E+00 0.  1.
         13    1    3    3    0    0 -0.12799483712E+03  0.39028016071E+03 -0.10182613816E+04  0.10979788407E+04  0.10566000000E+00 0. -1.
          2    1    1    2  502    0  0.10646539355E+02  0.39433344529E+01  0.90129964724E+02  0.90842221616E+02  0.00000000000E+00 0. -1.
         -4    1    3    3    0  502  0.21470308567E+03 -0.12156007864E+03  0.11157090118E+03  0.27078096999E+03  0.00000000000E+00 0. -1.
</event>
<event>
 7    1  0.5696597E-006  0.1013634E+04  0.7818608E-02  0.9160578E-01
          4   -1    0    0  501    0 -0.00000000000E+00  0.00000000000E+00  0.69771148115E+03  0.69771148115E+03  0.00000000000E+00 0.  1.
          2   -1    0    0  502    0  0.00000000000E+00 -0.00000000000E+00 -0.15561918248E+04  0.15561918248E+04  0.00000000000E+00 0.  1.
    9000010    2    1    2  502    0 -0.68030434998E+02  0.60179500646E+02 -0.32626700868E+03  0.10500393840E+04  0.99392295204E+03 0.  0.
        -13    1    3    3    0    0  0.32336175204E+03  0.30761379290E+03 -0.37699750337E+03  0.58422272891E+03  0.10566000000E+00 0.  1.
         13    1    1    2    0    0  0.86719254075E+02 -0.18487451960E+03  0.29958667869E+03  0.36256172749E+03  0.10566000000E+00 0. -1.
          2    1    1    2  501    0 -0.18688819077E+02  0.12469501896E+03 -0.83180001366E+03  0.84130219448E+03  0.00000000000E+00 0.  1.
          4    1    3    3  502    0 -0.39139218704E+03 -0.24743429225E+03  0.50730494684E+02  0.46581665508E+03  0.00000000000E+00 0.  1.
</event>
<event>
 7    1  0.5696597E-006  0.1017307E+04  0.7818608E-02  0.9065374E-01
         -4   -1    0    0    0  501 -0.00000000000E+00  0.00000000000E+00  0.28240639210E+03  0.28240639210E+03  0.00000000000E+00 0. -1.
          2   -1    0    0  501    0  0.00000000000E+00 -0.00000000000E+00 -0.40995501733E+04  0.40995501733E+04  0.00000000000E+00 0.  1.
   -9000010    2    1    2    0  502 -0.28674812375E+03 -0.63400253135E+02 -0.10225697004E+04  0.14438483922E+04  0.97611746686E+03 0.  0.
        -13    1    1    2    0    0  0.26896471886E+03  0.95192903425E+02 -0.21243925971E+03  0.35571640261E+03  0.10566000000E+00 0.  1.
         13    1    3    3    0    0 -0.17514526968E+03 -0.51975890355E+03 -0.58345117629E+03  0.80077491818E+03  0.10566000000E+00 0. -1.
          2    1    1    2  502    0  0.17783404894E+02 -0.31792650290E+02 -0.25821348211E+04  0.25823917705E+04  0.00000000000E+00 0.  1.
         -4    1    3    3    0  502 -0.11160285407E+03  0.45635865042E+03 -0.43911852408E+03  0.64307347406E+03  0.00000000000E+00 0. -1.
</event>
<event>
 7    1  0.5696597E-006  0.1080648E+04  0.7818608E-02  0.8942263E-01
          4   -1    0    0  501    0 -0.00000000000E+00  0.00000000000E+00  0.22974207837E+04  0.22974207837E+04  0.00000000000E+00 0.  1.
          2   -1    0    0  502    0  0.00000000000E+00 -0.00000000000E+00 -0.10980037859E+04  0.10980037859E+04  0.00000000000E+00 0.  1.
    9000010    2    1    2  502    0 -0.32139059830E+03  0.15098941509E+03  0.27849268736E+03  0.11030897182E+04  0.10065580109E+04 0.  0.
        -13    1    3    3    0    0 -0.50701201142E+03 -0.10350047299E+03  0.49877485900E+03  0.71871405911E+03  0.10566000000E+00 0.  1.
         13    1    1    2    0    0  0.35257301347E+03 -0.17921685767E+03  0.15816099188E+04  0.16303117365E+04  0.10566000000E+00 0. -1.
          2    1    1    2  501    0 -0.31182415169E+02  0.28227442572E+02 -0.66068560840E+03  0.66202311492E+03  0.00000000000E+00 0.  1.
          4    1    3    3  502    0  0.18562141312E+03  0.25448988808E+03 -0.22028217164E+03  0.38437565907E+03  0.00000000000E+00 0.  1.
</event>
<event>
 7    1  0.5696597E-006  0.1056389E+04  0.7818608E-02  0.9246065E-01
          2   -1    0    0  501    0  0.00000000000E+00  0.00000000000E+00  0.10262522787E+04  0.10262522787E+04  0.00000000000E+00 0. -1.
         -4   -1    0    0    0  501 -0.00000000000E+00 -0.00000000000E+00 -0.19336699708E+04  0.19336699708E+04  0.00000000000E+00 0. -1.
   -9000010    2    1    2    0  502 -0.28928544705E+03  0.33069592484E+03 -0.14481482693E+04  0.17974155709E+04  0.96980588793E+03 0.  0.
        -13    1    1    2    0    0  0.11571737110E+03  0.50406486415E+02 -0.24304958047E+03  0.27386937320E+03  0.10566000000E+00 0.  1.
         13    1    3    3    0    0 -0.37636089591E+03  0.32603199704E+03 -0.18490023816E+03  0.53116145973E+03  0.10566000000E+00 0. -1.
          2    1    1    2  502    0  0.17356807595E+03 -0.38110241125E+03  0.78378015763E+03  0.88863730529E+03  0.00000000000E+00 0. -1.
         -4    1    3    3    0  502  0.87075448867E+02  0.46639277961E+01 -0.12632480311E+04  0.12662541112E+04  0.00000000000E+00 0. -1.
</event>
<event>
 7    1  0.5696597E-006  0.1013164E+04  0.7818608E-02  0.9282415E-01
         -4   -1    0    0    0  501 -0.00000000000E+00  0.00000000000E+00  0.97371987622E+03  0.97371987622E+03  0.00000000000E+00 0. -1.
          2   -1    0    0  501    0  0.00000000000E+00 -0.00000000000E+00 -0.11649190489E+04  0.11649190489E+04  0.00000000000E+00 0. -1.
   -9000010    2    1    2    0  502 -0.15858284950E+03 -0.31642506498E+02  0.62851361513E+03  0.11967351519E+04  0.10054829143E+04 0.  0.
        -13    1    1    2    0    0  0.96702482045E+02  0.69531510550E+02 -0.11966379865E+00  0.11910510685E+03  0.10566000000E+00 0.  1.
         13    1    3    3    0    0  0.16390589249E+03  0.39770622659E+03  0.46939254862E+03  0.63668262119E+03  0.10566000000E+00 0. -1.
          2    1    1    2  502    0  0.61880367456E+02 -0.37889004052E+02 -0.81959312405E+03  0.82279866644E+03  0.00000000000E+00 0. -1.
         -4    1    3    3    0  502 -0.32248874199E+03 -0.42934873309E+03  0.15912106651E+03  0.56005253068E+03  0.00000000000E+00 0. -1.
</event>
<event>
 7    1  0.5696597E-006  0.1041884E+04  0.7818608E-02  0.9025472E-01
         -4   -1    0    0    0  502 -0.00000000000E+00  0.00000000000E+00  0.20830391340E+04  0.20830391340E+04  0.00000000000E+00 0. -1.
         -2   -1    0    0    0  501  0.00000000000E+00 -0.00000000000E+00 -0.36052979639E+03  0.36052979639E+03  0.00000000000E+00 0. -1.
   -9000010    2    1    2    0  501 -0.30752740682E+03  0.13177140382E+03  0.13868739486E+04  0.17386579821E+04  0.99376829328E+03 0.  0.
        -13    1    1    2    0    0  0.26127255730E+03 -0.16329508828E+03  0.46850232246E+03  0.56073440448E+03  0.10566000000E+00 0.  1.
         13    1    3    3    0    0 -0.29367225098E+03 -0.29501530333E+03  0.17107003369E+03  0.45004709507E+03  0.10566000000E+00 0. -1.
         -2    1    1    2    0  502  0.46254849520E+02  0.31523684461E+02 -0.13286693342E+03  0.14417654380E+03  0.00000000000E+00 0. -1.
         -4    1    3    3    0  501 -0.13855155841E+02  0.42678670715E+03  0.12158039149E+04  0.12886108871E+04  0.00000000000E+00 0. -1.
</event>
<event>
 7    1  0.5696597E-006  0.1007543E+04  0.7818608E-02  0.9324838E-01
         -4   -1    0    0    0  501 -0.00000000000E+00  0.00000000000E+00  0.47134834497E+03  0.47134834497E+03  0.00000000000E+00 0. -1.
          1   -1    0    0  501    0  0.00000000000E+00 -0.00000000000E+00 -0.18301359354E+04  0.18301359354E+04  0.00000000000E+00 0. -1.
   -9000010    2    1    2    0  502 -0.77628176382E+02 -0.84638047059E+02 -0.82669243857E+02  0.10117010242E+04  0.10017559712E+04 0.  0.
        -13    1    1    2    0    0  0.66510689676E+02  0.78468456964E+02 -0.38295268662E+03  0.39652710114E+03  0.10566000000E+00 0.  1.
         13    1    3    3    0    0  0.10789844822E+03  0.35014083384E+03  0.24122954548E+03  0.43867115637E+03  0.10566000000E+00 0. -1.
          1    1    1    2  502    0  0.11117486706E+02  0.61695900946E+01 -0.89316565999E+03  0.89325615506E+03  0.00000000000E+00 0. -1.
         -4    1    3    3    0  502 -0.18552662460E+03 -0.43477888090E+03 -0.32389878934E+03  0.57302986785E+03  0.00000000000E+00 0. -1.
</event>
<event>
 7    1  0.5696597E-006  0.1308542E+04  0.7818608E-02  0.8815165E-01
          1   -1    0    0  501    0  0.00000000000E+00  0.00000000000E+00  0.12782642007E+04  0.12782642007E+04  0.00000000000E+00 0.  1.
         -4   -1    0    0    0  501 -0.00000000000E+00 -0.00000000000E+00 -0.14808710656E+04  0.14808710656E+04  0.00000000000E+00 0. -1.
   -9000010    2    1    2    0  502  0.64934922764E+03 -0.52909990740E+02  0.98190218740E+02  0.11993135983E+04  0.10021266894E+04 0.  0.
        -13    1    1    2    0    0  0.34915155649E+03  0.13898524610E+03 -0.40466741382E+03  0.55224943187E+03  0.10566000000E+00 0.  1.
         13    1    3    3    0    0  0.20226970751E+03  0.39218360320E+03  0.30385882514E+03  0.53577160244E+03  0.10566000000E+00 0. -1.
          1    1    1    2  502    0 -0.99850078413E+03 -0.86075255363E+02  0.10387033013E+03  0.10075722361E+04  0.00000000000E+00 0.  1.
         -4    1    3    3    0  502  0.44707952012E+03 -0.44509359394E+03 -0.20566860640E+03  0.66354199591E+03  0.00000000000E+00 0. -1.
</event>
<event>
 7    1  0.5696597E-006  0.1086070E+04  0.7818608E-02  0.8916555E-01
          2   -1    0    0  502    0  0.00000000000E+00  0.00000000000E+00  0.12186657036E+04  0.12186657036E+04  0.00000000000E+00 0.  1.
          4   -1    0    0  501    0 -0.00000000000E+00 -0.00000000000E+00 -0.75361852007E+03  0.75361852007E+03  0.00000000000E+00 0.  1.
    9000010    2    1    2  502    0  0.26677231454E+03  0.21436598173E+03  0.18177716109E+03  0.10697250143E+04  0.99706992135E+03 0.  0.
        -13    1    3    3    0    0  0.11923609272E+03  0.47983379613E+03  0.44698156605E+03  0.66652100437E+03  0.10566000000E+00 0.  1.
         13    1    1    2    0    0 -0.34400955205E+03 -0.29749902842E+03 -0.13078459062E+03  0.47323658367E+03  0.10566000000E+00 0. -1.
          2    1    1    2  501    0  0.77237237501E+02  0.83133046696E+02  0.41405461304E+03  0.42932262564E+03  0.00000000000E+00 0.  1.
          4    1    3    3  502    0  0.14753622182E+03 -0.26546781440E+03 -0.26520440496E+03  0.40320400996E+03  0.00000000000E+00 0.  1.
</event>
<event>
 7    1  0.5696597E-006  0.1406995E+04  0.7818608E-02  0.8539499E-01
         -4   -1    0    0    0  501 -0.00000000000E+00  0.00000000000E+00  0.37150451077E+04  0.37150451077E+04  0.00000000000E+00 0. -1.
          2   -1    0    0  501    0  0.00000000000E+00 -0.00000000000E+00 -0.10743090674E+04  0.10743090674E+04  0.00000000000E+00 0. -1.
   -9000010    2    1    2    0  502 -0.99068378971E+03 -0.97043379195E+02  0.25809275005E+04  0.29365657802E+04  0.98557598893E+03 0.  0.
        -13    1    1    2    0    0  0.10108671106E+04  0.11565033504E+03  0.68527822644E+03  0.12267165826E+04  0.10566000000E+00 0.  1.
         13    1    3    3    0    0  0.16975932836E+03  0.23060745816E+02  0.72063691272E+03  0.74072099923E+03  0.10566000000E+00 0. -1.
          2    1    1    2  502    0 -0.20183320886E+02 -0.18606955843E+02 -0.62546968668E+03  0.62607181233E+03  0.00000000000E+00 0. -1.
         -4    1    3    3    0  502 -0.11604431181E+04 -0.12010412501E+03  0.18602905878E+04  0.21958447810E+04  0.00000000000E+00 0. -1.
</event>
<event>
 7    1  0.5696597E-006  0.1089388E+04  0.7818608E-02  0.8855358E-01
          4   -1    0    0  501    0  0.00000000000E+00  0.00000000000E+00  0.84276577933E+03  0.84276577933E+03  0.00000000000E+00 0.  1.
         -4   -1    0    0    0  501 -0.00000000000E+00 -0.00000000000E+00 -0.17055396685E+04  0.17055396685E+04  0.00000000000E+00 0. -1.
   -9000010    2    1    2    0  502  0.30190116991E+03  0.55910821947E+03 -0.79987626627E+03  0.13884139220E+04  0.94028977450E+03 0.  0.
        -13    1    1    2    0    0 -0.23048262455E+03 -0.46387350228E+03 -0.49211219235E+03  0.71447553308E+03  0.10566000000E+00 0.  1.
         13    1    3    3    0    0  0.54092083555E+03  0.35431729117E+02 -0.50838916513E+03  0.74317582856E+03  0.10566000000E+00 0. -1.
          4    1    1    2  502    0 -0.71418545360E+02 -0.95234717188E+02  0.42921456944E+03  0.44541599275E+03  0.00000000000E+00 0.  1.
         -4    1    3    3    0  502 -0.23901966564E+03  0.52367649036E+03 -0.29148710114E+03  0.64523809346E+03  0.00000000000E+00 0. -1.
</event>
<event>
 7    1  0.5696597E-006  0.1006939E+04  0.7818608E-02  0.9104717E-01
         -4   -1    0    0    0  502 -0.00000000000E+00  0.00000000000E+00  0.19622347343E+04  0.19622347343E+04  0.00000000000E+00 0. -1.
         -2   -1    0    0    0  501  0.00000000000E+00 -0.00000000000E+00 -0.65586873340E+03  0.65586873340E+03  0.00000000000E+00 0. -1.
   -9000010    2    1    2    0  501  0.20306874502E+03  0.17961461135E+03  0.68994260108E+03  0.12245671849E+04  0.97470286433E+03 0.  0.
        -13    1    1    2    0    0 -0.24531688623E+03 -0.63187175887E+02  0.97855334346E+03  0.10108113825E+04  0.10566000000E+00 0.  1.
         13    1    3    3    0    0 -0.83935623562E+02 -0.13802857906E+03 -0.18796273555E+03  0.24784486813E+03  0.10566000000E+00 0. -1.
         -2    1    1    2    0  502  0.42248141206E+02 -0.11642743546E+03 -0.36212994367E+03  0.38272490025E+03  0.00000000000E+00 0. -1.
         -4    1    3    3    0  501  0.28700436858E+03  0.31764319041E+03  0.87790533662E+03  0.97672231677E+03  0.00000000000E+00 0. -1.
</event>
<event>
 7    1  0.5696597E-006  0.1036968E+04  0.7818608E-02  0.8886613E-01
          2   -1    0    0  501    0  0.00000000000E+00  0.00000000000E+00  0.51019249997E+03  0.51019249997E+03  0.00000000000E+00 0. -1.
         -4   -1    0    0    0  501 -0.00000000000E+00 -0.00000000000E+00 -0.23712231226E+04  0.23712231226E+04  0.00000000000E+00 0. -1.
   -9000010    2    1    2    0  502  0.14417069801E+03  0.66249629229E+03 -0.15468317520E+04  0.19010898969E+04  0.87279310240E+03 0.  0.
        -13    1    1    2    0    0 -0.32745303633E+03 -0.38613462552E+03 -0.39128830519E+03  0.63986872792E+03  0.10566000000E+00 0.  1.
         13    1    3    3    0    0  0.22320581733E+03  0.83126577533E+03 -0.97949934800E+03  0.13039335144E+04  0.10566000000E+00 0. -1.
          2    1    1    2  502    0  0.18328233832E+03 -0.27636166677E+03  0.77089434561E+02  0.34045699776E+03  0.00000000000E+00 0. -1.
         -4    1    3    3    0  502 -0.79035119316E+02 -0.16876948304E+03 -0.56733240402E+03  0.59715638249E+03  0.00000000000E+00 0. -1.
</event>
<event>
 7    1  0.5696597E-006  0.9959985E+03  0.7818608E-02  0.9243145E-01
         -4   -1    0    0    0  502 -0.00000000000E+00  0.00000000000E+00  0.32654990528E+04  0.32654990528E+04  0.00000000000E+00 0. -1.
         -2   -1    0    0    0  501  0.00000000000E+00 -0.00000000000E+00 -0.52440368081E+03  0.52440368081E+03  0.00000000000E+00 0.  1.
   -9000010    2    1    2    0  501  0.12274753370E+03  0.13170236655E+03  0.22582484950E+04  0.24700035881E+04  0.98428603053E+03 0.  0.
        -13    1    1    2    0    0 -0.56471269602E+02 -0.14037060853E+03  0.89229446989E+03  0.90503168132E+03  0.10566000000E+00 0.  1.
         13    1    3    3    0    0 -0.30561106962E+03 -0.26721541797E+03  0.76319419376E+03  0.86444640900E+03  0.10566000000E+00 0. -1.
         -2    1    1    2    0  502 -0.66276264097E+02  0.86682419808E+01 -0.40944759282E+03  0.41486746422E+03  0.00000000000E+00 0.  1.
         -4    1    3    3    0  501  0.42835860332E+03  0.39891778452E+03  0.14950543012E+04  0.16055571791E+04  0.00000000000E+00 0. -1.
</event>
<event>
 7    1  0.5696597E-006  0.1081395E+04  0.7818608E-02  0.8918789E-01
          1   -1    0    0  501    0  0.00000000000E+00  0.00000000000E+00  0.13977196226E+04  0.13977196226E+04  0.00000000000E+00 0.  1.
         -4   -1    0    0    0  501 -0.00000000000E+00 -0.00000000000E+00 -0.56180565736E+03  0.56180565736E+03  0.00000000000E+00 0. -1.
   -9000010    2    1    2    0  502 -0.40613487592E+02  0.39184836382E+03  0.58997566273E+03  0.12189718344E+04  0.99127516606E+03 0.  0.
        -13    1    1    2    0    0  0.12656406369E+03 -0.42358111360E+03 -0.36535345734E+02  0.44359245335E+03  0.10566000000E+00 0.  1.
         13    1    3    3    0    0  0.28428881733E+03  0.37339606858E+03  0.72745363235E+03  0.86569830430E+03  0.10566000000E+00 0. -1.
          1    1    1    2  502    0 -0.85950576098E+02  0.31732749771E+02  0.28247364824E+03  0.29696099220E+03  0.00000000000E+00 0.  1.
         -4    1    3    3    0  502 -0.32490230492E+03  0.18452295247E+02 -0.13747796961E+03  0.35327353011E+03  0.00000000000E+00 0. -1.
</event>
<event>
 7    1  0.5696597E-006  0.1044138E+04  0.7818608E-02  0.9041788E-01
          2   -1    0    0  502    0  0.00000000000E+00  0.00000000000E+00  0.35890042382E+03  0.35890042382E+03  0.00000000000E+00 0.  1.
          4   -1    0    0  501    0 -0.00000000000E+00 -0.00000000000E+00 -0.19208552398E+04  0.19208552398E+04  0.00000000000E+00 0.  1.
    9000010    2    1    2  502    0 -0.20919478602E+03  0.10589734724E+03 -0.49589326747E+03  0.11429347827E+04  0.10027028863E+04 0.  0.
        -13    1    3    3    0    0 -0.18295841144E+03 -0.25676053845E+03  0.18894237071E+03  0.36755813830E+03  0.10566000000E+00 0.  1.
         13    1    1    2    0    0  0.25372812068E+03 -0.15039369198E+03 -0.10111288201E+04  0.10532700147E+04  0.10566000000E+00 0. -1.
          2    1    1    2  501    0 -0.44533334666E+02  0.44496344736E+02 -0.54932728369E+02  0.83550866168E+02  0.00000000000E+00 0.  1.
          4    1    3    3  502    0 -0.26236374575E+02  0.36265788569E+03 -0.68483563818E+03  0.77537664443E+03  0.00000000000E+00 0.  1.
</event>
<event>
 7    1  0.5696597E-006  0.1369006E+04  0.7818608E-02  0.8580752E-01
          2   -1    0    0  502    0  0.00000000000E+00  0.00000000000E+00  0.12316290445E+04  0.12316290445E+04  0.00000000000E+00 0. -1.
          4   -1    0    0  501    0 -0.00000000000E+00 -0.00000000000E+00 -0.14919468987E+04  0.14919468987E+04  0.00000000000E+00 0.  1.
    9000010    2    1    2  502    0  0.80874686832E+02  0.93847683452E+03 -0.53132404962E+03  0.14907588082E+04  0.10260492652E+04 0.  0.
        -13    1    3    3    0    0  0.50181354107E+03  0.34886170601E+03 -0.34157367753E+02  0.61211768219E+03  0.10566000000E+00 0.  1.
         13    1    1    2    0    0  0.49799869096E+02 -0.87832302584E+03 -0.49894481537E+02  0.88114745368E+03  0.10566000000E+00 0. -1.
          2    1    1    2  501    0 -0.13067455593E+03 -0.60153808683E+02  0.32090067700E+03  0.35166968132E+03  0.00000000000E+00 0. -1.
          4    1    3    3  502    0 -0.42093885423E+03  0.58961512851E+03 -0.49716668187E+03  0.87864112602E+03  0.00000000000E+00 0.  1.
</event>
<event>
 7    1  0.5696597E-006  0.1063768E+04  0.7818608E-02  0.8962502E-01
          2   -1    0    0  502    0  0.00000000000E+00  0.00000000000E+00  0.53206249617E+03  0.53206249617E+03  0.00000000000E+00 0. -1.
          4   -1    0    0  501    0 -0.00000000000E+00 -0.00000000000E+00 -0.13970081989E+04  0.13970081989E+04  0.00000000000E+00 0.  1.
    9000010    2    1    2  502    0 -0.25301925114E+03 -0.27344898358E+03 -0.76942969135E+03  0.13108744266E+04  0.99376889890E+03 0.  0.
        -13    1    3    3    0    0 -0.22256084951E+03 -0.40291108046E+03  0.65931739510E+02  0.46499212459E+03  0.10566000000E+00 0.  1.
         13    1    1    2    0    0  0.25725732357E+03  0.28257801777E+03 -0.25434686197E+03  0.45904684295E+03  0.10566000000E+00 0. -1.
          2    1    1    2  501    0 -0.42380724299E+01 -0.91290341904E+01  0.15883085060E+03  0.15914942547E+03  0.00000000000E+00 0. -1.
          4    1    3    3  502    0 -0.30458401634E+02  0.12946209688E+03 -0.83536143086E+03  0.84588230205E+03  0.00000000000E+00 0.  1.
</event>
<event>
 7    1  0.5696597E-006  0.1245928E+04  0.7818608E-02  0.8732527E-01
          2   -1    0    0  502    0  0.00000000000E+00  0.00000000000E+00  0.54000775865E+03  0.54000775865E+03  0.00000000000E+00 0. -1.
          4   -1    0    0  501    0 -0.00000000000E+00 -0.00000000000E+00 -0.29253963206E+04  0.29253963206E+04  0.00000000000E+00 0.  1.
    9000010    2    1    2  502    0 -0.50428449900E+03 -0.31757664891E+03 -0.17993453131E+04  0.21822094768E+04  0.10813125638E+04 0.  0.
        -13    1    3    3    0    0 -0.26616375299E+03 -0.34452862523E+03 -0.18796963437E+04  0.19294562635E+04  0.10566000000E+00 0.  1.
         13    1    1    2    0    0  0.39501879915E+03  0.51363374478E+03 -0.76036154851E+03  0.99900408962E+03  0.10566000000E+00 0. -1.
          2    1    1    2  501    0  0.10926569985E+03 -0.19605709587E+03  0.17431829969E+03  0.28419051288E+03  0.00000000000E+00 0. -1.
          4    1    3    3  502    0 -0.23812074602E+03  0.26951976322E+02  0.80351030570E+02  0.25275321328E+03  0.00000000000E+00 0.  1.
</event>
<event>
 7    1  0.5696597E-006  0.1020833E+04  0.7818608E-02  0.9236051E-01
          2   -1    0    0  501    0  0.00000000000E+00  0.00000000000E+00  0.13155015595E+04  0.13155015595E+04  0.00000000000E+00 0. -1.
         -4   -1    0    0    0  501 -0.00000000000E+00 -0.00000000000E+00 -0.15646920849E+04  0.15646920849E+04  0.00000000000E+00 0. -1.
   -9000010    2    1    2    0  502 -0.12346633676E+03 -0.85656233104E+02 -0.53989566932E+03  0.11554396329E+04  0.10104318310E+04 0.  0.
        -13    1    1    2    0    0  0.14253477910E+03  0.29327216135E+02 -0.70874809680E+03  0.72353308476E+03  0.10566000000E+00 0.  1.
         13    1    3    3    0    0 -0.26669401099E+03  0.12574830323E+03 -0.76196870326E+03  0.81702793537E+03  0.10566000000E+00 0. -1.
          2    1    1    2  502    0 -0.19068442345E+02  0.56329016970E+02  0.99945324073E+03  0.10012209267E+04  0.00000000000E+00 0. -1.
         -4    1    3    3    0  502  0.14322767424E+03 -0.21140453633E+03  0.22207303394E+03  0.33841169757E+03  0.00000000000E+00 0. -1.
</event>
<event>
 7    1  0.5696597E-006  0.1156187E+04  0.7818608E-02  0.8869169E-01
          1   -1    0    0  501    0  0.00000000000E+00  0.00000000000E+00  0.62817603337E+03  0.62817603337E+03  0.00000000000E+00 0. -1.
         -4   -1    0    0    0  501 -0.00000000000E+00 -0.00000000000E+00 -0.15773635866E+04  0.15773635866E+04  0.00000000000E+00 0. -1.
   -9000010    2    1    2    0  502 -0.40753196965E+03  0.79334093969E+01 -0.85559147898E+03  0.14304767422E+04  0.10714857375E+04 0.  0.
        -13    1    1    2    0    0  0.43424647172E+03 -0.11421624647E+03 -0.30094174555E+03  0.54053796772E+03  0.10566000000E+00 0.  1.
         13    1    3    3    0    0 -0.49986191385E+03 -0.17216227370E+03  0.22702797783E+02  0.52916652350E+03  0.10566000000E+00 0. -1.
          1    1    1    2  502    0 -0.26714502070E+02  0.10628283707E+03  0.20734567127E+03  0.23452491013E+03  0.00000000000E+00 0. -1.
         -4    1    3    3    0  502  0.92329944195E+02  0.18009568310E+03 -0.87829427677E+03  0.90131021866E+03  0.00000000000E+00 0. -1.
</event>
<event>
 7    1  0.5696597E-006  0.1007294E+04  0.7818608E-02  0.9199114E-01
         -4   -1    0    0    0  501 -0.00000000000E+00  0.00000000000E+00  0.50152465392E+03  0.50152465392E+03  0.00000000000E+00 0. -1.
          2   -1    0    0  501    0  0.00000000000E+00 -0.00000000000E+00 -0.13036199545E+04  0.13036199545E+04  0.00000000000E+00 0. -1.
   -9000010    2    1    2    0  502  0.17618682808E+02  0.17650428281E+03 -0.36159548383E+03  0.10707077201E+04  0.99206831825E+03 0.  0.
        -13    1    1    2    0    0  0.20939092611E+01 -0.17432748292E+03  0.95017988817E+02  0.19855197083E+03  0.10566000000E+00 0.  1.
         13    1    3    3    0    0 -0.14898792939E+02 -0.22087639638E+03  0.25421285553E+03  0.33709426514E+03  0.10566000000E+00 0. -1.
          2    1    1    2  502    0 -0.19712592069E+02 -0.21767998975E+01 -0.53551780552E+03  0.53588491747E+03  0.00000000000E+00 0. -1.
         -4    1    3    3    0  502  0.32517475747E+02  0.39738067920E+03 -0.61580833936E+03  0.73361345493E+03  0.00000000000E+00 0. -1.
</event>
<event>
 7    1  0.5696597E-006  0.1049320E+04  0.7818608E-02  0.9238169E-01
          4   -1    0    0  501    0 -0.00000000000E+00  0.00000000000E+00  0.78955407068E+03  0.78955407068E+03  0.00000000000E+00 0.  1.
          2   -1    0    0  502    0  0.00000000000E+00 -0.00000000000E+00 -0.66616830292E+03  0.66616830292E+03  0.00000000000E+00 0.  1.
    9000010    2    1    2  502    0  0.13092400536E+03  0.56345284906E+02 -0.18044180742E+02  0.10335317371E+04  0.10234971289E+04 0.  0.
        -13    1    3    3    0    0 -0.82962641751E+02 -0.42694718809E+03 -0.19436777587E+03  0.47638801917E+03  0.10566000000E+00 0.  1.
         13    1    1    2    0    0  0.13117503221E+03 -0.20392680289E+02  0.57226048573E+02  0.14455996086E+03  0.10566000000E+00 0. -1.
          2    1    1    2  501    0 -0.26209903757E+03 -0.35952604617E+02  0.84203899922E+02  0.27763067560E+03  0.00000000000E+00 0.  1.
          4    1    3    3  502    0  0.21388664712E+03  0.48329247300E+03  0.17632359513E+03  0.55714371797E+03  0.00000000000E+00 0.  1.
</event>
<event>
 7    1  0.5696597E-006  0.1016483E+04  0.7818608E-02  0.9213632E-01
          2   -1    0    0  501    0  0.00000000000E+00  0.00000000000E+00  0.74677968685E+03  0.74677968685E+03  0.00000000000E+00 0. -1.
         -4   -1    0    0    0  501 -0.00000000000E+00 -0.00000000000E+00 -0.54197007170E+03  0.54197007170E+03  0.00000000000E+00 0. -1.
   -9000010    2    1    2    0  502  0.76456745641E+02 -0.11488047621E+03  0.27092999812E+03  0.10487702370E+04  0.10037294398E+04 0.  0.
        -13    1    1    2    0    0 -0.89320885393E+02  0.13516198580E+03 -0.10587244516E+03  0.19353544580E+03  0.10566000000E+00 0.  1.
         13    1    3    3    0    0 -0.26059079036E+03 -0.10974307725E+03  0.54522531739E+03  0.61418381687E+03  0.10566000000E+00 0. -1.
          2    1    1    2  502    0  0.12864139751E+02 -0.20281509587E+02  0.39752062193E+02  0.46444075740E+02  0.00000000000E+00 0. -1.
         -4    1    3    3    0  502  0.33704753600E+03 -0.51373989553E+01 -0.27429531927E+03  0.43458642013E+03  0.00000000000E+00 0. -1.
</event>
<event>
 7    1  0.5696597E-006  0.1152358E+04  0.7818608E-02  0.8815398E-01
         -4   -1    0    0    0  501 -0.00000000000E+00  0.00000000000E+00  0.14161629786E+04  0.14161629786E+04  0.00000000000E+00 0. -1.
          2   -1    0    0  501    0  0.00000000000E+00 -0.00000000000E+00 -0.84295988763E+03  0.84295988763E+03  0.00000000000E+00 0.  1.
   -9000010    2    1    2    0  502 -0.52614394090E+03  0.16819151221E+03  0.13110195122E+03  0.11610589645E+04  0.10127953229E+04 0.  0.
        -13    1    1    2    0    0  0.52613668008E+03 -0.15752322581E+03  0.67202068207E+03  0.86789698760E+03  0.10566000000E+00 0.  1.
         13    1    3    3    0    0  0.19553805665E+03 -0.25166845257E+03  0.36005343466E+02  0.32073125439E+03  0.10566000000E+00 0. -1.
          2    1    1    2  502    0  0.72608201236E-02 -0.10668286400E+02 -0.22991954235E+03  0.23016691409E+03  0.00000000000E+00 0.  1.
         -4    1    3    3    0  502 -0.72168199755E+03  0.41985996478E+03  0.95096607759E+02  0.84032771013E+03  0.00000000000E+00 0. -1.
</event>
<event>
 7    1  0.5696597E-006  0.1319151E+04  0.7818608E-02  0.8665075E-01
          4   -1    0    0  501    0 -0.00000000000E+00  0.00000000000E+00  0.25631107996E+04  0.25631107996E+04  0.00000000000E+00 0.  1.
          2   -1    0    0  502    0  0.00000000000E+00 -0.00000000000E+00 -0.12935923676E+04  0.12935923676E+04  0.00000000000E+00 0. -1.
    9000010    2    1    2  502    0 -0.10728466667E+03 -0.12039135604E+04  0.12116863508E+04  0.19818899261E+04  0.99939281860E+03 0.  0.
        -13    1    3    3    0    0  0.92497072696E+02  0.14874449584E+03  0.26933139987E+03  0.32127876932E+03  0.10566000000E+00 0.  1.
         13    1    1    2    0    0 -0.42138904388E+03  0.55699626991E+03  0.56422239586E+03  0.89786440744E+03  0.10566000000E+00 0. -1.
          2    1    1    2  501    0  0.52867371056E+03  0.64691729047E+03 -0.50639031460E+03  0.97694883370E+03  0.00000000000E+00 0. -1.
          4    1    3    3  502    0 -0.19978173937E+03 -0.13526580562E+04  0.94235495092E+03  0.16606111568E+04  0.00000000000E+00 0.  1.
</event>
<event>
 7    1  0.5696597E-006  0.1019636E+04  0.7818608E-02  0.9154235E-01
         -4   -1    0    0    0  502 -0.00000000000E+00  0.00000000000E+00  0.16194024325E+04  0.16194024325E+04  0.00000000000E+00 0. -1.
         -2   -1    0    0    0  501  0.00000000000E+00 -0.00000000000E+00 -0.95460850974E+03  0.95460850974E+03  0.00000000000E+00 0. -1.
   -9000010    2    1    2    0  501  0.97947262617E+02 -0.15742995132E+03  0.67752276423E+03  0.12218583310E+04  0.99976138609E+03 0.  0.
        -13    1    1    2    0    0 -0.20700316017E+02  0.20112345966E+03  0.65143274909E+03  0.68208781462E+03  0.10566000000E+00 0.  1.
         13    1    3    3    0    0 -0.42026852629E+03  0.82384360529E+02  0.40384614608E+03  0.58864636066E+03  0.10566000000E+00 0. -1.
         -2    1    1    2    0  502 -0.77246946600E+02 -0.43693508339E+02 -0.66416159052E+03  0.67006479668E+03  0.00000000000E+00 0. -1.
         -4    1    3    3    0  501  0.51821578891E+03 -0.23981431185E+03  0.27367661815E+03  0.63321197033E+03  0.00000000000E+00 0. -1.
</event>
<event>
 7    1  0.5696597E-006  0.1180520E+04  0.7818608E-02  0.9093652E-01
          2   -1    0    0  502    0  0.00000000000E+00  0.00000000000E+00  0.13471558599E+04  0.13471558599E+04  0.00000000000E+00 0.  1.
          4   -1    0    0  501    0 -0.00000000000E+00 -0.00000000000E+00 -0.13267171459E+04  0.13267171459E+04  0.00000000000E+00 0.  1.
    9000010    2    1    2  502    0  0.60691956795E+02  0.18275376283E+03 -0.56952810416E+03  0.12968183416E+04  0.11490400769E+04 0.  0.
        -13    1    3    3    0    0 -0.32466134432E+03  0.42686511641E+03 -0.64026592574E+03  0.83520014544E+03  0.10566000000E+00 0.  1.
         13    1    1    2    0    0  0.16202077242E+03 -0.24550935246E+02 -0.35628182312E+03  0.39216097175E+03  0.10566000000E+00 0. -1.
          2    1    1    2  501    0 -0.22271272922E+03 -0.15820282759E+03  0.94624864122E+03  0.98489369244E+03  0.00000000000E+00 0.  1.
          4    1    3    3  502    0  0.38535330111E+03 -0.24411135358E+03  0.70737821580E+02  0.46161819616E+03  0.00000000000E+00 0.  1.
</event>
<event>
 7    1  0.5696597E-006  0.9791309E+03  0.7818608E-02  0.9229118E-01
         -4   -1    0    0    0  501 -0.00000000000E+00  0.00000000000E+00  0.16233135523E+03  0.16233135523E+03  0.00000000000E+00 0. -1.
          2   -1    0    0  501    0  0.00000000000E+00 -0.00000000000E+00 -0.29310873480E+04  0.29310873480E+04  0.00000000000E+00 0. -1.
   -9000010    2    1    2    0  502  0.25813081254E+01  0.13462821109E+03 -0.21038966178E+04  0.23177356346E+04  0.96300886575E+03 0.  0.
        -13    1    1    2    0    0 -0.16632495405E+03 -0.30965746811E+02 -0.15202446014E+03  0.22745178711E+03  0.10566000000E+00 0.  1.
         13    1    3    3    0    0 -0.22322906628E+03 -0.28195707173E+03 -0.35327309803E+03  0.50411595817E+03  0.10566000000E+00 0. -1.
          2    1    1    2  502    0  0.16374364592E+03 -0.10366246428E+03 -0.51283491492E+03  0.54823128153E+03  0.00000000000E+00 0. -1.
         -4    1    3    3    0  502  0.22581037440E+03  0.41658528282E+03 -0.17506235197E+04  0.18136196765E+04  0.00000000000E+00 0. -1.
</event>
<event>
 7    1  0.5696597E-006  0.1139749E+04  0.7818608E-02  0.9160319E-01
          4   -1    0    0  501    0 -0.00000000000E+00  0.00000000000E+00  0.63945353804E+03  0.63945353804E+03  0.00000000000E+00 0.  1.
          2   -1    0    0  502    0  0.00000000000E+00 -0.00000000000E+00 -0.23446096362E+04  0.23446096362E+04  0.00000000000E+00 0.  1.
    9000010    2    1    2  502    0 -0.27994784590E+03  0.37545309825E+03 -0.74722327525E+02  0.10988591713E+04  0.99124781301E+03 0.  0.
        -13    1    3    3    0    0  0.30503042874E+03  0.93569114628E+02 -0.27299560077E+03  0.41991112259E+03  0.10566000000E+00 0.  1.
         13    1    1    2    0    0  0.26642680730E+02  0.13751079990E+03  0.17155882511E+02  0.14111480431E+03  0.10566000000E+00 0. -1.
          2    1    1    2  501    0  0.25330516517E+03 -0.51296389815E+03 -0.16475896532E+04  0.17440891986E+04  0.00000000000E+00 0.  1.
          4    1    3    3  502    0 -0.58497827464E+03  0.28188398363E+03  0.19827327325E+03  0.67894804875E+03  0.00000000000E+00 0.  1.
</event>
<event>
 7    1  0.5696597E-006  0.1021250E+04  0.7818608E-02  0.9398450E-01
         -4   -1    0    0    0  501 -0.00000000000E+00  0.00000000000E+00  0.11917381123E+04  0.11917381123E+04  0.00000000000E+00 0. -1.
          2   -1    0    0  501    0  0.00000000000E+00 -0.00000000000E+00 -0.11111681057E+04  0.11111681057E+04  0.00000000000E+00 0. -1.
   -9000010    2    1    2    0  502  0.79592619605E+02 -0.74104638708E+02  0.42111066611E+03  0.11072171642E+04  0.10182186273E+04 0.  0.
        -13    1    1    2    0    0 -0.48486525073E+01  0.78473330381E+02  0.42211112281E+03  0.42937091678E+03  0.10566000000E+00 0.  1.
         13    1    3    3    0    0 -0.30207344196E+03 -0.21488206537E+03  0.56496667604E+03  0.67572925240E+03  0.10566000000E+00 0. -1.
          2    1    1    2  502    0 -0.74743967098E+02 -0.43686916737E+01 -0.76265178232E+03  0.76631813704E+03  0.00000000000E+00 0. -1.
         -4    1    3    3    0  502  0.38166606157E+03  0.14077742666E+03 -0.14385600993E+03  0.43148791177E+03  0.00000000000E+00 0. -1.
</event>
<event>
 7    1  0.5696597E-006  0.1075279E+04  0.7818608E-02  0.8943774E-01
         -4   -1    0    0    0  501 -0.00000000000E+00  0.00000000000E+00  0.70890003438E+03  0.70890003438E+03  0.00000000000E+00 0. -1.
          2   -1    0    0  501    0  0.00000000000E+00 -0.00000000000E+00 -0.15320735060E+04  0.15320735060E+04  0.00000000000E+00 0. -1.
   -9000010    2    1    2    0  502  0.80411367546E+02  0.42884170433E+03  0.67385199122E+01  0.10905374421E+04  0.99942749095E+03 0.  0.
        -13    1    1    2    0    0  0.20663101270E+01 -0.38201641613E+03 -0.74656101355E+02  0.38924845081E+03  0.10566000000E+00 0.  1.
         13    1    3    3    0    0 -0.27060410057E+03 -0.15474157865E+03 -0.21000439810E+03  0.37586353081E+03  0.10566000000E+00 0. -1.
          2    1    1    2  502    0 -0.82477677673E+02 -0.46825288205E+02 -0.75525589018E+03  0.76118764742E+03  0.00000000000E+00 0. -1.
         -4    1    3    3    0  502  0.35101546812E+03  0.58358328298E+03  0.21674291801E+03  0.71467391134E+03  0.00000000000E+00 0. -1.
</event>
<event>
 7    1  0.5696597E-006  0.1033305E+04  0.7818608E-02  0.9068121E-01
          2   -1    0    0  501    0  0.00000000000E+00  0.00000000000E+00  0.10199956446E+04  0.10199956446E+04  0.00000000000E+00 0. -1.
         -4   -1    0    0    0  501 -0.00000000000E+00 -0.00000000000E+00 -0.55878400334E+03  0.55878400334E+03  0.00000000000E+00 0. -1.
   -9000010    2    1    2    0  502  0.32865576049E+03  0.98851924258E+02  0.28024091231E+03  0.10912789696E+04  0.99728055673E+03 0.  0.
        -13    1    1    2    0    0 -0.17026421210E+03 -0.19966210130E+03  0.80029748035E+02  0.27433488359E+03  0.10566000000E+00 0.  1.
         13    1    3    3    0    0  0.59540393866E+03  0.24649760699E+03  0.40581658146E+03  0.76154712880E+03  0.10566000000E+00 0. -1.
          2    1    1    2  502    0 -0.15839154838E+03  0.10081017705E+03  0.10094098089E+03  0.21316579467E+03  0.00000000000E+00 0. -1.
         -4    1    3    3    0  502 -0.26674817817E+03 -0.14764568273E+03 -0.12557566916E+03  0.32973184085E+03  0.00000000000E+00 0. -1.
</event>
<event>
 7    1  0.5696597E-006  0.1082387E+04  0.7818608E-02  0.8955889E-01
          2   -1    0    0  502    0  0.00000000000E+00  0.00000000000E+00  0.26309000997E+04  0.26309000997E+04  0.00000000000E+00 0.  1.
          4   -1    0    0  501    0 -0.00000000000E+00 -0.00000000000E+00 -0.35535370872E+03  0.35535370872E+03  0.00000000000E+00 0.  1.
    9000010    2    1    2  502    0  0.37717809598E+03  0.27871122029E+02  0.14388847122E+04  0.18022216841E+04  0.10171399451E+04 0.  0.
        -13    1    3    3    0    0  0.37403123064E+03  0.40485194080E+03  0.35741041933E+03  0.65692212207E+03  0.10566000000E+00 0.  1.
         13    1    1    2    0    0 -0.36477221130E+03  0.64293702449E+02  0.29540484845E+02  0.37157112068E+03  0.10566000000E+00 0. -1.
          2    1    1    2  501    0 -0.12405884681E+02 -0.92164824478E+02  0.80712119391E+03  0.81246100368E+03  0.00000000000E+00 0.  1.
          4    1    3    3  502    0  0.31468653413E+01 -0.37698081877E+03  0.10814742929E+04  0.11452995620E+04  0.00000000000E+00 0.  1.
</event>
<event>
 7    1  0.5696597E-006  0.1003470E+04  0.7818608E-02  0.9203187E-01
         -4   -1    0    0    0  501 -0.00000000000E+00  0.00000000000E+00  0.87855303165E+03  0.87855303165E+03  0.00000000000E+00 0. -1.
          1   -1    0    0  501    0  0.00000000000E+00 -0.00000000000E+00 -0.86079876388E+03  0.86079876388E+03  0.00000000000E+00 0. -1.
   -9000010    2    1    2    0  502  0.16641956357E+03  0.32308946795E+01 -0.45135892155E+03  0.10991843517E+04  0.98831950967E+03 0.  0.
        -13    1    1    2    0    0 -0.17196763036E+03  0.25753052156E+02  0.53790551344E+03  0.56531269059E+03  0.10566000000E+00 0.  1.
         13    1    3    3    0    0 -0.39439245789E+03  0.10431888002E+03 -0.30914191632E+03  0.51185601019E+03  0.10566000000E+00 0. -1.
          1    1    1    2  502    0  0.55480667896E+01 -0.28983946835E+02 -0.68792324124E+02  0.74854753206E+02  0.00000000000E+00 0. -1.
         -4    1    3    3    0  502  0.56081202147E+03 -0.10108798534E+03 -0.14221700522E+03  0.58732834154E+03  0.00000000000E+00 0. -1.
</event>
<event>
 7    1  0.5696597E-006  0.1348131E+04  0.7818608E-02  0.8609339E-01
          2   -1    0    0  502    0  0.00000000000E+00  0.00000000000E+00  0.18490495318E+04  0.18490495318E+04  0.00000000000E+00 0.  1.
          4   -1    0    0  501    0 -0.00000000000E+00 -0.00000000000E+00 -0.23449351118E+04  0.23449351118E+04  0.00000000000E+00 0.  1.
    9000010    2    1    2  502    0  0.69182867356E+02 -0.77335913988E+03 -0.14235498668E+04  0.19359678071E+04  0.10576419519E+04 0.  0.
        -13    1    3    3    0    0 -0.28128298185E+03 -0.35384004502E+03 -0.46526377016E+02  0.45440907590E+03  0.10566000000E+00 0.  1.
         13    1    1    2    0    0 -0.23157417867E+03  0.88697936800E+03 -0.33791821888E+03  0.97700958711E+03  0.10566000000E+00 0. -1.
          2    1    1    2  501    0  0.16239131132E+03 -0.11362022812E+03  0.12655825057E+04  0.12810072494E+04  0.00000000000E+00 0.  1.
          4    1    3    3  502    0  0.35046584921E+03 -0.41951909485E+03 -0.13770234898E+04  0.14815587312E+04  0.00000000000E+00 0.  1.
</event>
<event>
 7    1  0.5696597E-006  0.9802726E+03  0.7818608E-02  0.9137820E-01
          2   -1    0    0  502    0  0.00000000000E+00  0.00000000000E+00  0.77460301064E+03  0.77460301064E+03  0.00000000000E+00 0.  1.
          4   -1    0    0  501    0 -0.00000000000E+00 -0.00000000000E+00 -0.14741574458E+04  0.14741574458E+04  0.00000000000E+00 0.  1.
    9000010    2    1    2  502    0 -0.11788140647E+03  0.31132560751E+03 -0.16125866939E+03  0.95186877364E+03  0.87705766281E+03 0.  0.
        -13    1    3    3    0    0 -0.10118652373E+03 -0.26831145503E+03 -0.23044493125E+03  0.36787854923E+03  0.10566000000E+00 0.  1.
         13    1    1    2    0    0  0.17788976767E+03  0.16175580937E+03 -0.74077181590E+03  0.77881487255E+03  0.10566000000E+00 0. -1.
          2    1    1    2  501    0 -0.60008361204E+02 -0.47308141687E+03  0.20247605015E+03  0.51807681022E+03  0.00000000000E+00 0.  1.
          4    1    3    3  502    0 -0.16694882740E+02  0.57963706253E+03  0.69186261864E+02  0.58399022441E+03  0.00000000000E+00 0.  1.
</event>
<event>
 7    1  0.5696597E-006  0.1057754E+04  0.7818608E-02  0.8988085E-01
          4   -1    0    0  501    0  0.00000000000E+00  0.00000000000E+00  0.11720244738E+04  0.11720244738E+04  0.00000000000E+00 0. -1.
         -4   -1    0    0    0  501 -0.00000000000E+00 -0.00000000000E+00 -0.59493724858E+03  0.59493724858E+03  0.00000000000E+00 0. -1.
   -9000010    2    1    2    0  502 -0.35954634058E+02 -0.39142703601E+03  0.25016394099E+03  0.11022395026E+04  0.99892044900E+03 0.  0.
        -13    1    1    2    0    0  0.59428383528E+02  0.33141009423E+03  0.53330919616E+01  0.33673852818E+03  0.10566000000E+00 0.  1.
         13    1    3    3    0    0 -0.25737612109E+03 -0.65686464162E+03  0.27147394305E+03  0.75591781169E+03  0.10566000000E+00 0. -1.
          4    1    1    2  502    0 -0.23473749470E+02  0.60016941778E+02  0.32159019222E+03  0.32798369158E+03  0.00000000000E+00 0. -1.
         -4    1    3    3    0  502  0.22142148703E+03  0.26543760561E+03 -0.21310002051E+02  0.34632169088E+03  0.00000000000E+00 0. -1.
</event>
<event>
 7    1  0.5696597E-006  0.1012818E+04  0.7818608E-02  0.9293754E-01
         -4   -1    0    0    0  501 -0.00000000000E+00  0.00000000000E+00  0.23952341125E+04  0.23952341125E+04  0.00000000000E+00 0. -1.
          2   -1    0    0  501    0  0.00000000000E+00 -0.00000000000E+00 -0.61332791461E+03  0.61332791461E+03  0.00000000000E+00 0. -1.
   -9000010    2    1    2    0  502  0.41917355155E+02 -0.76784708199E+02  0.20658045917E+04  0.22992925210E+04  0.10057557009E+04 0.  0.
        -13    1    1    2    0    0 -0.26580920334E+02  0.12208350337E+03  0.19303610651E+03  0.22994320320E+03  0.10566000000E+00 0.  1.
         13    1    3    3    0    0 -0.43368867555E+02 -0.45209072403E+03  0.45398733017E+03  0.64216149724E+03  0.10566000000E+00 0. -1.
          2    1    1    2  502    0 -0.15336434821E+02 -0.45298795170E+02 -0.47693450031E+03  0.47932630291E+03  0.00000000000E+00 0. -1.
         -4    1    3    3    0  502  0.85286222710E+02  0.37530601583E+03  0.16118172615E+04  0.16571310237E+04  0.00000000000E+00 0. -1.
</event>
<event>
 7    1  0.5696597E-006  0.1252156E+04  0.7818608E-02  0.8792993E-01
          4   -1    0    0  501    0 -0.00000000000E+00  0.00000000000E+00  0.18407287645E+04  0.18407287645E+04  0.00000000000E+00 0.  1.
          2   -1    0    0  502    0  0.00000000000E+00 -0.00000000000E+00 -0.91320086675E+03  0.91320086675E+03  0.00000000000E+00 0.  1.
    9000010    2    1    2  502    0  0.35579707531E+03  0.36759531055E+03  0.70179352394E+03  0.13186610545E+04  0.99228773820E+03 0.  0.
        -13    1    3    3    0    0 -0.32836721929E+03  0.13631371773E+03  0.77165702483E+02  0.36381453675E+03  0.10566000000E+00 0.  1.
         13    1    1    2    0    0 -0.66808979298E+02  0.46629260143E+03  0.28530161940E+03  0.55071703719E+03  0.10566000000E+00 0. -1.
          2    1    1    2  501    0 -0.28898809601E+03 -0.83388791198E+03 -0.59567245563E+02  0.88455153955E+03  0.00000000000E+00 0.  1.
          4    1    3    3  502    0  0.68416429461E+03  0.23128159282E+03  0.62462782146E+03  0.95484651779E+03  0.00000000000E+00 0.  1.
</event>
<event>
 7    1  0.5696597E-006  0.1270823E+04  0.7818608E-02  0.9245292E-01
         -4   -1    0    0    0  502 -0.00000000000E+00  0.00000000000E+00  0.35625457073E+04  0.35625457073E+04  0.00000000000E+00 0. -1.
         -2   -1    0    0    0  501  0.00000000000E+00 -0.00000000000E+00 -0.96846647945E+03  0.96846647945E+03  0.00000000000E+00 0. -1.
   -9000010    2    1    2    0  501  0.39884864827E+03  0.54972346011E+03  0.30289492871E+04  0.32734998313E+04  0.10392262675E+04 0.  0.
        -13    1    1    2    0    0  0.71328616436E+02  0.14136936858E+02  0.24581473869E+03  0.25634453657E+03  0.10566000000E+00 0.  1.
         13    1    3    3    0    0 -0.25483917665E+03  0.44277982376E+03  0.18709208770E+04  0.19394179327E+04  0.10566000000E+00 0. -1.
         -2    1    1    2    0  502 -0.47017726471E+03 -0.56386039697E+03 -0.68068479789E+03  0.10011678189E+04  0.00000000000E+00 0. -1.
         -4    1    3    3    0  501  0.65368782492E+03  0.10694363636E+03  0.11580284101E+04  0.13340818987E+04  0.00000000000E+00 0. -1.
</event>
<event>
 7    1  0.5696597E-006  0.1387034E+04  0.7818608E-02  0.8711595E-01
          2   -1    0    0  502    0  0.00000000000E+00  0.00000000000E+00  0.32477479894E+04  0.32477479894E+04  0.00000000000E+00 0.  1.
          4   -1    0    0  501    0 -0.00000000000E+00 -0.00000000000E+00 -0.54807372955E+03  0.54807372955E+03  0.00000000000E+00 0.  1.
    9000010    2    1    2  502    0 -0.42578072875E+03 -0.28917390558E+03  0.61616624732E+03  0.15255867949E+04  0.12972445597E+04 0.  0.
        -13    1    3    3    0    0  0.16926430631E+03 -0.36549654566E+03 -0.24843157337E+03  0.47324030692E+03  0.10566000000E+00 0.  1.
         13    1    1    2    0    0  0.40928056034E+03  0.24618317043E+03  0.52003128786E+03  0.70608022349E+03  0.10566000000E+00 0. -1.
          2    1    1    2  501    0  0.16500168406E+02  0.42990735148E+02  0.15634767246E+04  0.15641547006E+04  0.00000000000E+00 0.  1.
          4    1    3    3  502    0 -0.59504503506E+03  0.76322640079E+02  0.86459782069E+03  0.10523464879E+04  0.00000000000E+00 0.  1.
</event>
<event>
 7    1  0.5696597E-006  0.1012916E+04  0.7818608E-02  0.9084248E-01
         -4   -1    0    0    0  501 -0.00000000000E+00  0.00000000000E+00  0.22280249249E+04  0.22280249249E+04  0.00000000000E+00 0. -1.
          1   -1    0    0  501    0  0.00000000000E+00 -0.00000000000E+00 -0.11128923091E+04  0.11128923091E+04  0.00000000000E+00 0. -1.
   -9000010    2    1    2    0  502  0.26322359379E+03 -0.46958918112E+02  0.13463560795E+04  0.16845337046E+04  0.97646674752E+03 0.  0.
        -13    1    1    2    0    0 -0.26799961263E+03  0.29736311276E+02  0.68698122486E+03  0.73800491533E+03  0.10566000000E+00 0.  1.
         13    1    3    3    0    0  0.61211594114E+03 -0.13758310267E+03  0.10242072427E+04  0.12010893067E+04  0.10566000000E+00 0. -1.
          1    1    1    2  502    0  0.47760188335E+01  0.17222606836E+02 -0.91820468860E+03  0.91837861404E+03  0.00000000000E+00 0. -1.
         -4    1    3    3    0  502 -0.34889234734E+03  0.90624184558E+02  0.32214883681E+03  0.48344439796E+03  0.00000000000E+00 0. -1.
</event>
<event>
 7    1  0.5696597E-006  0.9818166E+03  0.7818608E-02  0.9498189E-01
         -4   -1    0    0    0  501 -0.00000000000E+00  0.00000000000E+00  0.30510263528E+03  0.30510263528E+03  0.00000000000E+00 0. -1.
          2   -1    0    0  501    0  0.00000000000E+00 -0.00000000000E+00 -0.25520158428E+04  0.25520158428E+04  0.00000000000E+00 0.  1.
   -9000010    2    1    2    0  502 -0.13612147061E+00 -0.14055154786E+03 -0.81103306539E+03  0.12774237358E+04  0.97687359035E+03 0.  0.
        -13    1    1    2    0    0 -0.36359512812E+02  0.49413545608E+02  0.56909465829E+02  0.83680410650E+02  0.10566000000E+00 0.  1.
         13    1    3    3    0    0  0.25907103776E+03 -0.48187676674E+03 -0.54906837758E+03  0.77511232434E+03  0.10566000000E+00 0. -1.
          2    1    1    2  502    0  0.36495634283E+02  0.91138002256E+02 -0.14927896080E+04  0.14960143317E+04  0.00000000000E+00 0.  1.
         -4    1    3    3    0  502 -0.25920715923E+03  0.34132521887E+03 -0.26196468781E+03  0.50231141147E+03  0.00000000000E+00 0. -1.
</event>
<event>
 7    1  0.5696597E-006  0.1054359E+04  0.7818608E-02  0.9005050E-01
          2   -1    0    0  501    0  0.00000000000E+00  0.00000000000E+00  0.17501183609E+04  0.17501183609E+04  0.00000000000E+00 0.  1.
         -4   -1    0    0    0  501 -0.00000000000E+00 -0.00000000000E+00 -0.10388470987E+04  0.10388470987E+04  0.00000000000E+00 0. -1.
   -9000010    2    1    2    0  502 -0.28400500956E+03  0.18251969535E+03 -0.45890108347E+03  0.11526986407E+04  0.10020736835E+04 0.  0.
        -13    1    1    2    0    0  0.26010555145E+03 -0.19477128672E+03 -0.11956760443E+03  0.34624727467E+03  0.10566000000E+00 0.  1.
         13    1    3    3    0    0 -0.63961082975E+03  0.51837067554E+02 -0.13841060548E+03  0.65646523288E+03  0.10566000000E+00 0. -1.
          2    1    1    2  502    0  0.23899458112E+02  0.12251591365E+02  0.12897399501E+04  0.12900195442E+04  0.00000000000E+00 0.  1.
         -4    1    3    3    0  502  0.35560582018E+03  0.13068262780E+03 -0.32049047799E+03  0.49623340782E+03  0.00000000000E+00 0. -1.
</event>
<event>
 7    1  0.5696597E-006  0.1614135E+04  0.7818608E-02  0.8705629E-01
          4   -1    0    0  501    0  0.00000000000E+00  0.00000000000E+00  0.27323968251E+04  0.27323968251E+04  0.00000000000E+00 0.  1.
          4   -1    0    0  502    0 -0.00000000000E+00 -0.00000000000E+00 -0.15583943542E+04  0.15583943542E+04  0.00000000000E+00 0.  1.
    9000010    2    1    2  501    0  0.40167556465E+03 -0.11564853707E+04  0.80733877489E+03  0.17761304073E+04  0.10020187895E+04 0.  0.
        -13    1    3    3    0    0 -0.59983705535E+02 -0.53658773107E+03  0.84446621018E+03  0.10023211209E+04  0.10566000000E+00 0.  1.
         13    1    1    2    0    0 -0.28536291523E+03 -0.14401187900E+03 -0.73807609855E+03  0.80431819145E+03  0.10566000000E+00 0. -1.
          4    1    3    3  501    0  0.46165927019E+03 -0.61989763961E+03 -0.37127435293E+02  0.77380928645E+03  0.00000000000E+00 0.  1.
          4    1    1    2  502    0 -0.11631264942E+03  0.13004972497E+04  0.11047397946E+04  0.17103425805E+04  0.00000000000E+00 0.  1.
</event>
<event>
 7    1  0.5696597E-006  0.1025823E+04  0.7818608E-02  0.9263642E-01
          2   -1    0    0  501    0  0.00000000000E+00  0.00000000000E+00  0.10860565880E+04  0.10860565880E+04  0.00000000000E+00 0. -1.
         -4   -1    0    0    0  501 -0.00000000000E+00 -0.00000000000E+00 -0.10631975998E+04  0.10631975998E+04  0.00000000000E+00 0. -1.
   -9000010    2    1    2    0  502  0.96667587049E+02 -0.31620290176E+02  0.20164725841E+03  0.10424541562E+04  0.10176957236E+04 0.  0.
        -13    1    1    2    0    0 -0.12869136224E+03 -0.11935839491E+02 -0.63468424960E+03  0.64770984154E+03  0.10566000000E+00 0.  1.
         13    1    3    3    0    0  0.40361334094E+03  0.29621006273E+03 -0.87628631533E+02  0.50825477713E+03  0.10566000000E+00 0. -1.
          2    1    1    2  502    0  0.32023775194E+02  0.43556129667E+02  0.45589597936E+03  0.45909019006E+03  0.00000000000E+00 0. -1.
         -4    1    3    3    0  502 -0.30694575389E+03 -0.32783035291E+03  0.28927588994E+03  0.53419937909E+03  0.00000000000E+00 0. -1.
</event>
<event>
 7    1  0.5696597E-006  0.9678864E+03  0.7818608E-02  0.9272861E-01
          4   -1    0    0  501    0 -0.00000000000E+00  0.00000000000E+00  0.16446937171E+04  0.16446937171E+04  0.00000000000E+00 0.  1.
          2   -1    0    0  502    0  0.00000000000E+00 -0.00000000000E+00 -0.65573936355E+03  0.65573936355E+03  0.00000000000E+00 0.  1.
    9000010    2    1    2  502    0 -0.12580709625E+02  0.14702735546E+03  0.14022844561E+04  0.17038311822E+04  0.95648506729E+03 0.  0.
        -13    1    3    3    0    0  0.81396302446E+02 -0.39974207844E+03  0.68138936067E+03  0.79417287748E+03  0.10566000000E+00 0.  1.
         13    1    1    2    0    0  0.20311609112E+01 -0.14844026666E+03  0.31404825698E+02  0.15173962113E+03  0.10566000000E+00 0. -1.
          2    1    1    2  501    0  0.10549548714E+02  0.14129111952E+01 -0.44473492832E+03  0.44486227730E+03  0.00000000000E+00 0.  1.
          4    1    3    3  502    0 -0.93977012071E+02  0.54676943390E+03  0.72089509548E+03  0.90965830471E+03  0.00000000000E+00 0.  1.
</event>
<event>
 7    1  0.5696597E-006  0.1004734E+04  0.7818608E-02  0.9357591E-01
          1   -1    0    0  501    0  0.00000000000E+00  0.00000000000E+00  0.11788586394E+04  0.11788586394E+04  0.00000000000E+00 0.  1.
         -4   -1    0    0    0  501 -0.00000000000E+00 -0.00000000000E+00 -0.10193869035E+04  0.10193869035E+04  0.00000000000E+00 0. -1.
   -9000010    2    1    2    0  502 -0.29447576695E+01  0.86852710175E+02 -0.10460698388E+03  0.10093264019E+04  0.10001225423E+04 0.  0.
        -13    1    1    2    0    0  0.11660277246E+02 -0.95546779551E+02 -0.45735807093E+03  0.46737732653E+03  0.10566000000E+00 0.  1.
         13    1    3    3    0    0 -0.11800311788E+03 -0.27204196344E+03 -0.42256747782E+03  0.51623139209E+03  0.10566000000E+00 0. -1.
          1    1    1    2  502    0 -0.87155195761E+01  0.86940693757E+01  0.72143679070E+03  0.72154181451E+03  0.00000000000E+00 0.  1.
         -4    1    3    3    0  502  0.11505836021E+03  0.35889467362E+03  0.31796049394E+03  0.49309500982E+03  0.00000000000E+00 0. -1.
</event>
<event>
 7    1  0.5696597E-006  0.1135458E+04  0.7818608E-02  0.8833207E-01
          2   -1    0    0  502    0  0.00000000000E+00  0.00000000000E+00  0.13161439490E+04  0.13161439490E+04  0.00000000000E+00 0. -1.
          4   -1    0    0  501    0 -0.00000000000E+00 -0.00000000000E+00 -0.15207461257E+04  0.15207461257E+04  0.00000000000E+00 0.  1.
    9000010    2    1    2  502    0  0.34032080283E+03  0.41511044845E+03 -0.46716324329E+03  0.12294071619E+04  0.10025295709E+04 0.  0.
        -13    1    3    3    0    0  0.59549466939E+03  0.18311521028E+02 -0.46804888115E+03  0.75764040243E+03  0.10566000000E+00 0.  1.
         13    1    1    2    0    0 -0.32672276308E+03 -0.42001142553E+03 -0.56711903814E+03  0.77767690983E+03  0.10566000000E+00 0. -1.
          2    1    1    2  501    0 -0.13598039746E+02  0.49009770826E+01  0.82968010480E+03  0.82980600297E+03  0.00000000000E+00 0. -1.
          4    1    3    3  502    0 -0.25517386656E+03  0.39679892742E+03  0.88563785721E+00  0.47176675946E+03  0.00000000000E+00 0.  1.
</event>
<event>
 7    1  0.5696597E-006  0.1055711E+04  0.7818608E-02  0.9300481E-01
         -4   -1    0    0    0  501 -0.00000000000E+00  0.00000000000E+00  0.63612067683E+03  0.63612067683E+03  0.00000000000E+00 0. -1.
          2   -1    0    0  501    0  0.00000000000E+00 -0.00000000000E+00 -0.22499102019E+04  0.22499102019E+04  0.00000000000E+00 0. -1.
   -9000010    2    1    2    0  502 -0.36895162161E+03  0.17422386489E+03  0.57029307401E+02  0.10872689728E+04  0.10061919415E+04 0.  0.
        -13    1    1    2    0    0  0.10275867955E+03 -0.15133649314E+01 -0.48937510207E+01  0.10288632785E+03  0.10566000000E+00 0.  1.
         13    1    3    3    0    0 -0.12306360542E+03 -0.78366799741E+02 -0.44812602978E+03  0.47127800289E+03  0.10566000000E+00 0. -1.
          2    1    1    2  502    0  0.26619294206E+03 -0.17271049996E+03 -0.16659250815E+04  0.16958755781E+04  0.00000000000E+00 0. -1.
         -4    1    3    3    0  502 -0.24588801619E+03  0.25259066464E+03  0.50515533718E+03  0.61599096994E+03  0.00000000000E+00 0. -1.
</event>
<event>
 7    1  0.5696597E-006  0.1022067E+04  0.7818608E-02  0.9216243E-01
          1   -1    0    0  501    0  0.00000000000E+00  0.00000000000E+00  0.79367736156E+03  0.79367736156E+03  0.00000000000E+00 0. -1.
         -4   -1    0    0    0  501 -0.00000000000E+00 -0.00000000000E+00 -0.80029211248E+03  0.80029211248E+03  0.00000000000E+00 0. -1.
   -9000010    2    1    2    0  502  0.13530553789E+03  0.61584120787E+02 -0.11764556671E+03  0.10276812000E+04  0.10100435521E+04 0.  0.
        -13    1    1    2    0    0 -0.15346691068E+03 -0.32949773442E+02 -0.19953661087E+03  0.25387526561E+03  0.10566000000E+00 0.  1.
         13    1    3    3    0    0  0.11865959044E+03 -0.40608154078E+03  0.19402138858E+03  0.46543165616E+03  0.10566000000E+00 0. -1.
          1    1    1    2  502    0  0.18161372795E+02 -0.28634347345E+02  0.31056742666E+03  0.31241300839E+03  0.00000000000E+00 0. -1.
         -4    1    3    3    0  502  0.16645947451E+02  0.46766566157E+03 -0.31166695529E+03  0.56224954388E+03  0.00000000000E+00 0. -1.
</event>
<event>
 7    1  0.5696597E-006  0.9719604E+03  0.7818608E-02  0.9331787E-01
          2   -1    0    0  502    0  0.00000000000E+00  0.00000000000E+00  0.74144252370E+03  0.74144252370E+03  0.00000000000E+00 0.  1.
          4   -1    0    0  501    0 -0.00000000000E+00 -0.00000000000E+00 -0.76352903715E+03  0.76352903715E+03  0.00000000000E+00 0.  1.
    9000010    2    1    2  502    0  0.51854422082E+02 -0.33284057309E+02  0.33408588841E+02  0.96743441176E+03  0.96489196167E+03 0.  0.
        -13    1    3    3    0    0 -0.10638572155E+03  0.34165136382E+03 -0.27952583940E+03  0.45406858756E+03  0.10566000000E+00 0.  1.
         13    1    1    2    0    0 -0.11670787233E+03 -0.22010588899E+02 -0.27636019140E+03  0.30079920220E+03  0.10566000000E+00 0. -1.
          2    1    1    2  501    0  0.64853450251E+02  0.55294646208E+02  0.22086508911E+03  0.23673794688E+03  0.00000000000E+00 0.  1.
          4    1    3    3  502    0  0.15824014364E+03 -0.37493542113E+03  0.31293442824E+03  0.51336582420E+03  0.00000000000E+00 0.  1.
</event>
<event>
 7    1  0.5696597E-006  0.1182936E+04  0.7818608E-02  0.8888653E-01
          2   -1    0    0  502    0  0.00000000000E+00  0.00000000000E+00  0.96527101075E+03  0.96527101075E+03  0.00000000000E+00 0.  1.
          4   -1    0    0  501    0 -0.00000000000E+00 -0.00000000000E+00 -0.12091952338E+04  0.12091952338E+04  0.00000000000E+00 0.  1.
    9000010    2    1    2  502    0 -0.42417471536E+03  0.27682046616E+03  0.36359461037E+03  0.12838279238E+04  0.11222563601E+04 0.  0.
        -13    1    3    3    0    0  0.31278398559E+03  0.56368794068E+02 -0.15750953551E+03  0.35471189369E+03  0.10566000000E+00 0.  1.
         13    1    1    2    0    0  0.36858873572E+03 -0.27608527027E+01 -0.38759467899E+03  0.53487842054E+03  0.10566000000E+00 0. -1.
          2    1    1    2  501    0  0.55585979639E+02 -0.27405961345E+03 -0.21992415439E+03  0.35575990013E+03  0.00000000000E+00 0.  1.
          4    1    3    3  502    0 -0.73695870095E+03  0.22045167209E+03  0.52110414588E+03  0.92911603015E+03  0.00000000000E+00 0.  1.
</event>
